Generated by trjconv : CNT in water t= 238.00000
33518
    1C        C    1   2.844   2.775   4.748
    1C        C    2   2.897   2.723   4.868
    1C        C    3   2.841   2.776   4.985
    1C        C    4   2.851   2.777   4.263
    1C        C    5   2.905   2.730   4.384
    1C        C    6   2.846   2.773   4.505
    1C        C    7   3.015   2.645   4.629
    1C        C    8   2.899   2.726   4.627
    1C        C    9   3.079   2.610   4.750
    1C        C   10   3.011   2.640   4.870
    1C        C   11   3.182   2.499   4.980
    1C        C   12   3.061   2.569   4.980
    1C        C   13   2.851   2.773   3.774
    1C        C   14   2.902   2.725   3.897
    1C        C   15   2.850   2.776   4.019
    1C        C   16   3.021   2.650   4.141
    1C        C   17   2.907   2.733   4.141
    1C        C   18   3.085   2.621   4.263
    1C        C   19   3.021   2.650   4.386
    1C        C   20   3.212   2.563   4.507
    1C        C   21   3.077   2.607   4.509
    1C        C   22   3.282   2.540   4.628
    1C        C   23   3.210   2.553   4.748
    1C        C   24   3.413   2.485   4.867
    1C        C   25   3.272   2.510   4.869
    1C        C   26   3.491   2.483   4.984
    1C        C   27   2.851   2.767   3.284
    1C        C   28   2.908   2.729   3.407
    1C        C   29   2.851   2.774   3.529
    1C        C   30   3.014   2.640   3.653
    1C        C   31   2.903   2.726   3.651
    1C        C   32   3.077   2.607   3.775
    1C        C   33   3.015   2.640   3.897
    1C        C   34   3.211   2.557   4.019
    1C        C   35   3.079   2.608   4.019
    1C        C   36   3.278   2.537   4.141
    1C        C   37   3.214   2.564   4.264
    1C        C   38   3.418   2.506   4.382
    1C        C   39   3.280   2.537   4.386
    1C        C   40   3.489   2.502   4.504
    1C        C   41   3.419   2.507   4.627
    1C        C   42   3.631   2.481   4.749
    1C        C   43   3.489   2.483   4.748
    1C        C   44   3.708   2.487   4.867
    1C        C   45   3.630   2.486   4.983
    1C        C   46   2.837   2.755   2.797
    1C        C   47   2.897   2.714   2.918
    1C        C   48   2.849   2.769   3.040
    1C        C   49   3.021   2.643   3.164
    1C        C   50   2.904   2.721   3.161
    1C        C   51   3.082   2.609   3.287
    1C        C   52   3.020   2.643   3.409
    1C        C   53   3.209   2.549   3.530
    1C        C   54   3.081   2.608   3.532
    1C        C   55   3.276   2.532   3.653
    1C        C   56   3.211   2.562   3.775
    1C        C   57   3.418   2.510   3.897
    1C        C   58   3.279   2.536   3.897
    1C        C   59   3.489   2.500   4.018
    1C        C   60   3.416   2.505   4.139
    1C        C   61   3.629   2.501   4.261
    1C        C   62   3.487   2.495   4.260
    1C        C   63   3.701   2.505   4.382
    1C        C   64   3.630   2.499   4.504
    1C        C   65   3.836   2.538   4.622
    1C        C   66   3.701   2.497   4.627
    1C        C   67   3.908   2.559   4.741
    1C        C   68   3.844   2.526   4.862
    1C        C   69   4.053   2.581   4.977
    1C        C   70   3.921   2.535   4.979
    1C        C   71   2.824   2.734   2.313
    1C        C   72   2.883   2.691   2.435
    1C        C   73   2.828   2.741   2.555
    1C        C   74   3.007   2.625   2.676
    1C        C   75   2.888   2.702   2.676
    1C        C   76   3.074   2.597   2.797
    1C        C   77   3.017   2.639   2.920
    1C        C   78   3.210   2.551   3.040
    1C        C   79   3.079   2.604   3.041
    1C        C   80   3.279   2.535   3.162
    1C        C   81   3.213   2.556   3.286
    1C        C   82   3.418   2.507   3.404
    1C        C   83   3.279   2.532   3.408
    1C        C   84   3.486   2.500   3.528
    1C        C   85   3.416   2.508   3.650
    1C        C   86   3.626   2.501   3.767
    1C        C   87   3.485   2.502   3.773
    1C        C   88   3.696   2.508   3.890
    1C        C   89   3.630   2.504   4.015
    1C        C   90   3.834   2.552   4.137
    1C        C   91   3.698   2.515   4.138
    1C        C   92   3.902   2.575   4.259
    1C        C   93   3.837   2.545   4.380
    1C        C   94   4.030   2.633   4.501
    1C        C   95   3.905   2.567   4.502
    1C        C   96   4.091   2.670   4.623
    1C        C   97   4.033   2.627   4.744
    1C        C   98   4.192   2.767   4.863
    1C        C   99   4.104   2.654   4.864
    1C        C  100   4.216   2.847   4.975
    1C        C  101   2.828   2.733   2.075
    1C        C  102   2.994   2.594   2.196
    1C        C  103   2.878   2.679   2.194
    1C        C  104   3.067   2.574   2.317
    1C        C  105   3.003   2.617   2.435
    1C        C  106   3.200   2.531   2.555
    1C        C  107   3.071   2.589   2.555
    1C        C  108   3.274   2.520   2.675
    1C        C  109   3.204   2.543   2.796
    1C        C  110   3.415   2.502   2.917
    1C        C  111   3.275   2.526   2.917
    1C        C  112   3.486   2.490   3.038
    1C        C  113   3.416   2.503   3.160
    1C        C  114   3.629   2.491   3.281
    1C        C  115   3.488   2.495   3.282
    1C        C  116   3.698   2.504   3.404
    1C        C  117   3.627   2.502   3.526
    1C        C  118   3.837   2.543   3.648
    1C        C  119   3.700   2.506   3.647
    1C        C  120   3.900   2.570   3.771
    1C        C  121   3.833   2.544   3.893
    1C        C  122   4.025   2.641   4.013
    1C        C  123   3.901   2.573   4.014
    1C        C  124   4.088   2.676   4.135
    1C        C  125   4.028   2.637   4.257
    1C        C  126   4.195   2.768   4.378
    1C        C  127   4.089   2.675   4.379
    1C        C  128   4.246   2.820   4.499
    1C        C  129   4.195   2.766   4.619
    1C        C  130   4.324   2.937   4.739
    1C        C  131   4.239   2.823   4.741
    1C        C  132   4.353   3.008   4.858
    1C        C  133   4.292   2.964   4.976
    1C        C  134   3.175   2.472   2.084
    1C        C  135   3.042   2.516   2.086
    1C        C  136   3.261   2.483   2.194
    1C        C  137   3.199   2.522   2.315
    1C        C  138   3.409   2.474   2.431
    1C        C  139   3.271   2.504   2.436
    1C        C  140   3.485   2.480   2.550
    1C        C  141   3.413   2.496   2.671
    1C        C  142   3.625   2.494   2.794
    1C        C  143   3.484   2.493   2.794
    1C        C  144   3.698   2.502   2.914
    1C        C  145   3.628   2.493   3.036
    1C        C  146   3.834   2.539   3.157
    1C        C  147   3.698   2.500   3.158
    1C        C  148   3.898   2.566   3.279
    1C        C  149   3.834   2.542   3.403
    1C        C  150   4.028   2.629   3.525
    1C        C  151   3.902   2.565   3.525
    1C        C  152   4.085   2.672   3.647
    1C        C  153   4.026   2.633   3.770
    1C        C  154   4.197   2.763   3.889
    1C        C  155   4.083   2.679   3.890
    1C        C  156   4.245   2.815   4.011
    1C        C  157   4.193   2.770   4.134
    1C        C  158   4.332   2.930   4.255
    1C        C  159   4.243   2.820   4.256
    1C        C  160   4.371   2.992   4.377
    1C        C  161   4.329   2.934   4.499
    1C        C  162   4.441   3.118   4.615
    1C        C  163   4.366   2.998   4.619
    1C        C  164   4.464   3.189   4.735
    1C        C  165   4.427   3.128   4.857
    1C        C  166   4.513   3.324   4.974
    1C        C  167   4.480   3.189   4.971
    1C        C  168   3.479   2.440   2.079
    1C        C  169   3.401   2.468   2.192
    1C        C  170   3.622   2.462   2.306
    1C        C  171   3.480   2.462   2.310
    1C        C  172   3.695   2.481   2.426
    1C        C  173   3.626   2.480   2.549
    1C        C  174   3.830   2.541   2.667
    1C        C  175   3.694   2.500   2.671
    1C        C  176   3.898   2.560   2.789
    1C        C  177   3.835   2.537   2.913
    1C        C  178   4.027   2.628   3.036
    1C        C  179   3.902   2.563   3.035
    1C        C  180   4.090   2.663   3.157
    1C        C  181   4.026   2.626   3.278
    1C        C  182   4.197   2.750   3.399
    1C        C  183   4.088   2.660   3.401
    1C        C  184   4.245   2.806   3.520
    1C        C  185   4.197   2.758   3.644
    1C        C  186   4.332   2.922   3.764
    1C        C  187   4.248   2.808   3.766
    1C        C  188   4.369   2.983   3.885
    1C        C  189   4.332   2.927   4.010
    1C        C  190   4.445   3.107   4.128
    1C        C  191   4.373   2.986   4.132
    1C        C  192   4.469   3.177   4.248
    1C        C  193   4.437   3.117   4.371
    1C        C  194   4.502   3.319   4.490
    1C        C  195   4.471   3.181   4.493
    1C        C  196   4.526   3.389   4.610
    1C        C  197   4.513   3.323   4.734
    1C        C  198   4.555   3.537   4.850
    1C        C  199   4.532   3.395   4.855
    1C        C  200   4.592   3.622   4.959
    1C        C  201   3.617   2.418   2.072
    1C        C  202   3.828   2.513   2.182
    1C        C  203   3.695   2.460   2.184
    1C        C  204   3.899   2.540   2.302
    1C        C  205   3.833   2.514   2.424
    1C        C  206   4.021   2.620   2.543
    1C        C  207   3.898   2.552   2.544
    1C        C  208   4.084   2.657   2.665
    1C        C  209   4.026   2.621   2.788
    1C        C  210   4.197   2.747   2.908
    1C        C  211   4.084   2.661   2.911
    1C        C  212   4.252   2.796   3.029
    1C        C  213   4.200   2.751   3.153
    1C        C  214   4.337   2.909   3.274
    1C        C  215   4.250   2.797   3.277
    1C        C  216   4.373   2.971   3.396
    1C        C  217   4.332   2.917   3.520
    1C        C  218   4.441   3.100   3.639
    1C        C  219   4.378   2.974   3.641
    1C        C  220   4.465   3.169   3.760
    1C        C  221   4.436   3.107   3.884
    1C        C  222   4.508   3.308   4.003
    1C        C  223   4.470   3.172   4.005
    1C        C  224   4.519   3.381   4.123
    1C        C  225   4.507   3.314   4.247
    1C        C  226   4.529   3.528   4.368
    1C        C  227   4.519   3.387   4.368
    1C        C  228   4.530   3.603   4.487
    1C        C  229   4.533   3.531   4.609
    1C        C  230   4.512   3.747   4.727
    1C        C  231   4.534   3.606   4.728
    1C        C  232   4.505   3.824   4.845
    1C        C  233   4.553   3.756   4.958
    1C        C  234   4.021   2.608   2.064
    1C        C  235   3.899   2.541   2.064
    1C        C  236   4.090   2.644   2.181
    1C        C  237   4.023   2.610   2.300
    1C        C  238   4.199   2.735   2.423
    1C        C  239   4.084   2.651   2.421
    1C        C  240   4.254   2.784   2.543
    1C        C  241   4.197   2.742   2.665
    1C        C  242   4.336   2.905   2.785
    1C        C  243   4.249   2.794   2.786
    1C        C  244   4.379   2.964   2.906
    1C        C  245   4.338   2.907   3.029
    1C        C  246   4.436   3.095   3.151
    1C        C  247   4.374   2.968   3.152
    1C        C  248   4.458   3.163   3.272
    1C        C  249   4.432   3.100   3.396
    1C        C  250   4.498   3.305   3.513
    1C        C  251   4.461   3.168   3.516
    1C        C  252   4.509   3.374   3.636
    1C        C  253   4.501   3.306   3.759
    1C        C  254   4.527   3.518   3.878
    1C        C  255   4.516   3.377   3.880
    1C        C  256   4.525   3.591   3.999
    1C        C  257   4.525   3.522   4.122
    1C        C  258   4.504   3.734   4.243
    1C        C  259   4.527   3.595   4.243
    1C        C  260   4.483   3.808   4.362
    1C        C  261   4.506   3.742   4.485
    1C        C  262   4.431   3.943   4.602
    1C        C  263   4.486   3.813   4.605
    1C        C  264   4.410   4.014   4.722
    1C        C  265   4.442   3.950   4.844
    1C        C  266   4.322   4.129   4.956
    1C        C  267   4.404   4.017   4.961
    1C        C  268   4.268   2.777   2.067
    1C        C  269   4.197   2.735   2.181
    1C        C  270   4.350   2.887   2.303
    1C        C  271   4.254   2.782   2.301
    1C        C  272   4.383   2.954   2.422
    1C        C  273   4.343   2.894   2.543
    1C        C  274   4.453   3.082   2.662
    1C        C  275   4.381   2.960   2.663
    1C        C  276   4.471   3.154   2.782
    1C        C  277   4.442   3.090   2.905
    1C        C  278   4.510   3.291   3.026
    1C        C  279   4.467   3.157   3.027
    1C        C  280   4.515   3.364   3.147
    1C        C  281   4.496   3.299   3.271
    1C        C  282   4.523   3.513   3.390
    1C        C  283   4.516   3.372   3.390
    1C        C  284   4.519   3.584   3.512
    1C        C  285   4.516   3.515   3.635
    1C        C  286   4.494   3.728   3.752
    1C        C  287   4.520   3.589   3.756
    1C        C  288   4.481   3.794   3.876
    1C        C  289   4.504   3.731   4.000
    1C        C  290   4.430   3.931   4.117
    1C        C  291   4.489   3.803   4.121
    1C        C  292   4.399   4.001   4.236
    1C        C  293   4.428   3.938   4.359
    1C        C  294   4.327   4.127   4.481
    1C        C  295   4.397   4.004   4.479
    1C        C  296   4.285   4.189   4.601
    1C        C  297   4.334   4.134   4.722
    1C        C  298   4.200   4.312   4.839
    1C        C  299   4.286   4.198   4.840
    1C        C  300   4.167   4.396   4.950
    1C        C  301   4.351   2.888   2.063
    1C        C  302   4.468   3.070   2.179
    1C        C  303   4.394   2.948   2.182
    1C        C  304   4.482   3.144   2.300
    1C        C  305   4.454   3.077   2.421
    1C        C  306   4.504   3.287   2.538
    1C        C  307   4.480   3.148   2.540
    1C        C  308   4.517   3.359   2.659
    1C        C  309   4.504   3.291   2.782
    1C        C  310   4.525   3.503   2.902
    1C        C  311   4.516   3.362   2.904
    1C        C  312   4.521   3.577   3.022
    1C        C  313   4.521   3.506   3.144
    1C        C  314   4.493   3.717   3.264
    1C        C  315   4.520   3.579   3.265
    1C        C  316   4.473   3.786   3.386
    1C        C  317   4.501   3.724   3.509
    1C        C  318   4.430   3.928   3.629
    1C        C  319   4.481   3.796   3.629
    1C        C  320   4.400   3.991   3.751
    1C        C  321   4.433   3.927   3.872
    1C        C  322   4.322   4.110   3.992
    1C        C  323   4.402   3.993   3.993
    1C        C  324   4.280   4.171   4.113
    1C        C  325   4.329   4.124   4.237
    1C        C  326   4.180   4.276   4.352
    1C        C  327   4.285   4.181   4.358
    1C        C  328   4.134   4.334   4.472
    1C        C  329   4.191   4.294   4.595
    1C        C  330   4.027   4.435   4.714
    1C        C  331   4.141   4.351   4.715
    1C        C  332   3.970   4.489   4.831
    1C        C  333   4.051   4.474   4.944
    1C        C  334   4.558   3.266   2.064
    1C        C  335   4.534   3.128   2.066
    1C        C  336   4.539   3.350   2.175
    1C        C  337   4.517   3.282   2.296
    1C        C  338   4.529   3.498   2.412
    1C        C  339   4.518   3.357   2.416
    1C        C  340   4.525   3.569   2.534
    1C        C  341   4.523   3.500   2.657
    1C        C  342   4.492   3.711   2.776
    1C        C  343   4.518   3.572   2.779
    1C        C  344   4.473   3.782   2.897
    1C        C  345   4.491   3.716   3.020
    1C        C  346   4.423   3.917   3.140
    1C        C  347   4.476   3.786   3.142
    1C        C  348   4.392   3.982   3.262
    1C        C  349   4.423   3.918   3.384
    1C        C  350   4.319   4.105   3.504
    1C        C  351   4.397   3.987   3.505
    1C        C  352   4.274   4.161   3.626
    1C        C  353   4.319   4.108   3.748
    1C        C  354   4.176   4.264   3.868
    1C        C  355   4.274   4.162   3.870
    1C        C  356   4.123   4.315   3.989
    1C        C  357   4.177   4.267   4.110
    1C        C  358   4.010   4.403   4.230
    1C        C  359   4.123   4.319   4.230
    1C        C  360   3.953   4.449   4.352
    1C        C  361   4.019   4.417   4.472
    1C        C  362   3.828   4.514   4.594
    1C        C  363   3.958   4.458   4.593
    1C        C  364   3.761   4.542   4.715
    1C        C  365   3.836   4.536   4.834
    1C        C  366   3.630   4.593   4.950
    1C        C  367   3.766   4.564   4.952
    1C        C  368   4.509   3.564   2.052
    1C        C  369   4.527   3.490   2.170
    1C        C  370   4.499   3.706   2.290
    1C        C  371   4.520   3.566   2.289
    1C        C  372   4.486   3.778   2.410
    1C        C  373   4.499   3.708   2.532
    1C        C  374   4.429   3.911   2.648
    1C        C  375   4.476   3.778   2.653
    1C        C  376   4.398   3.976   2.770
    1C        C  377   4.425   3.915   2.894
    1C        C  378   4.313   4.095   3.011
    1C        C  379   4.392   3.978   3.016
    1C        C  380   4.274   4.155   3.132
    1C        C  381   4.314   4.100   3.256
    1C        C  382   4.172   4.252   3.378
    1C        C  383   4.275   4.155   3.380
    1C        C  384   4.118   4.303   3.499
    1C        C  385   4.176   4.263   3.621
    1C        C  386   4.003   4.383   3.744
    1C        C  387   4.120   4.304   3.744
    1C        C  388   3.943   4.425   3.865
    1C        C  389   4.003   4.390   3.987
    1C        C  390   3.815   4.488   4.108
    1C        C  391   3.945   4.434   4.108
    1C        C  392   3.751   4.515   4.232
    1C        C  393   3.822   4.500   4.353
    1C        C  394   3.616   4.553   4.476
    1C        C  395   3.755   4.528   4.475
    1C        C  396   3.545   4.566   4.598
    1C        C  397   3.621   4.561   4.716
    1C        C  398   3.410   4.551   4.842
    1C        C  399   3.549   4.574   4.837
    1C        C  400   3.341   4.516   4.959
    1C        C  401   4.505   3.703   2.050
    1C        C  402   4.450   3.913   2.168
    1C        C  403   4.484   3.776   2.168
    1C        C  404   4.413   3.981   2.286
    1C        C  405   4.439   3.911   2.406
    1C        C  406   4.324   4.093   2.526
    1C        C  407   4.402   3.976   2.526
    1C        C  408   4.281   4.151   2.647
    1C        C  409   4.323   4.096   2.771
    1C        C  410   4.176   4.258   2.889
    1C        C  411   4.273   4.154   2.889
    1C        C  412   4.125   4.306   3.012
    1C        C  413   4.176   4.256   3.134
    1C        C  414   4.000   4.375   3.254
    1C        C  415   4.121   4.302   3.256
    1C        C  416   3.939   4.410   3.377
    1C        C  417   4.004   4.385   3.500
    1C        C  418   3.811   4.474   3.622
    1C        C  419   3.941   4.418   3.622
    1C        C  420   3.743   4.499   3.743
    1C        C  421   3.814   4.482   3.864
    1C        C  422   3.609   4.535   3.990
    1C        C  423   3.747   4.507   3.986
    1C        C  424   3.540   4.548   4.112
    1C        C  425   3.612   4.542   4.233
    1C        C  426   3.401   4.550   4.358
    1C        C  427   3.542   4.549   4.356
    1C        C  428   3.332   4.546   4.481
    1C        C  429   3.404   4.558   4.602
    1C        C  430   3.193   4.525   4.725
    1C        C  431   3.333   4.551   4.724
    1C        C  432   3.125   4.496   4.847
    1C        C  433   3.205   4.491   4.962
    1C        C  434   4.384   4.121   2.052
    1C        C  435   4.445   3.995   2.055
    1C        C  436   4.305   4.166   2.163
    1C        C  437   4.336   4.101   2.285
    1C        C  438   4.183   4.253   2.405
    1C        C  439   4.285   4.156   2.405
    1C        C  440   4.127   4.302   2.525
    1C        C  441   4.184   4.253   2.645
    1C        C  442   4.008   4.379   2.767
    1C        C  443   4.125   4.299   2.764
    1C        C  444   3.942   4.413   2.887
    1C        C  445   4.004   4.378   3.010
    1C        C  446   3.810   4.466   3.130
    1C        C  447   3.941   4.412   3.131
    1C        C  448   3.746   4.489   3.254
    1C        C  449   3.812   4.471   3.378
    1C        C  450   3.609   4.534   3.497
    1C        C  451   3.746   4.501   3.499
    1C        C  452   3.539   4.545   3.620
    1C        C  453   3.605   4.532   3.744
    1C        C  454   3.398   4.550   3.865
    1C        C  455   3.539   4.549   3.868
    1C        C  456   3.331   4.541   3.989
    1C        C  457   3.398   4.548   4.114
    1C        C  458   3.192   4.507   4.236
    1C        C  459   3.329   4.542   4.237
    1C        C  460   3.128   4.486   4.361
    1C        C  461   3.194   4.512   4.483
    1C        C  462   3.002   4.429   4.605
    1C        C  463   3.125   4.499   4.605
    1C        C  464   2.937   4.395   4.726
    1C        C  465   2.992   4.444   4.847
    1C        C  466   2.800   4.341   4.963
    1C        C  467   2.910   4.428   4.964
    1C        C  468   4.131   4.291   2.044
    1C        C  469   4.191   4.252   2.164
    1C        C  470   4.007   4.373   2.281
    1C        C  471   4.128   4.299   2.283
    1C        C  472   3.943   4.405   2.403
    1C        C  473   4.008   4.379   2.526
    1C        C  474   3.814   4.471   2.642
    1C        C  475   3.941   4.410   2.646
    1C        C  476   3.747   4.497   2.763
    1C        C  477   3.814   4.472   2.885
    1C        C  478   3.609   4.524   3.010
    1C        C  479   3.745   4.487   3.007
    1C        C  480   3.538   4.534   3.132
    1C        C  481   3.610   4.527   3.253
    1C        C  482   3.397   4.538   3.377
    1C        C  483   3.538   4.534   3.375
    1C        C  484   3.326   4.534   3.500
    1C        C  485   3.398   4.547   3.620
    1C        C  486   3.190   4.513   3.745
    1C        C  487   3.328   4.542   3.743
    1C        C  488   3.124   4.489   3.868
    1C        C  489   3.193   4.510   3.989
    1C        C  490   3.004   4.420   4.116
    1C        C  491   3.129   4.486   4.112
    1C        C  492   2.942   4.391   4.239
    1C        C  493   2.999   4.428   4.362
    1C        C  494   2.829   4.303   4.487
    1C        C  495   2.938   4.393   4.485
    1C        C  496   2.775   4.257   4.609
    1C        C  497   2.825   4.307   4.731
    1C        C  498   2.666   4.165   4.846
    1C        C  499   2.752   4.277   4.848
    1C        C  500   2.594   4.124   4.959
    1C        C  501   4.009   4.358   2.047
    1C        C  502   3.815   4.466   2.156
    1C        C  503   3.943   4.409   2.160
    1C        C  504   3.746   4.484   2.279
    1C        C  505   3.814   4.463   2.400
    1C        C  506   3.607   4.521   2.520
    1C        C  507   3.746   4.494   2.520
    1C        C  508   3.537   4.523   2.643
    1C        C  509   3.607   4.519   2.765
    1C        C  510   3.397   4.527   2.888
    1C        C  511   3.538   4.531   2.888
    1C        C  512   3.325   4.523   3.009
    1C        C  513   3.396   4.531   3.131
    1C        C  514   3.190   4.493   3.257
    1C        C  515   3.328   4.525   3.255
    1C        C  516   3.122   4.476   3.380
    1C        C  517   3.188   4.502   3.502
    1C        C  518   3.000   4.409   3.628
    1C        C  519   3.122   4.482   3.625
    1C        C  520   2.941   4.374   3.751
    1C        C  521   3.002   4.418   3.871
    1C        C  522   2.841   4.284   3.999
    1C        C  523   2.945   4.379   3.994
    1C        C  524   2.793   4.236   4.123
    1C        C  525   2.838   4.294   4.243
    1C        C  526   2.700   4.133   4.366
    1C        C  527   2.791   4.242   4.365
    1C        C  528   2.660   4.075   4.488
    1C        C  529   2.691   4.143   4.608
    1C        C  530   2.586   3.959   4.734
    1C        C  531   2.643   4.089   4.729
    1C        C  532   2.546   3.901   4.858
    1C        C  533   2.532   3.999   4.962
    1C        C  534   3.617   4.556   2.036
    1C        C  535   3.750   4.511   2.040
    1C        C  536   3.537   4.540   2.154
    1C        C  537   3.607   4.515   2.275
    1C        C  538   3.396   4.518   2.401
    1C        C  539   3.537   4.520   2.398
    1C        C  540   3.325   4.514   2.523
    1C        C  541   3.396   4.523   2.645
    1C        C  542   3.188   4.482   2.767
    1C        C  543   3.324   4.518   2.767
    1C        C  544   3.122   4.465   2.890
    1C        C  545   3.188   4.490   3.013
    1C        C  546   2.996   4.406   3.139
    1C        C  547   3.121   4.471   3.136
    1C        C  548   2.934   4.371   3.261
    1C        C  549   2.998   4.408   3.382
    1C        C  550   2.830   4.283   3.507
    1C        C  551   2.945   4.366   3.505
    1C        C  552   2.779   4.235   3.630
    1C        C  553   2.832   4.285   3.752
    1C        C  554   2.707   4.120   3.877
    1C        C  555   2.790   4.233   3.877
    1C        C  556   2.673   4.058   4.000
    1C        C  557   2.713   4.120   4.121
    1C        C  558   2.606   3.942   4.250
    1C        C  559   2.668   4.069   4.245
    1C        C  560   2.577   3.877   4.372
    1C        C  561   2.600   3.948   4.492
    1C        C  562   2.534   3.748   4.615
    1C        C  563   2.571   3.884   4.615
    1C        C  564   2.516   3.682   4.738
    1C        C  565   2.521   3.760   4.857
    1C        C  566   2.533   3.548   4.977
    1C        C  567   2.524   3.686   4.975
    1C        C  568   3.328   4.474   2.044
    1C        C  569   3.397   4.517   2.158
    1C        C  570   3.186   4.476   2.282
    1C        C  571   3.323   4.513   2.280
    1C        C  572   3.117   4.463   2.405
    1C        C  573   3.186   4.489   2.526
    1C        C  574   2.989   4.404   2.649
    1C        C  575   3.116   4.466   2.646
    1C        C  576   2.935   4.362   2.773
    1C        C  577   2.998   4.396   2.894
    1C        C  578   2.833   4.269   3.017
    1C        C  579   2.939   4.362   3.018
    1C        C  580   2.780   4.226   3.140
    1C        C  581   2.825   4.281   3.262
    1C        C  582   2.700   4.114   3.387
    1C        C  583   2.782   4.229   3.386
    1C        C  584   2.666   4.054   3.510
    1C        C  585   2.699   4.119   3.631
    1C        C  586   2.601   3.935   3.757
    1C        C  587   2.665   4.061   3.755
    1C        C  588   2.573   3.871   3.880
    1C        C  589   2.604   3.935   4.002
    1C        C  590   2.539   3.740   4.128
    1C        C  591   2.580   3.876   4.128
    1C        C  592   2.529   3.671   4.251
    1C        C  593   2.538   3.742   4.373
    1C        C  594   2.510   3.533   4.496
    1C        C  595   2.519   3.674   4.495
    1C        C  596   2.519   3.466   4.620
    1C        C  597   2.516   3.539   4.740
    1C        C  598   2.531   3.327   4.862
    1C        C  599   2.524   3.468   4.862
    1C        C  600   2.531   3.249   4.979
    1C        C  601   3.194   4.442   2.042
    1C        C  602   2.985   4.394   2.163
    1C        C  603   3.122   4.436   2.162
    1C        C  604   2.921   4.368   2.287
    1C        C  605   2.988   4.405   2.405
    1C        C  606   2.823   4.272   2.530
    1C        C  607   2.930   4.364   2.527
    1C        C  608   2.770   4.225   2.653
    1C        C  609   2.826   4.273   2.773
    1C        C  610   2.689   4.110   2.896
    1C        C  611   2.780   4.218   2.896
    1C        C  612   2.650   4.054   3.020
    1C        C  613   2.695   4.113   3.140
    1C        C  614   2.593   3.930   3.266
    1C        C  615   2.661   4.054   3.264
    1C        C  616   2.567   3.867   3.390
    1C        C  617   2.597   3.931   3.512
    1C        C  618   2.533   3.732   3.639
    1C        C  619   2.573   3.867   3.637
    1C        C  620   2.518   3.666   3.763
    1C        C  621   2.532   3.735   3.886
    1C        C  622   2.511   3.526   4.008
    1C        C  623   2.521   3.667   4.009
    1C        C  624   2.515   3.456   4.130
    1C        C  625   2.514   3.530   4.251
    1C        C  626   2.535   3.323   4.377
    1C        C  627   2.509   3.461   4.374
    1C        C  628   2.556   3.254   4.499
    1C        C  629   2.535   3.326   4.618
    1C        C  630   2.599   3.123   4.744
    1C        C  631   2.551   3.257   4.741
    1C        C  632   2.618   3.053   4.866
    1C        C  633   2.557   3.112   4.981
    1C        C  634   2.784   4.303   2.055
    1C        C  635   2.891   4.393   2.055
    1C        C  636   2.750   4.231   2.170
    1C        C  637   2.808   4.282   2.289
    1C        C  638   2.679   4.112   2.411
    1C        C  639   2.768   4.221   2.410
    1C        C  640   2.642   4.052   2.533
    1C        C  641   2.681   4.115   2.653
    1C        C  642   2.584   3.925   2.778
    1C        C  643   2.646   4.052   2.775
    1C        C  644   2.567   3.857   2.901
    1C        C  645   2.592   3.925   3.022
    1C        C  646   2.527   3.727   3.150
    1C        C  647   2.566   3.862   3.146
    1C        C  648   2.515   3.659   3.274
    1C        C  649   2.530   3.731   3.395
    1C        C  650   2.508   3.520   3.516
    1C        C  651   2.519   3.661   3.518
    1C        C  652   2.510   3.454   3.641
    1C        C  653   2.511   3.525   3.763
    1C        C  654   2.533   3.315   3.889
    1C        C  655   2.514   3.455   3.886
    1C        C  656   2.550   3.247   4.011
    1C        C  657   2.533   3.316   4.134
    1C        C  658   2.606   3.120   4.260
    1C        C  659   2.549   3.249   4.257
    1C        C  660   2.637   3.056   4.382
    1C        C  661   2.608   3.122   4.503
    1C        C  662   2.710   2.936   4.626
    1C        C  663   2.633   3.055   4.625
    1C        C  664   2.747   2.879   4.750
    1C        C  665   2.696   2.933   4.870
    1C        C  666   2.745   2.877   4.989
    1C        C  667   2.679   4.026   2.055
    1C        C  668   2.692   4.102   2.172
    1C        C  669   2.594   3.911   2.295
    1C        C  670   2.649   4.042   2.292
    1C        C  671   2.557   3.851   2.417
    1C        C  672   2.584   3.923   2.535
    1C        C  673   2.519   3.721   2.660
    1C        C  674   2.556   3.858   2.657
    1C        C  675   2.509   3.649   2.781
    1C        C  676   2.534   3.719   2.902
    1C        C  677   2.506   3.517   3.028
    1C        C  678   2.517   3.658   3.028
    1C        C  679   2.513   3.446   3.150
    1C        C  680   2.509   3.518   3.272
    1C        C  681   2.532   3.309   3.400
    1C        C  682   2.511   3.449   3.394
    1C        C  683   2.548   3.243   3.524
    1C        C  684   2.526   3.313   3.644
    1C        C  685   2.604   3.116   3.769
    1C        C  686   2.549   3.246   3.766
    1C        C  687   2.637   3.053   3.891
    1C        C  688   2.605   3.117   4.013
    1C        C  689   2.712   2.937   4.138
    1C        C  690   2.636   3.057   4.137
    1C        C  691   2.752   2.879   4.260
    1C        C  692   2.710   2.935   4.382
    1C        C  693   2.750   2.877   4.505
    1C        C  694   2.630   3.894   2.056
    1C        C  695   2.532   3.705   2.179
    1C        C  696   2.585   3.836   2.176
    1C        C  697   2.509   3.639   2.301
    1C        C  698   2.520   3.714   2.420
    1C        C  699   2.492   3.504   2.546
    1C        C  700   2.509   3.644   2.542
    1C        C  701   2.498   3.433   2.668
    1C        C  702   2.500   3.509   2.787
    1C        C  703   2.519   3.299   2.913
    1C        C  704   2.505   3.439   2.910
    1C        C  705   2.542   3.231   3.035
    1C        C  706   2.535   3.306   3.154
    1C        C  707   2.601   3.108   3.278
    1C        C  708   2.550   3.240   3.278
    1C        C  709   2.634   3.049   3.402
    1C        C  710   2.602   3.112   3.524
    1C        C  711   2.713   2.934   3.648
    1C        C  712   2.633   3.051   3.648
    1C        C  713   2.761   2.881   3.770
    1C        C  714   2.719   2.938   3.892
    1C        C  715   2.760   2.884   4.016
    1C        C  716   2.446   3.501   2.066
    1C        C  717   2.495   3.633   2.065
    1C        C  718   2.462   3.423   2.185
    1C        C  719   2.481   3.499   2.303
    1C        C  720   2.514   3.292   2.425
    1C        C  721   2.482   3.429   2.426
    1C        C  722   2.541   3.224   2.546
    1C        C  723   2.518   3.293   2.667
    1C        C  724   2.586   3.097   2.790
    1C        C  725   2.532   3.227   2.791
    1C        C  726   2.614   3.033   2.913
    1C        C  727   2.582   3.095   3.035
    1C        C  728   2.707   2.922   3.159
    1C        C  729   2.630   3.041   3.157
    1C        C  730   2.755   2.871   3.282
    1C        C  731   2.713   2.932   3.402
    1C        C  732   2.754   2.877   3.525
    1C        C  733   2.492   3.201   2.069
    1C        C  734   2.488   3.282   2.184
    1C        C  735   2.585   3.089   2.307
    1C        C  736   2.522   3.216   2.305
    1C        C  737   2.615   3.021   2.427
    1C        C  738   2.588   3.091   2.547
    1C        C  739   2.702   2.914   2.669
    1C        C  740   2.623   3.031   2.670
    1C        C  741   2.746   2.863   2.793
    1C        C  742   2.700   2.921   2.914
    1C        C  743   2.749   2.868   3.036
    1C        C  744   2.545   3.073   2.073
    1C        C  745   2.683   2.900   2.189
    1C        C  746   2.608   3.020   2.186
    1C        C  747   2.729   2.839   2.307
    1C        C  748   2.685   2.899   2.428
    1C        C  749   2.735   2.847   2.549
    1C        C  750   2.736   2.836   2.075
    1C        C  751   3.654   2.296   1.996
    1C        O  752   3.623   2.183   2.042
    1C        O  753   3.690   2.299   1.861
    1C        C  754   4.613   3.050   1.967
    1C        O  755   4.566   3.039   1.851
    1C        O  756   4.749   3.026   1.988
    1C        C  757   4.469   4.218   1.979
    1C        O  758   4.576   4.267   2.024
    1C        O  759   4.468   4.217   1.839
    1C        C  760   3.587   4.640   1.919
    1C        O  761   3.607   4.764   1.901
    1C        O  762   3.542   4.576   1.803
    1C        C  763   2.859   4.513   1.975
    1C        O  764   2.889   4.506   1.853
    1C        O  765   2.782   4.622   2.019
    1C        C  766   2.319   3.485   1.992
    1C        O  767   2.312   3.427   1.880
    1C        O  768   2.200   3.476   2.063
    1C        C  769   4.719   3.591   5.028
    1C        O  770   4.720   3.577   5.154
    1C        O  771   4.838   3.636   4.970
    1C        C  772   4.275   4.454   5.033
    1C        O  773   4.270   4.450   5.159
    1C        O  774   4.342   4.570   4.992
    1C        C  775   4.146   2.492   5.050
    1C        O  776   4.212   2.400   4.995
    1C        O  777   4.204   2.529   5.172
    1C        C  778   2.899   4.538   5.062
    1C        O  779   2.855   4.647   5.019
    1C        O  780   2.912   4.518   5.200
    1C        C  781   2.461   3.046   5.072
    1C        O  782   2.363   2.976   5.036
    1C        O  783   2.471   3.062   5.210
    1C        C  784   2.414   4.010   5.050
    1C        O  785   2.306   4.059   5.008
    1C        O  786   2.418   4.003   5.190
    1C        C  787   2.962   2.452   1.980
    1C        O  788   2.949   2.481   1.858
    1C        O  789   2.875   2.344   1.991
    1C        C  790   3.185   2.385   5.075
    1C        O  791   3.133   2.277   5.037
    1C        O  792   3.153   2.392   5.212
    1C        H  793   4.352   2.969   5.064
    1C        H  794   4.134   2.846   5.044
    1C        H  795   4.525   3.129   5.047
    1C        H  796   4.579   3.349   5.055
    1C        H  797   4.539   3.802   5.054
    1C        H  798   4.476   4.014   5.039
    1C        H  799   4.267   4.144   5.047
    1C        H  800   4.062   4.568   4.994
    1C        H  801   3.824   4.597   5.036
    1C        H  802   3.590   4.651   5.031
    1C        H  803   3.395   4.487   5.047
    1C        H  804   3.161   4.442   5.047
    1C        H  805   3.899   2.466   5.058
    1C        H  806   3.675   2.458   5.076
    1C        H  807   2.992   2.546   5.058
    1C        H  808   3.443   2.490   5.079
    1C        H  809   2.888   2.757   5.080
    1C        H  810   2.676   2.877   5.070
    1C        H  811   2.548   3.301   5.071
    1C        H  812   2.521   3.498   5.071
    1C        H  813   2.532   3.738   5.069
    1C        H  814   2.569   4.203   5.026
    1C        H  815   2.744   4.336   5.054
    1C        H  816   2.674   2.840   1.988
    1C        H  817   2.896   2.729   1.992
    1C        H  818   3.219   2.454   1.988
    1C        H  819   3.437   2.468   1.984
    1C        H  820   3.868   2.491   1.974
    1C        H  821   4.052   2.658   1.975
    1C        H  822   4.304   2.698   2.005
    1C        H  823   4.377   2.928   1.967
    1C        H  824   4.582   3.310   1.970
    1C        H  825   4.554   3.529   1.962
    1C        H  826   4.556   3.749   1.968
    1C        H  827   3.790   4.484   1.945
    1C        H  828   3.973   4.386   1.950
    1C        H  829   4.194   4.315   1.960
    1C        H  830   4.469   3.957   1.958
    1C        H  831   2.688   3.826   1.997
    1C        H  832   2.732   4.056   1.967
    1C        H  833   2.695   4.329   2.001
    1C        H  834   3.386   4.420   1.972
    1C        H  835   3.156   4.386   1.958
    1C        H  836   2.557   3.028   1.977
    1C        H  837   2.419   3.213   1.992
    1C        H  838   2.523   3.671   1.969
    2V3OU   H29  839   2.806   3.545   2.511
    2V3OU   C27  840   2.791   3.501   2.613
    2V3OU   H27  841   2.734   3.571   2.678
    2V3OU   H28  842   2.738   3.406   2.584
    2V3OU   O11  843   2.920   3.482   2.673
    2V3OU   C15  844   2.929   3.403   2.786
    2V3OU   C13  845   3.054   3.376   2.845
    2V3OU   C14  846   3.082   3.269   2.931
    2V3OU   C16  847   2.977   3.188   2.973
    2V3OU    H6  848   2.992   3.107   3.046
    2V3OU   C12  849   3.217   3.238   2.984
    2V3OU    O2  850   3.244   3.131   3.042
    2V3OU   C10  851   3.328   3.304   2.913
    2V3OU    C8  852   3.457   3.266   2.945
    2V3OU   O10  853   3.488   3.155   3.018
    2V3OU   H26  854   3.401   3.118   3.040
    2V3OU    C6  855   3.565   3.351   2.904
    2V3OU    C5  856   3.537   3.471   2.839
    2V3OU    C4  857   3.704   3.299   2.904
    2V3OU    H4  858   3.730   3.232   2.992
    2V3OU    H5  859   3.712   3.233   2.812
    2V3OU    C2  860   3.820   3.399   2.902
    2V3OU    O6  861   3.806   3.475   3.023
    2V3OU   H21  862   3.765   3.555   2.988
    2V3OU    C3  863   3.787   3.492   2.785
    2V3OU    H2  864   3.866   3.571   2.782
    2V3OU    H3  865   3.785   3.439   2.686
    2V3OU   C25  866   3.955   3.331   2.881
    2V3OU    O7  867   4.004   3.297   2.774
    2V3OU   C26  868   4.033   3.294   3.006
    2V3OU   H22  869   4.073   3.383   3.062
    2V3OU   H23  870   4.122   3.231   2.979
    2V3OU    O8  871   3.959   3.210   3.092
    2V3OU   H24  872   3.925   3.267   3.162
    2V3OU    C1  873   3.652   3.560   2.800
    2V3OU    H1  874   3.628   3.615   2.704
    2V3OU    O3  875   3.664   3.659   2.903
    2V3OU   C19  876   3.619   3.795   2.897
    2V3OU    H9  877   3.524   3.802   2.837
    2V3OU    O4  878   3.718   3.850   2.812
    2V3OU   C20  879   3.845   3.878   2.871
    2V3OU   H10  880   3.895   3.778   2.890
    2V3OU   C24  881   3.615   3.857   3.037
    2V3OU   H16  882   3.545   3.796   3.100
    2V3OU   H17  883   3.565   3.955   3.017
    2V3OU   C23  884   3.751   3.871   3.104
    2V3OU   H15  885   3.794   3.766   3.116
    2V3OU    N1  886   3.738   3.956   3.221
    2V3OU   H19  887   3.814   3.928   3.280
    2V3OU   H20  888   3.654   3.940   3.272
    2V3OU   C21  889   3.848   3.947   3.007
    2V3OU   H11  890   3.952   3.936   3.050
    2V3OU    O5  891   3.822   4.086   3.003
    2V3OU   H18  892   3.780   4.098   3.090
    2V3OU   C22  893   3.916   3.954   2.760
    2V3OU   H12  894   3.861   4.047   2.732
    2V3OU   H13  895   3.904   3.897   2.664
    2V3OU   H14  896   4.024   3.969   2.785
    2V3OU   C11  897   3.160   3.476   2.823
    2V3OU    O1  898   3.130   3.590   2.783
    2V3OU    C9  899   3.297   3.426   2.846
    2V3OU    C7  900   3.403   3.508   2.808
    2V3OU    O9  901   3.382   3.626   2.739
    2V3OU   H25  902   3.285   3.629   2.741
    2V3OU   C17  903   2.827   3.321   2.838
    2V3OU    H7  904   2.729   3.347   2.797
    2V3OU   C18  905   2.850   3.214   2.923
    2V3OU    H8  906   2.782   3.169   2.997
    3SOL     OW  907   2.463   4.954   0.314
    3SOL    HW1  908   2.391   4.915   0.371
    3SOL    HW2  909   2.552   4.921   0.345
    4SOL     OW  910   0.053   6.699   2.311
    4SOL    HW1  911   7.018   6.777   2.296
    4SOL    HW2  912   0.038   6.630   2.240
    5SOL     OW  913   4.259   1.550   2.927
    5SOL    HW1  914   4.289   1.515   3.016
    5SOL    HW2  915   4.209   1.479   2.878
    6SOL     OW  916   4.322   1.043   1.973
    6SOL    HW1  917   4.343   1.091   1.889
    6SOL    HW2  918   4.345   1.101   2.052
    7SOL     OW  919   6.738   3.207   2.589
    7SOL    HW1  920   6.656   3.151   2.573
    7SOL    HW2  921   6.810   3.149   2.627
    8SOL     OW  922   3.532   0.843   0.299
    8SOL    HW1  923   3.542   0.766   0.362
    8SOL    HW2  924   3.458   0.824   0.235
    9SOL     OW  925   5.329   0.759   5.910
    9SOL    HW1  926   5.362   0.683   5.967
    9SOL    HW2  927   5.230   0.752   5.898
   10SOL     OW  928   1.590   4.944   6.387
   10SOL    HW1  929   1.660   4.961   6.457
   10SOL    HW2  930   1.549   5.031   6.359
   11SOL     OW  931   3.073   7.021   5.924
   11SOL    HW1  932   2.989   6.987   5.966
   11SOL    HW2  933   3.090   0.089   5.955
   12SOL     OW  934   3.317   5.947   3.507
   12SOL    HW1  935   3.326   5.878   3.579
   12SOL    HW2  936   3.365   6.030   3.535
   13SOL     OW  937   3.936   6.524   4.507
   13SOL    HW1  938   3.880   6.556   4.431
   13SOL    HW2  939   4.033   6.540   4.486
   14SOL     OW  940   3.920   5.812   5.793
   14SOL    HW1  941   3.848   5.759   5.747
   14SOL    HW2  942   3.996   5.827   5.730
   15SOL     OW  943   1.241   6.244   2.077
   15SOL    HW1  944   1.212   6.338   2.097
   15SOL    HW2  945   1.162   6.189   2.052
   16SOL     OW  946   4.885   2.683   5.837
   16SOL    HW1  947   4.932   2.769   5.858
   16SOL    HW2  948   4.897   2.662   5.740
   17SOL     OW  949   5.556   6.479   6.118
   17SOL    HW1  950   5.570   6.427   6.034
   17SOL    HW2  951   5.599   6.569   6.108
   18SOL     OW  952   3.256   0.777   5.700
   18SOL    HW1  953   3.345   0.797   5.740
   18SOL    HW2  954   3.241   0.678   5.701
   19SOL     OW  955   6.902   1.780   3.246
   19SOL    HW1  956   6.836   1.722   3.295
   19SOL    HW2  957   6.907   1.751   3.151
   20SOL     OW  958   5.174   1.621   3.698
   20SOL    HW1  959   5.121   1.537   3.710
   20SOL    HW2  960   5.245   1.625   3.769
   21SOL     OW  961   3.392   1.441   2.826
   21SOL    HW1  962   3.382   1.345   2.800
   21SOL    HW2  963   3.485   1.471   2.806
   22SOL     OW  964   2.524   6.702   0.124
   22SOL    HW1  965   2.492   6.718   0.218
   22SOL    HW2  966   2.585   6.623   0.122
   23SOL     OW  967   5.769   5.636   3.453
   23SOL    HW1  968   5.760   5.710   3.387
   23SOL    HW2  969   5.859   5.594   3.443
   24SOL     OW  970   4.073   0.480   3.119
   24SOL    HW1  971   3.998   0.482   3.185
   24SOL    HW2  972   4.120   0.569   3.118
   25SOL     OW  973   2.951   0.683   4.776
   25SOL    HW1  974   2.940   0.742   4.696
   25SOL    HW2  975   2.960   0.739   4.858
   26SOL     OW  976   0.702   0.872   0.204
   26SOL    HW1  977   0.625   0.930   0.179
   26SOL    HW2  978   0.728   0.889   0.299
   27SOL     OW  979   1.203   2.645   2.327
   27SOL    HW1  980   1.220   2.583   2.403
   27SOL    HW2  981   1.115   2.692   2.342
   28SOL     OW  982   2.977   1.900   5.812
   28SOL    HW1  983   3.003   1.872   5.904
   28SOL    HW2  984   2.910   1.835   5.775
   29SOL     OW  985   6.032   1.428   1.805
   29SOL    HW1  986   5.974   1.479   1.869
   29SOL    HW2  987   6.126   1.428   1.839
   30SOL     OW  988   4.423   0.657   3.888
   30SOL    HW1  989   4.384   0.594   3.822
   30SOL    HW2  990   4.350   0.715   3.926
   31SOL     OW  991   0.989   2.718   6.243
   31SOL    HW1  992   1.026   2.727   6.150
   31SOL    HW2  993   1.025   2.634   6.284
   32SOL     OW  994   0.541   1.699   2.437
   32SOL    HW1  995   0.532   1.614   2.490
   32SOL    HW2  996   0.637   1.714   2.414
   33SOL     OW  997   1.564   4.643   6.007
   33SOL    HW1  998   1.521   4.554   5.991
   33SOL    HW2  999   1.573   4.692   5.920
   34SOL     OW 1000   2.934   0.228   4.066
   34SOL    HW1 1001   3.005   0.287   4.026
   34SOL    HW2 1002   2.845   0.252   4.028
   35SOL     OW 1003   3.658   4.067   6.815
   35SOL    HW1 1004   3.609   4.017   6.743
   35SOL    HW2 1005   3.683   4.004   6.888
   36SOL     OW 1006   6.118   1.299   4.553
   36SOL    HW1 1007   6.088   1.237   4.481
   36SOL    HW2 1008   6.119   1.393   4.518
   37SOL     OW 1009   1.164   2.052   0.307
   37SOL    HW1 1010   1.244   2.030   0.251
   37SOL    HW2 1011   1.094   2.094   0.251
   38SOL     OW 1012   0.325   5.130   2.044
   38SOL    HW1 1013   0.276   5.097   1.963
   38SOL    HW2 1014   0.273   5.107   2.126
   39SOL     OW 1015   6.571   4.566   6.527
   39SOL    HW1 1016   6.596   4.649   6.576
   39SOL    HW2 1017   6.555   4.492   6.592
   40SOL     OW 1018   5.388   1.919   0.448
   40SOL    HW1 1019   5.386   1.860   0.529
   40SOL    HW2 1020   5.320   1.888   0.382
   41SOL     OW 1021   6.778   5.138   2.975
   41SOL    HW1 1022   6.745   5.228   3.005
   41SOL    HW2 1023   6.806   5.085   3.055
   42SOL     OW 1024   2.928   5.596   4.712
   42SOL    HW1 1025   2.998   5.640   4.768
   42SOL    HW2 1026   2.900   5.510   4.755
   43SOL     OW 1027   5.809   0.031   5.501
   43SOL    HW1 1028   5.764   0.109   5.545
   43SOL    HW2 1029   5.827   6.985   5.568
   44SOL     OW 1030   4.402   1.402   6.003
   44SOL    HW1 1031   4.373   1.365   6.091
   44SOL    HW2 1032   4.491   1.446   6.013
   45SOL     OW 1033   4.083   5.918   2.355
   45SOL    HW1 1034   4.121   5.844   2.299
   45SOL    HW2 1035   4.133   6.002   2.337
   46SOL     OW 1036   0.321   2.964   2.778
   46SOL    HW1 1037   0.350   3.058   2.761
   46SOL    HW2 1038   0.272   2.928   2.699
   47SOL     OW 1039   5.039   4.026   0.945
   47SOL    HW1 1040   5.121   4.077   0.920
   47SOL    HW2 1041   5.063   3.957   1.014
   48SOL     OW 1042   6.811   3.435   5.570
   48SOL    HW1 1043   6.905   3.429   5.536
   48SOL    HW2 1044   6.811   3.473   5.663
   49SOL     OW 1045   4.792   3.873   1.756
   49SOL    HW1 1046   4.866   3.881   1.823
   49SOL    HW2 1047   4.744   3.961   1.749
   50SOL     OW 1048   5.594   1.111   5.149
   50SOL    HW1 1049   5.611   1.159   5.235
   50SOL    HW2 1050   5.607   1.174   5.072
   51SOL     OW 1051   2.244   6.345   2.908
   51SOL    HW1 1052   2.182   6.373   2.834
   51SOL    HW2 1053   2.217   6.391   2.993
   52SOL     OW 1054   6.027   3.397   2.592
   52SOL    HW1 1055   6.052   3.493   2.579
   52SOL    HW2 1056   6.107   3.346   2.623
   53SOL     OW 1057   3.811   6.484   4.017
   53SOL    HW1 1058   3.789   6.451   3.925
   53SOL    HW2 1059   3.802   6.584   4.019
   54SOL     OW 1060   3.830   4.728   1.302
   54SOL    HW1 1061   3.831   4.800   1.372
   54SOL    HW2 1062   3.795   4.644   1.342
   55SOL     OW 1063   2.279   2.932   6.271
   55SOL    HW1 1064   2.268   3.011   6.332
   55SOL    HW2 1065   2.193   2.880   6.270
   56SOL     OW 1066   0.124   0.443   1.272
   56SOL    HW1 1067   0.040   0.462   1.221
   56SOL    HW2 1068   0.107   0.454   1.370
   57SOL     OW 1069   4.600   1.046   1.725
   57SOL    HW1 1070   4.673   1.067   1.661
   57SOL    HW2 1071   4.522   1.106   1.708
   58SOL     OW 1072   0.134   6.476   5.726
   58SOL    HW1 1073   0.068   6.491   5.799
   58SOL    HW2 1074   0.194   6.400   5.750
   59SOL     OW 1075   1.435   2.478   5.538
   59SOL    HW1 1076   1.343   2.513   5.553
   59SOL    HW2 1077   1.431   2.397   5.478
   60SOL     OW 1078   5.602   2.501   4.596
   60SOL    HW1 1079   5.633   2.419   4.643
   60SOL    HW2 1080   5.553   2.560   4.660
   61SOL     OW 1081   6.566   2.147   4.652
   61SOL    HW1 1082   6.593   2.068   4.707
   61SOL    HW2 1083   6.552   2.119   4.557
   62SOL     OW 1084   1.305   1.251   1.626
   62SOL    HW1 1085   1.231   1.189   1.599
   62SOL    HW2 1086   1.324   1.314   1.551
   63SOL     OW 1087   5.284   1.020   3.545
   63SOL    HW1 1088   5.312   1.070   3.463
   63SOL    HW2 1089   5.322   1.064   3.626
   64SOL     OW 1090   0.238   3.806   5.875
   64SOL    HW1 1091   0.329   3.780   5.841
   64SOL    HW2 1092   0.191   3.725   5.909
   65SOL     OW 1093   0.636   5.163   6.584
   65SOL    HW1 1094   0.629   5.070   6.549
   65SOL    HW2 1095   0.665   5.224   6.511
   66SOL     OW 1096   4.334   1.307   5.519
   66SOL    HW1 1097   4.428   1.332   5.501
   66SOL    HW2 1098   4.275   1.340   5.444
   67SOL     OW 1099   5.878   3.729   5.937
   67SOL    HW1 1100   5.976   3.738   5.951
   67SOL    HW2 1101   5.839   3.665   6.003
   68SOL     OW 1102   6.151   0.818   6.742
   68SOL    HW1 1103   6.068   0.844   6.790
   68SOL    HW2 1104   6.135   0.736   6.687
   69SOL     OW 1105   0.943   3.774   6.046
   69SOL    HW1 1106   0.866   3.830   6.014
   69SOL    HW2 1107   0.964   3.798   6.140
   70SOL     OW 1108   5.600   4.342   5.027
   70SOL    HW1 1109   5.658   4.410   5.074
   70SOL    HW2 1110   5.632   4.333   4.933
   71SOL     OW 1111   4.338   1.688   3.762
   71SOL    HW1 1112   4.278   1.609   3.746
   71SOL    HW2 1113   4.428   1.669   3.724
   72SOL     OW 1114   2.061   0.045   4.158
   72SOL    HW1 1115   2.064   0.113   4.232
   72SOL    HW2 1116   1.969   0.043   4.119
   73SOL     OW 1117   3.534   0.834   1.310
   73SOL    HW1 1118   3.596   0.761   1.339
   73SOL    HW2 1119   3.525   0.901   1.384
   74SOL     OW 1120   4.050   6.957   0.288
   74SOL    HW1 1121   4.007   6.916   0.369
   74SOL    HW2 1122   3.979   6.993   0.227
   75SOL     OW 1123   4.679   0.700   0.786
   75SOL    HW1 1124   4.687   0.794   0.820
   75SOL    HW2 1125   4.582   0.677   0.778
   76SOL     OW 1126   2.852   3.624   1.507
   76SOL    HW1 1127   2.825   3.596   1.414
   76SOL    HW2 1128   2.918   3.558   1.543
   77SOL     OW 1129   0.375   6.927   3.513
   77SOL    HW1 1130   0.361   7.014   3.560
   77SOL    HW2 1131   0.372   6.942   3.414
   78SOL     OW 1132   5.877   1.373   0.337
   78SOL    HW1 1133   5.809   1.304   0.311
   78SOL    HW2 1134   5.898   1.364   0.434
   79SOL     OW 1135   3.087   5.801   0.776
   79SOL    HW1 1136   3.015   5.850   0.824
   79SOL    HW2 1137   3.137   5.743   0.840
   80SOL     OW 1138   4.650   1.041   4.581
   80SOL    HW1 1139   4.669   1.128   4.628
   80SOL    HW2 1140   4.690   0.966   4.634
   81SOL     OW 1141   2.155   0.020   2.556
   81SOL    HW1 1142   2.058   0.016   2.577
   81SOL    HW2 1143   2.168   0.026   2.457
   82SOL     OW 1144   5.666   4.762   0.744
   82SOL    HW1 1145   5.578   4.715   0.733
   82SOL    HW2 1146   5.737   4.710   0.697
   83SOL     OW 1147   0.588   0.511   0.276
   83SOL    HW1 1148   0.680   0.551   0.278
   83SOL    HW2 1149   0.547   0.527   0.187
   84SOL     OW 1150   6.496   2.855   3.525
   84SOL    HW1 1151   6.584   2.843   3.572
   84SOL    HW2 1152   6.508   2.922   3.451
   85SOL     OW 1153   1.481   0.864   3.642
   85SOL    HW1 1154   1.458   0.927   3.568
   85SOL    HW2 1155   1.578   0.839   3.637
   86SOL     OW 1156   0.464   1.535   5.836
   86SOL    HW1 1157   0.438   1.583   5.753
   86SOL    HW2 1158   0.406   1.567   5.912
   87SOL     OW 1159   4.639   4.032   0.968
   87SOL    HW1 1160   4.619   4.109   1.028
   87SOL    HW2 1161   4.701   3.968   1.014
   88SOL     OW 1162   3.425   1.752   5.886
   88SOL    HW1 1163   3.412   1.846   5.854
   88SOL    HW2 1164   3.439   1.752   5.985
   89SOL     OW 1165   2.119   2.737   5.698
   89SOL    HW1 1166   2.161   2.796   5.767
   89SOL    HW2 1167   2.093   2.650   5.741
   90SOL     OW 1168   3.892   5.158   2.112
   90SOL    HW1 1169   3.881   5.110   2.199
   90SOL    HW2 1170   3.971   5.121   2.063
   91SOL     OW 1171   5.794   4.203   5.693
   91SOL    HW1 1172   5.752   4.128   5.743
   91SOL    HW2 1173   5.877   4.170   5.648
   92SOL     OW 1174   4.572   4.582   0.879
   92SOL    HW1 1175   4.594   4.612   0.786
   92SOL    HW2 1176   4.473   4.586   0.892
   93SOL     OW 1177   3.154   3.625   0.570
   93SOL    HW1 1178   3.138   3.541   0.517
   93SOL    HW2 1179   3.073   3.684   0.563
   94SOL     OW 1180   2.021   6.122   5.988
   94SOL    HW1 1181   1.928   6.087   5.990
   94SOL    HW2 1182   2.081   6.063   6.041
   95SOL     OW 1183   0.671   0.776   3.088
   95SOL    HW1 1184   0.585   0.806   3.129
   95SOL    HW2 1185   0.747   0.820   3.135
   96SOL     OW 1186   3.134   0.474   4.755
   96SOL    HW1 1187   3.120   0.380   4.788
   96SOL    HW2 1188   3.050   0.527   4.771
   97SOL     OW 1189   2.456   3.368   6.368
   97SOL    HW1 1190   2.424   3.274   6.378
   97SOL    HW2 1191   2.423   3.406   6.282
   98SOL     OW 1192   0.497   3.654   0.836
   98SOL    HW1 1193   0.430   3.714   0.879
   98SOL    HW2 1194   0.502   3.674   0.738
   99SOL     OW 1195   3.811   2.381   1.489
   99SOL    HW1 1196   3.902   2.408   1.455
   99SOL    HW2 1197   3.787   2.438   1.568
  100SOL     OW 1198   0.746   6.797   5.050
  100SOL    HW1 1199   0.721   6.720   4.992
  100SOL    HW2 1200   0.747   6.769   5.145
  101SOL     OW 1201   1.364   5.181   2.670
  101SOL    HW1 1202   1.351   5.168   2.571
  101SOL    HW2 1203   1.276   5.200   2.712
  102SOL     OW 1204   3.953   5.638   1.335
  102SOL    HW1 1205   3.993   5.586   1.410
  102SOL    HW2 1206   4.005   5.620   1.251
  103SOL     OW 1207   2.127   2.098   1.620
  103SOL    HW1 1208   2.183   2.173   1.656
  103SOL    HW2 1209   2.091   2.043   1.695
  104SOL     OW 1210   1.600   5.639   2.396
  104SOL    HW1 1211   1.675   5.603   2.452
  104SOL    HW2 1212   1.516   5.590   2.418
  105SOL     OW 1213   6.752   1.194   6.262
  105SOL    HW1 1214   6.694   1.132   6.209
  105SOL    HW2 1215   6.721   1.195   6.357
  106SOL     OW 1216   3.569   6.324   4.867
  106SOL    HW1 1217   3.635   6.285   4.931
  106SOL    HW2 1218   3.577   6.424   4.868
  107SOL     OW 1219   1.257   0.907   1.059
  107SOL    HW1 1220   1.202   0.824   1.069
  107SOL    HW2 1221   1.273   0.925   0.962
  108SOL     OW 1222   2.542   6.420   5.592
  108SOL    HW1 1223   2.532   6.482   5.515
  108SOL    HW2 1224   2.501   6.461   5.674
  109SOL     OW 1225   0.853   0.853   2.029
  109SOL    HW1 1226   0.778   0.878   2.090
  109SOL    HW2 1227   0.939   0.849   2.080
  110SOL     OW 1228   3.042   5.802   3.834
  110SOL    HW1 1229   3.030   5.703   3.825
  110SOL    HW2 1230   3.102   5.822   3.911
  111SOL     OW 1231   1.147   1.089   4.225
  111SOL    HW1 1232   1.188   1.043   4.304
  111SOL    HW2 1233   1.113   1.020   4.160
  112SOL     OW 1234   3.539   6.504   6.084
  112SOL    HW1 1235   3.514   6.407   6.079
  112SOL    HW2 1236   3.570   6.525   6.177
  113SOL     OW 1237   0.471   5.505   2.784
  113SOL    HW1 1238   0.471   5.410   2.753
  113SOL    HW2 1239   0.564   5.535   2.804
  114SOL     OW 1240   1.591   0.108   2.405
  114SOL    HW1 1241   1.682   0.149   2.408
  114SOL    HW2 1242   1.597   0.012   2.379
  115SOL     OW 1243   4.877   1.743   3.460
  115SOL    HW1 1244   4.918   1.655   3.435
  115SOL    HW2 1245   4.883   1.756   3.559
  116SOL     OW 1246   6.283   5.556   2.035
  116SOL    HW1 1247   6.231   5.502   1.970
  116SOL    HW2 1248   6.221   5.602   2.098
  117SOL     OW 1249   1.707   2.099   0.651
  117SOL    HW1 1250   1.759   2.137   0.575
  117SOL    HW2 1251   1.649   2.171   0.691
  118SOL     OW 1252   1.852   0.843   2.373
  118SOL    HW1 1253   1.806   0.804   2.453
  118SOL    HW2 1254   1.783   0.869   2.305
  119SOL     OW 1255   0.459   0.079   0.089
  119SOL    HW1 1256   0.511   7.020   0.088
  119SOL    HW2 1257   0.500   0.143   0.154
  120SOL     OW 1258   5.865   0.365   6.608
  120SOL    HW1 1259   5.860   0.317   6.520
  120SOL    HW2 1260   5.789   0.336   6.666
  121SOL     OW 1261   1.750   3.457   5.849
  121SOL    HW1 1262   1.794   3.532   5.898
  121SOL    HW2 1263   1.659   3.441   5.886
  122SOL     OW 1264   1.511   3.739   6.540
  122SOL    HW1 1265   1.502   3.812   6.607
  122SOL    HW2 1266   1.424   3.690   6.533
  123SOL     OW 1267   0.841   1.104   2.783
  123SOL    HW1 1268   0.916   1.052   2.743
  123SOL    HW2 1269   0.760   1.046   2.790
  124SOL     OW 1270   3.729   2.520   0.431
  124SOL    HW1 1271   3.688   2.437   0.470
  124SOL    HW2 1272   3.747   2.506   0.334
  125SOL     OW 1273   3.555   1.921   0.672
  125SOL    HW1 1274   3.593   1.973   0.595
  125SOL    HW2 1275   3.625   1.858   0.707
  126SOL     OW 1276   1.760   4.567   0.630
  126SOL    HW1 1277   1.840   4.509   0.614
  126SOL    HW2 1278   1.730   4.557   0.724
  127SOL     OW 1279   0.624   5.018   0.002
  127SOL    HW1 1280   0.599   5.014   6.931
  127SOL    HW2 1281   0.564   5.083   0.048
  128SOL     OW 1282   5.078   2.364   1.335
  128SOL    HW1 1283   5.097   2.319   1.248
  128SOL    HW2 1284   4.995   2.325   1.376
  129SOL     OW 1285   2.736   3.665   6.280
  129SOL    HW1 1286   2.776   3.750   6.247
  129SOL    HW2 1287   2.795   3.588   6.256
  130SOL     OW 1288   1.340   1.882   4.558
  130SOL    HW1 1289   1.278   1.834   4.496
  130SOL    HW2 1290   1.330   1.980   4.546
  131SOL     OW 1291   4.491   0.901   3.462
  131SOL    HW1 1292   4.408   0.915   3.515
  131SOL    HW2 1293   4.568   0.948   3.505
  132SOL     OW 1294   2.830   3.401   1.915
  132SOL    HW1 1295   2.865   3.308   1.902
  132SOL    HW2 1296   2.837   3.427   2.011
  133SOL     OW 1297   5.419   1.068   4.452
  133SOL    HW1 1298   5.460   0.989   4.496
  133SOL    HW2 1299   5.489   1.122   4.406
  134SOL     OW 1300   6.608   0.909   2.513
  134SOL    HW1 1301   6.604   0.922   2.414
  134SOL    HW2 1302   6.529   0.954   2.555
  135SOL     OW 1303   5.532   3.692   3.736
  135SOL    HW1 1304   5.508   3.600   3.766
  135SOL    HW2 1305   5.578   3.741   3.811
  136SOL     OW 1306   2.093   5.217   5.466
  136SOL    HW1 1307   2.028   5.271   5.412
  136SOL    HW2 1308   2.078   5.233   5.563
  137SOL     OW 1309   5.780   1.572   3.346
  137SOL    HW1 1310   5.863   1.525   3.378
  137SOL    HW2 1311   5.785   1.584   3.247
  138SOL     OW 1312   1.370   4.065   2.356
  138SOL    HW1 1313   1.451   4.120   2.341
  138SOL    HW2 1314   1.372   4.027   2.449
  139SOL     OW 1315   1.469   6.865   5.404
  139SOL    HW1 1316   1.547   6.919   5.373
  139SOL    HW2 1317   1.461   6.781   5.349
  140SOL     OW 1318   1.068   6.543   3.792
  140SOL    HW1 1319   1.163   6.568   3.777
  140SOL    HW2 1320   1.034   6.586   3.876
  141SOL     OW 1321   0.355   2.715   5.156
  141SOL    HW1 1322   0.416   2.792   5.177
  141SOL    HW2 1323   0.313   2.729   5.066
  142SOL     OW 1324   1.068   4.111   1.236
  142SOL    HW1 1325   1.123   4.028   1.225
  142SOL    HW2 1326   1.029   4.112   1.328
  143SOL     OW 1327   5.390   4.122   0.647
  143SOL    HW1 1328   5.391   4.048   0.579
  143SOL    HW2 1329   5.304   4.172   0.641
  144SOL     OW 1330   1.402   4.869   6.109
  144SOL    HW1 1331   1.479   4.809   6.085
  144SOL    HW2 1332   1.331   4.861   6.039
  145SOL     OW 1333   0.439   5.791   1.044
  145SOL    HW1 1334   0.512   5.767   0.980
  145SOL    HW2 1335   0.404   5.882   1.020
  146SOL     OW 1336   4.623   0.996   5.850
  146SOL    HW1 1337   4.553   0.998   5.921
  146SOL    HW2 1338   4.635   0.903   5.817
  147SOL     OW 1339   5.312   3.155   6.605
  147SOL    HW1 1340   5.216   3.156   6.632
  147SOL    HW2 1341   5.369   3.164   6.687
  148SOL     OW 1342   6.814   5.547   0.823
  148SOL    HW1 1343   6.799   5.558   0.921
  148SOL    HW2 1344   6.726   5.535   0.777
  149SOL     OW 1345   4.141   2.245   3.818
  149SOL    HW1 1346   4.199   2.312   3.772
  149SOL    HW2 1347   4.147   2.260   3.917
  150SOL     OW 1348   5.823   6.808   0.802
  150SOL    HW1 1349   5.895   6.769   0.744
  150SOL    HW2 1350   5.733   6.790   0.761
  151SOL     OW 1351   3.235   2.039   1.289
  151SOL    HW1 1352   3.160   2.102   1.306
  151SOL    HW2 1353   3.219   1.990   1.203
  152SOL     OW 1354   0.068   0.475   1.574
  152SOL    HW1 1355   0.148   0.520   1.614
  152SOL    HW2 1356   7.012   0.502   1.626
  153SOL     OW 1357   2.850   0.761   3.735
  153SOL    HW1 1358   2.914   0.821   3.688
  153SOL    HW2 1359   2.894   0.719   3.814
  154SOL     OW 1360   1.165   3.457   1.578
  154SOL    HW1 1361   1.100   3.505   1.638
  154SOL    HW2 1362   1.249   3.511   1.570
  155SOL     OW 1363   0.793   1.581   4.767
  155SOL    HW1 1364   0.714   1.579   4.828
  155SOL    HW2 1365   0.861   1.645   4.803
  156SOL     OW 1366   0.227   0.793   1.030
  156SOL    HW1 1367   0.145   0.805   1.086
  156SOL    HW2 1368   0.273   0.882   1.018
  157SOL     OW 1369   5.084   2.936   1.598
  157SOL    HW1 1370   5.022   2.858   1.607
  157SOL    HW2 1371   5.043   3.016   1.641
  158SOL     OW 1372   1.859   3.677   2.036
  158SOL    HW1 1373   1.801   3.597   2.025
  158SOL    HW2 1374   1.911   3.670   2.121
  159SOL     OW 1375   5.015   4.157   2.880
  159SOL    HW1 1376   5.051   4.091   2.814
  159SOL    HW2 1377   4.965   4.229   2.831
  160SOL     OW 1378   5.268   5.945   1.139
  160SOL    HW1 1379   5.331   6.003   1.192
  160SOL    HW2 1380   5.322   5.884   1.080
  161SOL     OW 1381   1.821   6.105   3.532
  161SOL    HW1 1382   1.750   6.143   3.473
  161SOL    HW2 1383   1.782   6.031   3.587
  162SOL     OW 1384   3.464   6.228   0.392
  162SOL    HW1 1385   3.484   6.174   0.474
  162SOL    HW2 1386   3.540   6.290   0.374
  163SOL     OW 1387   6.226   5.571   1.341
  163SOL    HW1 1388   6.282   5.507   1.290
  163SOL    HW2 1389   6.283   5.624   1.403
  164SOL     OW 1390   6.885   4.323   2.206
  164SOL    HW1 1391   6.811   4.350   2.267
  164SOL    HW2 1392   6.971   4.322   2.258
  165SOL     OW 1393   5.110   3.343   1.136
  165SOL    HW1 1394   5.145   3.309   1.223
  165SOL    HW2 1395   5.147   3.288   1.061
  166SOL     OW 1396   1.128   3.735   2.446
  166SOL    HW1 1397   1.033   3.764   2.443
  166SOL    HW2 1398   1.165   3.732   2.353
  167SOL     OW 1399   4.882   3.165   6.929
  167SOL    HW1 1400   4.860   3.087   6.870
  167SOL    HW2 1401   4.869   3.139   7.025
  168SOL     OW 1402   3.310   2.934   1.195
  168SOL    HW1 1403   3.317   2.850   1.141
  168SOL    HW2 1404   3.250   2.999   1.148
  169SOL     OW 1405   5.749   2.117   1.800
  169SOL    HW1 1406   5.815   2.098   1.872
  169SOL    HW2 1407   5.763   2.211   1.766
  170SOL     OW 1408   0.778   0.118   2.979
  170SOL    HW1 1409   0.818   0.029   2.960
  170SOL    HW2 1410   0.679   0.115   2.964
  171SOL     OW 1411   2.471   4.526   6.994
  171SOL    HW1 1412   2.405   4.541   6.920
  171SOL    HW2 1413   2.426   4.541   0.056
  172SOL     OW 1414   6.404   0.971   2.693
  172SOL    HW1 1415   6.404   1.052   2.751
  172SOL    HW2 1416   6.343   0.902   2.733
  173SOL     OW 1417   6.617   1.176   4.152
  173SOL    HW1 1418   6.583   1.270   4.149
  173SOL    HW2 1419   6.709   1.173   4.113
  174SOL     OW 1420   4.014   5.954   3.744
  174SOL    HW1 1421   4.094   5.916   3.789
  174SOL    HW2 1422   3.993   5.902   3.662
  175SOL     OW 1423   3.340   6.865   1.662
  175SOL    HW1 1424   3.300   6.782   1.623
  175SOL    HW2 1425   3.314   6.944   1.606
  176SOL     OW 1426   6.730   4.007   0.635
  176SOL    HW1 1427   6.646   4.015   0.688
  176SOL    HW2 1428   6.763   4.099   0.610
  177SOL     OW 1429   6.002   2.913   2.610
  177SOL    HW1 1430   5.977   2.915   2.707
  177SOL    HW2 1431   5.923   2.939   2.554
  178SOL     OW 1432   2.663   3.691   6.545
  178SOL    HW1 1433   2.596   3.626   6.581
  178SOL    HW2 1434   2.698   3.657   6.457
  179SOL     OW 1435   4.469   1.801   5.424
  179SOL    HW1 1436   4.432   1.728   5.483
  179SOL    HW2 1437   4.526   1.760   5.353
  180SOL     OW 1438   2.155   6.869   0.358
  180SOL    HW1 1439   2.101   6.923   0.422
  180SOL    HW2 1440   2.100   6.846   0.278
  181SOL     OW 1441   3.588   3.160   5.919
  181SOL    HW1 1442   3.509   3.107   5.951
  181SOL    HW2 1443   3.561   3.217   5.841
  182SOL     OW 1444   3.726   1.897   5.294
  182SOL    HW1 1445   3.643   1.953   5.298
  182SOL    HW2 1446   3.726   1.833   5.371
  183SOL     OW 1447   3.709   2.028   3.204
  183SOL    HW1 1448   3.768   2.068   3.275
  183SOL    HW2 1449   3.618   2.068   3.209
  184SOL     OW 1450   0.878   6.727   4.584
  184SOL    HW1 1451   0.946   6.754   4.653
  184SOL    HW2 1452   0.799   6.787   4.590
  185SOL     OW 1453   0.375   1.361   6.411
  185SOL    HW1 1454   0.327   1.341   6.326
  185SOL    HW2 1455   0.400   1.274   6.455
  186SOL     OW 1456   5.667   0.846   4.226
  186SOL    HW1 1457   5.747   0.787   4.217
  186SOL    HW2 1458   5.592   0.809   4.172
  187SOL     OW 1459   5.061   6.966   2.552
  187SOL    HW1 1460   5.079   6.951   2.649
  187SOL    HW2 1461   5.100   6.891   2.499
  188SOL     OW 1462   1.197   3.036   2.803
  188SOL    HW1 1463   1.134   3.039   2.881
  188SOL    HW2 1464   1.153   2.987   2.728
  189SOL     OW 1465   2.475   5.364   1.214
  189SOL    HW1 1466   2.417   5.291   1.251
  189SOL    HW2 1467   2.418   5.440   1.185
  190SOL     OW 1468   5.100   2.617   4.592
  190SOL    HW1 1469   5.187   2.581   4.557
  190SOL    HW2 1470   5.025   2.584   4.535
  191SOL     OW 1471   6.092   0.385   6.766
  191SOL    HW1 1472   6.008   0.379   6.712
  191SOL    HW2 1473   6.073   0.431   6.853
  192SOL     OW 1474   0.924   5.187   1.855
  192SOL    HW1 1475   0.916   5.236   1.768
  192SOL    HW2 1476   0.968   5.099   1.840
  193SOL     OW 1477   4.385   3.810   5.330
  193SOL    HW1 1478   4.341   3.768   5.251
  193SOL    HW2 1479   4.447   3.744   5.373
  194SOL     OW 1480   4.196   1.136   2.981
  194SOL    HW1 1481   4.206   1.068   2.908
  194SOL    HW2 1482   4.102   1.133   3.016
  195SOL     OW 1483   1.529   6.941   4.440
  195SOL    HW1 1484   1.459   6.957   4.509
  195SOL    HW2 1485   1.582   6.859   4.465
  196SOL     OW 1486   3.134   0.741   0.970
  196SOL    HW1 1487   3.201   0.680   1.012
  196SOL    HW2 1488   3.153   0.835   0.997
  197SOL     OW 1489   2.365   6.938   1.469
  197SOL    HW1 1490   2.359   0.001   1.514
  197SOL    HW2 1491   2.460   6.916   1.450
  198SOL     OW 1492   5.088   6.896   1.512
  198SOL    HW1 1493   5.070   6.801   1.539
  198SOL    HW2 1494   5.008   6.952   1.531
  199SOL     OW 1495   0.245   1.535   3.215
  199SOL    HW1 1496   0.194   1.571   3.293
  199SOL    HW2 1497   0.191   1.546   3.131
  200SOL     OW 1498   0.945   4.635   2.202
  200SOL    HW1 1499   0.889   4.677   2.274
  200SOL    HW2 1500   0.972   4.543   2.230
  201SOL     OW 1501   6.384   6.811   5.919
  201SOL    HW1 1502   6.341   6.901   5.909
  201SOL    HW2 1503   6.470   6.809   5.868
  202SOL     OW 1504   4.667   0.637   6.388
  202SOL    HW1 1505   4.661   0.724   6.437
  202SOL    HW2 1506   4.731   0.577   6.436
  203SOL     OW 1507   4.875   2.357   4.373
  203SOL    HW1 1508   4.805   2.338   4.304
  203SOL    HW2 1509   4.862   2.450   4.408
  204SOL     OW 1510   0.669   0.741   6.195
  204SOL    HW1 1511   0.624   0.706   6.113
  204SOL    HW2 1512   0.627   0.828   6.221
  205SOL     OW 1513   0.923   1.337   2.930
  205SOL    HW1 1514   0.916   1.335   3.030
  205SOL    HW2 1515   0.876   1.258   2.891
  206SOL     OW 1516   6.885   4.820   0.930
  206SOL    HW1 1517   6.894   4.720   0.931
  206SOL    HW2 1518   6.937   4.858   0.853
  207SOL     OW 1519   5.579   1.389   3.568
  207SOL    HW1 1520   5.618   1.302   3.597
  207SOL    HW2 1521   5.576   1.452   3.646
  208SOL     OW 1522   5.860   2.622   4.831
  208SOL    HW1 1523   5.900   2.532   4.818
  208SOL    HW2 1524   5.889   2.659   4.919
  209SOL     OW 1525   0.241   4.744   3.612
  209SOL    HW1 1526   0.228   4.681   3.536
  209SOL    HW2 1527   0.312   4.709   3.673
  210SOL     OW 1528   4.127   1.931   0.828
  210SOL    HW1 1529   4.145   1.989   0.907
  210SOL    HW2 1530   4.096   1.841   0.859
  211SOL     OW 1531   2.534   6.063   3.169
  211SOL    HW1 1532   2.571   6.009   3.093
  211SOL    HW2 1533   2.602   6.070   3.242
  212SOL     OW 1534   1.267   4.293   1.948
  212SOL    HW1 1535   1.311   4.378   1.917
  212SOL    HW2 1536   1.212   4.312   2.030
  213SOL     OW 1537   3.112   0.783   0.210
  213SOL    HW1 1538   3.117   0.852   0.282
  213SOL    HW2 1539   3.203   0.770   0.170
  214SOL     OW 1540   4.709   5.079   1.358
  214SOL    HW1 1541   4.737   5.034   1.273
  214SOL    HW2 1542   4.626   5.132   1.341
  215SOL     OW 1543   2.048   3.715   0.972
  215SOL    HW1 1544   1.951   3.733   0.984
  215SOL    HW2 1545   2.062   3.618   0.952
  216SOL     OW 1546   2.247   6.024   3.820
  216SOL    HW1 1547   2.296   5.952   3.772
  216SOL    HW2 1548   2.218   5.990   3.910
  217SOL     OW 1549   1.650   2.491   4.200
  217SOL    HW1 1550   1.718   2.419   4.204
  217SOL    HW2 1551   1.572   2.467   4.259
  218SOL     OW 1552   0.778   3.979   4.485
  218SOL    HW1 1553   0.834   3.970   4.402
  218SOL    HW2 1554   0.835   3.963   4.566
  219SOL     OW 1555   4.644   6.749   6.164
  219SOL    HW1 1556   4.680   6.827   6.215
  219SOL    HW2 1557   4.616   6.677   6.228
  220SOL     OW 1558   3.637   0.210   1.029
  220SOL    HW1 1559   3.736   0.195   1.024
  220SOL    HW2 1560   3.590   0.151   0.963
  221SOL     OW 1561   6.420   3.111   1.323
  221SOL    HW1 1562   6.414   3.201   1.280
  221SOL    HW2 1563   6.330   3.084   1.356
  222SOL     OW 1564   2.564   4.974   5.166
  222SOL    HW1 1565   2.647   4.974   5.111
  222SOL    HW2 1566   2.494   5.029   5.121
  223SOL     OW 1567   5.406   2.711   0.108
  223SOL    HW1 1568   5.319   2.681   0.148
  223SOL    HW2 1569   5.482   2.674   0.162
  224SOL     OW 1570   1.872   1.849   4.756
  224SOL    HW1 1571   1.805   1.846   4.830
  224SOL    HW2 1572   1.834   1.898   4.678
  225SOL     OW 1573   4.549   3.079   6.299
  225SOL    HW1 1574   4.614   3.029   6.242
  225SOL    HW2 1575   4.495   3.141   6.242
  226SOL     OW 1576   1.359   0.634   6.112
  226SOL    HW1 1577   1.436   0.696   6.128
  226SOL    HW2 1578   1.273   0.681   6.133
  227SOL     OW 1579   1.512   3.603   3.068
  227SOL    HW1 1580   1.522   3.678   3.002
  227SOL    HW2 1581   1.567   3.525   3.037
  228SOL     OW 1582   2.863   6.315   3.888
  228SOL    HW1 1583   2.943   6.349   3.839
  228SOL    HW2 1584   2.856   6.360   3.977
  229SOL     OW 1585   5.129   6.025   6.973
  229SOL    HW1 1586   5.044   6.057   6.930
  229SOL    HW2 1587   5.139   5.927   6.957
  230SOL     OW 1588   3.398   4.998   3.463
  230SOL    HW1 1589   3.346   5.063   3.406
  230SOL    HW2 1590   3.483   5.041   3.493
  231SOL     OW 1591   6.348   2.209   6.919
  231SOL    HW1 1592   6.381   2.181   7.009
  231SOL    HW2 1593   6.278   2.145   6.887
  232SOL     OW 1594   1.078   3.455   6.466
  232SOL    HW1 1595   1.118   3.528   6.411
  232SOL    HW2 1596   1.080   3.369   6.413
  233SOL     OW 1597   2.726   2.178   3.664
  233SOL    HW1 1598   2.626   2.178   3.666
  233SOL    HW2 1599   2.757   2.219   3.579
  234SOL     OW 1600   4.818   0.304   5.150
  234SOL    HW1 1601   4.838   0.299   5.248
  234SOL    HW2 1602   4.861   0.228   5.103
  235SOL     OW 1603   3.503   2.841   1.765
  235SOL    HW1 1604   3.530   2.909   1.698
  235SOL    HW2 1605   3.584   2.805   1.811
  236SOL     OW 1606   4.414   3.279   6.868
  236SOL    HW1 1607   4.321   3.245   6.877
  236SOL    HW2 1608   4.476   3.220   6.920
  237SOL     OW 1609   5.760   4.709   1.946
  237SOL    HW1 1610   5.699   4.644   1.990
  237SOL    HW2 1611   5.844   4.717   1.999
  238SOL     OW 1612   5.197   2.123   0.450
  238SOL    HW1 1613   5.194   2.151   0.546
  238SOL    HW2 1614   5.266   2.052   0.439
  239SOL     OW 1615   0.720   5.707   6.247
  239SOL    HW1 1616   0.731   5.685   6.344
  239SOL    HW2 1617   0.706   5.623   6.195
  240SOL     OW 1618   0.325   2.521   3.125
  240SOL    HW1 1619   0.248   2.573   3.090
  240SOL    HW2 1620   0.382   2.490   3.049
  241SOL     OW 1621   2.069   0.399   4.604
  241SOL    HW1 1622   1.990   0.339   4.609
  241SOL    HW2 1623   2.042   0.487   4.563
  242SOL     OW 1624   3.395   3.280   4.974
  242SOL    HW1 1625   3.307   3.237   4.992
  242SOL    HW2 1626   3.469   3.214   4.990
  243SOL     OW 1627   4.108   0.473   5.813
  243SOL    HW1 1628   4.095   0.421   5.729
  243SOL    HW2 1629   4.077   0.419   5.891
  244SOL     OW 1630   5.956   2.405   4.433
  244SOL    HW1 1631   5.997   2.371   4.349
  244SOL    HW2 1632   5.860   2.428   4.418
  245SOL     OW 1633   6.460   3.701   4.075
  245SOL    HW1 1634   6.554   3.735   4.082
  245SOL    HW2 1635   6.413   3.749   4.001
  246SOL     OW 1636   5.204   2.648   3.511
  246SOL    HW1 1637   5.165   2.559   3.535
  246SOL    HW2 1638   5.205   2.707   3.592
  247SOL     OW 1639   2.713   1.939   1.499
  247SOL    HW1 1640   2.614   1.946   1.484
  247SOL    HW2 1641   2.731   1.870   1.569
  248SOL     OW 1642   3.876   2.060   2.781
  248SOL    HW1 1643   3.941   2.135   2.775
  248SOL    HW2 1644   3.876   2.023   2.874
  249SOL     OW 1645   4.028   0.026   5.193
  249SOL    HW1 1646   4.038   0.094   5.120
  249SOL    HW2 1647   4.119   7.019   5.221
  250SOL     OW 1648   5.446   2.573   0.883
  250SOL    HW1 1649   5.500   2.538   0.807
  250SOL    HW2 1650   5.479   2.533   0.969
  251SOL     OW 1651   4.676   3.954   5.603
  251SOL    HW1 1652   4.709   3.883   5.541
  251SOL    HW2 1653   4.753   3.999   5.647
  252SOL     OW 1654   6.425   6.687   6.847
  252SOL    HW1 1655   6.347   6.717   6.791
  252SOL    HW2 1656   6.494   6.645   6.788
  253SOL     OW 1657   2.917   4.615   0.256
  253SOL    HW1 1658   3.007   4.577   0.235
  253SOL    HW2 1659   2.878   4.565   0.333
  254SOL     OW 1660   5.065   3.030   3.584
  254SOL    HW1 1661   5.081   2.948   3.639
  254SOL    HW2 1662   5.125   3.028   3.504
  255SOL     OW 1663   1.838   3.020   4.482
  255SOL    HW1 1664   1.831   2.924   4.509
  255SOL    HW2 1665   1.747   3.061   4.484
  256SOL     OW 1666   6.498   4.177   6.267
  256SOL    HW1 1667   6.524   4.153   6.361
  256SOL    HW2 1668   6.414   4.127   6.242
  257SOL     OW 1669   5.195   6.240   4.021
  257SOL    HW1 1670   5.250   6.323   4.024
  257SOL    HW2 1671   5.255   6.161   4.003
  258SOL     OW 1672   1.479   5.179   4.723
  258SOL    HW1 1673   1.387   5.209   4.698
  258SOL    HW2 1674   1.535   5.260   4.743
  259SOL     OW 1675   1.373   1.777   2.267
  259SOL    HW1 1676   1.387   1.690   2.220
  259SOL    HW2 1677   1.455   1.834   2.258
  260SOL     OW 1678   4.657   1.135   1.076
  260SOL    HW1 1679   4.752   1.168   1.073
  260SOL    HW2 1680   4.600   1.202   1.123
  261SOL     OW 1681   6.034   4.045   0.352
  261SOL    HW1 1682   6.012   4.011   0.444
  261SOL    HW2 1683   6.117   4.100   0.357
  262SOL     OW 1684   6.457   4.071   0.555
  262SOL    HW1 1685   6.426   3.993   0.501
  262SOL    HW2 1686   6.477   4.148   0.494
  263SOL     OW 1687   0.417   1.107   3.511
  263SOL    HW1 1688   0.423   1.110   3.411
  263SOL    HW2 1689   0.378   1.193   3.545
  264SOL     OW 1690   4.828   3.363   6.430
  264SOL    HW1 1691   4.804   3.329   6.520
  264SOL    HW2 1692   4.787   3.453   6.416
  265SOL     OW 1693   4.775   5.128   2.845
  265SOL    HW1 1694   4.861   5.082   2.822
  265SOL    HW2 1695   4.779   5.224   2.817
  266SOL     OW 1696   3.130   3.090   5.717
  266SOL    HW1 1697   3.093   3.183   5.721
  266SOL    HW2 1698   3.062   3.028   5.679
  267SOL     OW 1699   0.500   1.589   6.527
  267SOL    HW1 1700   0.461   1.501   6.498
  267SOL    HW2 1701   0.557   1.625   6.453
  268SOL     OW 1702   3.801   0.671   5.266
  268SOL    HW1 1703   3.886   0.708   5.230
  268SOL    HW2 1704   3.796   0.573   5.246
  269SOL     OW 1705   1.481   3.193   1.492
  269SOL    HW1 1706   1.426   3.109   1.487
  269SOL    HW2 1707   1.567   3.174   1.539
  270SOL     OW 1708   6.971   0.522   0.164
  270SOL    HW1 1709   0.015   0.454   0.186
  270SOL    HW2 1710   6.907   0.484   0.098
  271SOL     OW 1711   1.585   1.835   6.899
  271SOL    HW1 1712   1.503   1.858   6.951
  271SOL    HW2 1713   1.615   1.916   6.847
  272SOL     OW 1714   3.147   4.998   4.287
  272SOL    HW1 1715   3.221   4.936   4.314
  272SOL    HW2 1716   3.127   4.987   4.190
  273SOL     OW 1717   1.726   3.923   4.949
  273SOL    HW1 1718   1.737   3.832   4.988
  273SOL    HW2 1719   1.743   3.919   4.851
  274SOL     OW 1720   4.693   1.467   2.676
  274SOL    HW1 1721   4.727   1.436   2.765
  274SOL    HW2 1722   4.611   1.523   2.690
  275SOL     OW 1723   6.163   4.771   5.026
  275SOL    HW1 1724   6.208   4.703   5.083
  275SOL    HW2 1725   6.212   4.858   5.033
  276SOL     OW 1726   0.018   5.636   2.613
  276SOL    HW1 1727   0.002   5.722   2.564
  276SOL    HW2 1728   0.098   5.590   2.574
  277SOL     OW 1729   1.692   3.781   0.822
  277SOL    HW1 1730   1.711   3.756   0.917
  277SOL    HW2 1731   1.777   3.779   0.769
  278SOL     OW 1732   6.543   5.255   1.786
  278SOL    HW1 1733   6.553   5.193   1.865
  278SOL    HW2 1734   6.618   5.240   1.723
  279SOL     OW 1735   6.221   2.937   4.614
  279SOL    HW1 1736   6.146   2.988   4.572
  279SOL    HW2 1737   6.308   2.973   4.582
  280SOL     OW 1738   3.117   6.770   2.888
  280SOL    HW1 1739   3.041   6.833   2.868
  280SOL    HW2 1740   3.128   6.707   2.811
  281SOL     OW 1741   3.407   5.008   2.156
  281SOL    HW1 1742   3.428   5.076   2.086
  281SOL    HW2 1743   3.492   4.979   2.200
  282SOL     OW 1744   3.552   1.618   5.406
  282SOL    HW1 1745   3.462   1.644   5.370
  282SOL    HW2 1746   3.610   1.585   5.331
  283SOL     OW 1747   6.692   1.179   5.842
  283SOL    HW1 1748   6.625   1.253   5.843
  283SOL    HW2 1749   6.692   1.136   5.751
  284SOL     OW 1750   1.054   4.099   4.542
  284SOL    HW1 1751   1.099   4.022   4.497
  284SOL    HW2 1752   1.024   4.072   4.634
  285SOL     OW 1753   5.691   5.124   5.483
  285SOL    HW1 1754   5.693   5.223   5.469
  285SOL    HW2 1755   5.622   5.101   5.553
  286SOL     OW 1756   3.286   5.976   4.963
  286SOL    HW1 1757   3.348   5.903   4.935
  286SOL    HW2 1758   3.228   5.944   5.038
  287SOL     OW 1759   0.299   4.339   0.050
  287SOL    HW1 1760   0.351   4.272   7.023
  287SOL    HW2 1761   0.240   4.290   0.116
  288SOL     OW 1762   3.714   1.835   5.863
  288SOL    HW1 1763   3.644   1.764   5.870
  288SOL    HW2 1764   3.705   1.899   5.939
  289SOL     OW 1765   0.022   4.741   4.891
  289SOL    HW1 1766   0.100   4.731   4.951
  289SOL    HW2 1767   0.019   4.664   4.827
  290SOL     OW 1768   5.315   1.587   3.978
  290SOL    HW1 1769   5.394   1.643   4.002
  290SOL    HW2 1770   5.266   1.562   4.062
  291SOL     OW 1771   2.008   2.089   4.807
  291SOL    HW1 1772   1.963   2.002   4.788
  291SOL    HW2 1773   1.964   2.133   4.886
  292SOL     OW 1774   1.790   1.731   3.051
  292SOL    HW1 1775   1.880   1.694   3.027
  292SOL    HW2 1776   1.800   1.798   3.125
  293SOL     OW 1777   4.875   4.495   1.654
  293SOL    HW1 1778   4.942   4.421   1.648
  293SOL    HW2 1779   4.883   4.553   1.573
  294SOL     OW 1780   6.533   5.516   6.267
  294SOL    HW1 1781   6.515   5.436   6.324
  294SOL    HW2 1782   6.623   5.507   6.224
  295SOL     OW 1783   3.067   1.822   4.095
  295SOL    HW1 1784   2.969   1.826   4.078
  295SOL    HW2 1785   3.101   1.912   4.121
  296SOL     OW 1786   5.595   1.669   2.390
  296SOL    HW1 1787   5.677   1.702   2.342
  296SOL    HW2 1788   5.614   1.663   2.488
  297SOL     OW 1789   2.541   4.658   2.937
  297SOL    HW1 1790   2.553   4.756   2.951
  297SOL    HW2 1791   2.548   4.611   3.024
  298SOL     OW 1792   3.473   6.118   0.632
  298SOL    HW1 1793   3.551   6.109   0.695
  298SOL    HW2 1794   3.424   6.203   0.653
  299SOL     OW 1795   4.009   3.560   6.562
  299SOL    HW1 1796   4.055   3.543   6.649
  299SOL    HW2 1797   3.912   3.575   6.578
  300SOL     OW 1798   5.722   0.772   1.774
  300SOL    HW1 1799   5.760   0.687   1.810
  300SOL    HW2 1800   5.761   0.850   1.824
  301SOL     OW 1801   5.182   3.087   1.005
  301SOL    HW1 1802   5.101   3.085   1.064
  301SOL    HW2 1803   5.179   3.011   0.941
  302SOL     OW 1804   0.353   0.911   3.674
  302SOL    HW1 1805   0.372   0.998   3.627
  302SOL    HW2 1806   0.263   0.877   3.646
  303SOL     OW 1807   6.337   0.072   1.704
  303SOL    HW1 1808   6.357   7.003   1.677
  303SOL    HW2 1809   6.239   0.083   1.715
  304SOL     OW 1810   2.306   0.065   5.000
  304SOL    HW1 1811   2.296   7.003   5.047
  304SOL    HW2 1812   2.352   0.052   4.912
  305SOL     OW 1813   0.498   3.128   0.469
  305SOL    HW1 1814   0.399   3.130   0.457
  305SOL    HW2 1815   0.542   3.175   0.392
  306SOL     OW 1816   2.380   7.015   3.588
  306SOL    HW1 1817   2.375   0.022   3.493
  306SOL    HW2 1818   2.457   0.034   3.634
  307SOL     OW 1819   4.997   6.269   0.335
  307SOL    HW1 1820   5.027   6.202   0.403
  307SOL    HW2 1821   4.897   6.270   0.333
  308SOL     OW 1822   6.306   3.476   4.987
  308SOL    HW1 1823   6.278   3.385   4.955
  308SOL    HW2 1824   6.368   3.466   5.065
  309SOL     OW 1825   2.944   6.066   6.543
  309SOL    HW1 1826   2.917   6.075   6.447
  309SOL    HW2 1827   3.002   6.143   6.568
  310SOL     OW 1828   6.386   0.029   5.081
  310SOL    HW1 1829   6.301   7.010   5.106
  310SOL    HW2 1830   6.456   6.986   5.060
  311SOL     OW 1831   4.880   5.002   3.117
  311SOL    HW1 1832   4.914   5.093   3.142
  311SOL    HW2 1833   4.808   5.011   3.048
  312SOL     OW 1834   4.310   0.893   5.153
  312SOL    HW1 1835   4.274   0.948   5.229
  312SOL    HW2 1836   4.409   0.901   5.150
  313SOL     OW 1837   3.250   3.825   2.492
  313SOL    HW1 1838   3.269   3.923   2.487
  313SOL    HW2 1839   3.157   3.807   2.457
  314SOL     OW 1840   3.676   5.634   7.006
  314SOL    HW1 1841   3.668   5.644   6.907
  314SOL    HW2 1842   3.717   5.546   0.002
  315SOL     OW 1843   1.289   2.736   3.960
  315SOL    HW1 1844   1.354   2.660   3.952
  315SOL    HW2 1845   1.289   2.790   3.876
  316SOL     OW 1846   2.810   1.753   4.026
  316SOL    HW1 1847   2.846   1.774   3.935
  316SOL    HW2 1848   2.763   1.665   4.023
  317SOL     OW 1849   0.356   1.072   1.125
  317SOL    HW1 1850   0.361   1.050   1.223
  317SOL    HW2 1851   0.444   1.051   1.082
  318SOL     OW 1852   1.028   5.569   6.851
  318SOL    HW1 1853   1.123   5.572   6.822
  318SOL    HW2 1854   1.003   5.656   6.894
  319SOL     OW 1855   6.767   0.568   3.864
  319SOL    HW1 1856   6.771   0.668   3.868
  319SOL    HW2 1857   6.674   0.538   3.884
  320SOL     OW 1858   6.247   2.176   0.633
  320SOL    HW1 1859   6.312   2.109   0.596
  320SOL    HW2 1860   6.154   2.141   0.624
  321SOL     OW 1861   4.035   1.505   0.171
  321SOL    HW1 1862   4.117   1.449   0.158
  321SOL    HW2 1863   3.980   1.466   0.245
  322SOL     OW 1864   4.140   3.354   4.568
  322SOL    HW1 1865   4.107   3.432   4.621
  322SOL    HW2 1866   4.235   3.335   4.592
  323SOL     OW 1867   0.999   3.246   6.302
  323SOL    HW1 1868   0.949   3.286   6.225
  323SOL    HW2 1869   1.040   3.160   6.273
  324SOL     OW 1870   2.405   1.581   5.074
  324SOL    HW1 1871   2.397   1.504   5.010
  324SOL    HW2 1872   2.501   1.603   5.088
  325SOL     OW 1873   1.045   2.948   1.465
  325SOL    HW1 1874   1.047   2.882   1.541
  325SOL    HW2 1875   1.058   3.040   1.500
  326SOL     OW 1876   1.004   4.974   6.962
  326SOL    HW1 1877   1.043   5.054   6.916
  326SOL    HW2 1878   0.940   5.005   0.007
  327SOL     OW 1879   1.490   5.166   3.866
  327SOL    HW1 1880   1.558   5.131   3.930
  327SOL    HW2 1881   1.398   5.139   3.896
  328SOL     OW 1882   1.064   4.958   2.002
  328SOL    HW1 1883   0.997   4.925   1.936
  328SOL    HW2 1884   1.017   5.012   2.072
  329SOL     OW 1885   4.110   3.809   4.802
  329SOL    HW1 1886   4.180   3.850   4.859
  329SOL    HW2 1887   4.025   3.861   4.811
  330SOL     OW 1888   3.412   7.012   1.228
  330SOL    HW1 1889   3.327   0.024   1.264
  330SOL    HW2 1890   3.487   0.050   1.245
  331SOL     OW 1891   3.386   4.994   0.946
  331SOL    HW1 1892   3.363   4.905   0.986
  331SOL    HW2 1893   3.477   4.989   0.905
  332SOL     OW 1894   4.150   1.724   5.034
  332SOL    HW1 1895   4.138   1.682   4.944
  332SOL    HW2 1896   4.065   1.769   5.061
  333SOL     OW 1897   3.364   0.251   5.999
  333SOL    HW1 1898   3.437   0.306   5.958
  333SOL    HW2 1899   3.375   0.250   6.098
  334SOL     OW 1900   2.639   0.546   1.505
  334SOL    HW1 1901   2.563   0.608   1.523
  334SOL    HW2 1902   2.725   0.597   1.512
  335SOL     OW 1903   4.197   6.663   4.970
  335SOL    HW1 1904   4.105   6.658   4.931
  335SOL    HW2 1905   4.249   6.735   4.923
  336SOL     OW 1906   1.944   0.702   3.960
  336SOL    HW1 1907   1.859   0.660   3.931
  336SOL    HW2 1908   2.019   0.670   3.903
  337SOL     OW 1909   0.424   2.769   0.153
  337SOL    HW1 1910   0.382   2.858   0.134
  337SOL    HW2 1911   0.481   2.775   0.234
  338SOL     OW 1912   2.794   2.489   1.502
  338SOL    HW1 1913   2.891   2.477   1.480
  338SOL    HW2 1914   2.784   2.537   1.589
  339SOL     OW 1915   3.094   6.772   3.516
  339SOL    HW1 1916   3.129   6.679   3.522
  339SOL    HW2 1917   3.009   6.773   3.464
  340SOL     OW 1918   4.712   4.374   5.531
  340SOL    HW1 1919   4.676   4.396   5.622
  340SOL    HW2 1920   4.758   4.455   5.494
  341SOL     OW 1921   6.709   1.352   4.872
  341SOL    HW1 1922   6.773   1.300   4.929
  341SOL    HW2 1923   6.760   1.416   4.814
  342SOL     OW 1924   6.100   4.030   7.012
  342SOL    HW1 1925   6.063   3.948   0.029
  342SOL    HW2 1926   6.125   4.096   0.056
  343SOL     OW 1927   1.714   5.084   0.643
  343SOL    HW1 1928   1.715   4.987   0.668
  343SOL    HW2 1929   1.622   5.120   0.653
  344SOL     OW 1930   0.985   5.072   2.256
  344SOL    HW1 1931   0.894   5.030   2.260
  344SOL    HW2 1932   0.976   5.165   2.220
  345SOL     OW 1933   4.934   1.758   3.736
  345SOL    HW1 1934   5.025   1.729   3.705
  345SOL    HW2 1935   4.927   1.744   3.834
  346SOL     OW 1936   2.252   0.933   2.561
  346SOL    HW1 1937   2.162   0.905   2.594
  346SOL    HW2 1938   2.321   0.910   2.629
  347SOL     OW 1939   3.329   5.480   6.336
  347SOL    HW1 1940   3.416   5.462   6.290
  347SOL    HW2 1941   3.345   5.496   6.433
  348SOL     OW 1942   5.874   4.016   1.837
  348SOL    HW1 1943   5.787   4.041   1.795
  348SOL    HW2 1944   5.925   3.957   1.774
  349SOL     OW 1945   6.598   4.804   0.436
  349SOL    HW1 1946   6.695   4.787   0.451
  349SOL    HW2 1947   6.577   4.799   0.339
  350SOL     OW 1948   3.619   3.478   1.015
  350SOL    HW1 1949   3.529   3.507   1.046
  350SOL    HW2 1950   3.631   3.381   1.034
  351SOL     OW 1951   1.863   2.721   0.343
  351SOL    HW1 1952   1.870   2.627   0.375
  351SOL    HW2 1953   1.811   2.776   0.408
  352SOL     OW 1954   2.898   1.384   4.744
  352SOL    HW1 1955   2.965   1.437   4.797
  352SOL    HW2 1956   2.908   1.406   4.647
  353SOL     OW 1957   2.775   6.115   0.685
  353SOL    HW1 1958   2.740   6.023   0.665
  353SOL    HW2 1959   2.833   6.112   0.767
  354SOL     OW 1960   3.159   2.657   0.619
  354SOL    HW1 1961   3.202   2.567   0.615
  354SOL    HW2 1962   3.197   2.709   0.696
  355SOL     OW 1963   0.453   3.504   2.821
  355SOL    HW1 1964   0.490   3.570   2.886
  355SOL    HW2 1965   0.376   3.545   2.771
  356SOL     OW 1966   3.461   6.938   5.144
  356SOL    HW1 1967   3.510   6.852   5.128
  356SOL    HW2 1968   3.448   6.951   5.242
  357SOL     OW 1969   6.642   0.029   5.463
  357SOL    HW1 1970   6.578   6.993   5.507
  357SOL    HW2 1971   6.711   7.002   5.413
  358SOL     OW 1972   4.877   0.514   1.544
  358SOL    HW1 1973   4.888   0.607   1.580
  358SOL    HW2 1974   4.959   0.487   1.495
  359SOL     OW 1975   1.708   2.332   2.117
  359SOL    HW1 1976   1.735   2.322   2.213
  359SOL    HW2 1977   1.635   2.267   2.097
  360SOL     OW 1978   0.868   5.599   6.487
  360SOL    HW1 1979   0.917   5.686   6.492
  360SOL    HW2 1980   0.928   5.529   6.449
  361SOL     OW 1981   5.804   5.842   3.271
  361SOL    HW1 1982   5.728   5.906   3.258
  361SOL    HW2 1983   5.877   5.863   3.206
  362SOL     OW 1984   3.656   3.683   1.527
  362SOL    HW1 1985   3.737   3.680   1.586
  362SOL    HW2 1986   3.621   3.776   1.523
  363SOL     OW 1987   5.261   4.820   4.113
  363SOL    HW1 1988   5.180   4.834   4.055
  363SOL    HW2 1989   5.322   4.898   4.103
  364SOL     OW 1990   6.163   5.406   5.918
  364SOL    HW1 1991   6.207   5.495   5.908
  364SOL    HW2 1992   6.229   5.333   5.898
  365SOL     OW 1993   5.406   5.961   2.380
  365SOL    HW1 1994   5.405   5.912   2.468
  365SOL    HW2 1995   5.472   5.917   2.319
  366SOL     OW 1996   6.130   0.749   6.395
  366SOL    HW1 1997   6.147   0.687   6.472
  366SOL    HW2 1998   6.046   0.801   6.411
  367SOL     OW 1999   4.768   3.252   0.949
  367SOL    HW1 2000   4.781   3.245   0.850
  367SOL    HW2 2001   4.677   3.289   0.968
  368SOL     OW 2002   0.275   3.652   5.189
  368SOL    HW1 2003   0.199   3.608   5.143
  368SOL    HW2 2004   0.344   3.680   5.122
  369SOL     OW 2005   6.570   5.315   1.084
  369SOL    HW1 2006   6.646   5.380   1.080
  369SOL    HW2 2007   6.514   5.323   1.001
  370SOL     OW 2008   2.731   1.682   5.945
  370SOL    HW1 2009   2.722   1.595   5.897
  370SOL    HW2 2010   2.688   1.755   5.891
  371SOL     OW 2011   2.455   3.759   0.010
  371SOL    HW1 2012   2.483   3.824   0.080
  371SOL    HW2 2013   2.534   3.705   7.007
  372SOL     OW 2014   0.701   6.829   6.177
  372SOL    HW1 2015   0.780   6.835   6.238
  372SOL    HW2 2016   0.686   6.734   6.151
  373SOL     OW 2017   6.302   6.316   4.741
  373SOL    HW1 2018   6.319   6.248   4.813
  373SOL    HW2 2019   6.229   6.284   4.681
  374SOL     OW 2020   2.864   1.703   3.057
  374SOL    HW1 2021   2.915   1.622   3.029
  374SOL    HW2 2022   2.919   1.757   3.120
  375SOL     OW 2023   0.930   4.904   3.827
  375SOL    HW1 2024   0.984   4.986   3.847
  375SOL    HW2 2025   0.913   4.854   3.912
  376SOL     OW 2026   2.050   1.614   4.740
  376SOL    HW1 2027   2.022   1.528   4.697
  376SOL    HW2 2028   1.978   1.682   4.727
  377SOL     OW 2029   0.737   2.239   1.802
  377SOL    HW1 2030   0.817   2.263   1.748
  377SOL    HW2 2031   0.663   2.304   1.782
  378SOL     OW 2032   3.005   2.657   5.781
  378SOL    HW1 2033   3.063   2.680   5.702
  378SOL    HW2 2034   2.915   2.628   5.748
  379SOL     OW 2035   5.838   4.307   0.620
  379SOL    HW1 2036   5.813   4.309   0.523
  379SOL    HW2 2037   5.806   4.221   0.660
  380SOL     OW 2038   2.734   1.041   1.252
  380SOL    HW1 2039   2.750   1.102   1.175
  380SOL    HW2 2040   2.783   1.075   1.333
  381SOL     OW 2041   1.424   4.805   2.897
  381SOL    HW1 2042   1.423   4.737   2.970
  381SOL    HW2 2043   1.349   4.787   2.834
  382SOL     OW 2044   5.341   6.324   5.697
  382SOL    HW1 2045   5.367   6.288   5.607
  382SOL    HW2 2046   5.326   6.247   5.759
  383SOL     OW 2047   4.946   3.170   5.585
  383SOL    HW1 2048   4.898   3.153   5.499
  383SOL    HW2 2049   4.996   3.256   5.579
  384SOL     OW 2050   6.221   5.560   4.558
  384SOL    HW1 2051   6.131   5.556   4.603
  384SOL    HW2 2052   6.208   5.583   4.461
  385SOL     OW 2053   4.328   6.246   5.410
  385SOL    HW1 2054   4.325   6.345   5.420
  385SOL    HW2 2055   4.237   6.208   5.423
  386SOL     OW 2056   2.653   6.185   5.406
  386SOL    HW1 2057   2.718   6.218   5.337
  386SOL    HW2 2058   2.686   6.210   5.497
  387SOL     OW 2059   0.939   6.483   3.368
  387SOL    HW1 2060   0.956   6.390   3.400
  387SOL    HW2 2061   1.018   6.516   3.316
  388SOL     OW 2062   1.205   1.951   3.675
  388SOL    HW1 2063   1.236   2.039   3.639
  388SOL    HW2 2064   1.256   1.930   3.759
  389SOL     OW 2065   4.281   4.277   1.413
  389SOL    HW1 2066   4.332   4.302   1.330
  389SOL    HW2 2067   4.337   4.218   1.470
  390SOL     OW 2068   3.464   1.095   0.212
  390SOL    HW1 2069   3.511   1.009   0.232
  390SOL    HW2 2070   3.437   1.097   0.115
  391SOL     OW 2071   1.973   3.986   5.436
  391SOL    HW1 2072   1.979   4.086   5.443
  391SOL    HW2 2073   1.918   3.950   5.511
  392SOL     OW 2074   1.727   4.315   1.367
  392SOL    HW1 2075   1.804   4.330   1.429
  392SOL    HW2 2076   1.666   4.394   1.370
  393SOL     OW 2077   0.981   4.728   6.840
  393SOL    HW1 2078   0.927   4.721   6.756
  393SOL    HW2 2079   0.977   4.821   6.875
  394SOL     OW 2080   0.123   2.701   6.945
  394SOL    HW1 2081   0.049   2.708   7.011
  394SOL    HW2 2082   0.182   2.624   6.968
  395SOL     OW 2083   4.765   4.559   3.295
  395SOL    HW1 2084   4.730   4.538   3.386
  395SOL    HW2 2085   4.729   4.647   3.265
  396SOL     OW 2086   2.871   3.327   2.178
  396SOL    HW1 2087   2.776   3.296   2.188
  396SOL    HW2 2088   2.922   3.260   2.124
  397SOL     OW 2089   5.545   2.310   6.147
  397SOL    HW1 2090   5.520   2.236   6.084
  397SOL    HW2 2091   5.501   2.395   6.117
  398SOL     OW 2092   1.437   0.294   3.346
  398SOL    HW1 2093   1.481   0.382   3.365
  398SOL    HW2 2094   1.340   0.309   3.325
  399SOL     OW 2095   5.683   6.145   4.010
  399SOL    HW1 2096   5.681   6.245   4.007
  399SOL    HW2 2097   5.777   6.114   4.028
  400SOL     OW 2098   6.095   6.462   5.887
  400SOL    HW1 2099   6.066   6.503   5.801
  400SOL    HW2 2100   6.126   6.369   5.871
  401SOL     OW 2101   4.783   0.256   6.025
  401SOL    HW1 2102   4.808   0.186   5.959
  401SOL    HW2 2103   4.858   0.322   6.034
  402SOL     OW 2104   6.839   1.053   3.515
  402SOL    HW1 2105   6.838   0.959   3.548
  402SOL    HW2 2106   6.814   1.054   3.418
  403SOL     OW 2107   3.776   1.030   5.168
  403SOL    HW1 2108   3.722   0.946   5.157
  403SOL    HW2 2109   3.760   1.090   5.090
  404SOL     OW 2110   1.708   4.998   4.643
  404SOL    HW1 2111   1.612   5.024   4.646
  404SOL    HW2 2112   1.762   5.060   4.699
  405SOL     OW 2113   2.146   3.296   3.056
  405SOL    HW1 2114   2.153   3.247   3.143
  405SOL    HW2 2115   2.083   3.373   3.066
  406SOL     OW 2116   0.154   4.139   5.213
  406SOL    HW1 2117   0.129   4.110   5.305
  406SOL    HW2 2118   0.110   4.227   5.193
  407SOL     OW 2119   1.488   2.311   5.299
  407SOL    HW1 2120   1.426   2.368   5.245
  407SOL    HW2 2121   1.448   2.220   5.310
  408SOL     OW 2122   3.455   2.116   3.114
  408SOL    HW1 2123   3.501   2.122   3.025
  408SOL    HW2 2124   3.360   2.088   3.101
  409SOL     OW 2125   6.676   3.320   1.221
  409SOL    HW1 2126   6.600   3.377   1.191
  409SOL    HW2 2127   6.692   3.247   1.154
  410SOL     OW 2128   0.921   1.618   1.283
  410SOL    HW1 2129   0.859   1.675   1.336
  410SOL    HW2 2130   0.896   1.623   1.186
  411SOL     OW 2131   6.417   0.940   1.448
  411SOL    HW1 2132   6.347   0.925   1.517
  411SOL    HW2 2133   6.408   0.870   1.376
  412SOL     OW 2134   3.566   4.889   2.721
  412SOL    HW1 2135   3.608   4.865   2.809
  412SOL    HW2 2136   3.471   4.858   2.720
  413SOL     OW 2137   5.362   4.287   1.693
  413SOL    HW1 2138   5.266   4.314   1.701
  413SOL    HW2 2139   5.376   4.243   1.604
  414SOL     OW 2140   3.234   6.709   3.863
  414SOL    HW1 2141   3.252   6.653   3.943
  414SOL    HW2 2142   3.142   6.689   3.828
  415SOL     OW 2143   0.709   0.159   6.890
  415SOL    HW1 2144   0.670   0.117   6.972
  415SOL    HW2 2145   0.809   0.155   6.894
  416SOL     OW 2146   4.718   5.395   5.265
  416SOL    HW1 2147   4.625   5.429   5.251
  416SOL    HW2 2148   4.782   5.452   5.213
  417SOL     OW 2149   2.540   0.315   5.850
  417SOL    HW1 2150   2.468   0.256   5.887
  417SOL    HW2 2151   2.628   0.268   5.855
  418SOL     OW 2152   2.843   6.932   6.057
  418SOL    HW1 2153   2.785   6.994   6.111
  418SOL    HW2 2154   2.884   6.865   6.118
  419SOL     OW 2155   0.882   6.861   3.215
  419SOL    HW1 2156   0.900   6.895   3.122
  419SOL    HW2 2157   0.966   6.823   3.253
  420SOL     OW 2158   5.960   1.349   6.550
  420SOL    HW1 2159   5.904   1.339   6.468
  420SOL    HW2 2160   5.929   1.284   6.619
  421SOL     OW 2161   5.838   3.581   4.670
  421SOL    HW1 2162   5.750   3.627   4.655
  421SOL    HW2 2163   5.866   3.593   4.765
  422SOL     OW 2164   4.650   3.130   0.377
  422SOL    HW1 2165   4.567   3.170   0.337
  422SOL    HW2 2166   4.729   3.186   0.351
  423SOL     OW 2167   1.941   1.853   0.050
  423SOL    HW1 2168   1.850   1.865   0.011
  423SOL    HW2 2169   1.941   1.887   0.145
  424SOL     OW 2170   1.718   4.755   2.535
  424SOL    HW1 2171   1.802   4.722   2.491
  424SOL    HW2 2172   1.695   4.695   2.612
  425SOL     OW 2173   5.136   1.816   3.954
  425SOL    HW1 2174   5.064   1.824   4.023
  425SOL    HW2 2175   5.165   1.720   3.947
  426SOL     OW 2176   2.424   2.583   4.374
  426SOL    HW1 2177   2.362   2.506   4.367
  426SOL    HW2 2178   2.414   2.627   4.463
  427SOL     OW 2179   6.069   0.021   3.660
  427SOL    HW1 2180   6.124   0.019   3.576
  427SOL    HW2 2181   5.983   0.069   3.642
  428SOL     OW 2182   3.812   0.812   2.908
  428SOL    HW1 2183   3.796   0.803   3.006
  428SOL    HW2 2184   3.865   0.895   2.889
  429SOL     OW 2185   0.697   4.909   3.689
  429SOL    HW1 2186   0.626   4.974   3.718
  429SOL    HW2 2187   0.780   4.924   3.744
  430SOL     OW 2188   1.040   6.881   4.407
  430SOL    HW1 2189   0.959   6.824   4.423
  430SOL    HW2 2190   1.040   6.958   4.470
  431SOL     OW 2191   3.000   1.575   0.734
  431SOL    HW1 2192   3.058   1.656   0.740
  431SOL    HW2 2193   3.019   1.513   0.810
  432SOL     OW 2194   5.948   2.157   1.007
  432SOL    HW1 2195   5.975   2.197   0.920
  432SOL    HW2 2196   5.909   2.228   1.066
  433SOL     OW 2197   2.436   6.317   5.977
  433SOL    HW1 2198   2.470   6.385   5.913
  433SOL    HW2 2199   2.338   6.329   5.990
  434SOL     OW 2200   4.325   5.679   3.150
  434SOL    HW1 2201   4.344   5.749   3.080
  434SOL    HW2 2202   4.355   5.713   3.239
  435SOL     OW 2203   3.659   2.216   5.461
  435SOL    HW1 2204   3.669   2.156   5.539
  435SOL    HW2 2205   3.745   2.219   5.409
  436SOL     OW 2206   3.272   5.627   2.255
  436SOL    HW1 2207   3.339   5.661   2.321
  436SOL    HW2 2208   3.280   5.677   2.169
  437SOL     OW 2209   0.748   1.592   5.917
  437SOL    HW1 2210   0.653   1.598   5.949
  437SOL    HW2 2211   0.749   1.583   5.817
  438SOL     OW 2212   1.161   3.710   4.012
  438SOL    HW1 2213   1.218   3.763   4.074
  438SOL    HW2 2214   1.084   3.765   3.981
  439SOL     OW 2215   5.522   6.234   1.977
  439SOL    HW1 2216   5.438   6.186   2.004
  439SOL    HW2 2217   5.501   6.298   1.903
  440SOL     OW 2218   3.335   1.433   6.214
  440SOL    HW1 2219   3.368   1.494   6.286
  440SOL    HW2 2220   3.341   1.479   6.125
  441SOL     OW 2221   6.375   3.750   3.821
  441SOL    HW1 2222   6.361   3.651   3.815
  441SOL    HW2 2223   6.288   3.797   3.810
  442SOL     OW 2224   4.861   5.682   5.856
  442SOL    HW1 2225   4.893   5.758   5.912
  442SOL    HW2 2226   4.906   5.686   5.767
  443SOL     OW 2227   5.673   3.850   4.444
  443SOL    HW1 2228   5.646   3.786   4.516
  443SOL    HW2 2229   5.738   3.806   4.383
  444SOL     OW 2230   4.402   0.571   6.154
  444SOL    HW1 2231   4.445   0.481   6.156
  444SOL    HW2 2232   4.387   0.603   6.247
  445SOL     OW 2233   2.176   5.920   2.757
  445SOL    HW1 2234   2.211   5.983   2.687
  445SOL    HW2 2235   2.189   5.960   2.848
  446SOL     OW 2236   4.136   5.917   2.790
  446SOL    HW1 2237   4.059   5.981   2.797
  446SOL    HW2 2238   4.110   5.840   2.732
  447SOL     OW 2239   6.482   3.395   4.781
  447SOL    HW1 2240   6.500   3.427   4.688
  447SOL    HW2 2241   6.424   3.461   4.828
  448SOL     OW 2242   2.506   0.613   2.865
  448SOL    HW1 2243   2.574   0.680   2.894
  448SOL    HW2 2244   2.542   0.563   2.786
  449SOL     OW 2245   2.783   1.459   4.004
  449SOL    HW1 2246   2.806   1.450   4.101
  449SOL    HW2 2247   2.694   1.416   3.987
  450SOL     OW 2248   1.909   4.787   3.692
  450SOL    HW1 2249   1.814   4.772   3.721
  450SOL    HW2 2250   1.962   4.820   3.770
  451SOL     OW 2251   1.917   2.339   4.408
  451SOL    HW1 2252   2.005   2.318   4.451
  451SOL    HW2 2253   1.883   2.257   4.361
  452SOL     OW 2254   4.401   6.787   1.747
  452SOL    HW1 2255   4.408   6.708   1.686
  452SOL    HW2 2256   4.360   6.759   1.834
  453SOL     OW 2257   3.333   6.663   6.190
  453SOL    HW1 2258   3.413   6.629   6.142
  453SOL    HW2 2259   3.350   6.757   6.222
  454SOL     OW 2260   6.864   3.937   0.112
  454SOL    HW1 2261   6.846   3.948   0.014
  454SOL    HW2 2262   6.836   3.845   0.141
  455SOL     OW 2263   6.182   2.961   4.984
  455SOL    HW1 2264   6.222   2.884   4.935
  455SOL    HW2 2265   6.116   2.927   5.052
  456SOL     OW 2266   1.389   0.794   4.071
  456SOL    HW1 2267   1.479   0.795   4.114
  456SOL    HW2 2268   1.395   0.750   3.981
  457SOL     OW 2269   1.876   4.137   4.133
  457SOL    HW1 2270   1.788   4.121   4.178
  457SOL    HW2 2271   1.874   4.226   4.087
  458SOL     OW 2272   3.371   0.584   2.874
  458SOL    HW1 2273   3.404   0.645   2.945
  458SOL    HW2 2274   3.271   0.578   2.878
  459SOL     OW 2275   1.703   0.285   5.365
  459SOL    HW1 2276   1.798   0.315   5.368
  459SOL    HW2 2277   1.656   0.329   5.289
  460SOL     OW 2278   1.494   0.563   5.065
  460SOL    HW1 2279   1.514   0.559   5.162
  460SOL    HW2 2280   1.409   0.515   5.046
  461SOL     OW 2281   6.526   5.094   6.011
  461SOL    HW1 2282   6.448   5.135   5.963
  461SOL    HW2 2283   6.569   5.025   5.951
  462SOL     OW 2284   3.916   3.759   5.284
  462SOL    HW1 2285   3.908   3.854   5.314
  462SOL    HW2 2286   3.939   3.701   5.363
  463SOL     OW 2287   0.282   0.362   3.546
  463SOL    HW1 2288   0.283   0.390   3.642
  463SOL    HW2 2289   0.192   0.380   3.506
  464SOL     OW 2290   2.883   0.605   5.858
  464SOL    HW1 2291   2.948   0.548   5.908
  464SOL    HW2 2292   2.896   0.593   5.759
  465SOL     OW 2293   0.778   2.468   0.063
  465SOL    HW1 2294   0.706   2.526   0.027
  465SOL    HW2 2295   0.782   2.383   0.010
  466SOL     OW 2296   2.693   6.590   4.053
  466SOL    HW1 2297   2.600   6.627   4.043
  466SOL    HW2 2298   2.688   6.492   4.072
  467SOL     OW 2299   1.568   1.598   2.666
  467SOL    HW1 2300   1.487   1.607   2.608
  467SOL    HW2 2301   1.573   1.505   2.701
  468SOL     OW 2302   4.044   5.507   5.765
  468SOL    HW1 2303   4.026   5.540   5.857
  468SOL    HW2 2304   4.093   5.578   5.713
  469SOL     OW 2305   3.032   4.173   5.771
  469SOL    HW1 2306   2.993   4.248   5.716
  469SOL    HW2 2307   3.117   4.142   5.729
  470SOL     OW 2308   3.983   6.074   1.980
  470SOL    HW1 2309   4.062   6.012   1.985
  470SOL    HW2 2310   3.906   6.027   1.936
  471SOL     OW 2311   2.874   2.242   4.221
  471SOL    HW1 2312   2.839   2.319   4.273
  471SOL    HW2 2313   2.882   2.267   4.124
  472SOL     OW 2314   5.422   4.823   6.726
  472SOL    HW1 2315   5.486   4.786   6.793
  472SOL    HW2 2316   5.365   4.893   6.768
  473SOL     OW 2317   0.547   2.406   2.022
  473SOL    HW1 2318   0.454   2.442   2.031
  473SOL    HW2 2319   0.542   2.309   1.998
  474SOL     OW 2320   5.942   5.432   5.555
  474SOL    HW1 2321   6.038   5.460   5.556
  474SOL    HW2 2322   5.909   5.421   5.649
  475SOL     OW 2323   6.019   3.244   6.949
  475SOL    HW1 2324   5.985   3.337   6.955
  475SOL    HW2 2325   5.967   3.185   7.011
  476SOL     OW 2326   6.934   3.585   1.858
  476SOL    HW1 2327   6.903   3.617   1.768
  476SOL    HW2 2328   0.006   3.602   1.867
  477SOL     OW 2329   2.400   5.833   3.691
  477SOL    HW1 2330   2.388   5.777   3.609
  477SOL    HW2 2331   2.493   5.871   3.691
  478SOL     OW 2332   3.804   6.232   3.452
  478SOL    HW1 2333   3.863   6.295   3.502
  478SOL    HW2 2334   3.845   6.212   3.363
  479SOL     OW 2335   4.020   3.038   5.208
  479SOL    HW1 2336   4.026   3.066   5.112
  479SOL    HW2 2337   3.930   2.998   5.225
  480SOL     OW 2338   2.753   0.323   1.671
  480SOL    HW1 2339   2.709   0.233   1.673
  480SOL    HW2 2340   2.814   0.333   1.749
  481SOL     OW 2341   0.608   6.711   1.837
  481SOL    HW1 2342   0.612   6.791   1.776
  481SOL    HW2 2343   0.669   6.725   1.914
  482SOL     OW 2344   4.554   4.841   3.003
  482SOL    HW1 2345   4.520   4.904   3.072
  482SOL    HW2 2346   4.478   4.806   2.949
  483SOL     OW 2347   6.681   2.032   2.359
  483SOL    HW1 2348   6.652   2.123   2.330
  483SOL    HW2 2349   6.762   2.005   2.308
  484SOL     OW 2350   1.650   4.376   4.909
  484SOL    HW1 2351   1.625   4.466   4.873
  484SOL    HW2 2352   1.645   4.378   5.009
  485SOL     OW 2353   5.107   4.495   2.706
  485SOL    HW1 2354   5.028   4.481   2.766
  485SOL    HW2 2355   5.185   4.442   2.740
  486SOL     OW 2356   6.221   1.397   6.577
  486SOL    HW1 2357   6.269   1.395   6.489
  486SOL    HW2 2358   6.129   1.358   6.565
  487SOL     OW 2359   0.662   0.911   2.839
  487SOL    HW1 2360   0.565   0.886   2.845
  487SOL    HW2 2361   0.710   0.878   2.920
  488SOL     OW 2362   1.030   6.956   2.668
  488SOL    HW1 2363   0.962   6.995   2.606
  488SOL    HW2 2364   1.122   6.970   2.630
  489SOL     OW 2365   5.684   5.673   5.233
  489SOL    HW1 2366   5.706   5.758   5.185
  489SOL    HW2 2367   5.666   5.692   5.329
  490SOL     OW 2368   1.245   6.005   4.293
  490SOL    HW1 2369   1.214   5.938   4.225
  490SOL    HW2 2370   1.230   6.097   4.258
  491SOL     OW 2371   1.218   3.509   1.229
  491SOL    HW1 2372   1.123   3.478   1.235
  491SOL    HW2 2373   1.275   3.456   1.292
  492SOL     OW 2374   1.369   0.981   5.450
  492SOL    HW1 2375   1.346   1.078   5.457
  492SOL    HW2 2376   1.294   0.927   5.488
  493SOL     OW 2377   2.454   6.976   5.574
  493SOL    HW1 2378   2.547   7.013   5.574
  493SOL    HW2 2379   2.389   0.024   5.554
  494SOL     OW 2380   1.480   1.246   6.259
  494SOL    HW1 2381   1.428   1.265   6.343
  494SOL    HW2 2382   1.540   1.323   6.239
  495SOL     OW 2383   3.338   6.227   5.063
  495SOL    HW1 2384   3.315   6.156   4.997
  495SOL    HW2 2385   3.406   6.289   5.023
  496SOL     OW 2386   6.300   1.700   1.940
  496SOL    HW1 2387   6.400   1.697   1.944
  496SOL    HW2 2388   6.265   1.607   1.929
  497SOL     OW 2389   3.467   1.431   4.451
  497SOL    HW1 2390   3.458   1.345   4.501
  497SOL    HW2 2391   3.391   1.441   4.387
  498SOL     OW 2392   0.609   4.557   2.457
  498SOL    HW1 2393   0.557   4.643   2.453
  498SOL    HW2 2394   0.612   4.516   2.365
  499SOL     OW 2395   1.932   5.359   5.109
  499SOL    HW1 2396   1.841   5.399   5.096
  499SOL    HW2 2397   1.995   5.429   5.141
  500SOL     OW 2398   5.856   2.793   6.010
  500SOL    HW1 2399   5.771   2.845   6.020
  500SOL    HW2 2400   5.914   2.809   6.089
  501SOL     OW 2401   3.806   6.927   1.180
  501SOL    HW1 2402   3.717   6.934   1.225
  501SOL    HW2 2403   3.827   7.013   1.135
  502SOL     OW 2404   0.911   4.851   6.049
  502SOL    HW1 2405   0.831   4.793   6.035
  502SOL    HW2 2406   0.905   4.897   6.138
  503SOL     OW 2407   2.298   5.064   6.353
  503SOL    HW1 2408   2.211   5.048   6.308
  503SOL    HW2 2409   2.329   4.980   6.398
  504SOL     OW 2410   0.454   5.843   1.741
  504SOL    HW1 2411   0.438   5.940   1.760
  504SOL    HW2 2412   0.551   5.829   1.721
  505SOL     OW 2413   4.338   0.284   4.899
  505SOL    HW1 2414   4.371   0.340   4.975
  505SOL    HW2 2415   4.390   0.199   4.896
  506SOL     OW 2416   3.047   5.890   1.967
  506SOL    HW1 2417   3.031   5.818   1.900
  506SOL    HW2 2418   3.058   5.978   1.921
  507SOL     OW 2419   3.981   0.081   2.495
  507SOL    HW1 2420   3.962   0.053   2.400
  507SOL    HW2 2421   3.905   0.051   2.553
  508SOL     OW 2422   0.043   2.389   2.800
  508SOL    HW1 2423   0.060   2.291   2.809
  508SOL    HW2 2424   0.094   2.439   2.870
  509SOL     OW 2425   4.240   0.979   0.702
  509SOL    HW1 2426   4.288   1.017   0.780
  509SOL    HW2 2427   4.278   0.889   0.680
  510SOL     OW 2428   0.040   4.887   5.965
  510SOL    HW1 2429   0.035   4.787   5.975
  510SOL    HW2 2430   7.011   4.931   6.036
  511SOL     OW 2431   1.114   2.161   6.873
  511SOL    HW1 2432   1.125   2.243   6.818
  511SOL    HW2 2433   1.052   2.098   6.827
  512SOL     OW 2434   6.262   2.912   6.775
  512SOL    HW1 2435   6.171   2.950   6.789
  512SOL    HW2 2436   6.263   2.857   6.691
  513SOL     OW 2437   5.129   6.645   2.724
  513SOL    HW1 2438   5.051   6.666   2.664
  513SOL    HW2 2439   5.190   6.581   2.678
  514SOL     OW 2440   6.990   0.293   4.591
  514SOL    HW1 2441   0.036   0.355   4.622
  514SOL    HW2 2442   7.019   0.249   4.506
  515SOL     OW 2443   1.856   0.128   6.858
  515SOL    HW1 2444   1.863   0.159   6.953
  515SOL    HW2 2445   1.763   0.144   6.825
  516SOL     OW 2446   2.760   4.722   2.290
  516SOL    HW1 2447   2.829   4.792   2.307
  516SOL    HW2 2448   2.762   4.696   2.193
  517SOL     OW 2449   3.329   4.730   1.745
  517SOL    HW1 2450   3.407   4.673   1.771
  517SOL    HW2 2451   3.246   4.693   1.787
  518SOL     OW 2452   2.612   2.433   3.874
  518SOL    HW1 2453   2.593   2.424   3.776
  518SOL    HW2 2454   2.526   2.430   3.925
  519SOL     OW 2455   0.034   6.386   3.429
  519SOL    HW1 2456   6.985   6.444   3.460
  519SOL    HW2 2457   0.009   6.290   3.438
  520SOL     OW 2458   0.331   3.385   6.646
  520SOL    HW1 2459   0.383   3.361   6.728
  520SOL    HW2 2460   0.235   3.357   6.658
  521SOL     OW 2461   5.137   5.690   5.102
  521SOL    HW1 2462   5.135   5.687   5.002
  521SOL    HW2 2463   5.170   5.780   5.132
  522SOL     OW 2464   4.113   3.657   2.790
  522SOL    HW1 2465   4.176   3.730   2.762
  522SOL    HW2 2466   4.100   3.661   2.889
  523SOL     OW 2467   6.708   5.946   1.868
  523SOL    HW1 2468   6.611   5.937   1.843
  523SOL    HW2 2469   6.752   5.857   1.866
  524SOL     OW 2470   1.626   2.935   2.639
  524SOL    HW1 2471   1.602   2.844   2.672
  524SOL    HW2 2472   1.576   3.004   2.692
  525SOL     OW 2473   2.010   4.070   6.233
  525SOL    HW1 2474   1.929   4.014   6.249
  525SOL    HW2 2475   1.988   4.145   6.171
  526SOL     OW 2476   3.407   6.830   4.155
  526SOL    HW1 2477   3.321   6.783   4.134
  526SOL    HW2 2478   3.466   6.771   4.209
  527SOL     OW 2479   0.429   2.127   0.083
  527SOL    HW1 2480   0.364   2.095   0.015
  527SOL    HW2 2481   0.419   2.225   0.097
  528SOL     OW 2482   1.629   2.825   3.885
  528SOL    HW1 2483   1.629   2.832   3.786
  528SOL    HW2 2484   1.719   2.798   3.917
  529SOL     OW 2485   1.904   0.172   4.732
  529SOL    HW1 2486   1.954   0.214   4.807
  529SOL    HW2 2487   1.951   0.089   4.702
  530SOL     OW 2488   4.132   3.492   2.601
  530SOL    HW1 2489   4.126   3.573   2.660
  530SOL    HW2 2490   4.140   3.410   2.657
  531SOL     OW 2491   1.170   1.039   2.764
  531SOL    HW1 2492   1.182   1.136   2.785
  531SOL    HW2 2493   1.259   0.998   2.744
  532SOL     OW 2494   1.707   3.591   0.489
  532SOL    HW1 2495   1.779   3.538   0.535
  532SOL    HW2 2496   1.736   3.686   0.483
  533SOL     OW 2497   4.507   6.806   3.609
  533SOL    HW1 2498   4.414   6.778   3.587
  533SOL    HW2 2499   4.504   6.885   3.671
  534SOL     OW 2500   5.982   6.073   2.672
  534SOL    HW1 2501   6.062   6.073   2.612
  534SOL    HW2 2502   5.899   6.065   2.617
  535SOL     OW 2503   6.692   4.432   2.379
  535SOL    HW1 2504   6.639   4.465   2.301
  535SOL    HW2 2505   6.641   4.448   2.464
  536SOL     OW 2506   6.299   5.091   2.686
  536SOL    HW1 2507   6.373   5.108   2.621
  536SOL    HW2 2508   6.316   5.004   2.733
  537SOL     OW 2509   3.784   0.107   4.283
  537SOL    HW1 2510   3.684   0.098   4.279
  537SOL    HW2 2511   3.816   0.155   4.201
  538SOL     OW 2512   0.848   4.514   4.514
  538SOL    HW1 2513   0.806   4.424   4.500
  538SOL    HW2 2514   0.780   4.579   4.544
  539SOL     OW 2515   1.570   5.114   2.027
  539SOL    HW1 2516   1.538   5.041   1.967
  539SOL    HW2 2517   1.492   5.156   2.074
  540SOL     OW 2518   1.663   0.543   3.663
  540SOL    HW1 2519   1.585   0.515   3.718
  540SOL    HW2 2520   1.682   0.640   3.680
  541SOL     OW 2521   4.584   5.578   4.041
  541SOL    HW1 2522   4.600   5.479   4.044
  541SOL    HW2 2523   4.609   5.619   4.129
  542SOL     OW 2524   4.324   6.567   6.585
  542SOL    HW1 2525   4.355   6.480   6.623
  542SOL    HW2 2526   4.246   6.601   6.638
  543SOL     OW 2527   5.953   3.659   3.233
  543SOL    HW1 2528   5.985   3.736   3.289
  543SOL    HW2 2529   5.966   3.681   3.136
  544SOL     OW 2530   0.441   5.565   0.151
  544SOL    HW1 2531   0.458   5.639   0.086
  544SOL    HW2 2532   0.353   5.523   0.131
  545SOL     OW 2533   4.193   1.067   1.215
  545SOL    HW1 2534   4.162   0.985   1.263
  545SOL    HW2 2535   4.142   1.146   1.249
  546SOL     OW 2536   1.737   4.014   1.777
  546SOL    HW1 2537   1.663   3.949   1.788
  546SOL    HW2 2538   1.700   4.104   1.755
  547SOL     OW 2539   3.477   2.598   1.043
  547SOL    HW1 2540   3.507   2.588   0.948
  547SOL    HW2 2541   3.454   2.507   1.080
  548SOL     OW 2542   3.399   3.552   1.650
  548SOL    HW1 2543   3.384   3.455   1.670
  548SOL    HW2 2544   3.497   3.572   1.655
  549SOL     OW 2545   5.397   2.358   1.623
  549SOL    HW1 2546   5.482   2.406   1.601
  549SOL    HW2 2547   5.319   2.417   1.601
  550SOL     OW 2548   0.961   5.704   3.432
  550SOL    HW1 2549   0.929   5.661   3.347
  550SOL    HW2 2550   0.893   5.690   3.504
  551SOL     OW 2551   0.031   0.320   1.955
  551SOL    HW1 2552   6.979   0.373   1.989
  551SOL    HW2 2553   0.092   0.298   2.032
  552SOL     OW 2554   5.906   4.002   6.090
  552SOL    HW1 2555   5.834   3.970   6.028
  552SOL    HW2 2556   5.964   4.068   6.042
  553SOL     OW 2557   2.542   6.925   3.949
  553SOL    HW1 2558   2.479   6.992   3.990
  553SOL    HW2 2559   2.506   6.833   3.963
  554SOL     OW 2560   5.897   7.015   0.424
  554SOL    HW1 2561   5.856   6.983   0.339
  554SOL    HW2 2562   5.913   6.937   0.484
  555SOL     OW 2563   3.170   4.944   4.676
  555SOL    HW1 2564   3.170   4.879   4.753
  555SOL    HW2 2565   3.087   4.931   4.622
  556SOL     OW 2566   4.806   1.996   4.141
  556SOL    HW1 2567   4.735   2.066   4.128
  556SOL    HW2 2568   4.876   2.032   4.203
  557SOL     OW 2569   6.687   5.113   6.636
  557SOL    HW1 2570   6.716   5.025   6.598
  557SOL    HW2 2571   6.693   5.110   6.735
  558SOL     OW 2572   3.124   3.136   3.918
  558SOL    HW1 2573   3.196   3.070   3.940
  558SOL    HW2 2574   3.072   3.157   4.000
  559SOL     OW 2575   6.925   5.181   5.074
  559SOL    HW1 2576   6.963   5.215   5.160
  559SOL    HW2 2577   6.982   5.212   4.998
  560SOL     OW 2578   6.431   3.982   3.248
  560SOL    HW1 2579   6.505   3.976   3.181
  560SOL    HW2 2580   6.458   3.935   3.332
  561SOL     OW 2581   0.133   2.289   0.705
  561SOL    HW1 2582   0.205   2.337   0.655
  561SOL    HW2 2583   0.056   2.272   0.644
  562SOL     OW 2584   3.724   0.610   6.299
  562SOL    HW1 2585   3.812   0.581   6.263
  562SOL    HW2 2586   3.738   0.673   6.375
  563SOL     OW 2587   2.317   1.371   3.808
  563SOL    HW1 2588   2.268   1.433   3.746
  563SOL    HW2 2589   2.254   1.338   3.878
  564SOL     OW 2590   0.964   3.223   0.116
  564SOL    HW1 2591   0.958   3.184   0.208
  564SOL    HW2 2592   0.933   3.156   0.049
  565SOL     OW 2593   3.209   3.539   4.158
  565SOL    HW1 2594   3.177   3.557   4.065
  565SOL    HW2 2595   3.307   3.555   4.164
  566SOL     OW 2596   0.852   3.628   3.644
  566SOL    HW1 2597   0.763   3.634   3.689
  566SOL    HW2 2598   0.899   3.717   3.651
  567SOL     OW 2599   3.190   2.714   1.478
  567SOL    HW1 2600   3.193   2.812   1.494
  567SOL    HW2 2601   3.197   2.666   1.566
  568SOL     OW 2602   4.320   0.140   0.410
  568SOL    HW1 2603   4.331   0.091   0.323
  568SOL    HW2 2604   4.229   0.122   0.447
  569SOL     OW 2605   0.917   3.201   0.671
  569SOL    HW1 2606   0.877   3.111   0.649
  569SOL    HW2 2607   0.843   3.266   0.689
  570SOL     OW 2608   3.368   0.568   6.638
  570SOL    HW1 2609   3.389   0.657   6.598
  570SOL    HW2 2610   3.283   0.574   6.691
  571SOL     OW 2611   3.108   5.173   3.787
  571SOL    HW1 2612   3.165   5.094   3.765
  571SOL    HW2 2613   3.058   5.201   3.705
  572SOL     OW 2614   2.559   5.214   5.359
  572SOL    HW1 2615   2.522   5.121   5.363
  572SOL    HW2 2616   2.658   5.212   5.372
  573SOL     OW 2617   5.832   1.313   6.315
  573SOL    HW1 2618   5.821   1.367   6.232
  573SOL    HW2 2619   5.751   1.256   6.329
  574SOL     OW 2620   3.293   0.899   4.277
  574SOL    HW1 2621   3.204   0.854   4.287
  574SOL    HW2 2622   3.300   0.938   4.185
  575SOL     OW 2623   4.421   3.150   1.664
  575SOL    HW1 2624   4.473   3.112   1.740
  575SOL    HW2 2625   4.475   3.141   1.580
  576SOL     OW 2626   1.239   2.939   3.144
  576SOL    HW1 2627   1.235   2.902   3.237
  576SOL    HW2 2628   1.147   2.960   3.113
  577SOL     OW 2629   1.648   0.995   2.216
  577SOL    HW1 2630   1.577   0.945   2.266
  577SOL    HW2 2631   1.638   1.093   2.233
  578SOL     OW 2632   0.200   5.310   4.278
  578SOL    HW1 2633   0.185   5.403   4.245
  578SOL    HW2 2634   0.117   5.277   4.323
  579SOL     OW 2635   1.397   3.980   3.581
  579SOL    HW1 2636   1.476   3.925   3.552
  579SOL    HW2 2637   1.425   4.042   3.654
  580SOL     OW 2638   4.369   5.084   5.554
  580SOL    HW1 2639   4.371   5.170   5.604
  580SOL    HW2 2640   4.335   5.099   5.461
  581SOL     OW 2641   1.785   3.056   1.857
  581SOL    HW1 2642   1.760   3.044   1.953
  581SOL    HW2 2643   1.838   2.978   1.826
  582SOL     OW 2644   4.619   5.394   2.573
  582SOL    HW1 2645   4.601   5.316   2.512
  582SOL    HW2 2646   4.658   5.469   2.520
  583SOL     OW 2647   2.427   6.127   5.058
  583SOL    HW1 2648   2.421   6.097   5.154
  583SOL    HW2 2649   2.508   6.183   5.046
  584SOL     OW 2650   2.989   6.520   6.551
  584SOL    HW1 2651   3.053   6.448   6.525
  584SOL    HW2 2652   2.920   6.530   6.479
  585SOL     OW 2653   4.650   0.972   0.198
  585SOL    HW1 2654   4.580   1.023   0.149
  585SOL    HW2 2655   4.676   1.023   0.280
  586SOL     OW 2656   3.177   0.554   6.836
  586SOL    HW1 2657   3.178   0.477   6.899
  586SOL    HW2 2658   3.168   0.639   6.888
  587SOL     OW 2659   4.814   2.312   3.546
  587SOL    HW1 2660   4.894   2.293   3.489
  587SOL    HW2 2661   4.732   2.316   3.488
  588SOL     OW 2662   2.251   4.761   1.581
  588SOL    HW1 2663   2.302   4.755   1.666
  588SOL    HW2 2664   2.276   4.685   1.521
  589SOL     OW 2665   3.586   5.469   1.721
  589SOL    HW1 2666   3.644   5.403   1.672
  589SOL    HW2 2667   3.592   5.452   1.819
  590SOL     OW 2668   5.444   1.663   1.958
  590SOL    HW1 2669   5.382   1.719   1.903
  590SOL    HW2 2670   5.508   1.722   2.007
  591SOL     OW 2671   3.629   5.995   3.497
  591SOL    HW1 2672   3.636   5.999   3.397
  591SOL    HW2 2673   3.695   6.059   3.537
  592SOL     OW 2674   4.699   0.381   1.712
  592SOL    HW1 2675   4.751   0.355   1.794
  592SOL    HW2 2676   4.763   0.407   1.640
  593SOL     OW 2677   4.916   2.781   4.083
  593SOL    HW1 2678   4.958   2.860   4.129
  593SOL    HW2 2679   4.821   2.772   4.112
  594SOL     OW 2680   5.617   0.319   0.714
  594SOL    HW1 2681   5.568   0.233   0.699
  594SOL    HW2 2682   5.715   0.304   0.703
  595SOL     OW 2683   5.508   6.884   3.449
  595SOL    HW1 2684   5.548   6.803   3.492
  595SOL    HW2 2685   5.417   6.862   3.414
  596SOL     OW 2686   0.220   5.018   3.040
  596SOL    HW1 2687   0.181   5.057   3.124
  596SOL    HW2 2688   0.319   5.035   3.040
  597SOL     OW 2689   2.274   0.212   6.586
  597SOL    HW1 2690   2.250   0.272   6.510
  597SOL    HW2 2691   2.226   0.240   6.669
  598SOL     OW 2692   3.609   4.132   4.541
  598SOL    HW1 2693   3.547   4.097   4.611
  598SOL    HW2 2694   3.612   4.232   4.545
  599SOL     OW 2695   2.626   5.676   2.836
  599SOL    HW1 2696   2.660   5.589   2.872
  599SOL    HW2 2697   2.545   5.659   2.780
  600SOL     OW 2698   5.875   1.914   6.860
  600SOL    HW1 2699   5.854   1.897   6.764
  600SOL    HW2 2700   5.895   2.011   6.873
  601SOL     OW 2701   1.422   0.654   3.816
  601SOL    HW1 2702   1.418   0.731   3.752
  601SOL    HW2 2703   1.334   0.606   3.816
  602SOL     OW 2704   1.631   0.698   6.369
  602SOL    HW1 2705   1.636   0.743   6.280
  602SOL    HW2 2706   1.722   0.664   6.394
  603SOL     OW 2707   2.839   2.831   5.368
  603SOL    HW1 2708   2.939   2.840   5.374
  603SOL    HW2 2709   2.799   2.920   5.345
  604SOL     OW 2710   0.535   1.603   1.345
  604SOL    HW1 2711   0.444   1.634   1.374
  604SOL    HW2 2712   0.525   1.531   1.277
  605SOL     OW 2713   6.618   4.792   0.078
  605SOL    HW1 2714   6.712   4.825   0.079
  605SOL    HW2 2715   6.555   4.869   0.075
  606SOL     OW 2716   5.150   6.546   5.661
  606SOL    HW1 2717   5.166   6.636   5.701
  606SOL    HW2 2718   5.213   6.480   5.701
  607SOL     OW 2719   6.668   4.516   5.227
  607SOL    HW1 2720   6.696   4.421   5.218
  607SOL    HW2 2721   6.606   4.525   5.305
  608SOL     OW 2722   4.249   6.147   6.670
  608SOL    HW1 2723   4.182   6.173   6.601
  608SOL    HW2 2724   4.201   6.115   6.752
  609SOL     OW 2725   3.732   2.895   2.732
  609SOL    HW1 2726   3.673   2.903   2.813
  609SOL    HW2 2727   3.763   2.801   2.723
  610SOL     OW 2728   5.995   3.161   0.723
  610SOL    HW1 2729   6.028   3.091   0.661
  610SOL    HW2 2730   5.981   3.247   0.673
  611SOL     OW 2731   4.856   6.974   1.863
  611SOL    HW1 2732   4.909   0.006   1.924
  611SOL    HW2 2733   4.771   6.946   1.908
  612SOL     OW 2734   4.040   5.559   4.224
  612SOL    HW1 2735   4.112   5.527   4.163
  612SOL    HW2 2736   3.953   5.561   4.174
  613SOL     OW 2737   4.239   5.362   5.286
  613SOL    HW1 2738   4.333   5.392   5.270
  613SOL    HW2 2739   4.196   5.340   5.199
  614SOL     OW 2740   5.185   5.167   6.040
  614SOL    HW1 2741   5.092   5.139   6.016
  614SOL    HW2 2742   5.183   5.231   6.117
  615SOL     OW 2743   6.634   2.042   1.184
  615SOL    HW1 2744   6.672   2.066   1.095
  615SOL    HW2 2745   6.632   2.122   1.243
  616SOL     OW 2746   0.058   2.806   2.114
  616SOL    HW1 2747   0.095   2.750   2.189
  616SOL    HW2 2748   7.013   2.754   2.066
  617SOL     OW 2749   6.940   4.634   5.976
  617SOL    HW1 2750   6.948   4.603   6.071
  617SOL    HW2 2751   7.023   4.608   5.926
  618SOL     OW 2752   0.679   2.433   0.672
  618SOL    HW1 2753   0.702   2.337   0.689
  618SOL    HW2 2754   0.648   2.443   0.578
  619SOL     OW 2755   3.769   1.516   0.642
  619SOL    HW1 2756   3.698   1.449   0.664
  619SOL    HW2 2757   3.776   1.583   0.716
  620SOL     OW 2758   4.480   2.371   1.404
  620SOL    HW1 2759   4.548   2.301   1.427
  620SOL    HW2 2760   4.440   2.408   1.487
  621SOL     OW 2761   2.765   6.371   6.755
  621SOL    HW1 2762   2.860   6.345   6.773
  621SOL    HW2 2763   2.718   6.295   6.710
  622SOL     OW 2764   1.056   0.889   6.313
  622SOL    HW1 2765   1.051   0.988   6.325
  622SOL    HW2 2766   1.136   0.853   6.362
  623SOL     OW 2767   0.842   5.522   5.644
  623SOL    HW1 2768   0.818   5.533   5.740
  623SOL    HW2 2769   0.820   5.430   5.614
  624SOL     OW 2770   0.029   2.425   0.955
  624SOL    HW1 2771   0.076   2.361   0.894
  624SOL    HW2 2772   0.094   2.496   0.985
  625SOL     OW 2773   2.884   1.454   1.182
  625SOL    HW1 2774   2.871   1.361   1.150
  625SOL    HW2 2775   2.922   1.510   1.108
  626SOL     OW 2776   2.639   5.231   3.800
  626SOL    HW1 2777   2.613   5.285   3.880
  626SOL    HW2 2778   2.608   5.137   3.812
  627SOL     OW 2779   4.832   0.262   0.733
  627SOL    HW1 2780   4.766   0.188   0.726
  627SOL    HW2 2781   4.919   0.235   0.691
  628SOL     OW 2782   5.896   5.710   5.683
  628SOL    HW1 2783   5.901   5.755   5.594
  628SOL    HW2 2784   5.830   5.635   5.678
  629SOL     OW 2785   7.010   6.857   0.352
  629SOL    HW1 2786   6.961   6.911   0.284
  629SOL    HW2 2787   0.014   6.917   0.427
  630SOL     OW 2788   6.515   1.452   2.052
  630SOL    HW1 2789   6.589   1.463   1.985
  630SOL    HW2 2790   6.554   1.434   2.142
  631SOL     OW 2791   3.185   6.452   4.896
  631SOL    HW1 2792   3.194   6.462   4.995
  631SOL    HW2 2793   3.171   6.356   4.873
  632SOL     OW 2794   2.904   1.543   0.432
  632SOL    HW1 2795   2.866   1.554   0.524
  632SOL    HW2 2796   2.991   1.495   0.438
  633SOL     OW 2797   5.231   4.582   0.324
  633SOL    HW1 2798   5.286   4.559   0.244
  633SOL    HW2 2799   5.152   4.521   0.328
  634SOL     OW 2800   4.723   4.146   1.793
  634SOL    HW1 2801   4.631   4.179   1.815
  634SOL    HW2 2802   4.789   4.186   1.856
  635SOL     OW 2803   4.597   4.897   0.826
  635SOL    HW1 2804   4.560   4.810   0.858
  635SOL    HW2 2805   4.522   4.959   0.804
  636SOL     OW 2806   4.100   5.918   6.540
  636SOL    HW1 2807   4.078   5.880   6.630
  636SOL    HW2 2808   4.171   5.862   6.497
  637SOL     OW 2809   6.629   3.375   1.887
  637SOL    HW1 2810   6.633   3.290   1.836
  637SOL    HW2 2811   6.536   3.390   1.921
  638SOL     OW 2812   5.639   2.516   2.431
  638SOL    HW1 2813   5.644   2.616   2.433
  638SOL    HW2 2814   5.715   2.479   2.377
  639SOL     OW 2815   5.211   4.183   2.466
  639SOL    HW1 2816   5.206   4.282   2.468
  639SOL    HW2 2817   5.304   4.153   2.489
  640SOL     OW 2818   0.709   5.102   4.113
  640SOL    HW1 2819   0.735   5.016   4.156
  640SOL    HW2 2820   0.610   5.108   4.104
  641SOL     OW 2821   0.212   5.705   4.428
  641SOL    HW1 2822   0.249   5.647   4.500
  641SOL    HW2 2823   0.213   5.801   4.458
  642SOL     OW 2824   0.065   3.822   4.531
  642SOL    HW1 2825   0.156   3.863   4.521
  642SOL    HW2 2826   0.015   3.830   4.445
  643SOL     OW 2827   5.348   5.383   5.229
  643SOL    HW1 2828   5.340   5.420   5.136
  643SOL    HW2 2829   5.419   5.313   5.231
  644SOL     OW 2830   0.990   6.450   4.290
  644SOL    HW1 2831   1.050   6.525   4.320
  644SOL    HW2 2832   0.904   6.453   4.341
  645SOL     OW 2833   5.238   1.966   4.195
  645SOL    HW1 2834   5.297   1.906   4.249
  645SOL    HW2 2835   5.248   1.944   4.098
  646SOL     OW 2836   2.514   1.226   3.708
  646SOL    HW1 2837   2.440   1.290   3.729
  646SOL    HW2 2838   2.501   1.142   3.761
  647SOL     OW 2839   5.550   2.226   5.588
  647SOL    HW1 2840   5.631   2.246   5.534
  647SOL    HW2 2841   5.541   2.294   5.662
  648SOL     OW 2842   6.696   4.021   3.208
  648SOL    HW1 2843   6.772   4.061   3.259
  648SOL    HW2 2844   6.644   4.094   3.164
  649SOL     OW 2845   4.005   4.137   0.428
  649SOL    HW1 2846   3.951   4.218   0.451
  649SOL    HW2 2847   4.001   4.072   0.504
  650SOL     OW 2848   5.790   4.184   1.194
  650SOL    HW1 2849   5.762   4.093   1.166
  650SOL    HW2 2850   5.877   4.207   1.150
  651SOL     OW 2851   6.803   6.520   6.510
  651SOL    HW1 2852   6.894   6.479   6.506
  651SOL    HW2 2853   6.752   6.498   6.427
  652SOL     OW 2854   5.922   6.239   3.730
  652SOL    HW1 2855   5.982   6.173   3.685
  652SOL    HW2 2856   5.831   6.199   3.741
  653SOL     OW 2857   3.524   6.657   5.059
  653SOL    HW1 2858   3.584   6.606   4.997
  653SOL    HW2 2859   3.446   6.692   5.008
  654SOL     OW 2860   0.202   3.864   5.583
  654SOL    HW1 2861   0.175   3.782   5.532
  654SOL    HW2 2862   0.173   3.855   5.678
  655SOL     OW 2863   0.873   6.968   2.143
  655SOL    HW1 2864   0.918   0.005   2.206
  655SOL    HW2 2865   0.791   7.011   2.106
  656SOL     OW 2866   1.895   5.402   1.686
  656SOL    HW1 2867   1.820   5.412   1.620
  656SOL    HW2 2868   1.978   5.445   1.649
  657SOL     OW 2869   1.677   2.056   1.619
  657SOL    HW1 2870   1.772   2.026   1.610
  657SOL    HW2 2871   1.675   2.153   1.645
  658SOL     OW 2872   3.022   3.890   6.734
  658SOL    HW1 2873   2.989   3.880   6.828
  658SOL    HW2 2874   2.966   3.958   6.687
  659SOL     OW 2875   2.117   6.172   5.753
  659SOL    HW1 2876   2.129   6.077   5.723
  659SOL    HW2 2877   2.106   6.175   5.852
  660SOL     OW 2878   5.055   4.529   2.093
  660SOL    HW1 2879   5.137   4.572   2.131
  660SOL    HW2 2880   4.990   4.512   2.168
  661SOL     OW 2881   4.060   6.271   3.566
  661SOL    HW1 2882   4.013   6.209   3.629
  661SOL    HW2 2883   4.157   6.277   3.591
  662SOL     OW 2884   4.057   0.802   5.481
  662SOL    HW1 2885   4.071   0.854   5.396
  662SOL    HW2 2886   4.124   0.727   5.485
  663SOL     OW 2887   2.583   3.950   6.167
  663SOL    HW1 2888   2.507   4.006   6.134
  663SOL    HW2 2889   2.579   3.944   6.267
  664SOL     OW 2890   0.277   5.755   5.933
  664SOL    HW1 2891   0.230   5.793   5.854
  664SOL    HW2 2892   0.269   5.818   6.010
  665SOL     OW 2893   4.764   5.249   1.875
  665SOL    HW1 2894   4.703   5.171   1.883
  665SOL    HW2 2895   4.772   5.276   1.779
  666SOL     OW 2896   5.322   2.000   1.982
  666SOL    HW1 2897   5.401   2.035   1.931
  666SOL    HW2 2898   5.352   1.934   2.051
  667SOL     OW 2899   1.211   4.419   3.206
  667SOL    HW1 2900   1.133   4.362   3.231
  667SOL    HW2 2901   1.243   4.467   3.288
  668SOL     OW 2902   4.889   6.345   5.740
  668SOL    HW1 2903   4.798   6.353   5.698
  668SOL    HW2 2904   4.959   6.345   5.669
  669SOL     OW 2905   4.736   0.151   2.728
  669SOL    HW1 2906   4.781   0.101   2.802
  669SOL    HW2 2907   4.662   0.207   2.764
  670SOL     OW 2908   3.151   2.923   1.910
  670SOL    HW1 2909   3.110   2.845   1.863
  670SOL    HW2 2910   3.224   2.891   1.970
  671SOL     OW 2911   3.004   6.579   0.930
  671SOL    HW1 2912   3.002   6.493   0.982
  671SOL    HW2 2913   2.927   6.580   0.866
  672SOL     OW 2914   0.333   5.310   1.714
  672SOL    HW1 2915   0.369   5.343   1.801
  672SOL    HW2 2916   0.387   5.350   1.639
  673SOL     OW 2917   6.651   0.416   1.945
  673SOL    HW1 2918   6.624   0.336   1.892
  673SOL    HW2 2919   6.650   0.394   2.042
  674SOL     OW 2920   0.640   1.152   5.196
  674SOL    HW1 2921   0.729   1.148   5.150
  674SOL    HW2 2922   0.604   1.060   5.207
  675SOL     OW 2923   0.422   1.238   2.038
  675SOL    HW1 2924   0.422   1.265   2.134
  675SOL    HW2 2925   0.453   1.314   1.982
  676SOL     OW 2926   3.280   5.352   2.874
  676SOL    HW1 2927   3.249   5.434   2.827
  676SOL    HW2 2928   3.353   5.309   2.821
  677SOL     OW 2929   5.672   1.482   0.825
  677SOL    HW1 2930   5.771   1.476   0.833
  677SOL    HW2 2931   5.643   1.443   0.737
  678SOL     OW 2932   2.547   6.910   5.146
  678SOL    HW1 2933   2.541   6.856   5.062
  678SOL    HW2 2934   2.624   6.974   5.139
  679SOL     OW 2935   4.355   2.348   3.688
  679SOL    HW1 2936   4.365   2.253   3.660
  679SOL    HW2 2937   4.335   2.405   3.608
  680SOL     OW 2938   5.306   5.610   5.385
  680SOL    HW1 2939   5.398   5.640   5.410
  680SOL    HW2 2940   5.311   5.523   5.336
  681SOL     OW 2941   4.695   4.990   1.760
  681SOL    HW1 2942   4.770   4.986   1.694
  681SOL    HW2 2943   4.712   4.926   1.834
  682SOL     OW 2944   6.465   0.708   1.310
  682SOL    HW1 2945   6.425   0.635   1.255
  682SOL    HW2 2946   6.546   0.744   1.264
  683SOL     OW 2947   5.429   2.861   0.600
  683SOL    HW1 2948   5.433   2.935   0.667
  683SOL    HW2 2949   5.519   2.849   0.560
  684SOL     OW 2950   6.431   1.055   0.464
  684SOL    HW1 2951   6.399   1.030   0.372
  684SOL    HW2 2952   6.511   0.999   0.487
  685SOL     OW 2953   3.871   1.883   4.047
  685SOL    HW1 2954   3.850   1.820   4.122
  685SOL    HW2 2955   3.810   1.962   4.052
  686SOL     OW 2956   5.139   2.658   4.165
  686SOL    HW1 2957   5.205   2.724   4.129
  686SOL    HW2 2958   5.046   2.691   4.148
  687SOL     OW 2959   0.460   2.864   4.552
  687SOL    HW1 2960   0.507   2.858   4.640
  687SOL    HW2 2961   0.444   2.771   4.517
  688SOL     OW 2962   0.201   1.851   0.046
  688SOL    HW1 2963   0.242   1.802   0.122
  688SOL    HW2 2964   0.114   1.892   0.075
  689SOL     OW 2965   0.914   4.970   6.595
  689SOL    HW1 2966   0.841   4.905   6.617
  689SOL    HW2 2967   0.889   5.061   6.629
  690SOL     OW 2968   0.160   2.922   3.001
  690SOL    HW1 2969   0.079   2.980   3.001
  690SOL    HW2 2970   0.221   2.948   2.926
  691SOL     OW 2971   2.719   0.864   0.293
  691SOL    HW1 2972   2.786   0.794   0.267
  691SOL    HW2 2973   2.727   0.942   0.231
  692SOL     OW 2974   3.653   0.732   3.788
  692SOL    HW1 2975   3.580   0.666   3.771
  692SOL    HW2 2976   3.714   0.736   3.709
  693SOL     OW 2977   5.628   0.043   4.156
  693SOL    HW1 2978   5.676   6.981   4.160
  693SOL    HW2 2979   5.660   0.101   4.231
  694SOL     OW 2980   4.255   6.937   4.375
  694SOL    HW1 2981   4.172   6.929   4.319
  694SOL    HW2 2982   4.312   7.010   4.340
  695SOL     OW 2983   4.928   6.645   3.904
  695SOL    HW1 2984   4.926   6.545   3.900
  695SOL    HW2 2985   4.985   6.680   3.829
  696SOL     OW 2986   4.685   4.868   3.327
  696SOL    HW1 2987   4.752   4.943   3.330
  696SOL    HW2 2988   4.595   4.904   3.305
  697SOL     OW 2989   1.444   4.159   2.779
  697SOL    HW1 2990   1.440   4.085   2.711
  697SOL    HW2 2991   1.418   4.123   2.869
  698SOL     OW 2992   4.700   6.224   0.927
  698SOL    HW1 2993   4.749   6.308   0.903
  698SOL    HW2 2994   4.759   6.145   0.910
  699SOL     OW 2995   2.050   3.990   6.926
  699SOL    HW1 2996   2.051   3.892   6.904
  699SOL    HW2 2997   1.982   4.036   6.869
  700SOL     OW 2998   3.062   0.820   2.083
  700SOL    HW1 2999   3.153   0.849   2.114
  700SOL    HW2 3000   3.048   0.851   1.989
  701SOL     OW 3001   6.446   4.050   7.009
  701SOL    HW1 3002   6.381   4.107   6.959
  701SOL    HW2 3003   6.482   4.101   0.061
  702SOL     OW 3004   1.507   6.579   5.266
  702SOL    HW1 3005   1.585   6.572   5.205
  702SOL    HW2 3006   1.422   6.572   5.214
  703SOL     OW 3007   3.629   3.021   6.623
  703SOL    HW1 3008   3.618   2.932   6.667
  703SOL    HW2 3009   3.549   3.039   6.565
  704SOL     OW 3010   1.503   2.808   6.812
  704SOL    HW1 3011   1.497   2.872   6.889
  704SOL    HW2 3012   1.511   2.860   6.727
  705SOL     OW 3013   6.085   4.955   2.928
  705SOL    HW1 3014   5.985   4.957   2.930
  705SOL    HW2 3015   6.118   5.031   2.872
  706SOL     OW 3016   4.145   1.882   5.391
  706SOL    HW1 3017   4.091   1.869   5.474
  706SOL    HW2 3018   4.191   1.797   5.367
  707SOL     OW 3019   4.324   4.619   3.248
  707SOL    HW1 3020   4.339   4.572   3.162
  707SOL    HW2 3021   4.302   4.715   3.231
  708SOL     OW 3022   2.974   0.727   2.414
  708SOL    HW1 3023   2.877   0.736   2.436
  708SOL    HW2 3024   3.019   0.815   2.424
  709SOL     OW 3025   0.315   5.881   0.688
  709SOL    HW1 3026   0.337   5.942   0.765
  709SOL    HW2 3027   0.389   5.886   0.620
  710SOL     OW 3028   3.649   2.406   1.211
  710SOL    HW1 3029   3.650   2.309   1.186
  710SOL    HW2 3030   3.741   2.444   1.203
  711SOL     OW 3031   6.875   3.110   5.980
  711SOL    HW1 3032   6.896   3.136   5.885
  711SOL    HW2 3033   6.906   3.183   6.041
  712SOL     OW 3034   4.248   1.991   1.088
  712SOL    HW1 3035   4.264   1.899   1.126
  712SOL    HW2 3036   4.272   2.060   1.156
  713SOL     OW 3037   3.939   3.093   6.440
  713SOL    HW1 3038   3.902   3.153   6.511
  713SOL    HW2 3039   3.975   3.149   6.365
  714SOL     OW 3040   0.645   4.659   3.458
  714SOL    HW1 3041   0.612   4.688   3.368
  714SOL    HW2 3042   0.675   4.738   3.511
  715SOL     OW 3043   5.039   6.599   0.005
  715SOL    HW1 3044   5.091   6.524   0.046
  715SOL    HW2 3045   5.068   6.611   6.936
  716SOL     OW 3046   0.447   0.872   1.985
  716SOL    HW1 3047   0.507   0.911   1.915
  716SOL    HW2 3048   0.407   0.787   1.952
  717SOL     OW 3049   6.164   4.654   3.746
  717SOL    HW1 3050   6.125   4.736   3.786
  717SOL    HW2 3051   6.207   4.676   3.658
  718SOL     OW 3052   4.657   3.548   5.874
  718SOL    HW1 3053   4.675   3.455   5.906
  718SOL    HW2 3054   4.663   3.550   5.774
  719SOL     OW 3055   6.773   0.565   2.935
  719SOL    HW1 3056   6.844   0.499   2.958
  719SOL    HW2 3057   6.750   0.618   3.017
  720SOL     OW 3058   2.470   0.025   6.059
  720SOL    HW1 3059   2.496   6.963   6.018
  720SOL    HW2 3060   2.400   0.069   6.002
  721SOL     OW 3061   2.667   1.353   2.379
  721SOL    HW1 3062   2.656   1.412   2.299
  721SOL    HW2 3063   2.653   1.407   2.462
  722SOL     OW 3064   2.532   0.695   5.269
  722SOL    HW1 3065   2.505   0.787   5.297
  722SOL    HW2 3066   2.503   0.679   5.174
  723SOL     OW 3067   1.492   4.579   3.509
  723SOL    HW1 3068   1.449   4.493   3.482
  723SOL    HW2 3069   1.589   4.564   3.529
  724SOL     OW 3070   0.726   1.504   3.879
  724SOL    HW1 3071   0.785   1.425   3.896
  724SOL    HW2 3072   0.736   1.533   3.784
  725SOL     OW 3073   1.347   5.363   2.067
  725SOL    HW1 3074   1.286   5.291   2.037
  725SOL    HW2 3075   1.359   5.358   2.167
  726SOL     OW 3076   3.336   4.641   1.383
  726SOL    HW1 3077   3.241   4.666   1.404
  726SOL    HW2 3078   3.346   4.629   1.284
  727SOL     OW 3079   5.966   4.719   5.465
  727SOL    HW1 3080   6.034   4.646   5.476
  727SOL    HW2 3081   5.882   4.693   5.512
  728SOL     OW 3082   6.257   2.854   3.354
  728SOL    HW1 3083   6.351   2.836   3.382
  728SOL    HW2 3084   6.195   2.825   3.426
  729SOL     OW 3085   0.484   1.902   1.102
  729SOL    HW1 3086   0.506   1.997   1.124
  729SOL    HW2 3087   0.541   1.841   1.156
  730SOL     OW 3088   6.492   0.093   4.155
  730SOL    HW1 3089   6.567   0.124   4.098
  730SOL    HW2 3090   6.405   0.117   4.112
  731SOL     OW 3091   4.349   5.480   6.591
  731SOL    HW1 3092   4.275   5.481   6.524
  731SOL    HW2 3093   4.385   5.387   6.598
  732SOL     OW 3094   6.024   2.665   1.591
  732SOL    HW1 3095   5.941   2.717   1.571
  732SOL    HW2 3096   6.036   2.656   1.690
  733SOL     OW 3097   5.411   0.364   4.222
  733SOL    HW1 3098   5.387   0.296   4.291
  733SOL    HW2 3099   5.390   0.327   4.131
  734SOL     OW 3100   5.947   4.668   2.984
  734SOL    HW1 3101   5.864   4.723   2.967
  734SOL    HW2 3102   5.924   4.589   3.040
  735SOL     OW 3103   4.486   1.495   0.709
  735SOL    HW1 3104   4.555   1.436   0.750
  735SOL    HW2 3105   4.450   1.452   0.626
  736SOL     OW 3106   0.693   1.825   3.100
  736SOL    HW1 3107   0.725   1.755   3.036
  736SOL    HW2 3108   0.608   1.795   3.142
  737SOL     OW 3109   5.618   2.379   5.799
  737SOL    HW1 3110   5.591   2.399   5.894
  737SOL    HW2 3111   5.716   2.395   5.789
  738SOL     OW 3112   2.774   3.540   1.266
  738SOL    HW1 3113   2.750   3.472   1.197
  738SOL    HW2 3114   2.863   3.580   1.244
  739SOL     OW 3115   5.171   1.012   4.349
  739SOL    HW1 3116   5.271   1.020   4.353
  739SOL    HW2 3117   5.130   1.091   4.395
  740SOL     OW 3118   5.524   1.226   2.301
  740SOL    HW1 3119   5.486   1.315   2.273
  740SOL    HW2 3120   5.602   1.203   2.243
  741SOL     OW 3121   1.701   0.360   3.073
  741SOL    HW1 3122   1.681   0.266   3.100
  741SOL    HW2 3123   1.787   0.388   3.116
  742SOL     OW 3124   2.236   6.834   2.157
  742SOL    HW1 3125   2.243   6.747   2.109
  742SOL    HW2 3126   2.151   6.879   2.133
  743SOL     OW 3127   1.156   5.278   3.393
  743SOL    HW1 3128   1.083   5.213   3.370
  743SOL    HW2 3129   1.182   5.329   3.311
  744SOL     OW 3130   5.826   0.487   1.087
  744SOL    HW1 3131   5.863   0.518   0.999
  744SOL    HW2 3132   5.758   0.416   1.071
  745SOL     OW 3133   1.699   5.494   5.162
  745SOL    HW1 3134   1.668   5.586   5.186
  745SOL    HW2 3135   1.625   5.428   5.180
  746SOL     OW 3136   6.147   4.079   5.918
  746SOL    HW1 3137   6.134   4.024   5.835
  746SOL    HW2 3138   6.164   4.174   5.893
  747SOL     OW 3139   3.860   6.195   5.002
  747SOL    HW1 3140   3.929   6.209   4.931
  747SOL    HW2 3141   3.847   6.280   5.053
  748SOL     OW 3142   4.065   5.391   2.658
  748SOL    HW1 3143   4.009   5.339   2.594
  748SOL    HW2 3144   4.162   5.384   2.631
  749SOL     OW 3145   6.286   3.997   4.087
  749SOL    HW1 3146   6.321   3.950   4.168
  749SOL    HW2 3147   6.187   4.008   4.095
  750SOL     OW 3148   2.846   1.149   1.501
  750SOL    HW1 3149   2.761   1.121   1.546
  750SOL    HW2 3150   2.884   1.229   1.547
  751SOL     OW 3151   4.690   1.437   6.855
  751SOL    HW1 3152   4.659   1.432   6.950
  751SOL    HW2 3153   4.653   1.519   6.812
  752SOL     OW 3154   2.704   2.396   1.115
  752SOL    HW1 3155   2.783   2.341   1.144
  752SOL    HW2 3156   2.720   2.491   1.140
  753SOL     OW 3157   0.616   3.668   6.485
  753SOL    HW1 3158   0.666   3.588   6.520
  753SOL    HW2 3159   0.526   3.639   6.453
  754SOL     OW 3160   4.779   1.564   6.210
  754SOL    HW1 3161   4.859   1.568   6.271
  754SOL    HW2 3162   4.767   1.653   6.166
  755SOL     OW 3163   1.693   4.339   5.173
  755SOL    HW1 3164   1.654   4.249   5.193
  755SOL    HW2 3165   1.788   4.328   5.143
  756SOL     OW 3166   2.387   5.955   6.630
  756SOL    HW1 3167   2.349   6.005   6.552
  756SOL    HW2 3168   2.338   5.981   6.713
  757SOL     OW 3169   0.242   6.863   4.229
  757SOL    HW1 3170   0.335   6.871   4.192
  757SOL    HW2 3171   0.219   6.767   4.242
  758SOL     OW 3172   4.034   0.648   3.376
  758SOL    HW1 3173   4.097   0.635   3.453
  758SOL    HW2 3174   3.940   0.638   3.408
  759SOL     OW 3175   0.567   2.851   1.972
  759SOL    HW1 3176   0.657   2.846   2.015
  759SOL    HW2 3177   0.548   2.945   1.944
  760SOL     OW 3178   6.413   0.181   3.469
  760SOL    HW1 3179   6.321   0.143   3.455
  760SOL    HW2 3180   6.480   0.121   3.426
  761SOL     OW 3181   5.548   3.717   6.493
  761SOL    HW1 3182   5.617   3.760   6.550
  761SOL    HW2 3183   5.533   3.623   6.524
  762SOL     OW 3184   3.148   0.300   5.253
  762SOL    HW1 3185   3.050   0.285   5.261
  762SOL    HW2 3186   3.179   0.267   5.164
  763SOL     OW 3187   3.896   5.760   6.378
  763SOL    HW1 3188   3.806   5.802   6.390
  763SOL    HW2 3189   3.964   5.814   6.428
  764SOL     OW 3190   5.268   0.991   5.645
  764SOL    HW1 3191   5.341   0.928   5.674
  764SOL    HW2 3192   5.207   0.944   5.581
  765SOL     OW 3193   1.775   5.561   0.893
  765SOL    HW1 3194   1.713   5.504   0.945
  765SOL    HW2 3195   1.822   5.505   0.824
  766SOL     OW 3196   2.640   1.897   5.824
  766SOL    HW1 3197   2.665   1.960   5.751
  766SOL    HW2 3198   2.541   1.896   5.835
  767SOL     OW 3199   6.365   6.287   3.282
  767SOL    HW1 3200   6.445   6.247   3.238
  767SOL    HW2 3201   6.395   6.353   3.352
  768SOL     OW 3202   1.848   5.126   2.654
  768SOL    HW1 3203   1.890   5.201   2.704
  768SOL    HW2 3204   1.748   5.132   2.663
  769SOL     OW 3205   2.250   1.364   5.136
  769SOL    HW1 3206   2.278   1.458   5.155
  769SOL    HW2 3207   2.331   1.308   5.120
  770SOL     OW 3208   1.431   5.403   3.718
  770SOL    HW1 3209   1.468   5.321   3.762
  770SOL    HW2 3210   1.331   5.401   3.721
  771SOL     OW 3211   1.146   5.325   3.140
  771SOL    HW1 3212   1.123   5.394   3.072
  771SOL    HW2 3213   1.137   5.234   3.099
  772SOL     OW 3214   5.545   4.844   6.471
  772SOL    HW1 3215   5.494   4.821   6.554
  772SOL    HW2 3216   5.519   4.781   6.398
  773SOL     OW 3217   0.213   4.501   3.485
  773SOL    HW1 3218   0.175   4.412   3.507
  773SOL    HW2 3219   0.311   4.493   3.469
  774SOL     OW 3220   1.952   1.178   1.416
  774SOL    HW1 3221   1.866   1.220   1.443
  774SOL    HW2 3222   2.024   1.207   1.480
  775SOL     OW 3223   2.094   2.307   4.054
  775SOL    HW1 3224   2.166   2.255   4.100
  775SOL    HW2 3225   2.016   2.319   4.116
  776SOL     OW 3226   0.281   0.297   6.156
  776SOL    HW1 3227   0.217   0.373   6.165
  776SOL    HW2 3228   0.259   0.244   6.075
  777SOL     OW 3229   1.563   4.490   0.847
  777SOL    HW1 3230   1.503   4.568   0.866
  777SOL    HW2 3231   1.628   4.479   0.923
  778SOL     OW 3232   2.243   0.731   1.738
  778SOL    HW1 3233   2.281   0.730   1.645
  778SOL    HW2 3234   2.214   0.639   1.763
  779SOL     OW 3235   6.984   2.273   2.402
  779SOL    HW1 3236   6.905   2.256   2.344
  779SOL    HW2 3237   6.966   2.352   2.462
  780SOL     OW 3238   0.817   2.829   4.578
  780SOL    HW1 3239   0.721   2.815   4.557
  780SOL    HW2 3240   0.873   2.798   4.501
  781SOL     OW 3241   5.886   6.159   0.955
  781SOL    HW1 3242   5.793   6.182   0.924
  781SOL    HW2 3243   5.950   6.168   0.879
  782SOL     OW 3244   1.393   3.468   6.466
  782SOL    HW1 3245   1.440   3.452   6.379
  782SOL    HW2 3246   1.298   3.494   6.447
  783SOL     OW 3247   5.067   4.783   1.944
  783SOL    HW1 3248   5.154   4.810   1.902
  783SOL    HW2 3249   5.062   4.684   1.949
  784SOL     OW 3250   4.175   4.735   0.956
  784SOL    HW1 3251   4.233   4.734   0.875
  784SOL    HW2 3252   4.148   4.641   0.980
  785SOL     OW 3253   0.458   1.771   3.245
  785SOL    HW1 3254   0.400   1.701   3.203
  785SOL    HW2 3255   0.400   1.844   3.282
  786SOL     OW 3256   0.455   0.215   2.344
  786SOL    HW1 3257   0.390   0.290   2.332
  786SOL    HW2 3258   0.490   0.215   2.437
  787SOL     OW 3259   1.206   1.462   6.708
  787SOL    HW1 3260   1.253   1.540   6.665
  787SOL    HW2 3261   1.263   1.425   6.781
  788SOL     OW 3262   4.110   1.660   0.907
  788SOL    HW1 3263   4.067   1.588   0.962
  788SOL    HW2 3264   4.208   1.643   0.901
  789SOL     OW 3265   4.435   4.477   1.796
  789SOL    HW1 3266   4.524   4.522   1.803
  789SOL    HW2 3267   4.444   4.380   1.818
  790SOL     OW 3268   2.430   1.674   2.972
  790SOL    HW1 3269   2.387   1.736   2.906
  790SOL    HW2 3270   2.475   1.728   3.043
  791SOL     OW 3271   1.424   6.290   4.819
  791SOL    HW1 3272   1.490   6.246   4.880
  791SOL    HW2 3273   1.420   6.239   4.732
  792SOL     OW 3274   0.865   1.127   1.895
  792SOL    HW1 3275   0.877   1.041   1.944
  792SOL    HW2 3276   0.873   1.203   1.960
  793SOL     OW 3277   5.034   5.445   4.490
  793SOL    HW1 3278   5.001   5.351   4.489
  793SOL    HW2 3279   4.960   5.506   4.460
  794SOL     OW 3280   3.055   4.017   6.001
  794SOL    HW1 3281   3.014   4.070   6.076
  794SOL    HW2 3282   3.037   4.063   5.914
  795SOL     OW 3283   4.208   0.552   5.076
  795SOL    HW1 3284   4.138   0.491   5.114
  795SOL    HW2 3285   4.274   0.576   5.148
  796SOL     OW 3286   0.877   2.682   6.497
  796SOL    HW1 3287   0.870   2.703   6.400
  796SOL    HW2 3288   0.835   2.593   6.516
  797SOL     OW 3289   4.829   0.282   1.063
  797SOL    HW1 3290   4.789   0.339   0.992
  797SOL    HW2 3291   4.809   0.321   1.153
  798SOL     OW 3292   3.515   6.284   2.260
  798SOL    HW1 3293   3.588   6.215   2.260
  798SOL    HW2 3294   3.546   6.365   2.210
  799SOL     OW 3295   0.135   6.604   6.391
  799SOL    HW1 3296   0.160   6.696   6.419
  799SOL    HW2 3297   0.064   6.609   6.320
  800SOL     OW 3298   5.869   0.829   2.565
  800SOL    HW1 3299   5.933   0.858   2.636
  800SOL    HW2 3300   5.850   0.731   2.574
  801SOL     OW 3301   2.356   4.780   4.567
  801SOL    HW1 3302   2.377   4.803   4.472
  801SOL    HW2 3303   2.435   4.735   4.609
  802SOL     OW 3304   2.737   2.325   0.853
  802SOL    HW1 3305   2.828   2.284   0.844
  802SOL    HW2 3306   2.712   2.330   0.950
  803SOL     OW 3307   1.822   0.443   5.801
  803SOL    HW1 3308   1.830   0.349   5.770
  803SOL    HW2 3309   1.908   0.491   5.786
  804SOL     OW 3310   5.720   6.499   0.936
  804SOL    HW1 3311   5.678   6.408   0.947
  804SOL    HW2 3312   5.819   6.489   0.933
  805SOL     OW 3313   2.150   1.057   4.581
  805SOL    HW1 3314   2.176   1.079   4.487
  805SOL    HW2 3315   2.201   1.114   4.644
  806SOL     OW 3316   5.499   0.729   4.862
  806SOL    HW1 3317   5.579   0.669   4.860
  806SOL    HW2 3318   5.491   0.771   4.952
  807SOL     OW 3319   0.204   0.702   5.037
  807SOL    HW1 3320   0.197   0.788   5.088
  807SOL    HW2 3321   0.157   0.712   4.949
  808SOL     OW 3322   4.375   4.154   6.801
  808SOL    HW1 3323   4.370   4.207   6.716
  808SOL    HW2 3324   4.283   4.141   6.838
  809SOL     OW 3325   0.558   4.947   0.739
  809SOL    HW1 3326   0.511   4.883   0.678
  809SOL    HW2 3327   0.494   5.018   0.768
  810SOL     OW 3328   3.353   4.364   0.555
  810SOL    HW1 3329   3.423   4.374   0.625
  810SOL    HW2 3330   3.348   4.448   0.500
  811SOL     OW 3331   5.384   5.883   4.675
  811SOL    HW1 3332   5.463   5.905   4.733
  811SOL    HW2 3333   5.310   5.947   4.695
  812SOL     OW 3334   6.743   0.938   3.023
  812SOL    HW1 3335   6.718   0.968   2.930
  812SOL    HW2 3336   6.758   0.839   3.022
  813SOL     OW 3337   3.808   6.749   4.047
  813SOL    HW1 3338   3.826   6.743   4.145
  813SOL    HW2 3339   3.835   6.840   4.014
  814SOL     OW 3340   6.393   5.825   2.732
  814SOL    HW1 3341   6.447   5.830   2.648
  814SOL    HW2 3342   6.314   5.766   2.717
  815SOL     OW 3343   6.597   3.037   3.336
  815SOL    HW1 3344   6.635   3.059   3.247
  815SOL    HW2 3345   6.600   3.117   3.396
  816SOL     OW 3346   5.671   5.512   0.928
  816SOL    HW1 3347   5.632   5.469   1.010
  816SOL    HW2 3348   5.606   5.503   0.852
  817SOL     OW 3349   1.004   4.815   1.247
  817SOL    HW1 3350   1.053   4.738   1.206
  817SOL    HW2 3351   0.961   4.869   1.175
  818SOL     OW 3352   6.424   3.002   3.745
  818SOL    HW1 3353   6.431   2.941   3.666
  818SOL    HW2 3354   6.329   3.030   3.758
  819SOL     OW 3355   6.239   3.371   1.430
  819SOL    HW1 3356   6.303   3.321   1.488
  819SOL    HW2 3357   6.264   3.358   1.334
  820SOL     OW 3358   2.712   2.337   5.046
  820SOL    HW1 3359   2.661   2.419   5.075
  820SOL    HW2 3360   2.786   2.319   5.110
  821SOL     OW 3361   6.351   4.540   6.351
  821SOL    HW1 3362   6.425   4.553   6.417
  821SOL    HW2 3363   6.341   4.621   6.294
  822SOL     OW 3364   0.337   3.029   3.224
  822SOL    HW1 3365   0.274   2.977   3.166
  822SOL    HW2 3366   0.406   2.968   3.262
  823SOL     OW 3367   6.269   4.317   5.911
  823SOL    HW1 3368   6.218   4.316   5.997
  823SOL    HW2 3369   6.305   4.409   5.895
  824SOL     OW 3370   3.813   0.922   6.062
  824SOL    HW1 3371   3.790   0.838   6.013
  824SOL    HW2 3372   3.900   0.910   6.110
  825SOL     OW 3373   6.609   5.711   1.235
  825SOL    HW1 3374   6.606   5.688   1.332
  825SOL    HW2 3375   6.517   5.735   1.203
  826SOL     OW 3376   4.409   2.223   5.880
  826SOL    HW1 3377   4.356   2.300   5.916
  826SOL    HW2 3378   4.357   2.138   5.892
  827SOL     OW 3379   2.368   4.480   5.053
  827SOL    HW1 3380   2.455   4.528   5.062
  827SOL    HW2 3381   2.344   4.471   4.956
  828SOL     OW 3382   5.598   6.638   6.481
  828SOL    HW1 3383   5.584   6.711   6.548
  828SOL    HW2 3384   5.563   6.552   6.518
  829SOL     OW 3385   4.068   3.611   2.106
  829SOL    HW1 3386   4.024   3.568   2.185
  829SOL    HW2 3387   4.022   3.581   2.023
  830SOL     OW 3388   5.351   5.045   6.526
  830SOL    HW1 3389   5.270   4.995   6.496
  830SOL    HW2 3390   5.432   4.988   6.514
  831SOL     OW 3391   6.101   6.804   0.060
  831SOL    HW1 3392   6.162   6.843   0.129
  831SOL    HW2 3393   6.150   6.731   0.011
  832SOL     OW 3394   4.046   1.877   3.438
  832SOL    HW1 3395   4.009   1.969   3.447
  832SOL    HW2 3396   4.120   1.865   3.504
  833SOL     OW 3397   1.736   3.787   6.417
  833SOL    HW1 3398   1.778   3.705   6.379
  833SOL    HW2 3399   1.646   3.765   6.452
  834SOL     OW 3400   5.047   3.484   0.906
  834SOL    HW1 3401   5.109   3.562   0.902
  834SOL    HW2 3402   5.065   3.430   0.988
  835SOL     OW 3403   3.358   0.213   5.423
  835SOL    HW1 3404   3.286   0.210   5.354
  835SOL    HW2 3405   3.371   0.308   5.453
  836SOL     OW 3406   4.041   6.963   4.771
  836SOL    HW1 3407   4.129   6.936   4.731
  836SOL    HW2 3408   3.989   7.016   4.706
  837SOL     OW 3409   0.017   0.823   1.200
  837SOL    HW1 3410   6.982   0.902   1.196
  837SOL    HW2 3411   0.037   0.801   1.295
  838SOL     OW 3412   2.342   6.759   4.513
  838SOL    HW1 3413   2.334   6.840   4.455
  838SOL    HW2 3414   2.255   6.742   4.559
  839SOL     OW 3415   2.105   1.167   1.632
  839SOL    HW1 3416   2.046   1.112   1.691
  839SOL    HW2 3417   2.201   1.148   1.653
  840SOL     OW 3418   6.385   6.169   6.876
  840SOL    HW1 3419   6.339   6.233   6.814
  840SOL    HW2 3420   6.352   6.076   6.859
  841SOL     OW 3421   3.579   5.428   6.208
  841SOL    HW1 3422   3.622   5.339   6.219
  841SOL    HW2 3423   3.649   5.500   6.212
  842SOL     OW 3424   3.970   0.220   5.386
  842SOL    HW1 3425   4.007   0.132   5.355
  842SOL    HW2 3426   3.955   0.280   5.307
  843SOL     OW 3427   1.096   1.876   1.673
  843SOL    HW1 3428   1.059   1.845   1.586
  843SOL    HW2 3429   1.130   1.797   1.725
  844SOL     OW 3430   6.633   0.199   0.387
  844SOL    HW1 3431   6.538   0.172   0.402
  844SOL    HW2 3432   6.637   0.295   0.359
  845SOL     OW 3433   5.035   3.926   3.989
  845SOL    HW1 3434   5.109   3.860   3.983
  845SOL    HW2 3435   5.072   4.017   4.006
  846SOL     OW 3436   2.317   1.094   5.901
  846SOL    HW1 3437   2.377   1.064   5.827
  846SOL    HW2 3438   2.288   1.189   5.884
  847SOL     OW 3439   1.386   3.707   1.125
  847SOL    HW1 3440   1.350   3.621   1.161
  847SOL    HW2 3441   1.437   3.754   1.197
  848SOL     OW 3442   7.024   0.086   6.113
  848SOL    HW1 3443   6.948   0.029   6.082
  848SOL    HW2 3444   0.017   0.067   6.209
  849SOL     OW 3445   5.874   4.347   6.680
  849SOL    HW1 3446   5.942   4.366   6.610
  849SOL    HW2 3447   5.906   4.273   6.739
  850SOL     OW 3448   5.750   1.387   4.685
  850SOL    HW1 3449   5.682   1.376   4.757
  850SOL    HW2 3450   5.760   1.300   4.635
  851SOL     OW 3451   0.145   2.700   0.980
  851SOL    HW1 3452   0.089   2.693   0.898
  851SOL    HW2 3453   0.233   2.654   0.964
  852SOL     OW 3454   0.725   4.172   0.471
  852SOL    HW1 3455   0.743   4.270   0.469
  852SOL    HW2 3456   0.793   4.127   0.529
  853SOL     OW 3457   0.784   4.448   0.552
  853SOL    HW1 3458   0.871   4.452   0.502
  853SOL    HW2 3459   0.767   4.536   0.596
  854SOL     OW 3460   5.069   5.889   0.696
  854SOL    HW1 3461   5.150   5.925   0.649
  854SOL    HW2 3462   5.070   5.789   0.690
  855SOL     OW 3463   6.623   0.041   1.343
  855SOL    HW1 3464   6.615   6.982   1.395
  855SOL    HW2 3465   6.665   0.112   1.400
  856SOL     OW 3466   1.379   1.958   6.710
  856SOL    HW1 3467   1.471   1.978   6.743
  856SOL    HW2 3468   1.319   1.940   6.789
  857SOL     OW 3469   6.187   5.158   2.107
  857SOL    HW1 3470   6.095   5.192   2.089
  857SOL    HW2 3471   6.244   5.170   2.025
  858SOL     OW 3472   3.040   3.887   1.244
  858SOL    HW1 3473   3.026   3.807   1.185
  858SOL    HW2 3474   3.057   3.857   1.338
  859SOL     OW 3475   5.453   0.101   5.160
  859SOL    HW1 3476   5.545   0.120   5.195
  859SOL    HW2 3477   5.387   0.160   5.206
  860SOL     OW 3478   6.322   2.921   0.010
  860SOL    HW1 3479   6.296   2.897   6.942
  860SOL    HW2 3480   6.260   2.877   0.074
  861SOL     OW 3481   2.558   4.968   3.872
  861SOL    HW1 3482   2.639   4.980   3.929
  861SOL    HW2 3483   2.561   4.878   3.829
  862SOL     OW 3484   1.411   4.118   3.157
  862SOL    HW1 3485   1.338   4.081   3.215
  862SOL    HW2 3486   1.475   4.045   3.134
  863SOL     OW 3487   5.890   0.691   6.558
  863SOL    HW1 3488   5.805   0.713   6.606
  863SOL    HW2 3489   5.884   0.598   6.522
  864SOL     OW 3490   3.791   5.893   3.909
  864SOL    HW1 3491   3.866   5.958   3.894
  864SOL    HW2 3492   3.789   5.827   3.834
  865SOL     OW 3493   1.544   0.088   5.912
  865SOL    HW1 3494   1.503   0.014   5.964
  865SOL    HW2 3495   1.639   0.066   5.890
  866SOL     OW 3496   2.463   1.330   0.509
  866SOL    HW1 3497   2.533   1.377   0.562
  866SOL    HW2 3498   2.432   1.248   0.558
  867SOL     OW 3499   5.076   3.994   0.207
  867SOL    HW1 3500   5.014   3.916   0.199
  867SOL    HW2 3501   5.170   3.962   0.202
  868SOL     OW 3502   6.200   0.864   1.610
  868SOL    HW1 3503   6.146   0.882   1.527
  868SOL    HW2 3504   6.166   0.780   1.653
  869SOL     OW 3505   0.075   4.327   2.775
  869SOL    HW1 3506   0.081   4.387   2.855
  869SOL    HW2 3507   0.112   4.375   2.695
  870SOL     OW 3508   4.021   3.927   0.631
  870SOL    HW1 3509   3.942   3.867   0.621
  870SOL    HW2 3510   4.037   3.946   0.727
  871SOL     OW 3511   5.278   2.493   3.198
  871SOL    HW1 3512   5.366   2.509   3.242
  871SOL    HW2 3513   5.268   2.553   3.119
  872SOL     OW 3514   5.968   3.366   3.984
  872SOL    HW1 3515   5.994   3.420   3.904
  872SOL    HW2 3516   5.879   3.324   3.968
  873SOL     OW 3517   5.398   5.887   5.114
  873SOL    HW1 3518   5.354   5.970   5.149
  873SOL    HW2 3519   5.490   5.880   5.152
  874SOL     OW 3520   6.866   4.012   6.538
  874SOL    HW1 3521   6.772   4.012   6.504
  874SOL    HW2 3522   6.878   3.938   6.604
  875SOL     OW 3523   5.329   4.783   0.778
  875SOL    HW1 3524   5.284   4.755   0.693
  875SOL    HW2 3525   5.363   4.702   0.826
  876SOL     OW 3526   0.738   4.802   2.727
  876SOL    HW1 3527   0.722   4.826   2.823
  876SOL    HW2 3528   0.727   4.884   2.670
  877SOL     OW 3529   3.610   4.957   5.522
  877SOL    HW1 3530   3.685   5.018   5.549
  877SOL    HW2 3531   3.637   4.906   5.441
  878SOL     OW 3532   4.355   6.454   4.859
  878SOL    HW1 3533   4.282   6.521   4.876
  878SOL    HW2 3534   4.316   6.375   4.813
  879SOL     OW 3535   4.758   1.304   1.408
  879SOL    HW1 3536   4.738   1.215   1.449
  879SOL    HW2 3537   4.681   1.333   1.350
  880SOL     OW 3538   3.281   3.977   4.461
  880SOL    HW1 3539   3.192   3.983   4.506
  880SOL    HW2 3540   3.296   3.882   4.431
  881SOL     OW 3541   5.591   3.786   5.530
  881SOL    HW1 3542   5.497   3.752   5.529
  881SOL    HW2 3543   5.602   3.852   5.604
  882SOL     OW 3544   1.163   2.278   3.806
  882SOL    HW1 3545   1.157   2.298   3.903
  882SOL    HW2 3546   1.074   2.247   3.772
  883SOL     OW 3547   3.690   0.610   0.660
  883SOL    HW1 3548   3.789   0.603   0.660
  883SOL    HW2 3549   3.658   0.639   0.751
  884SOL     OW 3550   6.955   4.702   0.123
  884SOL    HW1 3551   6.993   4.772   0.062
  884SOL    HW2 3552   6.938   4.618   0.072
  885SOL     OW 3553   4.694   7.012   5.115
  885SOL    HW1 3554   4.736   7.013   5.206
  885SOL    HW2 3555   4.658   6.921   5.096
  886SOL     OW 3556   3.974   0.626   0.599
  886SOL    HW1 3557   3.993   0.530   0.620
  886SOL    HW2 3558   4.027   0.654   0.519
  887SOL     OW 3559   3.680   6.176   3.883
  887SOL    HW1 3560   3.672   6.076   3.884
  887SOL    HW2 3561   3.759   6.203   3.939
  888SOL     OW 3562   6.816   6.433   3.779
  888SOL    HW1 3563   6.849   6.380   3.857
  888SOL    HW2 3564   6.871   6.517   3.770
  889SOL     OW 3565   6.911   1.079   6.585
  889SOL    HW1 3566   6.931   1.094   6.682
  889SOL    HW2 3567   6.978   1.015   6.547
  890SOL     OW 3568   2.749   4.903   2.705
  890SOL    HW1 3569   2.747   4.805   2.723
  890SOL    HW2 3570   2.746   4.953   2.791
  891SOL     OW 3571   6.581   3.624   0.798
  891SOL    HW1 3572   6.679   3.618   0.820
  891SOL    HW2 3573   6.570   3.650   0.702
  892SOL     OW 3574   3.283   3.747   4.877
  892SOL    HW1 3575   3.223   3.667   4.884
  892SOL    HW2 3576   3.286   3.794   4.965
  893SOL     OW 3577   1.959   6.682   2.998
  893SOL    HW1 3578   1.991   6.774   2.974
  893SOL    HW2 3579   2.025   6.638   3.058
  894SOL     OW 3580   1.093   2.609   2.905
  894SOL    HW1 3581   1.135   2.518   2.901
  894SOL    HW2 3582   1.163   2.679   2.890
  895SOL     OW 3583   1.286   5.352   4.108
  895SOL    HW1 3584   1.316   5.281   4.044
  895SOL    HW2 3585   1.228   5.311   4.179
  896SOL     OW 3586   5.930   5.295   1.345
  896SOL    HW1 3587   5.966   5.279   1.253
  896SOL    HW2 3588   6.005   5.292   1.412
  897SOL     OW 3589   4.428   1.078   6.835
  897SOL    HW1 3590   4.337   1.086   6.793
  897SOL    HW2 3591   4.497   1.110   6.770
  898SOL     OW 3592   4.277   6.448   2.463
  898SOL    HW1 3593   4.280   6.367   2.522
  898SOL    HW2 3594   4.210   6.513   2.499
  899SOL     OW 3595   0.217   5.955   0.115
  899SOL    HW1 3596   0.130   5.935   0.071
  899SOL    HW2 3597   0.284   5.981   0.046
  900SOL     OW 3598   5.211   7.001   6.520
  900SOL    HW1 3599   5.151   6.924   6.501
  900SOL    HW2 3600   5.159   0.048   6.564
  901SOL     OW 3601   1.059   1.012   3.796
  901SOL    HW1 3602   1.049   0.919   3.761
  901SOL    HW2 3603   1.135   1.057   3.749
  902SOL     OW 3604   1.389   2.898   1.421
  902SOL    HW1 3605   1.325   2.875   1.347
  902SOL    HW2 3606   1.480   2.864   1.397
  903SOL     OW 3607   0.778   3.426   0.007
  903SOL    HW1 3608   0.845   3.356   0.031
  903SOL    HW2 3609   0.799   3.510   0.057
  904SOL     OW 3610   1.942   2.827   2.258
  904SOL    HW1 3611   1.926   2.811   2.356
  904SOL    HW2 3612   2.008   2.759   2.224
  905SOL     OW 3613   4.845   3.851   6.537
  905SOL    HW1 3614   4.813   3.894   6.621
  905SOL    HW2 3615   4.766   3.826   6.480
  906SOL     OW 3616   0.738   1.999   6.504
  906SOL    HW1 3617   0.833   1.969   6.515
  906SOL    HW2 3618   0.682   1.961   6.577
  907SOL     OW 3619   4.751   2.753   1.243
  907SOL    HW1 3620   4.734   2.783   1.149
  907SOL    HW2 3621   4.827   2.688   1.243
  908SOL     OW 3622   2.535   4.711   3.370
  908SOL    HW1 3623   2.575   4.743   3.456
  908SOL    HW2 3624   2.447   4.757   3.355
  909SOL     OW 3625   3.744   6.283   2.005
  909SOL    HW1 3626   3.681   6.332   2.067
  909SOL    HW2 3627   3.799   6.219   2.057
  910SOL     OW 3628   3.306   1.513   1.419
  910SOL    HW1 3629   3.311   1.414   1.425
  910SOL    HW2 3630   3.217   1.540   1.382
  911SOL     OW 3631   1.239   6.297   6.792
  911SOL    HW1 3632   1.289   6.210   6.793
  911SOL    HW2 3633   1.255   6.343   6.705
  912SOL     OW 3634   5.709   1.069   3.282
  912SOL    HW1 3635   5.698   1.067   3.381
  912SOL    HW2 3636   5.690   0.979   3.244
  913SOL     OW 3637   2.812   0.738   4.251
  913SOL    HW1 3638   2.712   0.733   4.254
  913SOL    HW2 3639   2.850   0.664   4.306
  914SOL     OW 3640   2.429   6.583   5.234
  914SOL    HW1 3641   2.387   6.673   5.246
  914SOL    HW2 3642   2.380   6.516   5.291
  915SOL     OW 3643   0.007   3.061   0.624
  915SOL    HW1 3644   7.011   3.138   0.565
  915SOL    HW2 3645   0.032   3.094   0.715
  916SOL     OW 3646   1.879   3.131   2.644
  916SOL    HW1 3647   1.895   3.032   2.648
  916SOL    HW2 3648   1.902   3.165   2.553
  917SOL     OW 3649   0.314   6.490   2.277
  917SOL    HW1 3650   0.236   6.482   2.340
  917SOL    HW2 3651   0.294   6.442   2.192
  918SOL     OW 3652   3.588   0.609   0.966
  918SOL    HW1 3653   3.576   0.529   1.025
  918SOL    HW2 3654   3.534   0.685   1.002
  919SOL     OW 3655   0.045   6.497   3.054
  919SOL    HW1 3656   0.033   6.536   3.146
  919SOL    HW2 3657   0.065   6.571   2.990
  920SOL     OW 3658   2.579   4.627   2.499
  920SOL    HW1 3659   2.658   4.653   2.554
  920SOL    HW2 3660   2.604   4.628   2.402
  921SOL     OW 3661   3.587   5.480   3.538
  921SOL    HW1 3662   3.500   5.504   3.496
  921SOL    HW2 3663   3.574   5.466   3.636
  922SOL     OW 3664   2.920   3.854   4.820
  922SOL    HW1 3665   2.856   3.908   4.875
  922SOL    HW2 3666   3.013   3.870   4.852
  923SOL     OW 3667   2.557   3.779   5.960
  923SOL    HW1 3668   2.594   3.842   6.029
  923SOL    HW2 3669   2.460   3.762   5.978
  924SOL     OW 3670   6.274   3.438   2.309
  924SOL    HW1 3671   6.258   3.376   2.233
  924SOL    HW2 3672   6.372   3.448   2.325
  925SOL     OW 3673   0.149   2.170   7.018
  925SOL    HW1 3674   0.163   2.129   0.082
  925SOL    HW2 3675   0.166   2.268   7.023
  926SOL     OW 3676   6.026   0.772   0.851
  926SOL    HW1 3677   6.124   0.759   0.837
  926SOL    HW2 3678   6.011   0.850   0.911
  927SOL     OW 3679   5.614   4.280   3.123
  927SOL    HW1 3680   5.526   4.249   3.159
  927SOL    HW2 3681   5.687   4.240   3.179
  928SOL     OW 3682   1.584   6.409   0.179
  928SOL    HW1 3683   1.595   6.311   0.194
  928SOL    HW2 3684   1.652   6.459   0.233
  929SOL     OW 3685   1.001   0.310   6.619
  929SOL    HW1 3686   1.003   0.403   6.582
  929SOL    HW2 3687   0.913   0.268   6.598
  930SOL     OW 3688   5.107   5.991   5.189
  930SOL    HW1 3689   5.037   5.979   5.118
  930SOL    HW2 3690   5.107   6.087   5.218
  931SOL     OW 3691   5.979   1.641   4.953
  931SOL    HW1 3692   6.038   1.562   4.940
  931SOL    HW2 3693   6.034   1.718   4.986
  932SOL     OW 3694   3.162   0.395   3.280
  932SOL    HW1 3695   3.140   0.462   3.209
  932SOL    HW2 3696   3.110   0.312   3.264
  933SOL     OW 3697   2.011   6.288   3.337
  933SOL    HW1 3698   2.030   6.300   3.435
  933SOL    HW2 3699   2.016   6.191   3.314
  934SOL     OW 3700   2.278   6.629   0.043
  934SOL    HW1 3701   2.363   6.673   0.069
  934SOL    HW2 3702   2.240   6.675   6.989
  935SOL     OW 3703   5.187   4.233   4.432
  935SOL    HW1 3704   5.160   4.142   4.401
  935SOL    HW2 3705   5.132   4.302   4.385
  936SOL     OW 3706   7.014   0.306   6.359
  936SOL    HW1 3707   6.972   0.358   6.433
  936SOL    HW2 3708   0.082   0.338   6.346
  937SOL     OW 3709   5.277   1.753   5.843
  937SOL    HW1 3710   5.228   1.665   5.842
  937SOL    HW2 3711   5.374   1.736   5.856
  938SOL     OW 3712   5.859   5.007   6.067
  938SOL    HW1 3713   5.911   5.004   5.981
  938SOL    HW2 3714   5.883   4.928   6.123
  939SOL     OW 3715   0.135   7.010   4.420
  939SOL    HW1 3716   0.177   6.952   4.350
  939SOL    HW2 3717   0.080   0.055   4.375
  940SOL     OW 3718   0.952   3.888   1.834
  940SOL    HW1 3719   0.872   3.935   1.870
  940SOL    HW2 3720   0.923   3.806   1.785
  941SOL     OW 3721   5.823   1.260   6.809
  941SOL    HW1 3722   5.848   1.165   6.796
  941SOL    HW2 3723   5.789   1.274   6.902
  942SOL     OW 3724   5.713   0.135   2.781
  942SOL    HW1 3725   5.628   0.125   2.832
  942SOL    HW2 3726   5.694   0.126   2.683
  943SOL     OW 3727   1.685   3.686   3.263
  943SOL    HW1 3728   1.771   3.635   3.269
  943SOL    HW2 3729   1.621   3.635   3.206
  944SOL     OW 3730   0.285   4.856   5.793
  944SOL    HW1 3731   0.349   4.926   5.761
  944SOL    HW2 3732   0.202   4.900   5.826
  945SOL     OW 3733   6.937   3.609   6.040
  945SOL    HW1 3734   7.013   3.554   6.005
  945SOL    HW2 3735   6.974   3.690   6.087
  946SOL     OW 3736   4.999   4.280   5.397
  946SOL    HW1 3737   4.977   4.283   5.300
  946SOL    HW2 3738   4.927   4.327   5.449
  947SOL     OW 3739   3.956   3.040   3.609
  947SOL    HW1 3740   3.958   3.135   3.579
  947SOL    HW2 3741   4.041   2.995   3.581
  948SOL     OW 3742   4.938   0.903   2.790
  948SOL    HW1 3743   4.998   0.852   2.851
  948SOL    HW2 3744   4.987   0.925   2.706
  949SOL     OW 3745   1.863   6.087   0.525
  949SOL    HW1 3746   1.932   6.113   0.592
  949SOL    HW2 3747   1.904   6.082   0.434
  950SOL     OW 3748   4.624   5.678   2.141
  950SOL    HW1 3749   4.719   5.701   2.120
  950SOL    HW2 3750   4.570   5.762   2.143
  951SOL     OW 3751   1.626   0.518   4.011
  951SOL    HW1 3752   1.659   0.588   4.074
  951SOL    HW2 3753   1.533   0.541   3.982
  952SOL     OW 3754   4.334   2.254   3.164
  952SOL    HW1 3755   4.381   2.307   3.094
  952SOL    HW2 3756   4.242   2.231   3.132
  953SOL     OW 3757   5.410   5.335   4.688
  953SOL    HW1 3758   5.330   5.390   4.711
  953SOL    HW2 3759   5.383   5.239   4.681
  954SOL     OW 3760   4.128   5.785   1.719
  954SOL    HW1 3761   4.180   5.871   1.719
  954SOL    HW2 3762   4.030   5.805   1.716
  955SOL     OW 3763   0.213   3.720   1.717
  955SOL    HW1 3764   0.303   3.692   1.680
  955SOL    HW2 3765   0.214   3.711   1.816
  956SOL     OW 3766   5.935   0.284   1.996
  956SOL    HW1 3767   5.941   0.299   2.095
  956SOL    HW2 3768   5.840   0.294   1.966
  957SOL     OW 3769   5.976   3.089   3.499
  957SOL    HW1 3770   5.998   2.993   3.485
  957SOL    HW2 3771   6.021   3.145   3.429
  958SOL     OW 3772   4.008   1.219   1.403
  958SOL    HW1 3773   4.088   1.277   1.421
  958SOL    HW2 3774   3.961   1.199   1.489
  959SOL     OW 3775   3.646   6.504   4.590
  959SOL    HW1 3776   3.707   6.457   4.525
  959SOL    HW2 3777   3.559   6.524   4.545
  960SOL     OW 3778   0.320   0.834   2.438
  960SOL    HW1 3779   0.320   0.897   2.360
  960SOL    HW2 3780   0.383   0.758   2.419
  961SOL     OW 3781   4.158   6.523   3.499
  961SOL    HW1 3782   4.129   6.549   3.407
  961SOL    HW2 3783   4.114   6.437   3.525
  962SOL     OW 3784   0.600   1.307   5.429
  962SOL    HW1 3785   0.617   1.278   5.335
  962SOL    HW2 3786   0.505   1.285   5.454
  963SOL     OW 3787   5.309   1.288   6.247
  963SOL    HW1 3788   5.258   1.328   6.323
  963SOL    HW2 3789   5.308   1.351   6.170
  964SOL     OW 3790   5.418   5.038   0.184
  964SOL    HW1 3791   5.461   5.013   0.271
  964SOL    HW2 3792   5.367   4.960   0.148
  965SOL     OW 3793   5.336   1.424   2.062
  965SOL    HW1 3794   5.347   1.330   2.029
  965SOL    HW2 3795   5.394   1.485   2.007
  966SOL     OW 3796   5.757   3.366   1.972
  966SOL    HW1 3797   5.786   3.415   2.055
  966SOL    HW2 3798   5.796   3.411   1.892
  967SOL     OW 3799   2.801   4.059   1.242
  967SOL    HW1 3800   2.879   3.998   1.256
  967SOL    HW2 3801   2.716   4.010   1.260
  968SOL     OW 3802   3.847   0.759   2.344
  968SOL    HW1 3803   3.810   0.826   2.280
  968SOL    HW2 3804   3.793   0.762   2.429
  969SOL     OW 3805   2.675   4.765   5.540
  969SOL    HW1 3806   2.690   4.730   5.632
  969SOL    HW2 3807   2.693   4.693   5.473
  970SOL     OW 3808   5.649   0.773   6.652
  970SOL    HW1 3809   5.584   0.730   6.714
  970SOL    HW2 3810   5.614   0.769   6.558
  971SOL     OW 3811   0.187   2.771   1.830
  971SOL    HW1 3812   0.120   2.834   1.791
  971SOL    HW2 3813   0.247   2.820   1.893
  972SOL     OW 3814   5.635   1.993   1.407
  972SOL    HW1 3815   5.631   1.927   1.482
  972SOL    HW2 3816   5.686   1.953   1.331
  973SOL     OW 3817   0.880   5.115   6.188
  973SOL    HW1 3818   0.925   5.057   6.255
  973SOL    HW2 3819   0.894   5.211   6.213
  974SOL     OW 3820   5.386   6.621   2.393
  974SOL    HW1 3821   5.439   6.552   2.443
  974SOL    HW2 3822   5.361   6.584   2.303
  975SOL     OW 3823   1.716   0.804   7.014
  975SOL    HW1 3824   1.703   0.879   0.053
  975SOL    HW2 3825   1.807   0.764   7.026
  976SOL     OW 3826   0.226   4.045   1.718
  976SOL    HW1 3827   0.172   3.961   1.727
  976SOL    HW2 3828   0.219   4.098   1.803
  977SOL     OW 3829   0.679   0.360   2.043
  977SOL    HW1 3830   0.701   0.356   2.141
  977SOL    HW2 3831   0.763   0.374   1.991
  978SOL     OW 3832   5.561   2.862   6.130
  978SOL    HW1 3833   5.514   2.833   6.214
  978SOL    HW2 3834   5.549   2.792   6.060
  979SOL     OW 3835   0.563   2.669   6.963
  979SOL    HW1 3836   0.511   2.700   0.017
  979SOL    HW2 3837   0.598   2.748   6.913
  980SOL     OW 3838   5.421   1.849   3.695
  980SOL    HW1 3839   5.453   1.847   3.600
  980SOL    HW2 3840   5.322   1.838   3.697
  981SOL     OW 3841   0.178   1.749   4.890
  981SOL    HW1 3842   0.110   1.676   4.888
  981SOL    HW2 3843   0.207   1.770   4.796
  982SOL     OW 3844   1.049   1.341   4.903
  982SOL    HW1 3845   1.048   1.437   4.930
  982SOL    HW2 3846   1.072   1.334   4.806
  983SOL     OW 3847   6.390   2.858   3.023
  983SOL    HW1 3848   6.351   2.948   3.007
  983SOL    HW2 3849   6.378   2.831   3.118
  984SOL     OW 3850   2.619   2.372   4.538
  984SOL    HW1 3851   2.556   2.411   4.471
  984SOL    HW2 3852   2.701   2.429   4.543
  985SOL     OW 3853   6.442   3.022   5.070
  985SOL    HW1 3854   6.346   3.001   5.053
  985SOL    HW2 3855   6.449   3.088   5.145
  986SOL     OW 3856   4.916   4.520   0.948
  986SOL    HW1 3857   4.920   4.579   0.867
  986SOL    HW2 3858   4.996   4.459   0.949
  987SOL     OW 3859   4.857   6.685   2.616
  987SOL    HW1 3860   4.776   6.716   2.566
  987SOL    HW2 3861   4.868   6.741   2.698
  988SOL     OW 3862   3.648   3.688   2.025
  988SOL    HW1 3863   3.657   3.603   2.076
  988SOL    HW2 3864   3.552   3.703   2.001
  989SOL     OW 3865   6.558   1.954   6.514
  989SOL    HW1 3866   6.472   1.919   6.475
  989SOL    HW2 3867   6.633   1.896   6.483
  990SOL     OW 3868   3.487   1.189   2.031
  990SOL    HW1 3869   3.486   1.178   1.932
  990SOL    HW2 3870   3.579   1.169   2.066
  991SOL     OW 3871   0.871   3.620   4.340
  991SOL    HW1 3872   0.778   3.656   4.337
  991SOL    HW2 3873   0.877   3.552   4.413
  992SOL     OW 3874   0.625   3.455   1.234
  992SOL    HW1 3875   0.555   3.383   1.235
  992SOL    HW2 3876   0.620   3.507   1.319
  993SOL     OW 3877   6.814   4.628   0.339
  993SOL    HW1 3878   6.855   4.661   0.424
  993SOL    HW2 3879   6.866   4.663   0.261
  994SOL     OW 3880   4.135   5.315   1.809
  994SOL    HW1 3881   4.096   5.379   1.876
  994SOL    HW2 3882   4.102   5.223   1.827
  995SOL     OW 3883   4.444   2.883   5.643
  995SOL    HW1 3884   4.535   2.881   5.600
  995SOL    HW2 3885   4.453   2.861   5.740
  996SOL     OW 3886   3.152   5.463   4.441
  996SOL    HW1 3887   3.055   5.451   4.465
  996SOL    HW2 3888   3.164   5.445   4.344
  997SOL     OW 3889   0.935   0.079   3.409
  997SOL    HW1 3890   0.974   7.025   3.364
  997SOL    HW2 3891   0.884   0.134   3.342
  998SOL     OW 3892   5.706   0.552   4.851
  998SOL    HW1 3893   5.743   0.485   4.787
  998SOL    HW2 3894   5.636   0.508   4.908
  999SOL     OW 3895   5.421   4.471   2.399
  999SOL    HW1 3896   5.329   4.494   2.431
  999SOL    HW2 3897   5.481   4.455   2.477
 1000SOL     OW 3898   3.772   1.618   1.737
 1000SOL    HW1 3899   3.724   1.652   1.656
 1000SOL    HW2 3900   3.814   1.695   1.785
 1001SOL     OW 3901   4.808   5.742   1.345
 1001SOL    HW1 3902   4.747   5.673   1.306
 1001SOL    HW2 3903   4.877   5.768   1.277
 1002SOL     OW 3904   5.651   1.669   1.522
 1002SOL    HW1 3905   5.627   1.623   1.608
 1002SOL    HW2 3906   5.699   1.604   1.463
 1003SOL     OW 3907   1.858   6.159   2.611
 1003SOL    HW1 3908   1.882   6.083   2.671
 1003SOL    HW2 3909   1.840   6.125   2.519
 1004SOL     OW 3910   0.438   0.916   1.623
 1004SOL    HW1 3911   0.425   0.886   1.528
 1004SOL    HW2 3912   0.516   0.867   1.663
 1005SOL     OW 3913   1.846   2.613   3.874
 1005SOL    HW1 3914   1.846   2.518   3.842
 1005SOL    HW2 3915   1.921   2.663   3.829
 1006SOL     OW 3916   1.096   4.455   6.988
 1006SOL    HW1 3917   1.113   4.361   7.019
 1006SOL    HW2 3918   1.058   4.453   6.896
 1007SOL     OW 3919   4.800   0.710   5.487
 1007SOL    HW1 3920   4.807   0.706   5.387
 1007SOL    HW2 3921   4.783   0.805   5.515
 1008SOL     OW 3922   0.646   2.836   6.298
 1008SOL    HW1 3923   0.721   2.901   6.303
 1008SOL    HW2 3924   0.651   2.787   6.210
 1009SOL     OW 3925   0.481   5.184   5.112
 1009SOL    HW1 3926   0.445   5.231   5.193
 1009SOL    HW2 3927   0.483   5.086   5.129
 1010SOL     OW 3928   2.695   2.140   0.329
 1010SOL    HW1 3929   2.778   2.163   0.278
 1010SOL    HW2 3930   2.633   2.088   0.270
 1011SOL     OW 3931   1.214   5.683   3.526
 1011SOL    HW1 3932   1.276   5.674   3.448
 1011SOL    HW2 3933   1.120   5.692   3.493
 1012SOL     OW 3934   0.391   6.740   2.544
 1012SOL    HW1 3935   0.376   6.817   2.482
 1012SOL    HW2 3936   0.443   6.669   2.498
 1013SOL     OW 3937   1.018   1.935   6.489
 1013SOL    HW1 3938   1.077   1.986   6.427
 1013SOL    HW2 3939   1.017   1.838   6.462
 1014SOL     OW 3940   0.335   4.429   5.736
 1014SOL    HW1 3941   0.343   4.371   5.654
 1014SOL    HW2 3942   0.419   4.420   5.790
 1015SOL     OW 3943   2.951   6.987   5.607
 1015SOL    HW1 3944   3.046   7.005   5.579
 1015SOL    HW2 3945   2.951   6.939   5.694
 1016SOL     OW 3946   4.483   3.694   0.134
 1016SOL    HW1 3947   4.519   3.787   0.128
 1016SOL    HW2 3948   4.501   3.657   0.225
 1017SOL     OW 3949   4.430   2.531   1.172
 1017SOL    HW1 3950   4.455   2.472   1.249
 1017SOL    HW2 3951   4.412   2.623   1.204
 1018SOL     OW 3952   0.986   4.338   3.967
 1018SOL    HW1 3953   0.957   4.327   4.062
 1018SOL    HW2 3954   0.908   4.323   3.907
 1019SOL     OW 3955   6.744   6.600   1.306
 1019SOL    HW1 3956   6.699   6.588   1.394
 1019SOL    HW2 3957   6.842   6.586   1.317
 1020SOL     OW 3958   6.501   0.982   1.079
 1020SOL    HW1 3959   6.563   0.904   1.077
 1020SOL    HW2 3960   6.411   0.954   1.048
 1021SOL     OW 3961   5.683   6.769   1.661
 1021SOL    HW1 3962   5.728   6.805   1.579
 1021SOL    HW2 3963   5.589   6.803   1.664
 1022SOL     OW 3964   2.819   4.835   5.231
 1022SOL    HW1 3965   2.722   4.858   5.220
 1022SOL    HW2 3966   2.835   4.742   5.199
 1023SOL     OW 3967   0.297   1.106   2.767
 1023SOL    HW1 3968   0.288   1.188   2.710
 1023SOL    HW2 3969   0.390   1.071   2.761
 1024SOL     OW 3970   0.620   2.741   4.137
 1024SOL    HW1 3971   0.618   2.794   4.052
 1024SOL    HW2 3972   0.674   2.658   4.123
 1025SOL     OW 3973   3.385   3.270   1.402
 1025SOL    HW1 3974   3.451   3.195   1.390
 1025SOL    HW2 3975   3.367   3.283   1.499
 1026SOL     OW 3976   2.927   2.948   1.541
 1026SOL    HW1 3977   3.001   2.975   1.480
 1026SOL    HW2 3978   2.932   2.850   1.558
 1027SOL     OW 3979   3.604   6.712   1.926
 1027SOL    HW1 3980   3.676   6.717   1.858
 1027SOL    HW2 3981   3.551   6.797   1.926
 1028SOL     OW 3982   1.793   0.033   2.758
 1028SOL    HW1 3983   1.841   0.019   2.671
 1028SOL    HW2 3984   1.851   0.002   2.834
 1029SOL     OW 3985   1.032   1.208   6.326
 1029SOL    HW1 3986   1.010   1.243   6.234
 1029SOL    HW2 3987   1.126   1.236   6.350
 1030SOL     OW 3988   3.447   3.219   2.048
 1030SOL    HW1 3989   3.366   3.277   2.043
 1030SOL    HW2 3990   3.471   3.203   2.144
 1031SOL     OW 3991   4.691   3.815   1.176
 1031SOL    HW1 3992   4.644   3.901   1.194
 1031SOL    HW2 3993   4.717   3.772   1.262
 1032SOL     OW 3994   1.030   1.631   5.556
 1032SOL    HW1 3995   1.035   1.564   5.482
 1032SOL    HW2 3996   1.106   1.695   5.548
 1033SOL     OW 3997   0.847   5.303   1.030
 1033SOL    HW1 3998   0.769   5.346   0.986
 1033SOL    HW2 3999   0.916   5.372   1.050
 1034SOL     OW 4000   1.200   5.419   4.462
 1034SOL    HW1 4001   1.187   5.494   4.398
 1034SOL    HW2 4002   1.167   5.446   4.553
 1035SOL     OW 4003   0.060   1.063   5.579
 1035SOL    HW1 4004   0.138   1.030   5.525
 1035SOL    HW2 4005   0.093   1.132   5.644
 1036SOL     OW 4006   3.873   0.608   2.111
 1036SOL    HW1 4007   3.779   0.590   2.083
 1036SOL    HW2 4008   3.876   0.691   2.167
 1037SOL     OW 4009   1.498   1.368   2.828
 1037SOL    HW1 4010   1.526   1.432   2.899
 1037SOL    HW2 4011   1.513   1.274   2.861
 1038SOL     OW 4012   1.893   0.809   5.442
 1038SOL    HW1 4013   1.897   0.869   5.363
 1038SOL    HW2 4014   1.822   0.841   5.505
 1039SOL     OW 4015   3.590   3.820   4.814
 1039SOL    HW1 4016   3.553   3.728   4.826
 1039SOL    HW2 4017   3.522   3.877   4.767
 1040SOL     OW 4018   4.742   0.848   2.209
 1040SOL    HW1 4019   4.722   0.942   2.182
 1040SOL    HW2 4020   4.660   0.806   2.248
 1041SOL     OW 4021   0.028   6.654   3.284
 1041SOL    HW1 4022   0.087   6.704   3.347
 1041SOL    HW2 4023   6.991   6.596   3.336
 1042SOL     OW 4024   3.972   5.523   2.401
 1042SOL    HW1 4025   4.053   5.463   2.392
 1042SOL    HW2 4026   3.896   5.484   2.349
 1043SOL     OW 4027   3.607   2.158   3.578
 1043SOL    HW1 4028   3.696   2.175   3.536
 1043SOL    HW2 4029   3.620   2.138   3.675
 1044SOL     OW 4030   5.760   5.143   2.153
 1044SOL    HW1 4031   5.736   5.047   2.135
 1044SOL    HW2 4032   5.680   5.191   2.189
 1045SOL     OW 4033   3.855   0.368   2.303
 1045SOL    HW1 4034   3.875   0.380   2.400
 1045SOL    HW2 4035   3.862   0.457   2.257
 1046SOL     OW 4036   1.699   1.239   6.981
 1046SOL    HW1 4037   1.709   1.193   0.044
 1046SOL    HW2 4038   1.634   1.188   6.925
 1047SOL     OW 4039   2.274   6.886   3.814
 1047SOL    HW1 4040   2.300   6.924   3.726
 1047SOL    HW2 4041   2.288   6.954   3.886
 1048SOL     OW 4042   3.720   6.380   3.069
 1048SOL    HW1 4043   3.732   6.477   3.090
 1048SOL    HW2 4044   3.623   6.361   3.054
 1049SOL     OW 4045   6.469   6.789   3.937
 1049SOL    HW1 4046   6.385   6.782   3.990
 1049SOL    HW2 4047   6.477   6.711   3.875
 1050SOL     OW 4048   3.541   5.247   1.989
 1050SOL    HW1 4049   3.513   5.175   1.926
 1050SOL    HW2 4050   3.637   5.271   1.972
 1051SOL     OW 4051   0.367   5.202   0.699
 1051SOL    HW1 4052   0.429   5.231   0.626
 1051SOL    HW2 4053   0.391   5.250   0.784
 1052SOL     OW 4054   4.367   0.977   5.595
 1052SOL    HW1 4055   4.368   0.881   5.624
 1052SOL    HW2 4056   4.376   1.036   5.676
 1053SOL     OW 4057   5.741   3.950   3.483
 1053SOL    HW1 4058   5.683   3.921   3.407
 1053SOL    HW2 4059   5.703   4.033   3.524
 1054SOL     OW 4060   3.206   3.270   0.702
 1054SOL    HW1 4061   3.119   3.266   0.751
 1054SOL    HW2 4062   3.190   3.292   0.606
 1055SOL     OW 4063   4.157   6.701   5.248
 1055SOL    HW1 4064   4.160   6.700   5.148
 1055SOL    HW2 4065   4.205   6.783   5.281
 1056SOL     OW 4066   2.126   3.590   0.475
 1056SOL    HW1 4067   2.161   3.683   0.465
 1056SOL    HW2 4068   2.142   3.539   0.390
 1057SOL     OW 4069   3.385   3.295   1.695
 1057SOL    HW1 4070   3.453   3.225   1.672
 1057SOL    HW2 4071   3.306   3.251   1.738
 1058SOL     OW 4072   5.386   2.957   3.550
 1058SOL    HW1 4073   5.435   3.041   3.526
 1058SOL    HW2 4074   5.330   2.928   3.473
 1059SOL     OW 4075   2.350   0.783   2.084
 1059SOL    HW1 4076   2.269   0.726   2.066
 1059SOL    HW2 4077   2.377   0.830   2.000
 1060SOL     OW 4078   0.195   4.763   4.132
 1060SOL    HW1 4079   0.182   4.862   4.143
 1060SOL    HW2 4080   0.231   4.744   4.041
 1061SOL     OW 4081   6.296   3.533   0.120
 1061SOL    HW1 4082   6.292   3.631   0.101
 1061SOL    HW2 4083   6.272   3.483   0.037
 1062SOL     OW 4084   5.531   5.591   6.001
 1062SOL    HW1 4085   5.595   5.534   6.053
 1062SOL    HW2 4086   5.438   5.564   6.023
 1063SOL     OW 4087   0.961   5.672   0.806
 1063SOL    HW1 4088   1.055   5.703   0.792
 1063SOL    HW2 4089   0.956   5.616   0.888
 1064SOL     OW 4090   1.689   4.679   3.221
 1064SOL    HW1 4091   1.630   4.723   3.289
 1064SOL    HW2 4092   1.632   4.626   3.158
 1065SOL     OW 4093   4.908   0.652   3.580
 1065SOL    HW1 4094   4.824   0.624   3.533
 1065SOL    HW2 4095   4.907   0.614   3.673
 1066SOL     OW 4096   4.902   6.825   2.840
 1066SOL    HW1 4097   4.907   6.758   2.914
 1066SOL    HW2 4098   4.888   6.916   2.879
 1067SOL     OW 4099   0.799   2.592   0.324
 1067SOL    HW1 4100   0.828   2.591   0.420
 1067SOL    HW2 4101   0.875   2.561   0.267
 1068SOL     OW 4102   6.615   5.003   2.237
 1068SOL    HW1 4103   6.696   5.062   2.238
 1068SOL    HW2 4104   6.643   4.908   2.247
 1069SOL     OW 4105   4.636   5.551   0.441
 1069SOL    HW1 4106   4.645   5.453   0.458
 1069SOL    HW2 4107   4.554   5.568   0.385
 1070SOL     OW 4108   0.828   0.322   1.621
 1070SOL    HW1 4109   0.877   0.270   1.691
 1070SOL    HW2 4110   0.729   0.309   1.634
 1071SOL     OW 4111   1.478   1.089   3.963
 1071SOL    HW1 4112   1.474   1.111   3.866
 1071SOL    HW2 4113   1.457   0.992   3.977
 1072SOL     OW 4114   2.218   0.658   1.140
 1072SOL    HW1 4115   2.219   0.632   1.236
 1072SOL    HW2 4116   2.198   0.578   1.084
 1073SOL     OW 4117   5.163   0.491   3.563
 1073SOL    HW1 4118   5.233   0.524   3.500
 1073SOL    HW2 4119   5.077   0.540   3.548
 1074SOL     OW 4120   2.480   5.649   1.450
 1074SOL    HW1 4121   2.416   5.715   1.489
 1074SOL    HW2 4122   2.475   5.564   1.502
 1075SOL     OW 4123   5.209   6.836   3.421
 1075SOL    HW1 4124   5.169   6.758   3.372
 1075SOL    HW2 4125   5.226   6.811   3.516
 1076SOL     OW 4126   0.879   2.706   5.633
 1076SOL    HW1 4127   0.933   2.790   5.644
 1076SOL    HW2 4128   0.841   2.679   5.722
 1077SOL     OW 4129   6.378   0.152   0.500
 1077SOL    HW1 4130   6.279   0.140   0.497
 1077SOL    HW2 4131   6.412   0.130   0.591
 1078SOL     OW 4132   6.832   0.762   2.541
 1078SOL    HW1 4133   6.738   0.790   2.523
 1078SOL    HW2 4134   6.893   0.809   2.477
 1079SOL     OW 4135   1.596   6.309   2.116
 1079SOL    HW1 4136   1.676   6.365   2.138
 1079SOL    HW2 4137   1.620   6.242   2.046
 1080SOL     OW 4138   2.003   5.270   3.525
 1080SOL    HW1 4139   1.946   5.189   3.517
 1080SOL    HW2 4140   1.959   5.337   3.585
 1081SOL     OW 4141   6.595   5.226   5.179
 1081SOL    HW1 4142   6.693   5.233   5.195
 1081SOL    HW2 4143   6.560   5.314   5.147
 1082SOL     OW 4144   5.564   2.292   5.232
 1082SOL    HW1 4145   5.503   2.254   5.302
 1082SOL    HW2 4146   5.547   2.246   5.145
 1083SOL     OW 4147   4.491   4.336   0.416
 1083SOL    HW1 4148   4.411   4.276   0.416
 1083SOL    HW2 4149   4.541   4.324   0.502
 1084SOL     OW 4150   6.158   6.128   6.531
 1084SOL    HW1 4151   6.154   6.098   6.436
 1084SOL    HW2 4152   6.191   6.054   6.589
 1085SOL     OW 4153   1.609   3.705   4.670
 1085SOL    HW1 4154   1.677   3.693   4.742
 1085SOL    HW2 4155   1.519   3.680   4.704
 1086SOL     OW 4156   0.208   4.594   0.274
 1086SOL    HW1 4157   0.218   4.583   0.175
 1086SOL    HW2 4158   0.137   4.662   0.293
 1087SOL     OW 4159   0.317   2.330   5.175
 1087SOL    HW1 4160   0.262   2.364   5.251
 1087SOL    HW2 4161   0.261   2.326   5.092
 1088SOL     OW 4162   0.345   3.434   2.465
 1088SOL    HW1 4163   0.314   3.528   2.478
 1088SOL    HW2 4164   0.393   3.427   2.378
 1089SOL     OW 4165   0.062   5.983   4.554
 1089SOL    HW1 4166   0.019   6.010   4.467
 1089SOL    HW2 4167   7.017   5.956   4.619
 1090SOL     OW 4168   3.079   1.604   3.507
 1090SOL    HW1 4169   3.123   1.631   3.421
 1090SOL    HW2 4170   3.143   1.617   3.583
 1091SOL     OW 4171   2.794   2.092   4.664
 1091SOL    HW1 4172   2.886   2.105   4.701
 1091SOL    HW2 4173   2.737   2.170   4.688
 1092SOL     OW 4174   0.962   4.512   0.389
 1092SOL    HW1 4175   0.928   4.489   0.298
 1092SOL    HW2 4176   1.017   4.595   0.385
 1093SOL     OW 4177   2.379   0.183   1.577
 1093SOL    HW1 4178   2.361   0.237   1.659
 1093SOL    HW2 4179   2.449   0.229   1.522
 1094SOL     OW 4180   1.192   0.095   3.064
 1094SOL    HW1 4181   1.172   0.166   3.131
 1094SOL    HW2 4182   1.234   0.135   2.983
 1095SOL     OW 4183   1.114   2.988   6.240
 1095SOL    HW1 4184   1.137   2.931   6.318
 1095SOL    HW2 4185   1.034   2.951   6.194
 1096SOL     OW 4186   3.393   4.183   1.647
 1096SOL    HW1 4187   3.354   4.105   1.696
 1096SOL    HW2 4188   3.480   4.208   1.689
 1097SOL     OW 4189   2.509   4.664   3.942
 1097SOL    HW1 4190   2.532   4.662   3.845
 1097SOL    HW2 4191   2.413   4.637   3.954
 1098SOL     OW 4192   4.578   3.516   6.818
 1098SOL    HW1 4193   4.534   3.597   6.781
 1098SOL    HW2 4194   4.511   3.443   6.829
 1099SOL     OW 4195   3.422   0.854   5.992
 1099SOL    HW1 4196   3.358   0.927   5.970
 1099SOL    HW2 4197   3.427   0.843   6.092
 1100SOL     OW 4198   4.077   1.613   4.788
 1100SOL    HW1 4199   3.977   1.605   4.787
 1100SOL    HW2 4200   4.117   1.533   4.742
 1101SOL     OW 4201   5.742   3.150   5.881
 1101SOL    HW1 4202   5.742   3.092   5.962
 1101SOL    HW2 4203   5.808   3.225   5.894
 1102SOL     OW 4204   0.740   0.462   4.856
 1102SOL    HW1 4205   0.697   0.375   4.833
 1102SOL    HW2 4206   0.834   0.462   4.823
 1103SOL     OW 4207   4.208   1.112   0.181
 1103SOL    HW1 4208   4.194   1.091   0.278
 1103SOL    HW2 4209   4.125   1.091   0.130
 1104SOL     OW 4210   2.041   3.287   4.924
 1104SOL    HW1 4211   2.068   3.201   4.968
 1104SOL    HW2 4212   1.949   3.277   4.886
 1105SOL     OW 4213   5.882   3.310   4.617
 1105SOL    HW1 4214   5.851   3.275   4.706
 1105SOL    HW2 4215   5.874   3.410   4.617
 1106SOL     OW 4216   0.349   2.519   0.945
 1106SOL    HW1 4217   0.368   2.502   0.848
 1106SOL    HW2 4218   0.435   2.534   0.994
 1107SOL     OW 4219   0.976   0.207   6.921
 1107SOL    HW1 4220   1.037   0.203   7.001
 1107SOL    HW2 4221   0.985   0.295   6.876
 1108SOL     OW 4222   3.456   6.706   5.324
 1108SOL    HW1 4223   3.489   6.705   5.230
 1108SOL    HW2 4224   3.533   6.700   5.387
 1109SOL     OW 4225   5.338   0.536   3.361
 1109SOL    HW1 4226   5.345   0.636   3.361
 1109SOL    HW2 4227   5.290   0.506   3.279
 1110SOL     OW 4228   4.165   1.929   3.072
 1110SOL    HW1 4229   4.220   1.941   2.989
 1110SOL    HW2 4230   4.218   1.878   3.140
 1111SOL     OW 4231   4.719   5.808   6.894
 1111SOL    HW1 4232   4.744   5.713   6.877
 1111SOL    HW2 4233   4.719   5.825   6.992
 1112SOL     OW 4234   5.561   0.696   2.091
 1112SOL    HW1 4235   5.617   0.752   2.152
 1112SOL    HW2 4236   5.620   0.634   2.039
 1113SOL     OW 4237   6.056   4.254   1.605
 1113SOL    HW1 4238   6.086   4.332   1.551
 1113SOL    HW2 4239   5.995   4.285   1.678
 1114SOL     OW 4240   2.898   1.399   5.551
 1114SOL    HW1 4241   2.910   1.342   5.632
 1114SOL    HW2 4242   2.984   1.444   5.528
 1115SOL     OW 4243   3.799   3.448   6.137
 1115SOL    HW1 4244   3.866   3.376   6.117
 1115SOL    HW2 4245   3.739   3.419   6.211
 1116SOL     OW 4246   4.394   6.332   5.692
 1116SOL    HW1 4247   4.408   6.322   5.790
 1116SOL    HW2 4248   4.315   6.392   5.676
 1117SOL     OW 4249   1.915   2.052   1.871
 1117SOL    HW1 4250   1.905   1.962   1.828
 1117SOL    HW2 4251   1.843   2.113   1.837
 1118SOL     OW 4252   2.609   4.718   0.918
 1118SOL    HW1 4253   2.580   4.770   0.998
 1118SOL    HW2 4254   2.532   4.705   0.856
 1119SOL     OW 4255   4.186   4.489   1.599
 1119SOL    HW1 4256   4.222   4.542   1.676
 1119SOL    HW2 4257   4.261   4.447   1.548
 1120SOL     OW 4258   5.549   5.968   0.768
 1120SOL    HW1 4259   5.519   5.950   0.674
 1120SOL    HW2 4260   5.616   5.899   0.795
 1121SOL     OW 4261   6.636   4.559   4.728
 1121SOL    HW1 4262   6.564   4.622   4.700
 1121SOL    HW2 4263   6.698   4.604   4.792
 1122SOL     OW 4264   5.168   2.525   1.539
 1122SOL    HW1 4265   5.116   2.466   1.477
 1122SOL    HW2 4266   5.107   2.592   1.580
 1123SOL     OW 4267   4.684   2.231   3.111
 1123SOL    HW1 4268   4.646   2.323   3.108
 1123SOL    HW2 4269   4.756   2.222   3.042
 1124SOL     OW 4270   0.043   3.433   5.505
 1124SOL    HW1 4271   0.116   3.365   5.499
 1124SOL    HW2 4272   0.064   3.510   5.445
 1125SOL     OW 4273   2.873   1.726   3.765
 1125SOL    HW1 4274   2.902   1.630   3.758
 1125SOL    HW2 4275   2.825   1.752   3.682
 1126SOL     OW 4276   5.418   5.898   6.791
 1126SOL    HW1 4277   5.486   5.842   6.744
 1126SOL    HW2 4278   5.366   5.840   6.855
 1127SOL     OW 4279   5.336   5.880   4.163
 1127SOL    HW1 4280   5.398   5.957   4.171
 1127SOL    HW2 4281   5.328   5.833   4.251
 1128SOL     OW 4282   6.150   1.441   4.142
 1128SOL    HW1 4283   6.066   1.387   4.150
 1128SOL    HW2 4284   6.213   1.396   4.078
 1129SOL     OW 4285   1.911   0.000   0.569
 1129SOL    HW1 4286   1.845   0.043   0.631
 1129SOL    HW2 4287   1.955   0.070   0.513
 1130SOL     OW 4288   2.111   5.242   0.598
 1130SOL    HW1 4289   2.208   5.260   0.577
 1130SOL    HW2 4290   2.104   5.197   0.687
 1131SOL     OW 4291   1.152   6.459   5.769
 1131SOL    HW1 4292   1.244   6.422   5.762
 1131SOL    HW2 4293   1.093   6.394   5.818
 1132SOL     OW 4294   5.271   0.278   2.772
 1132SOL    HW1 4295   5.254   0.241   2.680
 1132SOL    HW2 4296   5.240   0.212   2.841
 1133SOL     OW 4297   1.147   0.877   0.330
 1133SOL    HW1 4298   1.089   0.796   0.318
 1133SOL    HW2 4299   1.142   0.908   0.425
 1134SOL     OW 4300   5.122   6.734   2.398
 1134SOL    HW1 4301   5.214   6.701   2.419
 1134SOL    HW2 4302   5.063   6.656   2.377
 1135SOL     OW 4303   2.964   6.670   3.795
 1135SOL    HW1 4304   2.888   6.713   3.745
 1135SOL    HW2 4305   2.934   6.582   3.831
 1136SOL     OW 4306   4.405   4.609   3.511
 1136SOL    HW1 4307   4.481   4.545   3.498
 1136SOL    HW2 4308   4.357   4.621   3.424
 1137SOL     OW 4309   1.605   6.897   0.270
 1137SOL    HW1 4310   1.560   6.817   0.230
 1137SOL    HW2 4311   1.631   6.877   0.364
 1138SOL     OW 4312   0.328   0.869   5.918
 1138SOL    HW1 4313   0.274   0.951   5.940
 1138SOL    HW2 4314   0.360   0.876   5.823
 1139SOL     OW 4315   3.292   4.904   2.679
 1139SOL    HW1 4316   3.193   4.896   2.665
 1139SOL    HW2 4317   3.340   4.867   2.600
 1140SOL     OW 4318   2.685   0.960   2.609
 1140SOL    HW1 4319   2.693   0.864   2.583
 1140SOL    HW2 4320   2.621   1.007   2.547
 1141SOL     OW 4321   0.947   6.185   0.140
 1141SOL    HW1 4322   1.040   6.220   0.128
 1141SOL    HW2 4323   0.937   6.149   0.232
 1142SOL     OW 4324   3.422   0.060   3.809
 1142SOL    HW1 4325   3.469   7.013   3.858
 1142SOL    HW2 4326   3.323   0.046   3.816
 1143SOL     OW 4327   2.338   2.610   3.403
 1143SOL    HW1 4328   2.372   2.686   3.459
 1143SOL    HW2 4329   2.415   2.562   3.362
 1144SOL     OW 4330   6.234   4.439   3.921
 1144SOL    HW1 4331   6.192   4.510   3.864
 1144SOL    HW2 4332   6.188   4.437   4.010
 1145SOL     OW 4333   6.250   3.644   1.029
 1145SOL    HW1 4334   6.161   3.604   1.004
 1145SOL    HW2 4335   6.251   3.666   1.126
 1146SOL     OW 4336   6.868   0.431   2.196
 1146SOL    HW1 4337   6.873   0.495   2.119
 1146SOL    HW2 4338   6.826   0.477   2.274
 1147SOL     OW 4339   3.293   5.863   2.076
 1147SOL    HW1 4340   3.199   5.865   2.042
 1147SOL    HW2 4341   3.313   5.949   2.123
 1148SOL     OW 4342   4.541   6.017   0.450
 1148SOL    HW1 4343   4.518   6.108   0.484
 1148SOL    HW2 4344   4.623   6.022   0.394
 1149SOL     OW 4345   6.216   2.977   2.458
 1149SOL    HW1 4346   6.309   2.944   2.473
 1149SOL    HW2 4347   6.152   2.923   2.513
 1150SOL     OW 4348   0.572   3.839   0.055
 1150SOL    HW1 4349   0.620   3.883   0.131
 1150SOL    HW2 4350   0.475   3.831   0.076
 1151SOL     OW 4351   5.603   4.410   5.704
 1151SOL    HW1 4352   5.650   4.323   5.694
 1151SOL    HW2 4353   5.507   4.394   5.725
 1152SOL     OW 4354   4.678   5.566   6.812
 1152SOL    HW1 4355   4.609   5.494   6.810
 1152SOL    HW2 4356   4.655   5.637   6.745
 1153SOL     OW 4357   0.191   0.276   2.152
 1153SOL    HW1 4358   0.278   0.236   2.124
 1153SOL    HW2 4359   0.206   0.335   2.232
 1154SOL     OW 4360   6.961   4.392   1.167
 1154SOL    HW1 4361   0.026   4.430   1.150
 1154SOL    HW2 4362   6.942   4.394   1.265
 1155SOL     OW 4363   2.541   5.039   6.193
 1155SOL    HW1 4364   2.454   5.071   6.230
 1155SOL    HW2 4365   2.575   4.963   6.248
 1156SOL     OW 4366   4.627   1.926   4.897
 1156SOL    HW1 4367   4.597   1.845   4.847
 1156SOL    HW2 4368   4.554   1.957   4.958
 1157SOL     OW 4369   5.291   1.023   6.277
 1157SOL    HW1 4370   5.297   1.122   6.271
 1157SOL    HW2 4371   5.206   0.992   6.234
 1158SOL     OW 4372   6.908   5.217   4.727
 1158SOL    HW1 4373   6.825   5.244   4.776
 1158SOL    HW2 4374   6.948   5.137   4.771
 1159SOL     OW 4375   6.723   0.196   3.704
 1159SOL    HW1 4376   6.764   0.109   3.730
 1159SOL    HW2 4377   6.624   0.186   3.696
 1160SOL     OW 4378   5.191   4.546   1.177
 1160SOL    HW1 4379   5.288   4.569   1.169
 1160SOL    HW2 4380   5.136   4.630   1.173
 1161SOL     OW 4381   6.837   5.426   5.711
 1161SOL    HW1 4382   6.849   5.356   5.782
 1161SOL    HW2 4383   6.911   5.419   5.644
 1162SOL     OW 4384   2.487   2.131   6.649
 1162SOL    HW1 4385   2.425   2.053   6.650
 1162SOL    HW2 4386   2.572   2.108   6.698
 1163SOL     OW 4387   6.659   3.857   1.488
 1163SOL    HW1 4388   6.613   3.777   1.526
 1163SOL    HW2 4389   6.741   3.877   1.542
 1164SOL     OW 4390   5.214   2.807   3.760
 1164SOL    HW1 4391   5.263   2.881   3.714
 1164SOL    HW2 4392   5.271   2.767   3.831
 1165SOL     OW 4393   3.848   5.561   3.534
 1165SOL    HW1 4394   3.851   5.660   3.517
 1165SOL    HW2 4395   3.769   5.522   3.487
 1166SOL     OW 4396   3.392   6.627   0.458
 1166SOL    HW1 4397   3.458   6.642   0.532
 1166SOL    HW2 4398   3.311   6.683   0.474
 1167SOL     OW 4399   3.844   6.653   0.672
 1167SOL    HW1 4400   3.850   6.565   0.720
 1167SOL    HW2 4401   3.794   6.640   0.586
 1168SOL     OW 4402   5.260   2.681   1.776
 1168SOL    HW1 4403   5.359   2.691   1.784
 1168SOL    HW2 4404   5.226   2.737   1.701
 1169SOL     OW 4405   4.583   2.543   5.705
 1169SOL    HW1 4406   4.589   2.549   5.805
 1169SOL    HW2 4407   4.535   2.459   5.680
 1170SOL     OW 4408   5.196   6.882   2.790
 1170SOL    HW1 4409   5.159   6.790   2.776
 1170SOL    HW2 4410   5.287   6.887   2.750
 1171SOL     OW 4411   3.053   6.693   6.893
 1171SOL    HW1 4412   3.011   6.608   6.925
 1171SOL    HW2 4413   3.038   6.703   6.795
 1172SOL     OW 4414   3.382   3.696   1.389
 1172SOL    HW1 4415   3.416   3.686   1.483
 1172SOL    HW2 4416   3.459   3.711   1.327
 1173SOL     OW 4417   3.498   1.190   1.188
 1173SOL    HW1 4418   3.538   1.258   1.127
 1173SOL    HW2 4419   3.430   1.136   1.138
 1174SOL     OW 4420   2.385   4.671   1.802
 1174SOL    HW1 4421   2.355   4.591   1.854
 1174SOL    HW2 4422   2.478   4.696   1.829
 1175SOL     OW 4423   4.048   4.902   6.502
 1175SOL    HW1 4424   4.089   4.988   6.530
 1175SOL    HW2 4425   3.969   4.920   6.443
 1176SOL     OW 4426   5.791   3.598   6.770
 1176SOL    HW1 4427   5.813   3.609   6.867
 1176SOL    HW2 4428   5.813   3.683   6.721
 1177SOL     OW 4429   0.252   3.831   4.930
 1177SOL    HW1 4430   0.188   3.881   4.988
 1177SOL    HW2 4431   0.298   3.894   4.867
 1178SOL     OW 4432   3.627   4.383   1.008
 1178SOL    HW1 4433   3.545   4.328   0.993
 1178SOL    HW2 4434   3.619   4.468   0.956
 1179SOL     OW 4435   2.596   5.907   1.051
 1179SOL    HW1 4436   2.606   5.926   1.148
 1179SOL    HW2 4437   2.548   5.820   1.039
 1180SOL     OW 4438   2.757   5.507   4.193
 1180SOL    HW1 4439   2.689   5.568   4.153
 1180SOL    HW2 4440   2.762   5.521   4.292
 1181SOL     OW 4441   0.272   5.214   4.806
 1181SOL    HW1 4442   0.334   5.277   4.759
 1181SOL    HW2 4443   0.299   5.120   4.788
 1182SOL     OW 4444   4.125   5.548   3.566
 1182SOL    HW1 4445   4.025   5.543   3.574
 1182SOL    HW2 4446   4.149   5.596   3.481
 1183SOL     OW 4447   3.172   4.312   1.142
 1183SOL    HW1 4448   3.209   4.313   1.235
 1183SOL    HW2 4449   3.073   4.325   1.145
 1184SOL     OW 4450   0.168   1.242   5.314
 1184SOL    HW1 4451   0.188   1.275   5.221
 1184SOL    HW2 4452   0.075   1.204   5.316
 1185SOL     OW 4453   1.549   0.941   0.879
 1185SOL    HW1 4454   1.484   0.879   0.836
 1185SOL    HW2 4455   1.616   0.888   0.931
 1186SOL     OW 4456   4.659   6.326   5.593
 1186SOL    HW1 4457   4.664   6.329   5.494
 1186SOL    HW2 4458   4.564   6.312   5.622
 1187SOL     OW 4459   5.198   0.574   5.471
 1187SOL    HW1 4460   5.173   0.670   5.462
 1187SOL    HW2 4461   5.245   0.560   5.559
 1188SOL     OW 4462   3.445   6.005   6.189
 1188SOL    HW1 4463   3.360   5.993   6.138
 1188SOL    HW2 4464   3.513   5.940   6.155
 1189SOL     OW 4465   6.055   1.511   1.450
 1189SOL    HW1 4466   6.088   1.498   1.356
 1189SOL    HW2 4467   5.994   1.436   1.475
 1190SOL     OW 4468   3.419   6.103   3.196
 1190SOL    HW1 4469   3.357   6.024   3.201
 1190SOL    HW2 4470   3.512   6.070   3.181
 1191SOL     OW 4471   4.682   5.285   4.871
 1191SOL    HW1 4472   4.722   5.228   4.800
 1191SOL    HW2 4473   4.655   5.229   4.949
 1192SOL     OW 4474   5.187   4.685   3.087
 1192SOL    HW1 4475   5.181   4.729   2.998
 1192SOL    HW2 4476   5.277   4.641   3.097
 1193SOL     OW 4477   0.205   2.413   5.433
 1193SOL    HW1 4478   0.132   2.406   5.501
 1193SOL    HW2 4479   0.291   2.432   5.480
 1194SOL     OW 4480   5.908   0.108   1.151
 1194SOL    HW1 4481   5.908   0.109   1.251
 1194SOL    HW2 4482   5.955   0.026   1.119
 1195SOL     OW 4483   0.210   4.152   0.872
 1195SOL    HW1 4484   0.172   4.103   0.794
 1195SOL    HW2 4485   0.306   4.128   0.883
 1196SOL     OW 4486   6.546   4.875   3.714
 1196SOL    HW1 4487   6.516   4.823   3.794
 1196SOL    HW2 4488   6.586   4.813   3.647
 1197SOL     OW 4489   4.746   6.701   4.878
 1197SOL    HW1 4490   4.673   6.720   4.943
 1197SOL    HW2 4491   4.829   6.748   4.906
 1198SOL     OW 4492   1.740   3.557   2.769
 1198SOL    HW1 4493   1.689   3.497   2.708
 1198SOL    HW2 4494   1.817   3.507   2.809
 1199SOL     OW 4495   3.855   3.581   1.873
 1199SOL    HW1 4496   3.858   3.484   1.897
 1199SOL    HW2 4497   3.798   3.630   1.940
 1200SOL     OW 4498   3.172   4.100   4.863
 1200SOL    HW1 4499   3.135   4.193   4.861
 1200SOL    HW2 4500   3.160   4.062   4.955
 1201SOL     OW 4501   1.326   1.538   3.908
 1201SOL    HW1 4502   1.408   1.491   3.940
 1201SOL    HW2 4503   1.331   1.552   3.809
 1202SOL     OW 4504   0.641   5.678   5.242
 1202SOL    HW1 4505   0.694   5.605   5.198
 1202SOL    HW2 4506   0.677   5.767   5.214
 1203SOL     OW 4507   0.424   5.837   0.309
 1203SOL    HW1 4508   0.505   5.832   0.251
 1203SOL    HW2 4509   0.364   5.910   0.277
 1204SOL     OW 4510   4.711   1.404   1.665
 1204SOL    HW1 4511   4.808   1.414   1.685
 1204SOL    HW2 4512   4.695   1.413   1.567
 1205SOL     OW 4513   3.906   3.474   1.086
 1205SOL    HW1 4514   3.808   3.475   1.067
 1205SOL    HW2 4515   3.957   3.463   1.001
 1206SOL     OW 4516   2.498   2.549   5.111
 1206SOL    HW1 4517   2.481   2.480   5.182
 1206SOL    HW2 4518   2.432   2.624   5.121
 1207SOL     OW 4519   1.797   6.581   1.053
 1207SOL    HW1 4520   1.745   6.501   1.023
 1207SOL    HW2 4521   1.895   6.561   1.051
 1208SOL     OW 4522   3.849   3.325   1.308
 1208SOL    HW1 4523   3.764   3.360   1.348
 1208SOL    HW2 4524   3.879   3.387   1.235
 1209SOL     OW 4525   4.904   0.577   3.835
 1209SOL    HW1 4526   4.985   0.558   3.890
 1209SOL    HW2 4527   4.822   0.554   3.888
 1210SOL     OW 4528   4.255   6.786   3.502
 1210SOL    HW1 4529   4.288   6.812   3.411
 1210SOL    HW2 4530   4.235   6.688   3.503
 1211SOL     OW 4531   1.085   3.387   2.608
 1211SOL    HW1 4532   1.055   3.295   2.635
 1211SOL    HW2 4533   1.018   3.427   2.545
 1212SOL     OW 4534   6.198   0.565   6.608
 1212SOL    HW1 4535   6.298   0.561   6.599
 1212SOL    HW2 4536   6.167   0.488   6.663
 1213SOL     OW 4537   5.882   2.705   1.179
 1213SOL    HW1 4538   5.922   2.788   1.140
 1213SOL    HW2 4539   5.808   2.731   1.242
 1214SOL     OW 4540   0.720   3.927   6.854
 1214SOL    HW1 4541   0.677   3.888   6.935
 1214SOL    HW2 4542   0.683   3.884   6.772
 1215SOL     OW 4543   0.850   4.502   3.525
 1215SOL    HW1 4544   0.759   4.536   3.500
 1215SOL    HW2 4545   0.911   4.579   3.540
 1216SOL     OW 4546   5.006   0.089   0.954
 1216SOL    HW1 4547   4.947   0.152   1.004
 1216SOL    HW2 4548   4.957   0.054   0.874
 1217SOL     OW 4549   2.368   4.362   1.012
 1217SOL    HW1 4550   2.277   4.328   1.036
 1217SOL    HW2 4551   2.369   4.462   1.021
 1218SOL     OW 4552   1.086   3.192   4.773
 1218SOL    HW1 4553   1.002   3.213   4.722
 1218SOL    HW2 4554   1.065   3.129   4.847
 1219SOL     OW 4555   5.207   6.005   1.871
 1219SOL    HW1 4556   5.239   6.066   1.799
 1219SOL    HW2 4557   5.283   5.949   1.904
 1220SOL     OW 4558   1.441   5.241   3.183
 1220SOL    HW1 4559   1.350   5.265   3.148
 1220SOL    HW2 4560   1.431   5.180   3.262
 1221SOL     OW 4561   4.293   4.428   6.044
 1221SOL    HW1 4562   4.320   4.365   6.117
 1221SOL    HW2 4563   4.204   4.468   6.067
 1222SOL     OW 4564   6.792   1.006   0.267
 1222SOL    HW1 4565   6.726   0.943   0.308
 1222SOL    HW2 4566   6.781   1.096   0.310
 1223SOL     OW 4567   4.179   2.208   0.096
 1223SOL    HW1 4568   4.141   2.120   0.123
 1223SOL    HW2 4569   4.170   2.273   0.172
 1224SOL     OW 4570   3.462   5.327   0.674
 1224SOL    HW1 4571   3.558   5.302   0.672
 1224SOL    HW2 4572   3.432   5.337   0.769
 1225SOL     OW 4573   3.090   3.470   6.620
 1225SOL    HW1 4574   3.189   3.452   6.625
 1225SOL    HW2 4575   3.075   3.557   6.574
 1226SOL     OW 4576   2.203   6.054   1.921
 1226SOL    HW1 4577   2.152   6.068   2.006
 1226SOL    HW2 4578   2.188   5.960   1.888
 1227SOL     OW 4579   6.382   4.538   5.775
 1227SOL    HW1 4580   6.466   4.527   5.829
 1227SOL    HW2 4581   6.393   4.613   5.711
 1228SOL     OW 4582   3.217   2.245   6.172
 1228SOL    HW1 4583   3.181   2.309   6.104
 1228SOL    HW2 4584   3.147   2.177   6.194
 1229SOL     OW 4585   3.956   5.139   6.158
 1229SOL    HW1 4586   4.000   5.053   6.185
 1229SOL    HW2 4587   4.005   5.177   6.079
 1230SOL     OW 4588   4.535   6.950   2.810
 1230SOL    HW1 4589   4.609   6.979   2.870
 1230SOL    HW2 4590   4.551   6.985   2.718
 1231SOL     OW 4591   1.717   2.521   4.521
 1231SOL    HW1 4592   1.766   2.496   4.437
 1231SOL    HW2 4593   1.744   2.460   4.595
 1232SOL     OW 4594   0.561   1.853   5.650
 1232SOL    HW1 4595   0.487   1.813   5.596
 1232SOL    HW2 4596   0.648   1.836   5.604
 1233SOL     OW 4597   0.829   5.039   4.991
 1233SOL    HW1 4598   0.845   4.941   4.978
 1233SOL    HW2 4599   0.867   5.068   5.079
 1234SOL     OW 4600   6.243   2.737   6.097
 1234SOL    HW1 4601   6.305   2.723   6.020
 1234SOL    HW2 4602   6.294   2.733   6.183
 1235SOL     OW 4603   6.772   5.737   3.044
 1235SOL    HW1 4604   6.728   5.684   2.972
 1235SOL    HW2 4605   6.704   5.763   3.113
 1236SOL     OW 4606   4.871   1.617   0.079
 1236SOL    HW1 4607   4.950   1.645   0.023
 1236SOL    HW2 4608   4.802   1.688   0.077
 1237SOL     OW 4609   2.301   4.670   6.839
 1237SOL    HW1 4610   2.231   4.726   6.883
 1237SOL    HW2 4611   2.373   4.729   6.802
 1238SOL     OW 4612   1.725   1.196   0.577
 1238SOL    HW1 4613   1.680   1.271   0.626
 1238SOL    HW2 4614   1.811   1.229   0.538
 1239SOL     OW 4615   6.991   6.838   6.303
 1239SOL    HW1 4616   6.974   6.827   6.401
 1239SOL    HW2 4617   6.909   6.811   6.252
 1240SOL     OW 4618   5.161   6.249   1.377
 1240SOL    HW1 4619   5.238   6.236   1.315
 1240SOL    HW2 4620   5.165   6.179   1.449
 1241SOL     OW 4621   5.314   3.552   4.337
 1241SOL    HW1 4622   5.270   3.603   4.411
 1241SOL    HW2 4623   5.386   3.494   4.375
 1242SOL     OW 4624   0.585   3.190   1.520
 1242SOL    HW1 4625   0.504   3.160   1.570
 1242SOL    HW2 4626   0.593   3.137   1.435
 1243SOL     OW 4627   7.002   6.400   4.694
 1243SOL    HW1 4628   0.008   6.339   4.767
 1243SOL    HW2 4629   6.956   6.479   4.735
 1244SOL     OW 4630   5.996   0.050   4.612
 1244SOL    HW1 4631   5.967   0.094   4.527
 1244SOL    HW2 4632   6.090   0.018   4.603
 1245SOL     OW 4633   5.178   5.187   0.580
 1245SOL    HW1 4634   5.178   5.122   0.504
 1245SOL    HW2 4635   5.238   5.264   0.558
 1246SOL     OW 4636   2.554   6.794   1.134
 1246SOL    HW1 4637   2.469   6.845   1.142
 1246SOL    HW2 4638   2.577   6.780   1.037
 1247SOL     OW 4639   1.727   7.003   6.537
 1247SOL    HW1 4640   1.697   0.065   6.499
 1247SOL    HW2 4641   1.651   6.938   6.534
 1248SOL     OW 4642   2.369   6.839   5.326
 1248SOL    HW1 4643   2.404   6.869   5.415
 1248SOL    HW2 4644   2.426   6.878   5.253
 1249SOL     OW 4645   6.368   1.744   2.524
 1249SOL    HW1 4646   6.349   1.794   2.609
 1249SOL    HW2 4647   6.462   1.762   2.495
 1250SOL     OW 4648   5.689   5.527   4.152
 1250SOL    HW1 4649   5.604   5.571   4.124
 1250SOL    HW2 4650   5.709   5.451   4.090
 1251SOL     OW 4651   2.963   0.651   3.979
 1251SOL    HW1 4652   2.971   0.552   3.995
 1251SOL    HW2 4653   2.926   0.695   4.060
 1252SOL     OW 4654   4.425   3.550   6.006
 1252SOL    HW1 4655   4.378   3.561   5.919
 1252SOL    HW2 4656   4.523   3.549   5.991
 1253SOL     OW 4657   2.897   5.768   2.808
 1253SOL    HW1 4658   2.814   5.754   2.861
 1253SOL    HW2 4659   2.955   5.836   2.854
 1254SOL     OW 4660   0.941   2.700   2.147
 1254SOL    HW1 4661   0.879   2.665   2.077
 1254SOL    HW2 4662   0.930   2.646   2.230
 1255SOL     OW 4663   6.459   2.227   5.254
 1255SOL    HW1 4664   6.381   2.260   5.200
 1255SOL    HW2 4665   6.433   2.224   5.351
 1256SOL     OW 4666   6.849   6.521   3.485
 1256SOL    HW1 4667   6.762   6.530   3.436
 1256SOL    HW2 4668   6.831   6.482   3.576
 1257SOL     OW 4669   0.108   6.305   5.273
 1257SOL    HW1 4670   0.145   6.270   5.187
 1257SOL    HW2 4671   0.011   6.324   5.262
 1258SOL     OW 4672   1.809   5.256   3.206
 1258SOL    HW1 4673   1.835   5.172   3.253
 1258SOL    HW2 4674   1.749   5.234   3.129
 1259SOL     OW 4675   4.368   0.828   4.194
 1259SOL    HW1 4676   4.297   0.825   4.265
 1259SOL    HW2 4677   4.325   0.849   4.106
 1260SOL     OW 4678   1.915   1.323   0.172
 1260SOL    HW1 4679   1.965   1.242   0.202
 1260SOL    HW2 4680   1.945   1.349   0.080
 1261SOL     OW 4681   0.421   5.611   6.481
 1261SOL    HW1 4682   0.422   5.709   6.462
 1261SOL    HW2 4683   0.501   5.587   6.536
 1262SOL     OW 4684   5.473   4.577   1.132
 1262SOL    HW1 4685   5.510   4.649   1.191
 1262SOL    HW2 4686   5.509   4.488   1.161
 1263SOL     OW 4687   0.512   2.122   1.990
 1263SOL    HW1 4688   0.568   2.090   2.066
 1263SOL    HW2 4689   0.510   2.052   1.918
 1264SOL     OW 4690   6.063   4.639   0.471
 1264SOL    HW1 4691   6.067   4.732   0.433
 1264SOL    HW2 4692   6.124   4.633   0.550
 1265SOL     OW 4693   5.603   5.542   4.715
 1265SOL    HW1 4694   5.564   5.451   4.704
 1265SOL    HW2 4695   5.592   5.571   4.810
 1266SOL     OW 4696   0.462   1.310   4.275
 1266SOL    HW1 4697   0.435   1.351   4.362
 1266SOL    HW2 4698   0.481   1.383   4.209
 1267SOL     OW 4699   5.325   1.099   1.128
 1267SOL    HW1 4700   5.406   1.041   1.139
 1267SOL    HW2 4701   5.319   1.130   1.033
 1268SOL     OW 4702   3.318   2.719   6.895
 1268SOL    HW1 4703   3.265   2.652   6.843
 1268SOL    HW2 4704   3.289   2.717   6.991
 1269SOL     OW 4705   5.908   3.772   4.284
 1269SOL    HW1 4706   5.922   3.745   4.188
 1269SOL    HW2 4707   5.948   3.704   4.344
 1270SOL     OW 4708   1.347   3.920   2.913
 1270SOL    HW1 4709   1.323   3.886   3.004
 1270SOL    HW2 4710   1.376   3.843   2.856
 1271SOL     OW 4711   3.392   1.632   2.441
 1271SOL    HW1 4712   3.431   1.684   2.365
 1271SOL    HW2 4713   3.312   1.679   2.476
 1272SOL     OW 4714   5.515   4.299   6.958
 1272SOL    HW1 4715   5.511   4.332   6.863
 1272SOL    HW2 4716   5.448   4.226   6.970
 1273SOL     OW 4717   0.562   3.334   6.873
 1273SOL    HW1 4718   0.573   3.431   6.891
 1273SOL    HW2 4719   0.621   3.282   6.936
 1274SOL     OW 4720   6.820   4.581   1.034
 1274SOL    HW1 4721   6.735   4.604   1.081
 1274SOL    HW2 4722   6.870   4.513   1.088
 1275SOL     OW 4723   4.160   1.578   4.037
 1275SOL    HW1 4724   4.229   1.513   4.069
 1275SOL    HW2 4725   4.093   1.530   3.981
 1276SOL     OW 4726   6.294   5.307   5.066
 1276SOL    HW1 4727   6.341   5.219   5.067
 1276SOL    HW2 4728   6.233   5.311   4.987
 1277SOL     OW 4729   1.645   5.653   6.119
 1277SOL    HW1 4730   1.689   5.621   6.203
 1277SOL    HW2 4731   1.713   5.695   6.059
 1278SOL     OW 4732   1.232   0.039   5.124
 1278SOL    HW1 4733   1.203   0.108   5.058
 1278SOL    HW2 4734   1.308   7.012   5.086
 1279SOL     OW 4735   1.845   4.793   6.965
 1279SOL    HW1 4736   1.931   4.834   6.997
 1279SOL    HW2 4737   1.851   4.775   6.867
 1280SOL     OW 4738   4.367   0.113   4.221
 1280SOL    HW1 4739   4.429   0.035   4.214
 1280SOL    HW2 4740   4.392   0.182   4.153
 1281SOL     OW 4741   2.767   6.349   3.183
 1281SOL    HW1 4742   2.849   6.355   3.239
 1281SOL    HW2 4743   2.770   6.266   3.128
 1282SOL     OW 4744   6.555   2.580   6.627
 1282SOL    HW1 4745   6.570   2.539   6.717
 1282SOL    HW2 4746   6.466   2.551   6.592
 1283SOL     OW 4747   6.824   3.761   4.972
 1283SOL    HW1 4748   6.762   3.823   4.924
 1283SOL    HW2 4749   6.808   3.668   4.941
 1284SOL     OW 4750   4.532   2.086   1.951
 1284SOL    HW1 4751   4.527   2.185   1.941
 1284SOL    HW2 4752   4.625   2.059   1.977
 1285SOL     OW 4753   4.406   1.963   6.209
 1285SOL    HW1 4754   4.442   1.929   6.296
 1285SOL    HW2 4755   4.408   2.063   6.209
 1286SOL     OW 4756   4.019   3.733   1.138
 1286SOL    HW1 4757   4.077   3.746   1.218
 1286SOL    HW2 4758   3.976   3.643   1.142
 1287SOL     OW 4759   5.368   4.531   5.219
 1287SOL    HW1 4760   5.347   4.526   5.121
 1287SOL    HW2 4761   5.467   4.532   5.231
 1288SOL     OW 4762   3.753   3.500   6.597
 1288SOL    HW1 4763   3.669   3.542   6.634
 1288SOL    HW2 4764   3.737   3.472   6.503
 1289SOL     OW 4765   0.181   6.912   0.971
 1289SOL    HW1 4766   0.251   6.954   1.030
 1289SOL    HW2 4767   0.215   6.908   0.877
 1290SOL     OW 4768   1.057   6.450   0.422
 1290SOL    HW1 4769   0.990   6.499   0.367
 1290SOL    HW2 4770   1.149   6.483   0.400
 1291SOL     OW 4771   0.772   4.322   3.768
 1291SOL    HW1 4772   0.764   4.309   3.669
 1291SOL    HW2 4773   0.721   4.250   3.815
 1292SOL     OW 4774   0.503   5.625   2.503
 1292SOL    HW1 4775   0.583   5.683   2.516
 1292SOL    HW2 4776   0.532   5.533   2.477
 1293SOL     OW 4777   2.022   2.342   6.705
 1293SOL    HW1 4778   2.008   2.272   6.775
 1293SOL    HW2 4779   2.117   2.344   6.677
 1294SOL     OW 4780   0.257   4.047   6.018
 1294SOL    HW1 4781   0.242   3.955   5.982
 1294SOL    HW2 4782   0.170   4.088   6.042
 1295SOL     OW 4783   6.877   3.526   1.259
 1295SOL    HW1 4784   6.862   3.624   1.245
 1295SOL    HW2 4785   6.795   3.476   1.230
 1296SOL     OW 4786   3.826   6.252   5.370
 1296SOL    HW1 4787   3.917   6.278   5.338
 1296SOL    HW2 4788   3.798   6.314   5.443
 1297SOL     OW 4789   0.606   0.113   1.271
 1297SOL    HW1 4790   0.677   0.177   1.300
 1297SOL    HW2 4791   0.648   0.027   1.244
 1298SOL     OW 4792   5.206   5.576   3.699
 1298SOL    HW1 4793   5.191   5.550   3.795
 1298SOL    HW2 4794   5.291   5.534   3.666
 1299SOL     OW 4795   2.146   2.524   3.576
 1299SOL    HW1 4796   2.069   2.495   3.519
 1299SOL    HW2 4797   2.226   2.539   3.518
 1300SOL     OW 4798   1.918   3.179   0.481
 1300SOL    HW1 4799   1.835   3.203   0.531
 1300SOL    HW2 4800   1.895   3.148   0.389
 1301SOL     OW 4801   0.447   6.497   1.775
 1301SOL    HW1 4802   0.372   6.494   1.840
 1301SOL    HW2 4803   0.505   6.577   1.795
 1302SOL     OW 4804   4.836   6.542   5.277
 1302SOL    HW1 4805   4.931   6.560   5.305
 1302SOL    HW2 4806   4.814   6.446   5.293
 1303SOL     OW 4807   4.026   1.491   1.641
 1303SOL    HW1 4808   3.988   1.469   1.731
 1303SOL    HW2 4809   3.957   1.541   1.588
 1304SOL     OW 4810   1.846   0.527   0.408
 1304SOL    HW1 4811   1.895   0.492   0.487
 1304SOL    HW2 4812   1.904   0.593   0.360
 1305SOL     OW 4813   5.499   3.645   0.503
 1305SOL    HW1 4814   5.426   3.585   0.469
 1305SOL    HW2 4815   5.565   3.590   0.555
 1306SOL     OW 4816   1.365   6.037   3.994
 1306SOL    HW1 4817   1.292   6.104   4.005
 1306SOL    HW2 4818   1.448   6.070   4.039
 1307SOL     OW 4819   2.219   4.143   3.834
 1307SOL    HW1 4820   2.186   4.060   3.790
 1307SOL    HW2 4821   2.213   4.133   3.933
 1308SOL     OW 4822   6.343   0.572   5.733
 1308SOL    HW1 4823   6.298   0.538   5.816
 1308SOL    HW2 4824   6.283   0.638   5.687
 1309SOL     OW 4825   5.944   5.289   5.333
 1309SOL    HW1 4826   5.932   5.339   5.418
 1309SOL    HW2 4827   6.016   5.221   5.345
 1310SOL     OW 4828   6.858   3.686   3.646
 1310SOL    HW1 4829   6.806   3.601   3.657
 1310SOL    HW2 4830   6.811   3.746   3.581
 1311SOL     OW 4831   6.541   5.723   5.857
 1311SOL    HW1 4832   6.620   5.682   5.902
 1311SOL    HW2 4833   6.530   5.683   5.766
 1312SOL     OW 4834   1.782   6.656   0.077
 1312SOL    HW1 4835   1.869   6.636   0.123
 1312SOL    HW2 4836   1.710   6.670   0.145
 1313SOL     OW 4837   0.090   4.623   2.717
 1313SOL    HW1 4838   0.156   4.558   2.757
 1313SOL    HW2 4839   0.113   4.716   2.745
 1314SOL     OW 4840   4.036   1.859   4.656
 1314SOL    HW1 4841   4.078   1.780   4.701
 1314SOL    HW2 4842   3.947   1.834   4.619
 1315SOL     OW 4843   0.158   1.788   2.559
 1315SOL    HW1 4844   0.211   1.766   2.477
 1315SOL    HW2 4845   0.218   1.826   2.629
 1316SOL     OW 4846   3.258   6.715   5.722
 1316SOL    HW1 4847   3.286   6.801   5.764
 1316SOL    HW2 4848   3.266   6.721   5.623
 1317SOL     OW 4849   2.247   4.245   6.221
 1317SOL    HW1 4850   2.257   4.246   6.321
 1317SOL    HW2 4851   2.178   4.177   6.195
 1318SOL     OW 4852   0.615   2.578   1.057
 1318SOL    HW1 4853   0.673   2.657   1.076
 1318SOL    HW2 4854   0.671   2.494   1.058
 1319SOL     OW 4855   6.853   6.184   1.376
 1319SOL    HW1 4856   6.944   6.180   1.335
 1319SOL    HW2 4857   6.798   6.108   1.342
 1320SOL     OW 4858   3.835   4.465   6.423
 1320SOL    HW1 4859   3.774   4.514   6.360
 1320SOL    HW2 4860   3.808   4.368   6.427
 1321SOL     OW 4861   5.211   2.962   6.412
 1321SOL    HW1 4862   5.268   3.024   6.466
 1321SOL    HW2 4863   5.260   2.937   6.328
 1322SOL     OW 4864   4.158   1.839   4.083
 1322SOL    HW1 4865   4.161   1.741   4.065
 1322SOL    HW2 4866   4.063   1.867   4.101
 1323SOL     OW 4867   3.831   6.704   6.142
 1323SOL    HW1 4868   3.914   6.757   6.124
 1323SOL    HW2 4869   3.760   6.728   6.075
 1324SOL     OW 4870   0.477   3.501   0.144
 1324SOL    HW1 4871   0.527   3.542   0.219
 1324SOL    HW2 4872   0.512   3.535   0.057
 1325SOL     OW 4873   2.809   6.350   4.411
 1325SOL    HW1 4874   2.712   6.372   4.406
 1325SOL    HW2 4875   2.825   6.287   4.487
 1326SOL     OW 4876   5.260   3.220   5.011
 1326SOL    HW1 4877   5.174   3.265   5.034
 1326SOL    HW2 4878   5.335   3.262   5.061
 1327SOL     OW 4879   1.160   6.177   1.249
 1327SOL    HW1 4880   1.200   6.093   1.211
 1327SOL    HW2 4881   1.141   6.164   1.346
 1328SOL     OW 4882   2.844   2.966   0.865
 1328SOL    HW1 4883   2.822   3.045   0.922
 1328SOL    HW2 4884   2.849   2.884   0.921
 1329SOL     OW 4885   0.886   2.043   2.074
 1329SOL    HW1 4886   0.789   2.043   2.099
 1329SOL    HW2 4887   0.899   1.985   1.994
 1330SOL     OW 4888   1.292   1.410   1.408
 1330SOL    HW1 4889   1.235   1.472   1.353
 1330SOL    HW2 4890   1.383   1.405   1.368
 1331SOL     OW 4891   5.084   2.926   3.081
 1331SOL    HW1 4892   5.097   2.958   2.987
 1331SOL    HW2 4893   4.994   2.955   3.114
 1332SOL     OW 4894   2.757   0.110   6.882
 1332SOL    HW1 4895   2.742   0.022   6.837
 1332SOL    HW2 4896   2.730   0.103   6.978
 1333SOL     OW 4897   2.990   3.501   3.778
 1333SOL    HW1 4898   3.090   3.509   3.781
 1333SOL    HW2 4899   2.953   3.520   3.869
 1334SOL     OW 4900   6.313   1.576   3.741
 1334SOL    HW1 4901   6.314   1.511   3.817
 1334SOL    HW2 4902   6.407   1.603   3.719
 1335SOL     OW 4903   2.750   1.855   1.985
 1335SOL    HW1 4904   2.685   1.813   1.922
 1335SOL    HW2 4905   2.758   1.953   1.966
 1336SOL     OW 4906   2.588   2.101   5.143
 1336SOL    HW1 4907   2.663   2.166   5.129
 1336SOL    HW2 4908   2.517   2.143   5.199
 1337SOL     OW 4909   1.234   1.395   3.051
 1337SOL    HW1 4910   1.296   1.366   3.124
 1337SOL    HW2 4911   1.141   1.401   3.086
 1338SOL     OW 4912   6.907   2.724   4.589
 1338SOL    HW1 4913   6.933   2.681   4.502
 1338SOL    HW2 4914   6.809   2.713   4.603
 1339SOL     OW 4915   6.222   2.024   0.095
 1339SOL    HW1 4916   6.209   2.113   0.138
 1339SOL    HW2 4917   6.149   1.962   0.123
 1340SOL     OW 4918   5.750   2.095   2.463
 1340SOL    HW1 4919   5.677   2.162   2.473
 1340SOL    HW2 4920   5.838   2.140   2.477
 1341SOL     OW 4921   3.969   6.545   6.639
 1341SOL    HW1 4922   3.950   6.603   6.560
 1341SOL    HW2 4923   4.053   6.575   6.683
 1342SOL     OW 4924   3.204   5.984   6.074
 1342SOL    HW1 4925   3.161   6.059   6.025
 1342SOL    HW2 4926   3.134   5.923   6.111
 1343SOL     OW 4927   5.243   5.228   2.518
 1343SOL    HW1 4928   5.148   5.220   2.487
 1343SOL    HW2 4929   5.263   5.325   2.536
 1344SOL     OW 4930   0.334   5.969   4.595
 1344SOL    HW1 4931   0.387   6.045   4.556
 1344SOL    HW2 4932   0.237   5.993   4.595
 1345SOL     OW 4933   0.693   6.058   2.723
 1345SOL    HW1 4934   0.631   6.024   2.652
 1345SOL    HW2 4935   0.678   6.008   2.808
 1346SOL     OW 4936   1.436   5.841   4.440
 1346SOL    HW1 4937   1.366   5.894   4.393
 1346SOL    HW2 4938   1.503   5.809   4.373
 1347SOL     OW 4939   0.068   6.831   5.837
 1347SOL    HW1 4940   0.161   6.867   5.840
 1347SOL    HW2 4941   0.065   6.751   5.776
 1348SOL     OW 4942   5.902   6.604   4.086
 1348SOL    HW1 4943   5.930   6.566   4.174
 1348SOL    HW2 4944   5.980   6.603   4.023
 1349SOL     OW 4945   5.345   3.163   5.446
 1349SOL    HW1 4946   5.305   3.072   5.447
 1349SOL    HW2 4947   5.426   3.165   5.505
 1350SOL     OW 4948   5.125   5.438   5.524
 1350SOL    HW1 4949   5.175   5.499   5.462
 1350SOL    HW2 4950   5.188   5.371   5.563
 1351SOL     OW 4951   6.059   1.514   2.562
 1351SOL    HW1 4952   6.135   1.469   2.608
 1351SOL    HW2 4953   5.994   1.445   2.530
 1352SOL     OW 4954   6.483   5.818   4.328
 1352SOL    HW1 4955   6.469   5.838   4.425
 1352SOL    HW2 4956   6.478   5.719   4.314
 1353SOL     OW 4957   0.590   2.763   0.369
 1353SOL    HW1 4958   0.634   2.821   0.438
 1353SOL    HW2 4959   0.661   2.714   0.317
 1354SOL     OW 4960   0.429   4.039   1.535
 1354SOL    HW1 4961   0.367   4.042   1.613
 1354SOL    HW2 4962   0.380   4.066   1.452
 1355SOL     OW 4963   5.751   2.996   4.197
 1355SOL    HW1 4964   5.691   2.943   4.258
 1355SOL    HW2 4965   5.775   3.082   4.240
 1356SOL     OW 4966   3.280   3.388   2.390
 1356SOL    HW1 4967   3.194   3.376   2.439
 1356SOL    HW2 4968   3.330   3.301   2.387
 1357SOL     OW 4969   0.258   4.435   6.749
 1357SOL    HW1 4970   0.330   4.374   6.714
 1357SOL    HW2 4971   0.176   4.381   6.770
 1358SOL     OW 4972   5.047   6.801   6.458
 1358SOL    HW1 4973   5.036   6.781   6.361
 1358SOL    HW2 4974   5.119   6.743   6.496
 1359SOL     OW 4975   5.813   5.027   2.867
 1359SOL    HW1 4976   5.838   5.117   2.902
 1359SOL    HW2 4977   5.794   5.034   2.769
 1360SOL     OW 4978   2.678   3.812   0.194
 1360SOL    HW1 4979   2.631   3.846   0.275
 1360SOL    HW2 4980   2.727   3.727   0.216
 1361SOL     OW 4981   6.299   4.533   5.113
 1361SOL    HW1 4982   6.203   4.520   5.087
 1361SOL    HW2 4983   6.358   4.509   5.035
 1362SOL     OW 4984   3.819   3.586   3.748
 1362SOL    HW1 4985   3.913   3.571   3.719
 1362SOL    HW2 4986   3.818   3.634   3.836
 1363SOL     OW 4987   6.349   5.306   3.359
 1363SOL    HW1 4988   6.395   5.228   3.316
 1363SOL    HW2 4989   6.329   5.285   3.454
 1364SOL     OW 4990   5.501   4.210   1.454
 1364SOL    HW1 4991   5.589   4.253   1.436
 1364SOL    HW2 4992   5.438   4.229   1.378
 1365SOL     OW 4993   0.254   4.139   6.482
 1365SOL    HW1 4994   0.292   4.105   6.396
 1365SOL    HW2 4995   0.173   4.193   6.464
 1366SOL     OW 4996   1.703   5.886   0.437
 1366SOL    HW1 4997   1.733   5.972   0.477
 1366SOL    HW2 4998   1.751   5.810   0.481
 1367SOL     OW 4999   2.702   0.148   3.286
 1367SOL    HW1 5000   2.702   0.209   3.365
 1367SOL    HW2 5001   2.614   0.101   3.280
 1368SOL     OW 5002   6.038   0.215   4.272
 1368SOL    HW1 5003   6.002   0.307   4.287
 1368SOL    HW2 5004   6.134   0.211   4.299
 1369SOL     OW 5005   2.081   6.075   2.151
 1369SOL    HW1 5006   2.091   6.145   2.222
 1369SOL    HW2 5007   2.005   6.015   2.174
 1370SOL     OW 5008   3.629   0.963   0.896
 1370SOL    HW1 5009   3.723   0.975   0.925
 1370SOL    HW2 5010   3.579   0.911   0.965
 1371SOL     OW 5011   5.541   1.714   4.006
 1371SOL    HW1 5012   5.532   1.809   4.035
 1371SOL    HW2 5013   5.621   1.673   4.050
 1372SOL     OW 5014   1.182   3.135   0.625
 1372SOL    HW1 5015   1.190   3.046   0.669
 1372SOL    HW2 5016   1.087   3.166   0.629
 1373SOL     OW 5017   5.924   3.486   0.221
 1373SOL    HW1 5018   5.919   3.572   0.272
 1373SOL    HW2 5019   5.852   3.424   0.253
 1374SOL     OW 5020   4.568   2.283   0.703
 1374SOL    HW1 5021   4.486   2.334   0.679
 1374SOL    HW2 5022   4.542   2.192   0.736
 1375SOL     OW 5023   6.543   4.122   6.540
 1375SOL    HW1 5024   6.464   4.070   6.571
 1375SOL    HW2 5025   6.544   4.211   6.586
 1376SOL     OW 5026   5.099   3.481   3.924
 1376SOL    HW1 5027   5.038   3.502   4.000
 1376SOL    HW2 5028   5.048   3.436   3.851
 1377SOL     OW 5029   6.798   3.886   5.223
 1377SOL    HW1 5030   6.836   3.842   5.141
 1377SOL    HW2 5031   6.850   3.858   5.303
 1378SOL     OW 5032   6.418   1.391   4.902
 1378SOL    HW1 5033   6.513   1.396   4.872
 1378SOL    HW2 5034   6.399   1.298   4.936
 1379SOL     OW 5035   3.728   7.005   2.052
 1379SOL    HW1 5036   3.739   0.077   2.038
 1379SOL    HW2 5037   3.637   6.977   2.023
 1380SOL     OW 5038   0.772   0.301   2.321
 1380SOL    HW1 5039   0.766   0.314   2.420
 1380SOL    HW2 5040   0.754   0.205   2.299
 1381SOL     OW 5041   5.468   2.876   6.641
 1381SOL    HW1 5042   5.492   2.855   6.736
 1381SOL    HW2 5043   5.407   2.956   6.639
 1382SOL     OW 5044   4.694   4.689   0.355
 1382SOL    HW1 5045   4.721   4.615   0.293
 1382SOL    HW2 5046   4.776   4.738   0.386
 1383SOL     OW 5047   0.601   0.640   0.559
 1383SOL    HW1 5048   0.629   0.736   0.549
 1383SOL    HW2 5049   0.557   0.610   0.474
 1384SOL     OW 5050   3.696   1.147   2.671
 1384SOL    HW1 5051   3.656   1.119   2.758
 1384SOL    HW2 5052   3.792   1.172   2.685
 1385SOL     OW 5053   0.972   3.120   2.577
 1385SOL    HW1 5054   1.030   3.115   2.495
 1385SOL    HW2 5055   0.889   3.170   2.556
 1386SOL     OW 5056   2.294   1.237   4.723
 1386SOL    HW1 5057   2.300   1.172   4.799
 1386SOL    HW2 5058   2.277   1.328   4.760
 1387SOL     OW 5059   3.949   6.880   3.336
 1387SOL    HW1 5060   3.879   6.943   3.300
 1387SOL    HW2 5061   3.905   6.812   3.394
 1388SOL     OW 5062   0.578   6.312   3.727
 1388SOL    HW1 5063   0.495   6.331   3.779
 1388SOL    HW2 5064   0.621   6.398   3.700
 1389SOL     OW 5065   0.280   1.235   3.764
 1389SOL    HW1 5066   0.219   1.184   3.704
 1389SOL    HW2 5067   0.258   1.215   3.860
 1390SOL     OW 5068   4.552   1.857   6.402
 1390SOL    HW1 5069   4.606   1.783   6.442
 1390SOL    HW2 5070   4.600   1.944   6.415
 1391SOL     OW 5071   6.164   0.918   5.607
 1391SOL    HW1 5072   6.222   0.960   5.677
 1391SOL    HW2 5073   6.157   0.979   5.528
 1392SOL     OW 5074   5.321   5.328   5.687
 1392SOL    HW1 5075   5.389   5.344   5.616
 1392SOL    HW2 5076   5.364   5.329   5.777
 1393SOL     OW 5077   6.091   3.250   6.575
 1393SOL    HW1 5078   6.058   3.164   6.536
 1393SOL    HW2 5079   6.025   3.285   6.641
 1394SOL     OW 5080   3.800   0.389   3.668
 1394SOL    HW1 5081   3.779   0.305   3.717
 1394SOL    HW2 5082   3.860   0.446   3.724
 1395SOL     OW 5083   0.980   3.739   2.936
 1395SOL    HW1 5084   1.075   3.709   2.944
 1395SOL    HW2 5085   0.938   3.739   3.027
 1396SOL     OW 5086   1.694   0.051   3.170
 1396SOL    HW1 5087   1.678   0.077   3.265
 1396SOL    HW2 5088   1.607   0.033   3.125
 1397SOL     OW 5089   0.501   6.487   4.890
 1397SOL    HW1 5090   0.500   6.494   4.989
 1397SOL    HW2 5091   0.577   6.541   4.854
 1398SOL     OW 5092   0.978   1.673   0.491
 1398SOL    HW1 5093   0.945   1.748   0.548
 1398SOL    HW2 5094   1.078   1.672   0.492
 1399SOL     OW 5095   4.279   0.442   0.329
 1399SOL    HW1 5096   4.314   0.526   0.290
 1399SOL    HW2 5097   4.351   0.372   0.327
 1400SOL     OW 5098   6.290   0.867   4.227
 1400SOL    HW1 5099   6.222   0.891   4.297
 1400SOL    HW2 5100   6.369   0.928   4.237
 1401SOL     OW 5101   5.928   6.725   4.601
 1401SOL    HW1 5102   5.891   6.684   4.684
 1401SOL    HW2 5103   5.860   6.784   4.559
 1402SOL     OW 5104   5.758   4.187   6.987
 1402SOL    HW1 5105   5.677   4.245   6.996
 1402SOL    HW2 5106   5.776   4.141   0.048
 1403SOL     OW 5107   2.207   3.068   0.028
 1403SOL    HW1 5108   2.219   2.969   0.018
 1403SOL    HW2 5109   2.259   3.115   6.983
 1404SOL     OW 5110   4.246   7.014   1.020
 1404SOL    HW1 5111   4.178   7.006   1.093
 1404SOL    HW2 5112   4.268   6.922   0.985
 1405SOL     OW 5113   2.027   3.458   0.867
 1405SOL    HW1 5114   2.037   3.371   0.914
 1405SOL    HW2 5115   1.957   3.450   0.796
 1406SOL     OW 5116   2.062   4.343   1.376
 1406SOL    HW1 5117   2.083   4.322   1.280
 1406SOL    HW2 5118   2.082   4.439   1.393
 1407SOL     OW 5119   1.250   3.522   3.030
 1407SOL    HW1 5120   1.340   3.547   3.067
 1407SOL    HW2 5121   1.262   3.470   2.945
 1408SOL     OW 5122   5.744   6.198   0.063
 1408SOL    HW1 5123   5.817   6.137   0.033
 1408SOL    HW2 5124   5.674   6.203   7.017
 1409SOL     OW 5125   0.072   0.441   5.815
 1409SOL    HW1 5126   0.096   0.537   5.803
 1409SOL    HW2 5127   0.127   0.401   5.888
 1410SOL     OW 5128   2.660   3.624   6.913
 1410SOL    HW1 5129   2.616   3.541   6.947
 1410SOL    HW2 5130   2.696   3.607   6.821
 1411SOL     OW 5131   3.449   6.319   6.492
 1411SOL    HW1 5132   3.447   6.219   6.484
 1411SOL    HW2 5133   3.363   6.358   6.460
 1412SOL     OW 5134   0.476   3.877   1.155
 1412SOL    HW1 5135   0.457   3.969   1.190
 1412SOL    HW2 5136   0.572   3.870   1.131
 1413SOL     OW 5137   1.564   1.925   4.406
 1413SOL    HW1 5138   1.492   1.912   4.474
 1413SOL    HW2 5139   1.537   1.884   4.319
 1414SOL     OW 5140   1.606   2.721   1.503
 1414SOL    HW1 5141   1.681   2.742   1.440
 1414SOL    HW2 5142   1.572   2.629   1.485
 1415SOL     OW 5143   2.787   2.353   4.792
 1415SOL    HW1 5144   2.786   2.347   4.892
 1415SOL    HW2 5145   2.709   2.408   4.761
 1416SOL     OW 5146   4.594   0.470   4.702
 1416SOL    HW1 5147   4.622   0.521   4.783
 1416SOL    HW2 5148   4.593   0.372   4.723
 1417SOL     OW 5149   3.858   3.150   5.967
 1417SOL    HW1 5150   3.893   3.068   6.011
 1417SOL    HW2 5151   3.758   3.150   5.971
 1418SOL     OW 5152   2.944   3.762   0.866
 1418SOL    HW1 5153   2.845   3.773   0.871
 1418SOL    HW2 5154   2.980   3.819   0.792
 1419SOL     OW 5155   1.751   5.477   4.047
 1419SOL    HW1 5156   1.653   5.495   4.057
 1419SOL    HW2 5157   1.793   5.465   4.137
 1420SOL     OW 5158   4.280   5.306   2.962
 1420SOL    HW1 5159   4.199   5.350   2.922
 1420SOL    HW2 5160   4.260   5.279   3.056
 1421SOL     OW 5161   0.949   4.276   4.229
 1421SOL    HW1 5162   1.019   4.318   4.287
 1421SOL    HW2 5163   0.875   4.241   4.287
 1422SOL     OW 5164   2.271   4.835   5.942
 1422SOL    HW1 5165   2.295   4.826   6.039
 1422SOL    HW2 5166   2.353   4.854   5.889
 1423SOL     OW 5167   4.225   2.011   4.789
 1423SOL    HW1 5168   4.145   1.980   4.737
 1423SOL    HW2 5169   4.304   2.019   4.728
 1424SOL     OW 5170   6.172   3.683   6.919
 1424SOL    HW1 5171   6.129   3.711   6.834
 1424SOL    HW2 5172   6.261   3.728   6.928
 1425SOL     OW 5173   2.806   6.238   4.790
 1425SOL    HW1 5174   2.856   6.188   4.719
 1425SOL    HW2 5175   2.804   6.335   4.766
 1426SOL     OW 5176   2.022   2.118   6.278
 1426SOL    HW1 5177   1.996   2.116   6.181
 1426SOL    HW2 5178   2.067   2.031   6.301
 1427SOL     OW 5179   0.390   0.660   3.763
 1427SOL    HW1 5180   0.489   0.673   3.756
 1427SOL    HW2 5181   0.345   0.749   3.768
 1428SOL     OW 5182   0.156   2.189   1.116
 1428SOL    HW1 5183   0.108   2.277   1.122
 1428SOL    HW2 5184   0.173   2.155   1.209
 1429SOL     OW 5185   5.906   1.586   6.752
 1429SOL    HW1 5186   5.951   1.519   6.695
 1429SOL    HW2 5187   5.813   1.555   6.774
 1430SOL     OW 5188   2.172   3.984   4.491
 1430SOL    HW1 5189   2.227   3.978   4.574
 1430SOL    HW2 5190   2.080   3.950   4.509
 1431SOL     OW 5191   2.861   2.769   6.039
 1431SOL    HW1 5192   2.887   2.680   6.001
 1431SOL    HW2 5193   2.887   2.842   5.975
 1432SOL     OW 5194   2.315   1.349   0.856
 1432SOL    HW1 5195   2.252   1.358   0.780
 1432SOL    HW2 5196   2.398   1.402   0.838
 1433SOL     OW 5197   3.415   0.318   3.665
 1433SOL    HW1 5198   3.362   0.310   3.580
 1433SOL    HW2 5199   3.422   0.228   3.707
 1434SOL     OW 5200   6.700   1.203   6.514
 1434SOL    HW1 5201   6.786   1.161   6.543
 1434SOL    HW2 5202   6.711   1.303   6.515
 1435SOL     OW 5203   0.069   0.679   3.938
 1435SOL    HW1 5204   0.026   0.769   3.942
 1435SOL    HW2 5205   0.136   0.671   4.011
 1436SOL     OW 5206   5.818   3.563   0.546
 1436SOL    HW1 5207   5.800   3.582   0.642
 1436SOL    HW2 5208   5.840   3.648   0.498
 1437SOL     OW 5209   3.555   1.008   5.410
 1437SOL    HW1 5210   3.579   0.915   5.440
 1437SOL    HW2 5211   3.511   1.004   5.320
 1438SOL     OW 5212   2.954   1.361   1.669
 1438SOL    HW1 5213   2.983   1.453   1.640
 1438SOL    HW2 5214   2.883   1.369   1.739
 1439SOL     OW 5215   1.022   5.779   0.491
 1439SOL    HW1 5216   1.068   5.691   0.482
 1439SOL    HW2 5217   0.925   5.768   0.470
 1440SOL     OW 5218   3.483   3.304   4.684
 1440SOL    HW1 5219   3.494   3.217   4.636
 1440SOL    HW2 5220   3.436   3.288   4.771
 1441SOL     OW 5221   6.355   3.503   3.409
 1441SOL    HW1 5222   6.319   3.503   3.316
 1441SOL    HW2 5223   6.330   3.418   3.455
 1442SOL     OW 5224   5.542   4.982   0.429
 1442SOL    HW1 5225   5.495   4.895   0.420
 1442SOL    HW2 5226   5.504   5.033   0.507
 1443SOL     OW 5227   0.719   0.970   3.943
 1443SOL    HW1 5228   0.811   0.948   3.976
 1443SOL    HW2 5229   0.723   0.995   3.847
 1444SOL     OW 5230   4.362   5.634   2.688
 1444SOL    HW1 5231   4.271   5.670   2.707
 1444SOL    HW2 5232   4.355   5.538   2.660
 1445SOL     OW 5233   0.686   2.895   1.667
 1445SOL    HW1 5234   0.765   2.956   1.670
 1445SOL    HW2 5235   0.603   2.946   1.689
 1446SOL     OW 5236   5.373   2.956   7.015
 1446SOL    HW1 5237   5.306   2.958   6.941
 1446SOL    HW2 5238   5.376   2.865   0.030
 1447SOL     OW 5239   6.615   0.457   5.058
 1447SOL    HW1 5240   6.668   0.540   5.074
 1447SOL    HW2 5241   6.541   0.477   4.994
 1448SOL     OW 5242   5.925   1.487   0.624
 1448SOL    HW1 5243   5.896   1.581   0.641
 1448SOL    HW2 5244   5.948   1.443   0.711
 1449SOL     OW 5245   5.831   6.500   0.054
 1449SOL    HW1 5246   5.809   6.402   0.053
 1449SOL    HW2 5247   5.902   6.518   7.012
 1450SOL     OW 5248   0.122   2.009   2.286
 1450SOL    HW1 5249   0.142   1.912   2.294
 1450SOL    HW2 5250   0.186   2.050   2.220
 1451SOL     OW 5251   2.967   0.915   2.812
 1451SOL    HW1 5252   3.014   0.931   2.899
 1451SOL    HW2 5253   2.940   1.002   2.772
 1452SOL     OW 5254   5.128   1.935   4.891
 1452SOL    HW1 5255   5.191   2.010   4.875
 1452SOL    HW2 5256   5.113   1.886   4.805
 1453SOL     OW 5257   5.958   3.823   4.909
 1453SOL    HW1 5258   5.922   3.898   4.854
 1453SOL    HW2 5259   5.971   3.854   5.003
 1454SOL     OW 5260   6.054   3.218   2.336
 1454SOL    HW1 5261   6.106   3.146   2.383
 1454SOL    HW2 5262   6.042   3.296   2.399
 1455SOL     OW 5263   0.901   0.412   1.887
 1455SOL    HW1 5264   0.950   0.325   1.879
 1455SOL    HW2 5265   0.862   0.436   1.798
 1456SOL     OW 5266   6.645   6.457   5.207
 1456SOL    HW1 5267   6.665   6.486   5.113
 1456SOL    HW2 5268   6.620   6.360   5.207
 1457SOL     OW 5269   1.708   0.522   1.918
 1457SOL    HW1 5270   1.741   0.613   1.895
 1457SOL    HW2 5271   1.625   0.502   1.865
 1458SOL     OW 5272   5.383   6.518   4.495
 1458SOL    HW1 5273   5.446   6.514   4.573
 1458SOL    HW2 5274   5.330   6.433   4.492
 1459SOL     OW 5275   2.663   4.212   6.401
 1459SOL    HW1 5276   2.688   4.273   6.326
 1459SOL    HW2 5277   2.570   4.231   6.430
 1460SOL     OW 5278   6.813   5.726   5.586
 1460SOL    HW1 5279   6.820   5.636   5.628
 1460SOL    HW2 5280   6.884   5.786   5.623
 1461SOL     OW 5281   6.645   4.713   3.528
 1461SOL    HW1 5282   6.659   4.759   3.441
 1461SOL    HW2 5283   6.726   4.659   3.550
 1462SOL     OW 5284   6.269   1.897   6.863
 1462SOL    HW1 5285   6.280   1.959   6.941
 1462SOL    HW2 5286   6.353   1.844   6.850
 1463SOL     OW 5287   0.304   6.413   6.008
 1463SOL    HW1 5288   0.244   6.480   6.051
 1463SOL    HW2 5289   0.350   6.455   5.930
 1464SOL     OW 5290   6.939   0.437   0.863
 1464SOL    HW1 5291   7.013   0.379   0.828
 1464SOL    HW2 5292   6.962   0.466   0.956
 1465SOL     OW 5293   1.389   1.308   3.240
 1465SOL    HW1 5294   1.483   1.276   3.255
 1465SOL    HW2 5295   1.356   1.355   3.323
 1466SOL     OW 5296   0.479   0.076   3.299
 1466SOL    HW1 5297   0.443   0.027   3.219
 1466SOL    HW2 5298   0.563   0.031   3.331
 1467SOL     OW 5299   1.778   0.023   2.065
 1467SOL    HW1 5300   1.833   6.977   2.022
 1467SOL    HW2 5301   1.766   0.099   2.001
 1468SOL     OW 5302   5.707   5.879   2.945
 1468SOL    HW1 5303   5.612   5.862   2.972
 1468SOL    HW2 5304   5.730   5.975   2.961
 1469SOL     OW 5305   0.366   1.114   3.235
 1469SOL    HW1 5306   0.267   1.111   3.222
 1469SOL    HW2 5307   0.403   1.196   3.192
 1470SOL     OW 5308   1.081   0.829   2.182
 1470SOL    HW1 5309   1.110   0.734   2.167
 1470SOL    HW2 5310   1.061   0.842   2.279
 1471SOL     OW 5311   0.912   0.632   6.835
 1471SOL    HW1 5312   1.003   0.628   6.877
 1471SOL    HW2 5313   0.914   0.695   6.758
 1472SOL     OW 5314   4.311   5.585   4.771
 1472SOL    HW1 5315   4.383   5.518   4.750
 1472SOL    HW2 5316   4.321   5.665   4.712
 1473SOL     OW 5317   5.960   6.085   4.051
 1473SOL    HW1 5318   6.030   6.148   4.017
 1473SOL    HW2 5319   5.948   6.010   3.986
 1474SOL     OW 5320   6.675   5.988   3.482
 1474SOL    HW1 5321   6.683   6.066   3.543
 1474SOL    HW2 5322   6.710   6.012   3.392
 1475SOL     OW 5323   0.463   0.086   1.496
 1475SOL    HW1 5324   0.367   0.104   1.473
 1475SOL    HW2 5325   0.520   0.099   1.414
 1476SOL     OW 5326   1.530   0.871   1.220
 1476SOL    HW1 5327   1.504   0.958   1.180
 1476SOL    HW2 5328   1.582   0.817   1.154
 1477SOL     OW 5329   2.583   0.325   6.489
 1477SOL    HW1 5330   2.658   0.280   6.537
 1477SOL    HW2 5331   2.496   0.287   6.521
 1478SOL     OW 5332   5.438   4.303   0.363
 1478SOL    HW1 5333   5.496   4.222   0.355
 1478SOL    HW2 5334   5.349   4.276   0.400
 1479SOL     OW 5335   1.323   4.198   0.292
 1479SOL    HW1 5336   1.359   4.291   0.288
 1479SOL    HW2 5337   1.232   4.198   0.333
 1480SOL     OW 5338   2.335   0.722   0.219
 1480SOL    HW1 5339   2.254   0.669   0.244
 1480SOL    HW2 5340   2.413   0.660   0.208
 1481SOL     OW 5341   6.275   1.810   4.579
 1481SOL    HW1 5342   6.304   1.821   4.674
 1481SOL    HW2 5343   6.186   1.853   4.565
 1482SOL     OW 5344   5.477   1.391   1.023
 1482SOL    HW1 5345   5.458   1.485   1.052
 1482SOL    HW2 5346   5.560   1.390   0.968
 1483SOL     OW 5347   0.389   2.953   6.266
 1483SOL    HW1 5348   0.479   2.912   6.282
 1483SOL    HW2 5349   0.400   3.039   6.217
 1484SOL     OW 5350   6.401   4.052   3.806
 1484SOL    HW1 5351   6.391   3.953   3.797
 1484SOL    HW2 5352   6.367   4.081   3.896
 1485SOL     OW 5353   4.502   2.516   2.475
 1485SOL    HW1 5354   4.558   2.559   2.405
 1485SOL    HW2 5355   4.523   2.555   2.565
 1486SOL     OW 5356   4.580   2.585   3.393
 1486SOL    HW1 5357   4.600   2.675   3.355
 1486SOL    HW2 5358   4.629   2.574   3.480
 1487SOL     OW 5359   6.188   1.699   6.592
 1487SOL    HW1 5360   6.142   1.756   6.660
 1487SOL    HW2 5361   6.188   1.604   6.622
 1488SOL     OW 5362   5.999   2.029   2.784
 1488SOL    HW1 5363   6.003   2.063   2.690
 1488SOL    HW2 5364   5.935   2.085   2.837
 1489SOL     OW 5365   4.033   4.893   4.439
 1489SOL    HW1 5366   3.961   4.914   4.373
 1489SOL    HW2 5367   4.028   4.958   4.515
 1490SOL     OW 5368   1.378   2.643   1.222
 1490SOL    HW1 5369   1.308   2.700   1.264
 1490SOL    HW2 5370   1.344   2.603   1.137
 1491SOL     OW 5371   0.234   3.654   3.297
 1491SOL    HW1 5372   0.171   3.722   3.261
 1491SOL    HW2 5373   0.231   3.572   3.240
 1492SOL     OW 5374   5.996   1.779   1.436
 1492SOL    HW1 5375   5.948   1.821   1.513
 1492SOL    HW2 5376   6.038   1.693   1.465
 1493SOL     OW 5377   4.967   0.668   4.703
 1493SOL    HW1 5378   5.067   0.660   4.710
 1493SOL    HW2 5379   4.941   0.765   4.710
 1494SOL     OW 5380   4.233   2.694   5.982
 1494SOL    HW1 5381   4.162   2.761   6.005
 1494SOL    HW2 5382   4.306   2.740   5.932
 1495SOL     OW 5383   1.039   3.200   3.413
 1495SOL    HW1 5384   0.989   3.119   3.445
 1495SOL    HW2 5385   1.001   3.282   3.455
 1496SOL     OW 5386   0.877   0.715   1.762
 1496SOL    HW1 5387   0.912   0.788   1.703
 1496SOL    HW2 5388   0.879   0.745   1.857
 1497SOL     OW 5389   0.103   4.231   3.448
 1497SOL    HW1 5390   0.185   4.174   3.446
 1497SOL    HW2 5391   0.024   4.176   3.478
 1498SOL     OW 5392   1.768   4.951   6.588
 1498SOL    HW1 5393   1.827   4.876   6.618
 1498SOL    HW2 5394   1.812   5.039   6.608
 1499SOL     OW 5395   1.316   3.526   5.308
 1499SOL    HW1 5396   1.381   3.540   5.234
 1499SOL    HW2 5397   1.294   3.429   5.317
 1500SOL     OW 5398   5.855   6.901   0.113
 1500SOL    HW1 5399   5.933   6.840   0.098
 1500SOL    HW2 5400   5.772   6.857   0.078
 1501SOL     OW 5401   4.143   0.749   6.381
 1501SOL    HW1 5402   4.076   0.775   6.452
 1501SOL    HW2 5403   4.233   0.739   6.423
 1502SOL     OW 5404   5.973   6.443   0.922
 1502SOL    HW1 5405   5.996   6.513   0.854
 1502SOL    HW2 5406   6.055   6.390   0.944
 1503SOL     OW 5407   2.722   2.639   1.244
 1503SOL    HW1 5408   2.655   2.709   1.268
 1503SOL    HW2 5409   2.750   2.589   1.326
 1504SOL     OW 5410   2.453   0.098   4.793
 1504SOL    HW1 5411   2.403   0.185   4.787
 1504SOL    HW2 5412   2.502   0.082   4.707
 1505SOL     OW 5413   5.331   0.695   6.609
 1505SOL    HW1 5414   5.327   0.790   6.638
 1505SOL    HW2 5415   5.316   0.635   6.688
 1506SOL     OW 5416   1.454   5.449   2.718
 1506SOL    HW1 5417   1.526   5.461   2.786
 1506SOL    HW2 5418   1.422   5.355   2.718
 1507SOL     OW 5419   1.376   1.831   4.906
 1507SOL    HW1 5420   1.406   1.738   4.887
 1507SOL    HW2 5421   1.428   1.895   4.849
 1508SOL     OW 5422   4.923   6.957   0.747
 1508SOL    HW1 5423   4.987   6.884   0.724
 1508SOL    HW2 5424   4.876   6.988   0.664
 1509SOL     OW 5425   4.091   2.954   5.927
 1509SOL    HW1 5426   4.001   2.931   5.966
 1509SOL    HW2 5427   4.088   2.945   5.827
 1510SOL     OW 5428   5.894   1.836   3.961
 1510SOL    HW1 5429   5.835   1.804   4.035
 1510SOL    HW2 5430   5.981   1.787   3.965
 1511SOL     OW 5431   2.626   2.391   6.911
 1511SOL    HW1 5432   2.646   2.478   6.867
 1511SOL    HW2 5433   2.689   2.376   6.987
 1512SOL     OW 5434   6.730   6.573   1.928
 1512SOL    HW1 5435   6.668   6.500   1.899
 1512SOL    HW2 5436   6.816   6.566   1.877
 1513SOL     OW 5437   4.638   0.457   3.639
 1513SOL    HW1 5438   4.539   0.444   3.637
 1513SOL    HW2 5439   4.671   0.444   3.732
 1514SOL     OW 5440   5.242   2.058   4.484
 1514SOL    HW1 5441   5.288   2.063   4.396
 1514SOL    HW2 5442   5.252   2.146   4.532
 1515SOL     OW 5443   6.706   2.974   6.135
 1515SOL    HW1 5444   6.731   2.927   6.220
 1515SOL    HW2 5445   6.788   3.002   6.086
 1516SOL     OW 5446   0.519   0.701   0.810
 1516SOL    HW1 5447   0.593   0.767   0.806
 1516SOL    HW2 5448   0.523   0.641   0.730
 1517SOL     OW 5449   4.670   5.906   3.594
 1517SOL    HW1 5450   4.697   5.903   3.690
 1517SOL    HW2 5451   4.750   5.924   3.537
 1518SOL     OW 5452   6.985   2.885   0.221
 1518SOL    HW1 5453   6.934   2.947   0.160
 1518SOL    HW2 5454   7.005   2.800   0.172
 1519SOL     OW 5455   0.146   4.783   2.008
 1519SOL    HW1 5456   0.071   4.743   1.955
 1519SOL    HW2 5457   0.157   4.879   1.982
 1520SOL     OW 5458   1.871   3.388   2.445
 1520SOL    HW1 5459   1.964   3.424   2.449
 1520SOL    HW2 5460   1.860   3.336   2.360
 1521SOL     OW 5461   2.079   3.297   6.586
 1521SOL    HW1 5462   2.044   3.240   6.661
 1521SOL    HW2 5463   2.103   3.387   6.622
 1522SOL     OW 5464   6.925   1.416   5.579
 1522SOL    HW1 5465   6.999   1.356   5.611
 1522SOL    HW2 5466   6.861   1.431   5.654
 1523SOL     OW 5467   5.125   3.676   6.829
 1523SOL    HW1 5468   5.173   3.651   6.745
 1523SOL    HW2 5469   5.031   3.642   6.826
 1524SOL     OW 5470   0.829   1.969   1.760
 1524SOL    HW1 5471   0.926   1.990   1.754
 1524SOL    HW2 5472   0.777   2.055   1.766
 1525SOL     OW 5473   5.052   2.893   5.956
 1525SOL    HW1 5474   5.100   2.927   5.876
 1525SOL    HW2 5475   5.038   2.969   6.021
 1526SOL     OW 5476   1.088   1.287   1.023
 1526SOL    HW1 5477   1.134   1.241   1.100
 1526SOL    HW2 5478   1.157   1.315   0.956
 1527SOL     OW 5479   3.852   1.128   4.894
 1527SOL    HW1 5480   3.896   1.114   4.805
 1527SOL    HW2 5481   3.760   1.089   4.892
 1528SOL     OW 5482   5.215   5.989   2.834
 1528SOL    HW1 5483   5.205   6.060   2.904
 1528SOL    HW2 5484   5.136   5.928   2.837
 1529SOL     OW 5485   4.091   1.335   6.368
 1529SOL    HW1 5486   4.020   1.264   6.364
 1529SOL    HW2 5487   4.100   1.369   6.462
 1530SOL     OW 5488   3.536   0.413   1.156
 1530SOL    HW1 5489   3.587   0.338   1.112
 1530SOL    HW2 5490   3.548   0.407   1.255
 1531SOL     OW 5491   6.144   1.376   4.814
 1531SOL    HW1 5492   6.223   1.328   4.851
 1531SOL    HW2 5493   6.134   1.354   4.717
 1532SOL     OW 5494   2.426   2.328   4.708
 1532SOL    HW1 5495   2.494   2.341   4.636
 1532SOL    HW2 5496   2.413   2.413   4.758
 1533SOL     OW 5497   6.893   3.633   6.646
 1533SOL    HW1 5498   6.916   3.632   6.549
 1533SOL    HW2 5499   6.933   3.553   6.691
 1534SOL     OW 5500   1.414   5.086   0.086
 1534SOL    HW1 5501   1.379   5.011   0.030
 1534SOL    HW2 5502   1.393   5.173   0.041
 1535SOL     OW 5503   5.717   6.329   4.323
 1535SOL    HW1 5504   5.722   6.378   4.236
 1535SOL    HW2 5505   5.763   6.381   4.394
 1536SOL     OW 5506   3.683   5.081   4.866
 1536SOL    HW1 5507   3.702   5.160   4.807
 1536SOL    HW2 5508   3.584   5.070   4.875
 1537SOL     OW 5509   3.724   5.711   3.113
 1537SOL    HW1 5510   3.776   5.628   3.133
 1537SOL    HW2 5511   3.746   5.741   3.020
 1538SOL     OW 5512   3.240   5.500   5.253
 1538SOL    HW1 5513   3.212   5.503   5.157
 1538SOL    HW2 5514   3.330   5.458   5.261
 1539SOL     OW 5515   3.941   4.298   1.372
 1539SOL    HW1 5516   3.895   4.387   1.368
 1539SOL    HW2 5517   3.873   4.226   1.385
 1540SOL     OW 5518   0.750   6.821   5.321
 1540SOL    HW1 5519   0.774   6.752   5.390
 1540SOL    HW2 5520   0.669   6.872   5.351
 1541SOL     OW 5521   3.987   2.267   1.091
 1541SOL    HW1 5522   4.037   2.314   1.164
 1541SOL    HW2 5523   3.980   2.170   1.112
 1542SOL     OW 5524   6.274   5.701   1.797
 1542SOL    HW1 5525   6.178   5.726   1.792
 1542SOL    HW2 5526   6.295   5.665   1.888
 1543SOL     OW 5527   3.037   3.179   4.216
 1543SOL    HW1 5528   3.035   3.277   4.236
 1543SOL    HW2 5529   3.037   3.127   4.302
 1544SOL     OW 5530   3.081   4.002   2.243
 1544SOL    HW1 5531   3.164   3.985   2.190
 1544SOL    HW2 5532   3.100   4.067   2.316
 1545SOL     OW 5533   5.867   1.191   5.601
 1545SOL    HW1 5534   5.932   1.263   5.626
 1545SOL    HW2 5535   5.904   1.102   5.630
 1546SOL     OW 5536   4.524   0.303   6.123
 1546SOL    HW1 5537   4.604   0.291   6.064
 1546SOL    HW2 5538   4.544   0.270   6.215
 1547SOL     OW 5539   2.132   3.707   2.646
 1547SOL    HW1 5540   2.040   3.734   2.674
 1547SOL    HW2 5541   2.129   3.621   2.596
 1548SOL     OW 5542   4.782   3.719   5.499
 1548SOL    HW1 5543   4.844   3.722   5.421
 1548SOL    HW2 5544   4.700   3.667   5.474
 1549SOL     OW 5545   5.928   0.739   2.282
 1549SOL    HW1 5546   5.996   0.769   2.349
 1549SOL    HW2 5547   5.968   0.744   2.190
 1550SOL     OW 5548   2.892   6.691   5.513
 1550SOL    HW1 5549   2.950   6.737   5.445
 1550SOL    HW2 5550   2.796   6.701   5.487
 1551SOL     OW 5551   1.574   3.404   1.096
 1551SOL    HW1 5552   1.526   3.428   1.180
 1551SOL    HW2 5553   1.642   3.334   1.115
 1552SOL     OW 5554   1.041   0.020   1.309
 1552SOL    HW1 5555   1.070   6.981   1.238
 1552SOL    HW2 5556   1.031   6.997   1.396
 1553SOL     OW 5557   6.366   2.276   6.667
 1553SOL    HW1 5558   6.334   2.251   6.758
 1553SOL    HW2 5559   6.397   2.194   6.619
 1554SOL     OW 5560   3.596   2.050   2.889
 1554SOL    HW1 5561   3.540   1.970   2.866
 1554SOL    HW2 5562   3.675   2.055   2.828
 1555SOL     OW 5563   4.907   2.697   5.555
 1555SOL    HW1 5564   4.850   2.633   5.504
 1555SOL    HW2 5565   4.877   2.790   5.538
 1556SOL     OW 5566   4.143   0.792   0.371
 1556SOL    HW1 5567   4.090   0.874   0.393
 1556SOL    HW2 5568   4.150   0.783   0.271
 1557SOL     OW 5569   2.968   2.104   0.593
 1557SOL    HW1 5570   2.972   2.136   0.688
 1557SOL    HW2 5571   2.948   2.181   0.533
 1558SOL     OW 5572   5.884   2.032   4.423
 1558SOL    HW1 5573   5.826   2.091   4.367
 1558SOL    HW2 5574   5.976   2.029   4.385
 1559SOL     OW 5575   0.407   2.737   1.272
 1559SOL    HW1 5576   0.481   2.759   1.335
 1559SOL    HW2 5577   0.326   2.790   1.297
 1560SOL     OW 5578   3.169   1.220   6.853
 1560SOL    HW1 5579   3.121   1.168   6.924
 1560SOL    HW2 5580   3.182   1.314   6.884
 1561SOL     OW 5581   4.812   5.085   3.509
 1561SOL    HW1 5582   4.754   5.163   3.534
 1561SOL    HW2 5583   4.891   5.118   3.457
 1562SOL     OW 5584   3.735   6.143   2.283
 1562SOL    HW1 5585   3.821   6.188   2.304
 1562SOL    HW2 5586   3.752   6.048   2.258
 1563SOL     OW 5587   2.376   2.039   5.488
 1563SOL    HW1 5588   2.353   2.136   5.491
 1563SOL    HW2 5589   2.475   2.028   5.497
 1564SOL     OW 5590   1.799   1.781   2.121
 1564SOL    HW1 5591   1.863   1.843   2.167
 1564SOL    HW2 5592   1.849   1.718   2.063
 1565SOL     OW 5593   4.456   5.358   4.705
 1565SOL    HW1 5594   4.377   5.298   4.694
 1565SOL    HW2 5595   4.516   5.323   4.777
 1566SOL     OW 5596   6.160   5.181   4.363
 1566SOL    HW1 5597   6.167   5.254   4.295
 1566SOL    HW2 5598   6.131   5.096   4.319
 1567SOL     OW 5599   6.150   5.500   7.013
 1567SOL    HW1 5600   6.207   5.509   6.931
 1567SOL    HW2 5601   6.058   5.534   6.993
 1568SOL     OW 5602   2.546   6.299   2.961
 1568SOL    HW1 5603   2.455   6.295   2.919
 1568SOL    HW2 5604   2.540   6.271   3.057
 1569SOL     OW 5605   3.602   6.822   3.131
 1569SOL    HW1 5606   3.551   6.881   3.193
 1569SOL    HW2 5607   3.599   6.861   3.038
 1570SOL     OW 5608   2.283   6.551   6.749
 1570SOL    HW1 5609   2.269   6.642   6.789
 1570SOL    HW2 5610   2.371   6.548   6.701
 1571SOL     OW 5611   0.882   2.757   2.895
 1571SOL    HW1 5612   0.966   2.704   2.894
 1571SOL    HW2 5613   0.877   2.814   2.813
 1572SOL     OW 5614   1.701   5.325   2.192
 1572SOL    HW1 5615   1.646   5.295   2.113
 1572SOL    HW2 5616   1.643   5.331   2.273
 1573SOL     OW 5617   5.412   5.030   2.543
 1573SOL    HW1 5618   5.337   5.097   2.545
 1573SOL    HW2 5619   5.393   4.962   2.472
 1574SOL     OW 5620   6.408   2.984   2.245
 1574SOL    HW1 5621   6.367   3.070   2.215
 1574SOL    HW2 5622   6.345   2.935   2.305
 1575SOL     OW 5623   2.516   0.321   1.397
 1575SOL    HW1 5624   2.495   0.353   1.305
 1575SOL    HW2 5625   2.556   0.396   1.451
 1576SOL     OW 5626   0.923   6.433   3.061
 1576SOL    HW1 5627   0.892   6.467   2.973
 1576SOL    HW2 5628   0.877   6.483   3.134
 1577SOL     OW 5629   2.271   0.450   6.184
 1577SOL    HW1 5630   2.368   0.458   6.210
 1577SOL    HW2 5631   2.263   0.466   6.085
 1578SOL     OW 5632   4.987   1.448   6.403
 1578SOL    HW1 5633   4.954   1.357   6.377
 1578SOL    HW2 5634   5.078   1.440   6.443
 1579SOL     OW 5635   6.733   2.399   0.969
 1579SOL    HW1 5636   6.806   2.393   1.037
 1579SOL    HW2 5637   6.754   2.472   0.904
 1580SOL     OW 5638   3.416   4.099   3.326
 1580SOL    HW1 5639   3.457   4.015   3.361
 1580SOL    HW2 5640   3.443   4.177   3.384
 1581SOL     OW 5641   6.884   4.151   5.863
 1581SOL    HW1 5642   6.898   4.151   5.764
 1581SOL    HW2 5643   6.964   4.193   5.907
 1582SOL     OW 5644   3.131   6.307   4.560
 1582SOL    HW1 5645   3.202   6.301   4.489
 1582SOL    HW2 5646   3.105   6.403   4.571
 1583SOL     OW 5647   0.816   5.844   4.212
 1583SOL    HW1 5648   0.887   5.809   4.273
 1583SOL    HW2 5649   0.757   5.768   4.184
 1584SOL     OW 5650   1.462   4.771   6.830
 1584SOL    HW1 5651   1.408   4.834   6.885
 1584SOL    HW2 5652   1.552   4.811   6.811
 1585SOL     OW 5653   4.214   1.340   2.750
 1585SOL    HW1 5654   4.211   1.241   2.734
 1585SOL    HW2 5655   4.139   1.384   2.700
 1586SOL     OW 5656   3.017   4.845   3.149
 1586SOL    HW1 5657   3.090   4.846   3.218
 1586SOL    HW2 5658   3.058   4.838   3.058
 1587SOL     OW 5659   2.073   4.862   5.219
 1587SOL    HW1 5660   2.061   4.941   5.159
 1587SOL    HW2 5661   2.143   4.883   5.288
 1588SOL     OW 5662   4.645   1.085   2.492
 1588SOL    HW1 5663   4.648   1.081   2.393
 1588SOL    HW2 5664   4.664   0.994   2.530
 1589SOL     OW 5665   0.180   3.235   2.517
 1589SOL    HW1 5666   0.098   3.285   2.547
 1589SOL    HW2 5667   0.256   3.299   2.509
 1590SOL     OW 5668   4.652   0.841   3.930
 1590SOL    HW1 5669   4.646   0.860   4.028
 1590SOL    HW2 5670   4.574   0.786   3.902
 1591SOL     OW 5671   0.041   6.278   1.204
 1591SOL    HW1 5672   0.129   6.263   1.248
 1591SOL    HW2 5673   0.002   6.365   1.236
 1592SOL     OW 5674   1.987   3.657   0.190
 1592SOL    HW1 5675   2.038   3.573   0.212
 1592SOL    HW2 5676   1.979   3.665   0.090
 1593SOL     OW 5677   0.869   0.156   5.890
 1593SOL    HW1 5678   0.840   0.064   5.917
 1593SOL    HW2 5679   0.959   0.150   5.845
 1594SOL     OW 5680   6.840   5.973   2.248
 1594SOL    HW1 5681   6.743   5.994   2.262
 1594SOL    HW2 5682   6.895   6.052   2.274
 1595SOL     OW 5683   0.821   4.473   0.168
 1595SOL    HW1 5684   0.725   4.494   0.188
 1595SOL    HW2 5685   0.827   4.381   0.129
 1596SOL     OW 5686   6.566   3.478   2.348
 1596SOL    HW1 5687   6.620   3.395   2.363
 1596SOL    HW2 5688   6.603   3.553   2.403
 1597SOL     OW 5689   2.010   6.122   1.208
 1597SOL    HW1 5690   1.963   6.172   1.280
 1597SOL    HW2 5691   1.987   6.161   1.119
 1598SOL     OW 5692   1.453   5.163   6.388
 1598SOL    HW1 5693   1.401   5.222   6.450
 1598SOL    HW2 5694   1.475   5.214   6.305
 1599SOL     OW 5695   5.303   5.004   5.150
 1599SOL    HW1 5696   5.251   5.089   5.158
 1599SOL    HW2 5697   5.284   4.945   5.228
 1600SOL     OW 5698   2.941   1.347   2.251
 1600SOL    HW1 5699   3.024   1.369   2.302
 1600SOL    HW2 5700   2.866   1.328   2.315
 1601SOL     OW 5701   0.597   6.781   4.620
 1601SOL    HW1 5702   0.551   6.738   4.542
 1601SOL    HW2 5703   0.536   6.848   4.662
 1602SOL     OW 5704   4.240   5.098   4.415
 1602SOL    HW1 5705   4.281   5.161   4.349
 1602SOL    HW2 5706   4.283   5.009   4.407
 1603SOL     OW 5707   2.699   5.314   3.555
 1603SOL    HW1 5708   2.686   5.296   3.652
 1603SOL    HW2 5709   2.744   5.236   3.512
 1604SOL     OW 5710   3.899   5.229   1.398
 1604SOL    HW1 5711   3.857   5.257   1.484
 1604SOL    HW2 5712   3.889   5.130   1.386
 1605SOL     OW 5713   6.842   5.427   1.621
 1605SOL    HW1 5714   6.932   5.412   1.580
 1605SOL    HW2 5715   6.785   5.346   1.608
 1606SOL     OW 5716   4.116   5.808   5.584
 1606SOL    HW1 5717   4.036   5.806   5.525
 1606SOL    HW2 5718   4.199   5.811   5.528
 1607SOL     OW 5719   4.244   0.427   0.609
 1607SOL    HW1 5720   4.166   0.364   0.616
 1607SOL    HW2 5721   4.258   0.451   0.513
 1608SOL     OW 5722   6.594   0.675   2.756
 1608SOL    HW1 5723   6.645   0.748   2.709
 1608SOL    HW2 5724   6.652   0.634   2.826
 1609SOL     OW 5725   3.499   6.673   0.720
 1609SOL    HW1 5726   3.574   6.631   0.772
 1609SOL    HW2 5727   3.415   6.622   0.737
 1610SOL     OW 5728   4.820   5.966   0.597
 1610SOL    HW1 5729   4.748   5.909   0.639
 1610SOL    HW2 5730   4.909   5.924   0.614
 1611SOL     OW 5731   1.779   3.683   1.051
 1611SOL    HW1 5732   1.726   3.600   1.031
 1611SOL    HW2 5733   1.766   3.710   1.146
 1612SOL     OW 5734   3.605   6.888   1.668
 1612SOL    HW1 5735   3.509   6.863   1.659
 1612SOL    HW2 5736   3.612   6.982   1.702
 1613SOL     OW 5737   0.963   5.346   2.081
 1613SOL    HW1 5738   0.915   5.305   2.003
 1613SOL    HW2 5739   1.025   5.417   2.048
 1614SOL     OW 5740   5.859   1.778   6.197
 1614SOL    HW1 5741   5.939   1.810   6.248
 1614SOL    HW2 5742   5.787   1.847   6.200
 1615SOL     OW 5743   6.653   6.180   6.871
 1615SOL    HW1 5744   6.556   6.158   6.875
 1615SOL    HW2 5745   6.697   6.120   6.804
 1616SOL     OW 5746   4.325   0.263   3.503
 1616SOL    HW1 5747   4.334   0.345   3.560
 1616SOL    HW2 5748   4.259   0.281   3.430
 1617SOL     OW 5749   5.172   6.229   3.014
 1617SOL    HW1 5750   5.158   6.325   2.990
 1617SOL    HW2 5751   5.225   6.224   3.099
 1618SOL     OW 5752   1.411   6.385   3.236
 1618SOL    HW1 5753   1.322   6.353   3.203
 1618SOL    HW2 5754   1.436   6.469   3.187
 1619SOL     OW 5755   0.254   5.093   6.930
 1619SOL    HW1 5756   0.223   5.017   6.987
 1619SOL    HW2 5757   0.183   5.114   6.862
 1620SOL     OW 5758   3.336   4.479   1.590
 1620SOL    HW1 5759   3.422   4.474   1.640
 1620SOL    HW2 5760   3.345   4.544   1.515
 1621SOL     OW 5761   5.885   0.154   0.859
 1621SOL    HW1 5762   5.967   0.207   0.880
 1621SOL    HW2 5763   5.856   0.103   0.940
 1622SOL     OW 5764   0.734   3.590   5.660
 1622SOL    HW1 5765   0.673   3.619   5.586
 1622SOL    HW2 5766   0.733   3.659   5.733
 1623SOL     OW 5767   0.284   2.619   4.874
 1623SOL    HW1 5768   0.252   2.536   4.921
 1623SOL    HW2 5769   0.205   2.669   4.838
 1624SOL     OW 5770   4.172   1.660   5.883
 1624SOL    HW1 5771   4.252   1.719   5.870
 1624SOL    HW2 5772   4.203   1.568   5.908
 1625SOL     OW 5773   1.513   5.212   6.841
 1625SOL    HW1 5774   1.595   5.167   6.876
 1625SOL    HW2 5775   1.485   5.169   6.755
 1626SOL     OW 5776   3.232   1.230   1.411
 1626SOL    HW1 5777   3.183   1.217   1.498
 1626SOL    HW2 5778   3.228   1.146   1.357
 1627SOL     OW 5779   5.710   2.952   3.606
 1627SOL    HW1 5780   5.649   2.893   3.658
 1627SOL    HW2 5781   5.661   3.033   3.576
 1628SOL     OW 5782   4.314   5.403   6.892
 1628SOL    HW1 5783   4.346   5.405   6.797
 1628SOL    HW2 5784   4.270   5.315   6.911
 1629SOL     OW 5785   2.609   1.029   4.217
 1629SOL    HW1 5786   2.565   1.115   4.245
 1629SOL    HW2 5787   2.672   1.047   4.142
 1630SOL     OW 5788   6.830   4.418   5.543
 1630SOL    HW1 5789   6.733   4.396   5.529
 1630SOL    HW2 5790   6.837   4.505   5.592
 1631SOL     OW 5791   0.670   2.966   0.610
 1631SOL    HW1 5792   0.611   3.028   0.559
 1631SOL    HW2 5793   0.706   3.013   0.691
 1632SOL     OW 5794   4.959   3.218   2.707
 1632SOL    HW1 5795   4.948   3.201   2.609
 1632SOL    HW2 5796   4.948   3.316   2.725
 1633SOL     OW 5797   5.051   4.213   4.701
 1633SOL    HW1 5798   5.121   4.228   4.631
 1633SOL    HW2 5799   4.986   4.144   4.668
 1634SOL     OW 5800   4.756   0.288   4.098
 1634SOL    HW1 5801   4.815   0.332   4.166
 1634SOL    HW2 5802   4.809   0.273   4.014
 1635SOL     OW 5803   0.834   5.202   6.791
 1635SOL    HW1 5804   0.811   5.247   6.877
 1635SOL    HW2 5805   0.752   5.192   6.735
 1636SOL     OW 5806   3.288   5.000   1.774
 1636SOL    HW1 5807   3.196   5.023   1.743
 1636SOL    HW2 5808   3.305   4.903   1.761
 1637SOL     OW 5809   0.001   6.812   3.992
 1637SOL    HW1 5810   7.025   6.713   4.003
 1637SOL    HW2 5811   6.935   6.849   4.007
 1638SOL     OW 5812   0.787   2.974   2.170
 1638SOL    HW1 5813   0.863   2.917   2.140
 1638SOL    HW2 5814   0.764   3.040   2.098
 1639SOL     OW 5815   5.399   5.140   1.909
 1639SOL    HW1 5816   5.386   5.166   1.813
 1639SOL    HW2 5817   5.487   5.092   1.918
 1640SOL     OW 5818   6.265   0.299   6.952
 1640SOL    HW1 5819   6.210   0.287   6.870
 1640SOL    HW2 5820   6.224   0.249   0.003
 1641SOL     OW 5821   6.603   2.206   2.780
 1641SOL    HW1 5822   6.589   2.276   2.850
 1641SOL    HW2 5823   6.656   2.130   2.819
 1642SOL     OW 5824   6.713   3.271   6.882
 1642SOL    HW1 5825   6.663   3.279   6.969
 1642SOL    HW2 5826   6.653   3.229   6.814
 1643SOL     OW 5827   2.777   4.756   3.153
 1643SOL    HW1 5828   2.723   4.802   3.083
 1643SOL    HW2 5829   2.867   4.800   3.160
 1644SOL     OW 5830   5.579   3.508   6.666
 1644SOL    HW1 5831   5.659   3.550   6.708
 1644SOL    HW2 5832   5.607   3.428   6.614
 1645SOL     OW 5833   3.135   6.227   5.995
 1645SOL    HW1 5834   3.053   6.213   5.941
 1645SOL    HW2 5835   3.182   6.309   5.963
 1646SOL     OW 5836   2.554   0.010   0.432
 1646SOL    HW1 5837   2.516   6.945   0.410
 1646SOL    HW2 5838   2.502   0.050   0.507
 1647SOL     OW 5839   6.592   2.391   4.193
 1647SOL    HW1 5840   6.528   2.464   4.217
 1647SOL    HW2 5841   6.546   2.325   4.134
 1648SOL     OW 5842   5.647   6.354   0.534
 1648SOL    HW1 5843   5.602   6.411   0.603
 1648SOL    HW2 5844   5.590   6.347   0.453
 1649SOL     OW 5845   3.488   1.707   4.765
 1649SOL    HW1 5846   3.404   1.760   4.759
 1649SOL    HW2 5847   3.508   1.665   4.677
 1650SOL     OW 5848   0.773   5.538   4.932
 1650SOL    HW1 5849   0.689   5.523   4.880
 1650SOL    HW2 5850   0.851   5.503   4.881
 1651SOL     OW 5851   0.704   2.296   2.229
 1651SOL    HW1 5852   0.727   2.207   2.189
 1651SOL    HW2 5853   0.661   2.353   2.159
 1652SOL     OW 5854   1.395   3.568   2.446
 1652SOL    HW1 5855   1.323   3.600   2.386
 1652SOL    HW2 5856   1.367   3.582   2.542
 1653SOL     OW 5857   0.431   6.712   1.129
 1653SOL    HW1 5858   0.442   6.698   1.227
 1653SOL    HW2 5859   0.403   6.626   1.086
 1654SOL     OW 5860   6.948   3.475   0.976
 1654SOL    HW1 5861   6.882   3.539   0.937
 1654SOL    HW2 5862   6.967   3.501   1.071
 1655SOL     OW 5863   6.965   1.753   4.386
 1655SOL    HW1 5864   6.867   1.738   4.402
 1655SOL    HW2 5865   6.980   1.769   4.288
 1656SOL     OW 5866   1.728   5.580   3.134
 1656SOL    HW1 5867   1.748   5.674   3.162
 1656SOL    HW2 5868   1.812   5.526   3.132
 1657SOL     OW 5869   5.898   0.452   4.333
 1657SOL    HW1 5870   5.963   0.520   4.366
 1657SOL    HW2 5871   5.825   0.498   4.282
 1658SOL     OW 5872   6.076   0.405   1.219
 1658SOL    HW1 5873   6.080   0.309   1.245
 1658SOL    HW2 5874   5.983   0.429   1.194
 1659SOL     OW 5875   3.366   0.468   0.083
 1659SOL    HW1 5876   3.457   0.440   0.053
 1659SOL    HW2 5877   3.320   0.391   0.128
 1660SOL     OW 5878   2.046   6.292   2.322
 1660SOL    HW1 5879   1.988   6.362   2.365
 1660SOL    HW2 5880   2.142   6.312   2.342
 1661SOL     OW 5881   1.902   5.795   1.605
 1661SOL    HW1 5882   1.881   5.765   1.698
 1661SOL    HW2 5883   1.916   5.893   1.604
 1662SOL     OW 5884   0.150   0.829   4.377
 1662SOL    HW1 5885   0.112   0.739   4.398
 1662SOL    HW2 5886   0.212   0.821   4.299
 1663SOL     OW 5887   4.594   5.556   3.636
 1663SOL    HW1 5888   4.510   5.571   3.689
 1663SOL    HW2 5889   4.664   5.620   3.665
 1664SOL     OW 5890   2.045   5.860   5.303
 1664SOL    HW1 5891   1.968   5.836   5.243
 1664SOL    HW2 5892   2.107   5.922   5.255
 1665SOL     OW 5893   6.521   3.644   1.625
 1665SOL    HW1 5894   6.476   3.686   1.704
 1665SOL    HW2 5895   6.548   3.551   1.647
 1666SOL     OW 5896   5.749   0.333   0.044
 1666SOL    HW1 5897   5.700   0.388   0.110
 1666SOL    HW2 5898   5.787   0.392   6.999
 1667SOL     OW 5899   6.638   5.589   1.545
 1667SOL    HW1 5900   6.686   5.677   1.543
 1667SOL    HW2 5901   6.703   5.515   1.562
 1668SOL     OW 5902   4.781   4.957   3.738
 1668SOL    HW1 5903   4.724   4.876   3.721
 1668SOL    HW2 5904   4.785   5.012   3.654
 1669SOL     OW 5905   6.664   4.894   5.848
 1669SOL    HW1 5906   6.749   4.928   5.808
 1669SOL    HW2 5907   6.662   4.794   5.842
 1670SOL     OW 5908   0.518   4.906   5.138
 1670SOL    HW1 5909   0.543   4.861   5.052
 1670SOL    HW2 5910   0.587   4.886   5.207
 1671SOL     OW 5911   5.742   1.129   3.704
 1671SOL    HW1 5912   5.758   1.222   3.737
 1671SOL    HW2 5913   5.807   1.107   3.632
 1672SOL     OW 5914   2.568   3.154   0.411
 1672SOL    HW1 5915   2.488   3.207   0.439
 1672SOL    HW2 5916   2.614   3.117   0.492
 1673SOL     OW 5917   1.176   1.701   4.725
 1673SOL    HW1 5918   1.112   1.684   4.650
 1673SOL    HW2 5919   1.258   1.747   4.689
 1674SOL     OW 5920   0.206   3.384   1.803
 1674SOL    HW1 5921   0.241   3.404   1.894
 1674SOL    HW2 5922   0.121   3.332   1.810
 1675SOL     OW 5923   4.429   0.359   6.982
 1675SOL    HW1 5924   4.463   0.305   0.033
 1675SOL    HW2 5925   4.362   0.426   7.014
 1676SOL     OW 5926   2.366   2.812   1.904
 1676SOL    HW1 5927   2.381   2.727   1.954
 1676SOL    HW2 5928   2.294   2.865   1.949
 1677SOL     OW 5929   3.997   3.907   3.984
 1677SOL    HW1 5930   3.992   3.989   3.927
 1677SOL    HW2 5931   3.982   3.932   4.079
 1678SOL     OW 5932   6.952   5.338   2.141
 1678SOL    HW1 5933   7.020   5.391   2.192
 1678SOL    HW2 5934   6.968   5.349   2.043
 1679SOL     OW 5935   1.774   1.395   4.715
 1679SOL    HW1 5936   1.741   1.402   4.621
 1679SOL    HW2 5937   1.856   1.338   4.717
 1680SOL     OW 5938   6.181   4.393   5.567
 1680SOL    HW1 5939   6.222   4.332   5.499
 1680SOL    HW2 5940   6.240   4.397   5.648
 1681SOL     OW 5941   1.174   5.712   6.094
 1681SOL    HW1 5942   1.247   5.667   6.145
 1681SOL    HW2 5943   1.213   5.783   6.035
 1682SOL     OW 5944   1.823   0.550   5.514
 1682SOL    HW1 5945   1.843   0.634   5.464
 1682SOL    HW2 5946   1.879   0.475   5.479
 1683SOL     OW 5947   5.828   5.363   2.503
 1683SOL    HW1 5948   5.791   5.272   2.486
 1683SOL    HW2 5949   5.927   5.358   2.514
 1684SOL     OW 5950   0.158   5.755   2.174
 1684SOL    HW1 5951   0.061   5.756   2.150
 1684SOL    HW2 5952   0.209   5.702   2.106
 1685SOL     OW 5953   2.061   1.256   5.877
 1685SOL    HW1 5954   1.967   1.286   5.862
 1685SOL    HW2 5955   2.061   1.167   5.923
 1686SOL     OW 5956   2.525   6.098   4.317
 1686SOL    HW1 5957   2.461   6.098   4.240
 1686SOL    HW2 5958   2.587   6.176   4.310
 1687SOL     OW 5959   1.198   2.450   1.965
 1687SOL    HW1 5960   1.115   2.416   2.007
 1687SOL    HW2 5961   1.256   2.492   2.035
 1688SOL     OW 5962   1.977   1.392   3.725
 1688SOL    HW1 5963   2.003   1.295   3.722
 1688SOL    HW2 5964   2.014   1.439   3.646
 1689SOL     OW 5965   6.411   0.729   3.157
 1689SOL    HW1 5966   6.407   0.746   3.059
 1689SOL    HW2 5967   6.323   0.754   3.199
 1690SOL     OW 5968   1.469   2.749   4.530
 1690SOL    HW1 5969   1.398   2.703   4.477
 1690SOL    HW2 5970   1.538   2.787   4.469
 1691SOL     OW 5971   6.178   3.151   3.738
 1691SOL    HW1 5972   6.141   3.236   3.775
 1691SOL    HW2 5973   6.103   3.089   3.714
 1692SOL     OW 5974   4.488   6.049   1.485
 1692SOL    HW1 5975   4.570   5.992   1.473
 1692SOL    HW2 5976   4.480   6.113   1.409
 1693SOL     OW 5977   6.487   2.321   3.217
 1693SOL    HW1 5978   6.537   2.356   3.138
 1693SOL    HW2 5979   6.502   2.382   3.295
 1694SOL     OW 5980   6.361   1.833   3.876
 1694SOL    HW1 5981   6.448   1.882   3.876
 1694SOL    HW2 5982   6.352   1.781   3.791
 1695SOL     OW 5983   3.171   0.723   6.305
 1695SOL    HW1 5984   3.220   0.803   6.272
 1695SOL    HW2 5985   3.079   0.750   6.335
 1696SOL     OW 5986   3.177   5.902   1.056
 1696SOL    HW1 5987   3.242   5.937   0.989
 1696SOL    HW2 5988   3.205   5.929   1.148
 1697SOL     OW 5989   6.732   1.472   0.747
 1697SOL    HW1 5990   6.798   1.398   0.732
 1697SOL    HW2 5991   6.641   1.442   0.716
 1698SOL     OW 5992   3.872   0.146   1.328
 1698SOL    HW1 5993   3.935   0.136   1.405
 1698SOL    HW2 5994   3.920   0.189   1.251
 1699SOL     OW 5995   1.605   1.661   6.015
 1699SOL    HW1 5996   1.693   1.619   6.037
 1699SOL    HW2 5997   1.616   1.761   6.013
 1700SOL     OW 5998   6.575   4.131   2.964
 1700SOL    HW1 5999   6.522   4.073   2.902
 1700SOL    HW2 6000   6.665   4.089   2.978
 1701SOL     OW 6001   5.687   5.991   5.725
 1701SOL    HW1 6002   5.688   6.039   5.813
 1701SOL    HW2 6003   5.629   5.910   5.732
 1702SOL     OW 6004   0.041   1.448   1.264
 1702SOL    HW1 6005   0.040   1.357   1.223
 1702SOL    HW2 6006   0.063   1.516   1.193
 1703SOL     OW 6007   3.742   1.313   6.758
 1703SOL    HW1 6008   3.827   1.366   6.753
 1703SOL    HW2 6009   3.671   1.369   6.801
 1704SOL     OW 6010   1.455   2.635   0.158
 1704SOL    HW1 6011   1.431   2.556   0.214
 1704SOL    HW2 6012   1.491   2.708   0.217
 1705SOL     OW 6013   3.489   2.355   1.703
 1705SOL    HW1 6014   3.436   2.282   1.661
 1705SOL    HW2 6015   3.567   2.316   1.751
 1706SOL     OW 6016   4.188   1.997   2.298
 1706SOL    HW1 6017   4.163   2.093   2.310
 1706SOL    HW2 6018   4.222   1.982   2.206
 1707SOL     OW 6019   4.559   2.600   2.765
 1707SOL    HW1 6020   4.643   2.556   2.732
 1707SOL    HW2 6021   4.580   2.657   2.844
 1708SOL     OW 6022   4.507   5.321   1.627
 1708SOL    HW1 6023   4.449   5.352   1.701
 1708SOL    HW2 6024   4.451   5.276   1.557
 1709SOL     OW 6025   3.503   6.400   2.704
 1709SOL    HW1 6026   3.434   6.366   2.640
 1709SOL    HW2 6027   3.594   6.388   2.664
 1710SOL     OW 6028   4.427   4.891   3.532
 1710SOL    HW1 6029   4.525   4.907   3.543
 1710SOL    HW2 6030   4.410   4.793   3.519
 1711SOL     OW 6031   2.055   5.333   4.658
 1711SOL    HW1 6032   2.086   5.375   4.573
 1711SOL    HW2 6033   2.093   5.383   4.736
 1712SOL     OW 6034   7.007   2.195   5.073
 1712SOL    HW1 6035   0.000   2.288   5.042
 1712SOL    HW2 6036   6.916   2.191   5.113
 1713SOL     OW 6037   4.029   1.406   2.452
 1713SOL    HW1 6038   4.122   1.417   2.416
 1713SOL    HW2 6039   4.007   1.484   2.510
 1714SOL     OW 6040   3.988   1.873   5.870
 1714SOL    HW1 6041   4.040   1.799   5.913
 1714SOL    HW2 6042   3.891   1.850   5.872
 1715SOL     OW 6043   1.811   6.436   3.240
 1715SOL    HW1 6044   1.811   6.447   3.141
 1715SOL    HW2 6045   1.894   6.387   3.267
 1716SOL     OW 6046   4.301   0.347   3.898
 1716SOL    HW1 6047   4.289   0.249   3.881
 1716SOL    HW2 6048   4.383   0.362   3.953
 1717SOL     OW 6049   3.283   5.884   4.311
 1717SOL    HW1 6050   3.353   5.954   4.323
 1717SOL    HW2 6051   3.227   5.877   4.393
 1718SOL     OW 6052   2.614   1.130   2.223
 1718SOL    HW1 6053   2.635   1.185   2.304
 1718SOL    HW2 6054   2.519   1.098   2.229
 1719SOL     OW 6055   2.101   3.167   0.944
 1719SOL    HW1 6056   2.051   3.125   0.868
 1719SOL    HW2 6057   2.147   3.096   0.997
 1720SOL     OW 6058   0.129   3.090   6.258
 1720SOL    HW1 6059   0.208   3.053   6.208
 1720SOL    HW2 6060   0.059   3.019   6.266
 1721SOL     OW 6061   1.533   6.650   1.662
 1721SOL    HW1 6062   1.610   6.637   1.599
 1721SOL    HW2 6063   1.567   6.687   1.749
 1722SOL     OW 6064   4.095   1.458   3.666
 1722SOL    HW1 6065   4.026   1.521   3.701
 1722SOL    HW2 6066   4.096   1.463   3.566
 1723SOL     OW 6067   5.119   2.667   6.888
 1723SOL    HW1 6068   5.145   2.582   6.933
 1723SOL    HW2 6069   5.019   2.677   6.891
 1724SOL     OW 6070   6.878   2.639   2.047
 1724SOL    HW1 6071   6.853   2.695   1.968
 1724SOL    HW2 6072   6.867   2.542   2.025
 1725SOL     OW 6073   2.143   4.843   6.973
 1725SOL    HW1 6074   2.183   4.903   6.903
 1725SOL    HW2 6075   2.151   4.886   0.037
 1726SOL     OW 6076   5.195   3.707   4.518
 1726SOL    HW1 6077   5.242   3.692   4.605
 1726SOL    HW2 6078   5.221   3.796   4.481
 1727SOL     OW 6079   4.074   3.559   3.627
 1727SOL    HW1 6080   4.129   3.585   3.548
 1727SOL    HW2 6081   4.103   3.612   3.707
 1728SOL     OW 6082   5.697   4.662   5.584
 1728SOL    HW1 6083   5.693   4.564   5.605
 1728SOL    HW2 6084   5.674   4.714   5.666
 1729SOL     OW 6085   1.929   3.520   3.147
 1729SOL    HW1 6086   1.857   3.464   3.106
 1729SOL    HW2 6087   1.965   3.583   3.078
 1730SOL     OW 6088   2.706   6.853   4.711
 1730SOL    HW1 6089   2.671   6.780   4.654
 1730SOL    HW2 6090   2.791   6.889   4.672
 1731SOL     OW 6091   6.535   4.187   3.489
 1731SOL    HW1 6092   6.503   4.100   3.525
 1731SOL    HW2 6093   6.481   4.213   3.409
 1732SOL     OW 6094   2.136   4.712   6.522
 1732SOL    HW1 6095   2.109   4.737   6.429
 1732SOL    HW2 6096   2.122   4.614   6.535
 1733SOL     OW 6097   1.895   4.315   1.700
 1733SOL    HW1 6098   1.988   4.352   1.703
 1733SOL    HW2 6099   1.899   4.215   1.695
 1734SOL     OW 6100   5.499   2.982   1.701
 1734SOL    HW1 6101   5.480   2.958   1.606
 1734SOL    HW2 6102   5.486   2.902   1.760
 1735SOL     OW 6103   4.985   5.652   6.129
 1735SOL    HW1 6104   5.046   5.652   6.209
 1735SOL    HW2 6105   5.031   5.608   6.052
 1736SOL     OW 6106   4.043   3.598   0.634
 1736SOL    HW1 6107   3.973   3.624   0.568
 1736SOL    HW2 6108   3.999   3.566   0.718
 1737SOL     OW 6109   4.768   6.471   5.030
 1737SOL    HW1 6110   4.753   6.548   4.969
 1737SOL    HW2 6111   4.796   6.504   5.121
 1738SOL     OW 6112   2.196   2.974   3.675
 1738SOL    HW1 6113   2.266   2.921   3.722
 1738SOL    HW2 6114   2.166   3.049   3.734
 1739SOL     OW 6115   6.695   1.756   4.425
 1739SOL    HW1 6116   6.727   1.807   4.504
 1739SOL    HW2 6117   6.600   1.780   4.405
 1740SOL     OW 6118   6.928   1.998   4.865
 1740SOL    HW1 6119   7.002   2.008   4.798
 1740SOL    HW2 6120   6.964   2.018   4.956
 1741SOL     OW 6121   2.575   1.030   4.963
 1741SOL    HW1 6122   2.618   1.021   4.873
 1741SOL    HW2 6123   2.625   0.975   5.030
 1742SOL     OW 6124   5.450   0.776   5.681
 1742SOL    HW1 6125   5.398   0.772   5.767
 1742SOL    HW2 6126   5.518   0.849   5.687
 1743SOL     OW 6127   0.591   1.159   2.326
 1743SOL    HW1 6128   0.512   1.220   2.336
 1743SOL    HW2 6129   0.628   1.137   2.417
 1744SOL     OW 6130   5.728   3.349   3.205
 1744SOL    HW1 6131   5.779   3.434   3.213
 1744SOL    HW2 6132   5.756   3.301   3.122
 1745SOL     OW 6133   5.271   6.416   2.658
 1745SOL    HW1 6134   5.296   6.420   2.755
 1745SOL    HW2 6135   5.252   6.321   2.633
 1746SOL     OW 6136   1.485   4.551   4.344
 1746SOL    HW1 6137   1.536   4.464   4.344
 1746SOL    HW2 6138   1.387   4.532   4.337
 1747SOL     OW 6139   3.209   1.394   2.334
 1747SOL    HW1 6140   3.274   1.458   2.373
 1747SOL    HW2 6141   3.258   1.314   2.298
 1748SOL     OW 6142   6.674   2.085   4.024
 1748SOL    HW1 6143   6.581   2.120   4.015
 1748SOL    HW2 6144   6.671   1.987   4.046
 1749SOL     OW 6145   2.000   0.059   6.389
 1749SOL    HW1 6146   2.093   0.096   6.386
 1749SOL    HW2 6147   1.979   0.028   6.481
 1750SOL     OW 6148   5.737   0.451   3.914
 1750SOL    HW1 6149   5.704   0.482   3.824
 1750SOL    HW2 6150   5.808   0.382   3.901
 1751SOL     OW 6151   5.477   1.674   5.193
 1751SOL    HW1 6152   5.513   1.648   5.282
 1751SOL    HW2 6153   5.546   1.658   5.123
 1752SOL     OW 6154   5.837   0.544   1.459
 1752SOL    HW1 6155   5.788   0.531   1.372
 1752SOL    HW2 6156   5.815   0.635   1.496
 1753SOL     OW 6157   6.891   0.592   1.963
 1753SOL    HW1 6158   6.813   0.531   1.947
 1753SOL    HW2 6159   6.901   0.654   1.885
 1754SOL     OW 6160   1.829   5.466   6.587
 1754SOL    HW1 6161   1.918   5.511   6.588
 1754SOL    HW2 6162   1.841   5.368   6.570
 1755SOL     OW 6163   0.218   6.134   6.768
 1755SOL    HW1 6164   0.204   6.095   6.677
 1755SOL    HW2 6165   0.234   6.233   6.760
 1756SOL     OW 6166   4.294   5.753   6.432
 1756SOL    HW1 6167   4.389   5.745   6.401
 1756SOL    HW2 6168   4.245   5.667   6.414
 1757SOL     OW 6169   3.594   5.444   5.010
 1757SOL    HW1 6170   3.545   5.526   5.040
 1757SOL    HW2 6171   3.571   5.368   5.071
 1758SOL     OW 6172   1.450   0.769   4.460
 1758SOL    HW1 6173   1.481   0.862   4.441
 1758SOL    HW2 6174   1.484   0.740   4.550
 1759SOL     OW 6175   2.222   6.430   5.392
 1759SOL    HW1 6176   2.220   6.447   5.490
 1759SOL    HW2 6177   2.239   6.333   5.375
 1760SOL     OW 6178   6.206   0.971   3.980
 1760SOL    HW1 6179   6.290   1.004   3.937
 1760SOL    HW2 6180   6.221   0.878   4.015
 1761SOL     OW 6181   6.777   0.706   1.502
 1761SOL    HW1 6182   6.734   0.750   1.581
 1761SOL    HW2 6183   6.818   0.777   1.443
 1762SOL     OW 6184   0.253   1.765   4.593
 1762SOL    HW1 6185   0.176   1.707   4.567
 1762SOL    HW2 6186   0.318   1.711   4.648
 1763SOL     OW 6187   1.247   4.840   4.560
 1763SOL    HW1 6188   1.296   4.811   4.478
 1763SOL    HW2 6189   1.310   4.841   4.638
 1764SOL     OW 6190   1.104   3.413   2.228
 1764SOL    HW1 6191   1.123   3.375   2.318
 1764SOL    HW2 6192   1.129   3.510   2.226
 1765SOL     OW 6193   3.553   1.546   1.535
 1765SOL    HW1 6194   3.468   1.560   1.484
 1765SOL    HW2 6195   3.624   1.512   1.472
 1766SOL     OW 6196   5.538   4.496   3.960
 1766SOL    HW1 6197   5.548   4.400   3.988
 1766SOL    HW2 6198   5.575   4.555   4.032
 1767SOL     OW 6199   0.722   5.009   3.415
 1767SOL    HW1 6200   0.786   5.085   3.402
 1767SOL    HW2 6201   0.720   4.983   3.511
 1768SOL     OW 6202   3.778   1.038   6.875
 1768SOL    HW1 6203   3.869   1.004   6.853
 1768SOL    HW2 6204   3.760   1.122   6.823
 1769SOL     OW 6205   5.964   0.914   6.884
 1769SOL    HW1 6206   5.886   0.854   6.902
 1769SOL    HW2 6207   5.969   0.985   6.955
 1770SOL     OW 6208   0.599   4.706   4.986
 1770SOL    HW1 6209   0.582   4.656   5.071
 1770SOL    HW2 6210   0.696   4.726   4.977
 1771SOL     OW 6211   1.441   5.182   0.678
 1771SOL    HW1 6212   1.464   5.227   0.592
 1771SOL    HW2 6213   1.348   5.145   0.673
 1772SOL     OW 6214   3.462   5.676   3.907
 1772SOL    HW1 6215   3.542   5.735   3.899
 1772SOL    HW2 6216   3.483   5.586   3.869
 1773SOL     OW 6217   2.049   2.184   5.997
 1773SOL    HW1 6218   2.047   2.211   5.900
 1773SOL    HW2 6219   2.141   2.198   6.033
 1774SOL     OW 6220   5.169   6.347   1.908
 1774SOL    HW1 6221   5.192   6.393   1.822
 1774SOL    HW2 6222   5.186   6.249   1.899
 1775SOL     OW 6223   1.960   5.703   6.176
 1775SOL    HW1 6224   1.926   5.697   6.082
 1775SOL    HW2 6225   2.039   5.643   6.186
 1776SOL     OW 6226   5.091   0.959   6.122
 1776SOL    HW1 6227   4.991   0.964   6.129
 1776SOL    HW2 6228   5.118   0.970   6.026
 1777SOL     OW 6229   3.436   7.025   6.719
 1777SOL    HW1 6230   3.483   6.997   6.635
 1777SOL    HW2 6231   3.411   0.096   6.711
 1778SOL     OW 6232   4.741   1.821   4.562
 1778SOL    HW1 6233   4.780   1.898   4.612
 1778SOL    HW2 6234   4.687   1.764   4.624
 1779SOL     OW 6235   4.847   0.485   5.701
 1779SOL    HW1 6236   4.877   0.390   5.691
 1779SOL    HW2 6237   4.887   0.540   5.628
 1780SOL     OW 6238   1.892   3.523   5.111
 1780SOL    HW1 6239   1.985   3.557   5.098
 1780SOL    HW2 6240   1.848   3.574   5.185
 1781SOL     OW 6241   5.211   6.852   5.520
 1781SOL    HW1 6242   5.298   6.900   5.510
 1781SOL    HW2 6243   5.166   6.845   5.431
 1782SOL     OW 6244   2.223   1.056   2.864
 1782SOL    HW1 6245   2.300   0.991   2.869
 1782SOL    HW2 6246   2.255   1.141   2.821
 1783SOL     OW 6247   2.441   3.697   6.295
 1783SOL    HW1 6248   2.468   3.791   6.277
 1783SOL    HW2 6249   2.522   3.639   6.303
 1784SOL     OW 6250   2.174   1.431   1.202
 1784SOL    HW1 6251   2.191   1.342   1.159
 1784SOL    HW2 6252   2.198   1.427   1.299
 1785SOL     OW 6253   6.748   6.688   4.390
 1785SOL    HW1 6254   6.765   6.636   4.306
 1785SOL    HW2 6255   6.656   6.728   4.387
 1786SOL     OW 6256   1.961   5.350   0.208
 1786SOL    HW1 6257   1.986   5.438   0.248
 1786SOL    HW2 6258   1.924   5.290   0.279
 1787SOL     OW 6259   1.874   2.273   5.512
 1787SOL    HW1 6260   1.781   2.239   5.529
 1787SOL    HW2 6261   1.933   2.249   5.589
 1788SOL     OW 6262   4.694   4.149   6.578
 1788SOL    HW1 6263   4.704   4.085   6.654
 1788SOL    HW2 6264   4.685   4.098   6.492
 1789SOL     OW 6265   6.243   3.077   1.555
 1789SOL    HW1 6266   6.312   3.138   1.594
 1789SOL    HW2 6267   6.172   3.060   1.623
 1790SOL     OW 6268   2.817   1.358   4.277
 1790SOL    HW1 6269   2.897   1.299   4.268
 1790SOL    HW2 6270   2.775   1.343   4.367
 1791SOL     OW 6271   6.834   1.401   3.181
 1791SOL    HW1 6272   6.750   1.393   3.235
 1791SOL    HW2 6273   6.896   1.325   3.204
 1792SOL     OW 6274   0.405   2.268   4.601
 1792SOL    HW1 6275   0.317   2.288   4.558
 1792SOL    HW2 6276   0.420   2.169   4.599
 1793SOL     OW 6277   6.431   1.777   4.363
 1793SOL    HW1 6278   6.383   1.710   4.306
 1793SOL    HW2 6279   6.383   1.787   4.451
 1794SOL     OW 6280   5.716   0.328   5.588
 1794SOL    HW1 6281   5.662   0.359   5.666
 1794SOL    HW2 6282   5.749   0.407   5.536
 1795SOL     OW 6283   6.147   4.864   1.368
 1795SOL    HW1 6284   6.167   4.941   1.308
 1795SOL    HW2 6285   6.222   4.852   1.433
 1796SOL     OW 6286   2.244   1.318   5.536
 1796SOL    HW1 6287   2.165   1.283   5.587
 1796SOL    HW2 6288   2.217   1.402   5.488
 1797SOL     OW 6289   1.362   7.019   5.722
 1797SOL    HW1 6290   1.407   6.937   5.685
 1797SOL    HW2 6291   1.426   0.042   5.781
 1798SOL     OW 6292   3.635   2.914   4.859
 1798SOL    HW1 6293   3.646   2.830   4.913
 1798SOL    HW2 6294   3.632   2.993   4.920
 1799SOL     OW 6295   4.040   2.592   6.561
 1799SOL    HW1 6296   4.082   2.567   6.648
 1799SOL    HW2 6297   3.998   2.682   6.568
 1800SOL     OW 6298   5.391   4.721   3.815
 1800SOL    HW1 6299   5.456   4.794   3.791
 1800SOL    HW2 6300   5.313   4.724   3.752
 1801SOL     OW 6301   0.975   1.765   1.945
 1801SOL    HW1 6302   1.064   1.735   1.909
 1801SOL    HW2 6303   0.918   1.798   1.870
 1802SOL     OW 6304   6.213   5.807   3.445
 1802SOL    HW1 6305   6.256   5.870   3.509
 1802SOL    HW2 6306   6.116   5.796   3.469
 1803SOL     OW 6307   0.106   6.513   2.513
 1803SOL    HW1 6308   0.159   6.534   2.595
 1803SOL    HW2 6309   0.088   6.597   2.462
 1804SOL     OW 6310   3.533   3.337   5.247
 1804SOL    HW1 6311   3.499   3.247   5.220
 1804SOL    HW2 6312   3.567   3.385   5.166
 1805SOL     OW 6313   1.077   5.439   6.364
 1805SOL    HW1 6314   1.123   5.355   6.336
 1805SOL    HW2 6315   1.133   5.487   6.431
 1806SOL     OW 6316   0.452   2.628   1.843
 1806SOL    HW1 6317   0.370   2.672   1.808
 1806SOL    HW2 6318   0.483   2.676   1.925
 1807SOL     OW 6319   5.964   3.500   6.978
 1807SOL    HW1 6320   6.047   3.550   6.952
 1807SOL    HW2 6321   5.947   3.513   0.050
 1808SOL     OW 6322   5.989   3.584   4.448
 1808SOL    HW1 6323   6.081   3.551   4.470
 1808SOL    HW2 6324   5.940   3.606   4.532
 1809SOL     OW 6325   3.136   1.136   5.045
 1809SOL    HW1 6326   3.047   1.138   5.000
 1809SOL    HW2 6327   3.205   1.174   4.984
 1810SOL     OW 6328   0.206   0.947   5.248
 1810SOL    HW1 6329   0.245   0.924   5.337
 1810SOL    HW2 6330   0.107   0.958   5.257
 1811SOL     OW 6331   5.372   4.612   1.614
 1811SOL    HW1 6332   5.284   4.582   1.579
 1811SOL    HW2 6333   5.425   4.654   1.540
 1812SOL     OW 6334   4.323   6.756   6.310
 1812SOL    HW1 6335   4.394   6.686   6.317
 1812SOL    HW2 6336   4.234   6.714   6.328
 1813SOL     OW 6337   4.814   4.167   2.124
 1813SOL    HW1 6338   4.723   4.198   2.099
 1813SOL    HW2 6339   4.824   4.170   2.223
 1814SOL     OW 6340   6.041   6.637   0.725
 1814SOL    HW1 6341   5.947   6.619   0.698
 1814SOL    HW2 6342   6.103   6.605   0.653
 1815SOL     OW 6343   5.949   6.800   2.882
 1815SOL    HW1 6344   5.856   6.767   2.863
 1815SOL    HW2 6345   5.997   6.734   2.939
 1816SOL     OW 6346   3.859   5.510   6.516
 1816SOL    HW1 6347   3.865   5.582   6.447
 1816SOL    HW2 6348   3.841   5.422   6.471
 1817SOL     OW 6349   3.390   1.107   3.620
 1817SOL    HW1 6350   3.426   1.074   3.533
 1817SOL    HW2 6351   3.445   1.071   3.695
 1818SOL     OW 6352   1.993   6.570   0.238
 1818SOL    HW1 6353   2.085   6.538   0.260
 1818SOL    HW2 6354   1.928   6.533   0.304
 1819SOL     OW 6355   1.423   5.003   2.389
 1819SOL    HW1 6356   1.384   4.932   2.448
 1819SOL    HW2 6357   1.520   4.986   2.375
 1820SOL     OW 6358   3.912   0.307   2.936
 1820SOL    HW1 6359   3.842   0.360   2.982
 1820SOL    HW2 6360   3.999   0.357   2.938
 1821SOL     OW 6361   3.439   1.245   1.761
 1821SOL    HW1 6362   3.441   1.343   1.781
 1821SOL    HW2 6363   3.350   1.221   1.724
 1822SOL     OW 6364   1.260   3.174   1.789
 1822SOL    HW1 6365   1.228   3.243   1.723
 1822SOL    HW2 6366   1.291   3.093   1.740
 1823SOL     OW 6367   3.254   6.202   3.398
 1823SOL    HW1 6368   3.318   6.165   3.331
 1823SOL    HW2 6369   3.299   6.209   3.487
 1824SOL     OW 6370   3.892   3.862   0.291
 1824SOL    HW1 6371   3.855   3.951   0.266
 1824SOL    HW2 6372   3.826   3.790   0.267
 1825SOL     OW 6373   0.331   3.092   4.978
 1825SOL    HW1 6374   0.327   3.154   5.056
 1825SOL    HW2 6375   0.381   3.009   5.003
 1826SOL     OW 6376   3.892   1.406   0.399
 1826SOL    HW1 6377   3.850   1.463   0.469
 1826SOL    HW2 6378   3.836   1.326   0.382
 1827SOL     OW 6379   4.962   5.571   1.016
 1827SOL    HW1 6380   4.900   5.564   0.938
 1827SOL    HW2 6381   4.952   5.490   1.074
 1828SOL     OW 6382   1.882   3.417   6.963
 1828SOL    HW1 6383   1.818   3.370   6.902
 1828SOL    HW2 6384   1.894   3.363   0.021
 1829SOL     OW 6385   3.626   0.231   3.461
 1829SOL    HW1 6386   3.652   0.270   3.549
 1829SOL    HW2 6387   3.527   0.233   3.451
 1830SOL     OW 6388   5.784   6.838   5.191
 1830SOL    HW1 6389   5.843   6.790   5.127
 1830SOL    HW2 6390   5.727   6.904   5.141
 1831SOL     OW 6391   4.768   5.950   2.755
 1831SOL    HW1 6392   4.706   5.875   2.735
 1831SOL    HW2 6393   4.791   5.998   2.671
 1832SOL     OW 6394   2.944   3.376   0.062
 1832SOL    HW1 6395   2.914   3.295   0.113
 1832SOL    HW2 6396   3.043   3.372   0.050
 1833SOL     OW 6397   4.861   0.022   1.223
 1833SOL    HW1 6398   4.808   0.094   1.178
 1833SOL    HW2 6399   4.949   0.059   1.251
 1834SOL     OW 6400   2.728   2.904   1.189
 1834SOL    HW1 6401   2.808   2.881   1.134
 1834SOL    HW2 6402   2.754   2.972   1.258
 1835SOL     OW 6403   0.538   4.842   1.730
 1835SOL    HW1 6404   0.588   4.867   1.813
 1835SOL    HW2 6405   0.473   4.770   1.750
 1836SOL     OW 6406   5.759   1.995   2.179
 1836SOL    HW1 6407   5.740   2.057   2.255
 1836SOL    HW2 6408   5.824   2.038   2.116
 1837SOL     OW 6409   2.380   0.512   5.620
 1837SOL    HW1 6410   2.478   0.496   5.612
 1837SOL    HW2 6411   2.364   0.610   5.637
 1838SOL     OW 6412   6.594   0.498   6.768
 1838SOL    HW1 6413   6.507   0.520   6.810
 1838SOL    HW2 6414   6.595   0.529   6.673
 1839SOL     OW 6415   6.541   1.780   6.759
 1839SOL    HW1 6416   6.620   1.754   6.814
 1839SOL    HW2 6417   6.568   1.849   6.692
 1840SOL     OW 6418   3.983   0.698   2.702
 1840SOL    HW1 6419   3.965   0.771   2.637
 1840SOL    HW2 6420   3.945   0.722   2.791
 1841SOL     OW 6421   2.391   0.461   2.492
 1841SOL    HW1 6422   2.346   0.423   2.573
 1841SOL    HW2 6423   2.342   0.545   2.465
 1842SOL     OW 6424   1.212   5.048   0.593
 1842SOL    HW1 6425   1.213   5.014   0.499
 1842SOL    HW2 6426   1.126   5.096   0.611
 1843SOL     OW 6427   4.920   0.392   4.281
 1843SOL    HW1 6428   4.855   0.450   4.331
 1843SOL    HW2 6429   5.012   0.431   4.291
 1844SOL     OW 6430   5.200   2.017   5.310
 1844SOL    HW1 6431   5.220   1.919   5.307
 1844SOL    HW2 6432   5.112   2.032   5.355
 1845SOL     OW 6433   2.928   0.236   3.534
 1845SOL    HW1 6434   2.905   0.174   3.609
 1845SOL    HW2 6435   2.972   0.184   3.460
 1846SOL     OW 6436   5.387   1.171   3.315
 1846SOL    HW1 6437   5.399   1.270   3.322
 1846SOL    HW2 6438   5.398   1.142   3.220
 1847SOL     OW 6439   1.719   0.413   5.081
 1847SOL    HW1 6440   1.646   0.480   5.071
 1847SOL    HW2 6441   1.806   0.460   5.098
 1848SOL     OW 6442   1.843   6.490   4.368
 1848SOL    HW1 6443   1.765   6.434   4.395
 1848SOL    HW2 6444   1.928   6.446   4.398
 1849SOL     OW 6445   4.920   3.126   1.800
 1849SOL    HW1 6446   4.860   3.150   1.723
 1849SOL    HW2 6447   4.865   3.087   1.874
 1850SOL     OW 6448   5.400   1.487   2.302
 1850SOL    HW1 6449   5.382   1.484   2.204
 1850SOL    HW2 6450   5.444   1.573   2.326
 1851SOL     OW 6451   0.659   3.066   6.759
 1851SOL    HW1 6452   0.665   3.137   6.688
 1851SOL    HW2 6453   0.568   3.070   6.801
 1852SOL     OW 6454   6.900   4.906   1.198
 1852SOL    HW1 6455   6.913   5.005   1.198
 1852SOL    HW2 6456   6.889   4.874   1.104
 1853SOL     OW 6457   0.289   1.950   3.624
 1853SOL    HW1 6458   0.296   1.980   3.529
 1853SOL    HW2 6459   0.338   1.864   3.636
 1854SOL     OW 6460   1.557   5.453   3.297
 1854SOL    HW1 6461   1.635   5.478   3.238
 1854SOL    HW2 6462   1.493   5.397   3.244
 1855SOL     OW 6463   5.499   3.277   4.805
 1855SOL    HW1 6464   5.416   3.245   4.851
 1855SOL    HW2 6465   5.563   3.201   4.794
 1856SOL     OW 6466   4.301   3.572   6.489
 1856SOL    HW1 6467   4.328   3.623   6.570
 1856SOL    HW2 6468   4.202   3.567   6.484
 1857SOL     OW 6469   5.294   0.974   0.390
 1857SOL    HW1 6470   5.384   0.931   0.390
 1857SOL    HW2 6471   5.228   0.915   0.344
 1858SOL     OW 6472   5.215   2.973   3.343
 1858SOL    HW1 6473   5.267   3.052   3.309
 1858SOL    HW2 6474   5.190   2.914   3.267
 1859SOL     OW 6475   5.116   1.997   3.757
 1859SOL    HW1 6476   5.024   2.003   3.717
 1859SOL    HW2 6477   5.118   1.923   3.825
 1860SOL     OW 6478   0.671   1.964   5.240
 1860SOL    HW1 6479   0.575   1.952   5.263
 1860SOL    HW2 6480   0.679   1.985   5.143
 1861SOL     OW 6481   5.152   0.754   2.921
 1861SOL    HW1 6482   5.186   0.814   2.993
 1861SOL    HW2 6483   5.227   0.698   2.885
 1862SOL     OW 6484   1.098   0.261   0.128
 1862SOL    HW1 6485   1.028   0.309   0.181
 1862SOL    HW2 6486   1.187   0.304   0.142
 1863SOL     OW 6487   6.897   2.745   1.404
 1863SOL    HW1 6488   6.966   2.698   1.458
 1863SOL    HW2 6489   6.941   2.811   1.343
 1864SOL     OW 6490   3.236   5.846   4.041
 1864SOL    HW1 6491   3.237   5.862   4.139
 1864SOL    HW2 6492   3.307   5.779   4.017
 1865SOL     OW 6493   3.650   1.511   1.136
 1865SOL    HW1 6494   3.691   1.498   1.226
 1865SOL    HW2 6495   3.599   1.598   1.135
 1866SOL     OW 6496   6.486   4.554   4.192
 1866SOL    HW1 6497   6.505   4.582   4.098
 1866SOL    HW2 6498   6.445   4.630   4.242
 1867SOL     OW 6499   2.417   3.223   1.064
 1867SOL    HW1 6500   2.401   3.135   1.108
 1867SOL    HW2 6501   2.401   3.297   1.129
 1868SOL     OW 6502   4.880   3.461   5.519
 1868SOL    HW1 6503   4.967   3.452   5.469
 1868SOL    HW2 6504   4.861   3.558   5.536
 1869SOL     OW 6505   5.370   2.862   4.221
 1869SOL    HW1 6506   5.448   2.870   4.283
 1869SOL    HW2 6507   5.285   2.857   4.275
 1870SOL     OW 6508   0.573   3.317   4.840
 1870SOL    HW1 6509   0.474   3.306   4.834
 1870SOL    HW2 6510   0.608   3.348   4.751
 1871SOL     OW 6511   6.814   6.651   0.440
 1871SOL    HW1 6512   6.896   6.707   0.426
 1871SOL    HW2 6513   6.745   6.673   0.371
 1872SOL     OW 6514   3.515   2.652   0.779
 1872SOL    HW1 6515   3.579   2.727   0.762
 1872SOL    HW2 6516   3.421   2.683   0.760
 1873SOL     OW 6517   6.270   1.103   6.107
 1873SOL    HW1 6518   6.228   1.157   6.180
 1873SOL    HW2 6519   6.302   1.016   6.143
 1874SOL     OW 6520   1.100   1.082   6.772
 1874SOL    HW1 6521   1.052   1.055   6.856
 1874SOL    HW2 6522   1.072   1.174   6.746
 1875SOL     OW 6523   6.445   6.263   0.772
 1875SOL    HW1 6524   6.523   6.326   0.774
 1875SOL    HW2 6525   6.420   6.245   0.678
 1876SOL     OW 6526   5.345   6.724   6.050
 1876SOL    HW1 6527   5.316   6.819   6.067
 1876SOL    HW2 6528   5.439   6.724   6.015
 1877SOL     OW 6529   6.805   1.707   2.926
 1877SOL    HW1 6530   6.827   1.728   2.830
 1877SOL    HW2 6531   6.755   1.621   2.931
 1878SOL     OW 6532   6.894   4.474   3.207
 1878SOL    HW1 6533   6.833   4.498   3.131
 1878SOL    HW2 6534   6.842   4.430   3.280
 1879SOL     OW 6535   2.732   5.043   4.053
 1879SOL    HW1 6536   2.671   5.123   4.050
 1879SOL    HW2 6537   2.801   5.057   4.123
 1880SOL     OW 6538   0.941   2.203   2.929
 1880SOL    HW1 6539   0.865   2.266   2.910
 1880SOL    HW2 6540   0.950   2.137   2.855
 1881SOL     OW 6541   0.971   2.419   3.499
 1881SOL    HW1 6542   0.971   2.417   3.399
 1881SOL    HW2 6543   1.053   2.465   3.532
 1882SOL     OW 6544   0.959   6.294   6.828
 1882SOL    HW1 6545   0.949   6.326   6.922
 1882SOL    HW2 6546   1.056   6.276   6.810
 1883SOL     OW 6547   1.713   3.584   3.556
 1883SOL    HW1 6548   1.660   3.546   3.480
 1883SOL    HW2 6549   1.809   3.590   3.530
 1884SOL     OW 6550   5.028   1.058   1.893
 1884SOL    HW1 6551   5.045   1.131   1.827
 1884SOL    HW2 6552   4.933   1.027   1.886
 1885SOL     OW 6553   6.563   2.010   0.749
 1885SOL    HW1 6554   6.648   1.962   0.727
 1885SOL    HW2 6555   6.495   1.990   0.678
 1886SOL     OW 6556   2.037   2.062   6.874
 1886SOL    HW1 6557   2.133   2.090   6.883
 1886SOL    HW2 6558   2.029   1.995   6.801
 1887SOL     OW 6559   0.017   4.146   6.158
 1887SOL    HW1 6560   6.948   4.131   6.184
 1887SOL    HW2 6561   0.028   4.240   6.126
 1888SOL     OW 6562   2.246   1.372   6.154
 1888SOL    HW1 6563   2.187   1.382   6.074
 1888SOL    HW2 6564   2.254   1.460   6.201
 1889SOL     OW 6565   4.371   3.910   6.406
 1889SOL    HW1 6566   4.369   3.830   6.347
 1889SOL    HW2 6567   4.294   3.970   6.383
 1890SOL     OW 6568   1.778   5.602   6.334
 1890SOL    HW1 6569   1.862   5.627   6.284
 1890SOL    HW2 6570   1.801   5.542   6.410
 1891SOL     OW 6571   5.165   2.517   5.038
 1891SOL    HW1 6572   5.159   2.470   5.126
 1891SOL    HW2 6573   5.134   2.456   4.965
 1892SOL     OW 6574   3.876   5.815   1.104
 1892SOL    HW1 6575   3.841   5.776   1.189
 1892SOL    HW2 6576   3.976   5.818   1.108
 1893SOL     OW 6577   3.489   2.088   4.793
 1893SOL    HW1 6578   3.589   2.087   4.783
 1893SOL    HW2 6579   3.465   2.127   4.882
 1894SOL     OW 6580   4.119   3.592   1.459
 1894SOL    HW1 6581   4.050   3.646   1.507
 1894SOL    HW2 6582   4.171   3.537   1.525
 1895SOL     OW 6583   6.202   0.606   2.686
 1895SOL    HW1 6584   6.222   0.596   2.589
 1895SOL    HW2 6585   6.103   0.615   2.699
 1896SOL     OW 6586   6.582   0.804   3.358
 1896SOL    HW1 6587   6.539   0.892   3.381
 1896SOL    HW2 6588   6.535   0.764   3.279
 1897SOL     OW 6589   6.536   5.502   3.264
 1897SOL    HW1 6590   6.462   5.441   3.296
 1897SOL    HW2 6591   6.514   5.596   3.288
 1898SOL     OW 6592   3.770   6.276   1.587
 1898SOL    HW1 6593   3.830   6.324   1.651
 1898SOL    HW2 6594   3.822   6.203   1.542
 1899SOL     OW 6595   1.324   3.389   2.803
 1899SOL    HW1 6596   1.249   3.371   2.739
 1899SOL    HW2 6597   1.400   3.328   2.783
 1900SOL     OW 6598   0.954   6.923   6.307
 1900SOL    HW1 6599   0.997   6.891   6.392
 1900SOL    HW2 6600   0.956   7.023   6.304
 1901SOL     OW 6601   2.086   1.486   0.679
 1901SOL    HW1 6602   2.122   1.497   0.586
 1901SOL    HW2 6603   2.065   1.390   0.695
 1902SOL     OW 6604   1.609   2.650   4.775
 1902SOL    HW1 6605   1.670   2.574   4.753
 1902SOL    HW2 6606   1.548   2.668   4.699
 1903SOL     OW 6607   0.117   3.813   3.505
 1903SOL    HW1 6608   0.128   3.803   3.603
 1903SOL    HW2 6609   0.118   3.723   3.462
 1904SOL     OW 6610   6.804   0.068   4.668
 1904SOL    HW1 6611   6.745   0.020   4.603
 1904SOL    HW2 6612   6.866   0.129   4.618
 1905SOL     OW 6613   0.575   2.547   3.796
 1905SOL    HW1 6614   0.576   2.644   3.819
 1905SOL    HW2 6615   0.537   2.535   3.704
 1906SOL     OW 6616   3.024   0.278   5.580
 1906SOL    HW1 6617   3.104   0.285   5.640
 1906SOL    HW2 6618   2.989   0.184   5.582
 1907SOL     OW 6619   3.502   6.966   3.339
 1907SOL    HW1 6620   3.453   6.938   3.421
 1907SOL    HW2 6621   3.592   7.002   3.365
 1908SOL     OW 6622   4.562   1.042   5.410
 1908SOL    HW1 6623   4.490   1.029   5.479
 1908SOL    HW2 6624   4.581   1.140   5.401
 1909SOL     OW 6625   2.240   4.090   4.097
 1909SOL    HW1 6626   2.182   4.119   4.174
 1909SOL    HW2 6627   2.307   4.024   4.130
 1910SOL     OW 6628   5.711   2.743   6.361
 1910SOL    HW1 6629   5.641   2.777   6.298
 1910SOL    HW2 6630   5.706   2.795   6.447
 1911SOL     OW 6631   6.662   2.274   5.581
 1911SOL    HW1 6632   6.679   2.306   5.674
 1911SOL    HW2 6633   6.571   2.233   5.575
 1912SOL     OW 6634   3.744   6.360   2.521
 1912SOL    HW1 6635   3.734   6.268   2.482
 1912SOL    HW2 6636   3.743   6.428   2.448
 1913SOL     OW 6637   1.585   6.324   5.071
 1913SOL    HW1 6638   1.532   6.352   5.151
 1913SOL    HW2 6639   1.656   6.259   5.099
 1914SOL     OW 6640   2.808   2.442   6.508
 1914SOL    HW1 6641   2.744   2.378   6.466
 1914SOL    HW2 6642   2.757   2.520   6.544
 1915SOL     OW 6643   3.707   1.334   5.538
 1915SOL    HW1 6644   3.752   1.408   5.588
 1915SOL    HW2 6645   3.645   1.373   5.470
 1916SOL     OW 6646   3.618   5.580   0.842
 1916SOL    HW1 6647   3.605   5.529   0.927
 1916SOL    HW2 6648   3.666   5.523   0.775
 1917SOL     OW 6649   3.779   3.273   4.688
 1917SOL    HW1 6650   3.695   3.313   4.724
 1917SOL    HW2 6651   3.784   3.288   4.589
 1918SOL     OW 6652   6.189   6.658   6.057
 1918SOL    HW1 6653   6.139   6.590   6.004
 1918SOL    HW2 6654   6.271   6.685   6.008
 1919SOL     OW 6655   1.048   6.750   2.292
 1919SOL    HW1 6656   1.002   6.714   2.373
 1919SOL    HW2 6657   0.997   6.828   2.257
 1920SOL     OW 6658   0.477   4.764   3.206
 1920SOL    HW1 6659   0.390   4.718   3.191
 1920SOL    HW2 6660   0.461   4.850   3.255
 1921SOL     OW 6661   0.409   5.071   0.181
 1921SOL    HW1 6662   0.314   5.079   0.149
 1921SOL    HW2 6663   0.430   4.975   0.198
 1922SOL     OW 6664   4.068   3.105   0.973
 1922SOL    HW1 6665   4.044   3.089   1.068
 1922SOL    HW2 6666   4.041   3.025   0.918
 1923SOL     OW 6667   2.799   1.205   6.784
 1923SOL    HW1 6668   2.848   1.285   6.818
 1923SOL    HW2 6669   2.824   1.188   6.689
 1924SOL     OW 6670   5.651   5.498   2.710
 1924SOL    HW1 6671   5.672   5.447   2.793
 1924SOL    HW2 6672   5.705   5.463   2.634
 1925SOL     OW 6673   3.021   3.880   1.909
 1925SOL    HW1 6674   3.033   3.783   1.890
 1925SOL    HW2 6675   3.003   3.893   2.007
 1926SOL     OW 6676   1.076   7.008   3.670
 1926SOL    HW1 6677   1.105   0.046   3.599
 1926SOL    HW2 6678   1.048   0.034   3.751
 1927SOL     OW 6679   3.705   5.021   6.521
 1927SOL    HW1 6680   3.620   5.067   6.496
 1927SOL    HW2 6681   3.693   4.922   6.511
 1928SOL     OW 6682   6.692   3.572   6.144
 1928SOL    HW1 6683   6.672   3.492   6.200
 1928SOL    HW2 6684   6.791   3.581   6.132
 1929SOL     OW 6685   0.300   5.662   1.425
 1929SOL    HW1 6686   0.379   5.704   1.382
 1929SOL    HW2 6687   0.263   5.591   1.364
 1930SOL     OW 6688   4.911   4.404   7.014
 1930SOL    HW1 6689   4.867   4.465   0.054
 1930SOL    HW2 6690   4.999   4.443   6.987
 1931SOL     OW 6691   6.888   3.410   3.115
 1931SOL    HW1 6692   6.988   3.414   3.116
 1931SOL    HW2 6693   6.853   3.430   3.207
 1932SOL     OW 6694   5.262   3.810   3.053
 1932SOL    HW1 6695   5.207   3.860   3.120
 1932SOL    HW2 6696   5.209   3.800   2.969
 1933SOL     OW 6697   2.522   4.870   1.154
 1933SOL    HW1 6698   2.601   4.931   1.143
 1933SOL    HW2 6699   2.510   4.848   1.251
 1934SOL     OW 6700   0.590   0.311   5.726
 1934SOL    HW1 6701   0.600   0.331   5.823
 1934SOL    HW2 6702   0.617   0.391   5.672
 1935SOL     OW 6703   3.096   0.718   5.038
 1935SOL    HW1 6704   3.161   0.715   4.962
 1935SOL    HW2 6705   3.048   0.630   5.044
 1936SOL     OW 6706   5.926   4.605   4.093
 1936SOL    HW1 6707   5.926   4.524   4.035
 1936SOL    HW2 6708   5.995   4.596   4.164
 1937SOL     OW 6709   4.106   6.254   1.829
 1937SOL    HW1 6710   4.041   6.329   1.825
 1937SOL    HW2 6711   4.068   6.180   1.884
 1938SOL     OW 6712   4.513   1.566   2.841
 1938SOL    HW1 6713   4.419   1.582   2.870
 1938SOL    HW2 6714   4.561   1.513   2.911
 1939SOL     OW 6715   0.414   6.660   4.391
 1939SOL    HW1 6716   0.384   6.644   4.297
 1939SOL    HW2 6717   0.334   6.659   4.452
 1940SOL     OW 6718   4.832   5.369   5.510
 1940SOL    HW1 6719   4.811   5.371   5.412
 1940SOL    HW2 6720   4.929   5.388   5.524
 1941SOL     OW 6721   6.943   4.037   3.484
 1941SOL    HW1 6722   6.854   4.008   3.518
 1941SOL    HW2 6723   7.012   3.968   3.507
 1942SOL     OW 6724   6.631   0.094   2.841
 1942SOL    HW1 6725   6.620   0.146   2.756
 1942SOL    HW2 6726   6.545   0.051   2.865
 1943SOL     OW 6727   2.955   6.316   2.283
 1943SOL    HW1 6728   3.042   6.342   2.240
 1943SOL    HW2 6729   2.957   6.218   2.304
 1944SOL     OW 6730   4.713   2.442   6.151
 1944SOL    HW1 6731   4.770   2.511   6.195
 1944SOL    HW2 6732   4.770   2.365   6.121
 1945SOL     OW 6733   4.111   5.738   2.572
 1945SOL    HW1 6734   4.099   5.812   2.506
 1945SOL    HW2 6735   4.096   5.650   2.527
 1946SOL     OW 6736   6.963   0.703   6.984
 1946SOL    HW1 6737   6.880   0.758   6.991
 1946SOL    HW2 6738   6.959   0.629   0.025
 1947SOL     OW 6739   5.206   6.471   3.602
 1947SOL    HW1 6740   5.169   6.449   3.512
 1947SOL    HW2 6741   5.230   6.387   3.650
 1948SOL     OW 6742   6.375   5.596   3.650
 1948SOL    HW1 6743   6.448   5.617   3.585
 1948SOL    HW2 6744   6.367   5.670   3.716
 1949SOL     OW 6745   4.574   4.830   5.881
 1949SOL    HW1 6746   4.551   4.925   5.861
 1949SOL    HW2 6747   4.495   4.784   5.921
 1950SOL     OW 6748   3.729   4.072   1.066
 1950SOL    HW1 6749   3.793   4.146   1.044
 1950SOL    HW2 6750   3.688   4.038   0.981
 1951SOL     OW 6751   6.351   3.845   0.428
 1951SOL    HW1 6752   6.269   3.812   0.476
 1951SOL    HW2 6753   6.427   3.783   0.446
 1952SOL     OW 6754   3.630   2.095   6.783
 1952SOL    HW1 6755   3.560   2.156   6.744
 1952SOL    HW2 6756   3.665   2.135   6.868
 1953SOL     OW 6757   5.955   2.433   0.146
 1953SOL    HW1 6758   6.047   2.454   0.115
 1953SOL    HW2 6759   5.889   2.482   0.090
 1954SOL     OW 6760   5.716   1.415   4.100
 1954SOL    HW1 6761   5.663   1.336   4.130
 1954SOL    HW2 6762   5.790   1.432   4.165
 1955SOL     OW 6763   1.349   0.371   2.026
 1955SOL    HW1 6764   1.265   0.327   2.060
 1955SOL    HW2 6765   1.428   0.329   2.070
 1956SOL     OW 6766   6.115   0.007   2.417
 1956SOL    HW1 6767   6.160   0.054   2.493
 1956SOL    HW2 6768   6.173   0.013   2.335
 1957SOL     OW 6769   6.455   5.104   4.703
 1957SOL    HW1 6770   6.387   5.176   4.685
 1957SOL    HW2 6771   6.546   5.145   4.711
 1958SOL     OW 6772   6.173   2.371   4.172
 1958SOL    HW1 6773   6.242   2.439   4.197
 1958SOL    HW2 6774   6.167   2.365   4.073
 1959SOL     OW 6775   6.970   2.047   6.001
 1959SOL    HW1 6776   6.904   2.065   6.074
 1959SOL    HW2 6777   0.010   1.978   6.032
 1960SOL     OW 6778   6.475   5.027   0.510
 1960SOL    HW1 6779   6.409   4.996   0.578
 1960SOL    HW2 6780   6.539   4.953   0.490
 1961SOL     OW 6781   5.735   4.768   4.618
 1961SOL    HW1 6782   5.822   4.764   4.666
 1961SOL    HW2 6783   5.663   4.797   4.681
 1962SOL     OW 6784   3.194   6.416   2.856
 1962SOL    HW1 6785   3.189   6.324   2.817
 1962SOL    HW2 6786   3.149   6.416   2.945
 1963SOL     OW 6787   0.937   1.035   1.175
 1963SOL    HW1 6788   0.996   1.112   1.197
 1963SOL    HW2 6789   0.967   0.954   1.227
 1964SOL     OW 6790   4.138   2.276   1.304
 1964SOL    HW1 6791   4.136   2.261   1.402
 1964SOL    HW2 6792   4.187   2.201   1.259
 1965SOL     OW 6793   1.080   3.492   3.242
 1965SOL    HW1 6794   1.114   3.408   3.282
 1965SOL    HW2 6795   1.137   3.518   3.164
 1966SOL     OW 6796   7.009   5.559   4.988
 1966SOL    HW1 6797   7.016   5.460   4.979
 1966SOL    HW2 6798   0.056   5.592   5.049
 1967SOL     OW 6799   5.144   2.253   5.158
 1967SOL    HW1 6800   5.203   2.196   5.215
 1967SOL    HW2 6801   5.131   2.210   5.069
 1968SOL     OW 6802   2.697   5.859   0.600
 1968SOL    HW1 6803   2.719   5.810   0.515
 1968SOL    HW2 6804   2.720   5.801   0.678
 1969SOL     OW 6805   0.443   1.380   1.214
 1969SOL    HW1 6806   0.374   1.399   1.145
 1969SOL    HW2 6807   0.400   1.377   1.305
 1970SOL     OW 6808   2.132   0.526   6.402
 1970SOL    HW1 6809   2.190   0.513   6.321
 1970SOL    HW2 6810   2.043   0.562   6.374
 1971SOL     OW 6811   6.305   6.871   6.196
 1971SOL    HW1 6812   6.282   6.802   6.127
 1971SOL    HW2 6813   6.359   6.944   6.154
 1972SOL     OW 6814   6.706   2.955   2.805
 1972SOL    HW1 6815   6.795   2.983   2.770
 1972SOL    HW2 6816   6.674   2.875   2.753
 1973SOL     OW 6817   2.619   3.424   1.058
 1973SOL    HW1 6818   2.557   3.346   1.064
 1973SOL    HW2 6819   2.645   3.439   0.963
 1974SOL     OW 6820   6.358   5.960   4.099
 1974SOL    HW1 6821   6.419   5.931   4.173
 1974SOL    HW2 6822   6.273   5.996   4.139
 1975SOL     OW 6823   2.298   1.160   3.173
 1975SOL    HW1 6824   2.218   1.099   3.171
 1975SOL    HW2 6825   2.285   1.234   3.107
 1976SOL     OW 6826   0.646   5.537   6.623
 1976SOL    HW1 6827   0.729   5.559   6.571
 1976SOL    HW2 6828   0.668   5.533   6.721
 1977SOL     OW 6829   1.463   2.806   3.541
 1977SOL    HW1 6830   1.501   2.714   3.537
 1977SOL    HW2 6831   1.537   2.872   3.554
 1978SOL     OW 6832   0.691   1.015   3.655
 1978SOL    HW1 6833   0.602   1.036   3.614
 1978SOL    HW2 6834   0.747   1.098   3.656
 1979SOL     OW 6835   6.856   4.212   4.892
 1979SOL    HW1 6836   6.821   4.236   4.802
 1979SOL    HW2 6837   6.956   4.222   4.893
 1980SOL     OW 6838   2.591   0.775   6.144
 1980SOL    HW1 6839   2.594   0.689   6.094
 1980SOL    HW2 6840   2.678   0.823   6.133
 1981SOL     OW 6841   6.102   1.724   2.413
 1981SOL    HW1 6842   6.113   1.798   2.479
 1981SOL    HW2 6843   6.073   1.641   2.461
 1982SOL     OW 6844   0.118   4.087   5.474
 1982SOL    HW1 6845   0.143   3.996   5.506
 1982SOL    HW2 6846   0.039   4.120   5.527
 1983SOL     OW 6847   0.948   2.037   2.680
 1983SOL    HW1 6848   0.990   2.072   2.596
 1983SOL    HW2 6849   0.995   1.953   2.707
 1984SOL     OW 6850   5.752   1.195   4.495
 1984SOL    HW1 6851   5.716   1.102   4.490
 1984SOL    HW2 6852   5.839   1.200   4.445
 1985SOL     OW 6853   1.112   0.788   2.567
 1985SOL    HW1 6854   1.170   0.708   2.554
 1985SOL    HW2 6855   1.136   0.834   2.652
 1986SOL     OW 6856   1.437   0.507   0.605
 1986SOL    HW1 6857   1.464   0.505   0.702
 1986SOL    HW2 6858   1.504   0.559   0.553
 1987SOL     OW 6859   1.834   2.764   1.333
 1987SOL    HW1 6860   1.932   2.761   1.310
 1987SOL    HW2 6861   1.780   2.750   1.250
 1988SOL     OW 6862   4.752   4.666   1.134
 1988SOL    HW1 6863   4.809   4.610   1.074
 1988SOL    HW2 6864   4.657   4.663   1.102
 1989SOL     OW 6865   2.226   6.317   5.081
 1989SOL    HW1 6866   2.285   6.236   5.080
 1989SOL    HW2 6867   2.282   6.398   5.101
 1990SOL     OW 6868   3.257   6.579   0.870
 1990SOL    HW1 6869   3.283   6.539   0.959
 1990SOL    HW2 6870   3.160   6.600   0.870
 1991SOL     OW 6871   4.408   5.028   6.306
 1991SOL    HW1 6872   4.373   4.937   6.283
 1991SOL    HW2 6873   4.482   5.019   6.372
 1992SOL     OW 6874   1.174   6.927   6.855
 1992SOL    HW1 6875   1.193   6.963   6.947
 1992SOL    HW2 6876   1.075   6.920   6.843
 1993SOL     OW 6877   4.250   3.655   5.112
 1993SOL    HW1 6878   4.162   3.695   5.088
 1993SOL    HW2 6879   4.310   3.655   5.032
 1994SOL     OW 6880   1.305   1.555   0.994
 1994SOL    HW1 6881   1.215   1.543   0.954
 1994SOL    HW2 6882   1.371   1.497   0.946
 1995SOL     OW 6883   6.075   2.290   1.644
 1995SOL    HW1 6884   6.094   2.200   1.606
 1995SOL    HW2 6885   6.142   2.356   1.610
 1996SOL     OW 6886   3.082   3.539   0.946
 1996SOL    HW1 6887   3.045   3.450   0.919
 1996SOL    HW2 6888   3.019   3.611   0.914
 1997SOL     OW 6889   4.982   0.442   5.421
 1997SOL    HW1 6890   5.063   0.497   5.441
 1997SOL    HW2 6891   4.902   0.502   5.418
 1998SOL     OW 6892   3.149   3.704   6.492
 1998SOL    HW1 6893   3.103   3.788   6.464
 1998SOL    HW2 6894   3.242   3.703   6.457
 1999SOL     OW 6895   3.066   6.628   1.691
 1999SOL    HW1 6896   3.111   6.551   1.645
 1999SOL    HW2 6897   3.022   6.596   1.775
 2000SOL     OW 6898   3.897   2.241   5.322
 2000SOL    HW1 6899   3.934   2.333   5.335
 2000SOL    HW2 6900   3.930   2.204   5.235
 2001SOL     OW 6901   3.229   2.143   1.777
 2001SOL    HW1 6902   3.284   2.115   1.855
 2001SOL    HW2 6903   3.272   2.111   1.693
 2002SOL     OW 6904   1.202   5.448   5.933
 2002SOL    HW1 6905   1.210   5.517   6.005
 2002SOL    HW2 6906   1.118   5.396   5.945
 2003SOL     OW 6907   6.026   6.829   3.264
 2003SOL    HW1 6908   5.985   6.879   3.188
 2003SOL    HW2 6909   5.956   6.808   3.332
 2004SOL     OW 6910   5.327   1.491   5.408
 2004SOL    HW1 6911   5.324   1.420   5.478
 2004SOL    HW2 6912   5.373   1.572   5.444
 2005SOL     OW 6913   1.041   5.343   6.691
 2005SOL    HW1 6914   0.972   5.274   6.711
 2005SOL    HW2 6915   1.019   5.428   6.739
 2006SOL     OW 6916   5.309   4.443   4.201
 2006SOL    HW1 6917   5.261   4.478   4.281
 2006SOL    HW2 6918   5.353   4.356   4.223
 2007SOL     OW 6919   3.733   5.246   0.756
 2007SOL    HW1 6920   3.801   5.237   0.684
 2007SOL    HW2 6921   3.775   5.290   0.836
 2008SOL     OW 6922   0.893   6.136   3.059
 2008SOL    HW1 6923   0.914   6.076   3.136
 2008SOL    HW2 6924   0.939   6.224   3.072
 2009SOL     OW 6925   6.404   0.206   1.253
 2009SOL    HW1 6926   6.336   0.216   1.325
 2009SOL    HW2 6927   6.486   0.161   1.289
 2010SOL     OW 6928   1.463   1.137   1.340
 2010SOL    HW1 6929   1.512   1.115   1.424
 2010SOL    HW2 6930   1.492   1.226   1.306
 2011SOL     OW 6931   0.152   1.992   5.210
 2011SOL    HW1 6932   0.148   2.089   5.184
 2011SOL    HW2 6933   0.079   1.971   5.274
 2012SOL     OW 6934   1.056   3.222   1.480
 2012SOL    HW1 6935   1.100   3.309   1.498
 2012SOL    HW2 6936   1.070   3.195   1.385
 2013SOL     OW 6937   5.595   0.486   3.396
 2013SOL    HW1 6938   5.496   0.485   3.379
 2013SOL    HW2 6939   5.640   0.423   3.332
 2014SOL     OW 6940   1.753   5.443   2.575
 2014SOL    HW1 6941   1.728   5.437   2.672
 2014SOL    HW2 6942   1.842   5.487   2.567
 2015SOL     OW 6943   2.506   1.809   6.450
 2015SOL    HW1 6944   2.577   1.739   6.441
 2015SOL    HW2 6945   2.525   1.884   6.386
 2016SOL     OW 6946   1.494   5.289   5.207
 2016SOL    HW1 6947   1.576   5.233   5.220
 2016SOL    HW2 6948   1.418   5.249   5.259
 2017SOL     OW 6949   2.717   6.669   4.317
 2017SOL    HW1 6950   2.721   6.642   4.220
 2017SOL    HW2 6951   2.782   6.743   4.334
 2018SOL     OW 6952   5.928   6.900   6.041
 2018SOL    HW1 6953   5.914   6.862   6.133
 2018SOL    HW2 6954   5.980   6.835   5.986
 2019SOL     OW 6955   4.572   2.096   2.308
 2019SOL    HW1 6956   4.591   2.001   2.285
 2019SOL    HW2 6957   4.655   2.140   2.343
 2020SOL     OW 6958   1.408   5.418   5.633
 2020SOL    HW1 6959   1.333   5.367   5.590
 2020SOL    HW2 6960   1.371   5.488   5.692
 2021SOL     OW 6961   2.061   5.773   3.776
 2021SOL    HW1 6962   2.081   5.687   3.729
 2021SOL    HW2 6963   2.131   5.789   3.847
 2022SOL     OW 6964   2.183   3.252   2.623
 2022SOL    HW1 6965   2.167   3.215   2.714
 2022SOL    HW2 6966   2.173   3.179   2.555
 2023SOL     OW 6967   6.395   1.521   6.774
 2023SOL    HW1 6968   6.414   1.616   6.750
 2023SOL    HW2 6969   6.325   1.485   6.713
 2024SOL     OW 6970   0.122   0.356   2.850
 2024SOL    HW1 6971   0.031   0.350   2.891
 2024SOL    HW2 6972   0.115   0.344   2.751
 2025SOL     OW 6973   2.187   2.974   2.010
 2025SOL    HW1 6974   2.167   3.066   1.976
 2025SOL    HW2 6975   2.115   2.946   2.073
 2026SOL     OW 6976   1.095   2.439   6.268
 2026SOL    HW1 6977   1.165   2.428   6.197
 2026SOL    HW2 6978   1.041   2.355   6.274
 2027SOL     OW 6979   0.837   1.378   1.096
 2027SOL    HW1 6980   0.921   1.340   1.057
 2027SOL    HW2 6981   0.861   1.447   1.165
 2028SOL     OW 6982   3.190   1.245   6.103
 2028SOL    HW1 6983   3.243   1.312   6.154
 2028SOL    HW2 6984   3.117   1.292   6.054
 2029SOL     OW 6985   6.965   0.697   0.746
 2029SOL    HW1 6986   0.033   0.716   0.719
 2029SOL    HW2 6987   6.954   0.600   0.767
 2030SOL     OW 6988   2.651   0.590   3.747
 2030SOL    HW1 6989   2.732   0.648   3.741
 2030SOL    HW2 6990   2.604   0.588   3.658
 2031SOL     OW 6991   5.209   6.168   2.548
 2031SOL    HW1 6992   5.143   6.106   2.590
 2031SOL    HW2 6993   5.168   6.211   2.468
 2032SOL     OW 6994   3.950   6.508   2.165
 2032SOL    HW1 6995   4.012   6.542   2.094
 2032SOL    HW2 6996   3.966   6.560   2.250
 2033SOL     OW 6997   3.616   4.330   6.760
 2033SOL    HW1 6998   3.658   4.240   6.772
 2033SOL    HW2 6999   3.687   4.400   6.761
 2034SOL     OW 7000   3.529   0.096   4.547
 2034SOL    HW1 7001   3.492   0.076   4.457
 2034SOL    HW2 7002   3.560   0.011   4.590
 2035SOL     OW 7003   7.015   0.850   2.053
 2035SOL    HW1 7004   0.026   0.903   1.977
 2035SOL    HW2 7005   6.925   0.814   2.028
 2036SOL     OW 7006   0.910   5.514   3.220
 2036SOL    HW1 7007   0.991   5.510   3.161
 2036SOL    HW2 7008   0.828   5.507   3.163
 2037SOL     OW 7009   0.663   2.733   6.028
 2037SOL    HW1 7010   0.725   2.670   5.981
 2037SOL    HW2 7011   0.590   2.761   5.966
 2038SOL     OW 7012   1.612   2.053   6.421
 2038SOL    HW1 7013   1.690   2.102   6.459
 2038SOL    HW2 7014   1.602   2.076   6.324
 2039SOL     OW 7015   0.290   5.284   2.328
 2039SOL    HW1 7016   0.264   5.298   2.232
 2039SOL    HW2 7017   0.207   5.276   2.383
 2040SOL     OW 7018   3.288   3.221   5.480
 2040SOL    HW1 7019   3.336   3.309   5.476
 2040SOL    HW2 7020   3.335   3.155   5.421
 2041SOL     OW 7021   0.120   5.895   5.458
 2041SOL    HW1 7022   0.155   5.864   5.369
 2041SOL    HW2 7023   0.045   5.959   5.443
 2042SOL     OW 7024   5.288   5.078   6.792
 2042SOL    HW1 7025   5.283   5.172   6.826
 2042SOL    HW2 7026   5.319   5.079   6.697
 2043SOL     OW 7027   6.386   4.309   2.614
 2043SOL    HW1 7028   6.476   4.287   2.654
 2043SOL    HW2 7029   6.363   4.240   2.546
 2044SOL     OW 7030   4.943   0.399   1.876
 2044SOL    HW1 7031   5.007   0.454   1.821
 2044SOL    HW2 7032   4.892   0.459   1.937
 2045SOL     OW 7033   2.102   4.850   4.630
 2045SOL    HW1 7034   2.040   4.772   4.624
 2045SOL    HW2 7035   2.196   4.819   4.621
 2046SOL     OW 7036   0.248   1.127   4.242
 2046SOL    HW1 7037   0.335   1.177   4.247
 2046SOL    HW2 7038   0.218   1.102   4.333
 2047SOL     OW 7039   4.768   2.166   0.108
 2047SOL    HW1 7040   4.711   2.148   0.188
 2047SOL    HW2 7041   4.829   2.242   0.127
 2048SOL     OW 7042   2.145   5.784   0.784
 2048SOL    HW1 7043   2.205   5.853   0.825
 2048SOL    HW2 7044   2.058   5.783   0.833
 2049SOL     OW 7045   4.541   1.481   6.358
 2049SOL    HW1 7046   4.622   1.465   6.300
 2049SOL    HW2 7047   4.492   1.561   6.324
 2050SOL     OW 7048   6.996   2.523   2.573
 2050SOL    HW1 7049   0.044   2.587   2.550
 2050SOL    HW2 7050   0.003   2.458   2.641
 2051SOL     OW 7051   0.378   6.075   0.924
 2051SOL    HW1 7052   0.301   6.119   0.970
 2051SOL    HW2 7053   0.449   6.144   0.905
 2052SOL     OW 7054   0.386   4.296   0.589
 2052SOL    HW1 7055   0.412   4.208   0.550
 2052SOL    HW2 7056   0.287   4.306   0.586
 2053SOL     OW 7057   6.047   0.609   5.852
 2053SOL    HW1 7058   6.050   0.518   5.811
 2053SOL    HW2 7059   6.049   0.679   5.780
 2054SOL     OW 7060   4.169   2.708   1.494
 2054SOL    HW1 7061   4.139   2.654   1.416
 2054SOL    HW2 7062   4.177   2.648   1.574
 2055SOL     OW 7063   6.210   3.448   2.970
 2055SOL    HW1 7064   6.208   3.413   2.876
 2055SOL    HW2 7065   6.301   3.432   3.009
 2056SOL     OW 7066   2.536   0.509   3.167
 2056SOL    HW1 7067   2.450   0.461   3.184
 2056SOL    HW2 7068   2.598   0.496   3.245
 2057SOL     OW 7069   5.542   3.182   3.488
 2057SOL    HW1 7070   5.568   3.142   3.401
 2057SOL    HW2 7071   5.603   3.258   3.510
 2058SOL     OW 7072   1.536   1.754   2.903
 2058SOL    HW1 7073   1.548   1.718   2.810
 2058SOL    HW2 7074   1.625   1.756   2.949
 2059SOL     OW 7075   2.357   5.955   6.162
 2059SOL    HW1 7076   2.400   6.017   6.227
 2059SOL    HW2 7077   2.258   5.951   6.179
 2060SOL     OW 7078   5.742   4.539   0.258
 2060SOL    HW1 7079   5.784   4.572   0.174
 2060SOL    HW2 7080   5.775   4.593   0.335
 2061SOL     OW 7081   0.941   1.613   2.831
 2061SOL    HW1 7082   0.849   1.614   2.792
 2061SOL    HW2 7083   0.953   1.531   2.887
 2062SOL     OW 7084   5.798   0.314   3.544
 2062SOL    HW1 7085   5.741   0.282   3.468
 2062SOL    HW2 7086   5.743   0.370   3.606
 2063SOL     OW 7087   1.975   0.726   6.065
 2063SOL    HW1 7088   1.984   0.700   6.161
 2063SOL    HW2 7089   1.947   0.646   6.011
 2064SOL     OW 7090   1.200   2.193   5.947
 2064SOL    HW1 7091   1.222   2.277   5.997
 2064SOL    HW2 7092   1.280   2.163   5.896
 2065SOL     OW 7093   6.784   3.443   3.390
 2065SOL    HW1 7094   6.740   3.533   3.387
 2065SOL    HW2 7095   6.743   3.388   3.463
 2066SOL     OW 7096   0.287   5.585   3.464
 2066SOL    HW1 7097   0.361   5.650   3.446
 2066SOL    HW2 7098   0.220   5.589   3.390
 2067SOL     OW 7099   0.081   5.659   0.817
 2067SOL    HW1 7100   0.136   5.675   0.736
 2067SOL    HW2 7101   7.024   5.608   0.792
 2068SOL     OW 7102   1.282   1.763   5.503
 2068SOL    HW1 7103   1.268   1.802   5.412
 2068SOL    HW2 7104   1.380   1.759   5.523
 2069SOL     OW 7105   1.231   2.880   3.408
 2069SOL    HW1 7106   1.168   2.875   3.486
 2069SOL    HW2 7107   1.323   2.853   3.438
 2070SOL     OW 7108   1.403   0.838   2.321
 2070SOL    HW1 7109   1.378   0.798   2.233
 2070SOL    HW2 7110   1.384   0.773   2.394
 2071SOL     OW 7111   6.151   6.078   5.385
 2071SOL    HW1 7112   6.059   6.084   5.423
 2071SOL    HW2 7113   6.164   6.150   5.316
 2072SOL     OW 7114   4.638   6.854   2.486
 2072SOL    HW1 7115   4.658   6.866   2.388
 2072SOL    HW2 7116   4.617   6.943   2.526
 2073SOL     OW 7117   3.934   0.103   4.523
 2073SOL    HW1 7118   4.014   0.149   4.486
 2073SOL    HW2 7119   3.885   0.056   4.449
 2074SOL     OW 7120   1.319   3.192   0.092
 2074SOL    HW1 7121   1.298   3.288   0.071
 2074SOL    HW2 7122   1.275   3.167   0.178
 2075SOL     OW 7123   5.508   2.917   1.432
 2075SOL    HW1 7124   5.496   3.011   1.398
 2075SOL    HW2 7125   5.546   2.861   1.359
 2076SOL     OW 7126   5.407   6.855   6.312
 2076SOL    HW1 7127   5.338   6.912   6.357
 2076SOL    HW2 7128   5.412   6.766   6.357
 2077SOL     OW 7129   5.676   2.591   2.830
 2077SOL    HW1 7130   5.693   2.587   2.731
 2077SOL    HW2 7131   5.759   2.619   2.877
 2078SOL     OW 7132   1.590   6.132   6.452
 2078SOL    HW1 7133   1.591   6.060   6.521
 2078SOL    HW2 7134   1.598   6.091   6.361
 2079SOL     OW 7135   6.021   1.476   3.384
 2079SOL    HW1 7136   6.090   1.465   3.455
 2079SOL    HW2 7137   5.996   1.386   3.348
 2080SOL     OW 7138   1.102   0.573   4.436
 2080SOL    HW1 7139   1.202   0.568   4.439
 2080SOL    HW2 7140   1.074   0.664   4.407
 2081SOL     OW 7141   1.817   5.692   4.316
 2081SOL    HW1 7142   1.899   5.661   4.364
 2081SOL    HW2 7143   1.844   5.737   4.231
 2082SOL     OW 7144   0.089   0.046   3.008
 2082SOL    HW1 7145   0.087   0.103   3.090
 2082SOL    HW2 7146   0.184   0.026   2.984
 2083SOL     OW 7147   5.462   5.222   5.931
 2083SOL    HW1 7148   5.375   5.220   5.980
 2083SOL    HW2 7149   5.537   5.201   5.994
 2084SOL     OW 7150   0.433   3.947   4.130
 2084SOL    HW1 7151   0.381   3.902   4.203
 2084SOL    HW2 7152   0.453   3.880   4.059
 2085SOL     OW 7153   4.644   0.428   6.764
 2085SOL    HW1 7154   4.583   0.355   6.795
 2085SOL    HW2 7155   4.591   0.511   6.745
 2086SOL     OW 7156   4.095   6.809   6.100
 2086SOL    HW1 7157   4.103   6.901   6.138
 2086SOL    HW2 7158   4.185   6.766   6.099
 2087SOL     OW 7159   5.111   0.209   1.575
 2087SOL    HW1 7160   5.154   0.223   1.664
 2087SOL    HW2 7161   5.049   0.130   1.580
 2088SOL     OW 7162   2.981   6.123   0.875
 2088SOL    HW1 7163   2.960   6.184   0.952
 2088SOL    HW2 7164   3.073   6.084   0.888
 2089SOL     OW 7165   5.530   2.361   6.411
 2089SOL    HW1 7166   5.515   2.359   6.312
 2089SOL    HW2 7167   5.483   2.440   6.450
 2090SOL     OW 7168   3.629   3.036   5.447
 2090SOL    HW1 7169   3.609   2.965   5.515
 2090SOL    HW2 7170   3.688   3.106   5.488
 2091SOL     OW 7171   0.155   5.332   0.430
 2091SOL    HW1 7172   0.125   5.344   0.524
 2091SOL    HW2 7173   0.199   5.416   0.397
 2092SOL     OW 7174   4.912   4.294   6.675
 2092SOL    HW1 7175   5.002   4.331   6.698
 2092SOL    HW2 7176   4.843   4.332   6.735
 2093SOL     OW 7177   2.390   2.674   1.308
 2093SOL    HW1 7178   2.386   2.605   1.380
 2093SOL    HW2 7179   2.460   2.742   1.331
 2094SOL     OW 7180   5.536   1.296   1.296
 2094SOL    HW1 7181   5.509   1.342   1.380
 2094SOL    HW2 7182   5.495   1.342   1.217
 2095SOL     OW 7183   5.194   0.699   4.885
 2095SOL    HW1 7184   5.146   0.649   4.957
 2095SOL    HW2 7185   5.188   0.797   4.903
 2096SOL     OW 7186   5.058   4.091   3.489
 2096SOL    HW1 7187   5.091   4.033   3.414
 2096SOL    HW2 7188   4.962   4.069   3.508
 2097SOL     OW 7189   2.279   3.152   6.448
 2097SOL    HW1 7190   2.215   3.203   6.506
 2097SOL    HW2 7191   2.353   3.116   6.505
 2098SOL     OW 7192   4.367   5.872   2.947
 2098SOL    HW1 7193   4.274   5.882   2.911
 2098SOL    HW2 7194   4.419   5.810   2.889
 2099SOL     OW 7195   2.551   3.500   5.699
 2099SOL    HW1 7196   2.573   3.480   5.603
 2099SOL    HW2 7197   2.580   3.593   5.721
 2100SOL     OW 7198   4.717   3.142   5.734
 2100SOL    HW1 7199   4.656   3.215   5.704
 2100SOL    HW2 7200   4.806   3.153   5.689
 2101SOL     OW 7201   1.389   6.131   2.350
 2101SOL    HW1 7202   1.380   6.227   2.377
 2101SOL    HW2 7203   1.421   6.077   2.428
 2102SOL     OW 7204   6.287   4.964   1.842
 2102SOL    HW1 7205   6.294   5.061   1.815
 2102SOL    HW2 7206   6.191   4.943   1.863
 2103SOL     OW 7207   3.748   4.457   5.963
 2103SOL    HW1 7208   3.716   4.501   5.880
 2103SOL    HW2 7209   3.789   4.368   5.941
 2104SOL     OW 7210   1.439   3.081   0.876
 2104SOL    HW1 7211   1.436   3.175   0.842
 2104SOL    HW2 7212   1.522   3.069   0.931
 2105SOL     OW 7213   5.321   6.098   4.907
 2105SOL    HW1 7214   5.357   6.013   4.944
 2105SOL    HW2 7215   5.235   6.081   4.859
 2106SOL     OW 7216   4.900   4.227   1.081
 2106SOL    HW1 7217   4.928   4.154   1.019
 2106SOL    HW2 7218   4.822   4.276   1.042
 2107SOL     OW 7219   5.485   2.537   5.281
 2107SOL    HW1 7220   5.445   2.570   5.195
 2107SOL    HW2 7221   5.507   2.440   5.273
 2108SOL     OW 7222   6.553   6.143   5.272
 2108SOL    HW1 7223   6.482   6.075   5.251
 2108SOL    HW2 7224   6.632   6.097   5.311
 2109SOL     OW 7225   4.249   6.219   2.618
 2109SOL    HW1 7226   4.185   6.173   2.557
 2109SOL    HW2 7227   4.338   6.173   2.613
 2110SOL     OW 7228   3.116   1.749   6.744
 2110SOL    HW1 7229   3.121   1.782   6.650
 2110SOL    HW2 7230   3.032   1.696   6.756
 2111SOL     OW 7231   1.092   2.556   0.169
 2111SOL    HW1 7232   1.100   2.571   0.268
 2111SOL    HW2 7233   1.143   2.627   0.121
 2112SOL     OW 7234   5.221   2.903   6.812
 2112SOL    HW1 7235   5.161   2.951   6.748
 2112SOL    HW2 7236   5.187   2.811   6.828
 2113SOL     OW 7237   1.384   1.324   5.393
 2113SOL    HW1 7238   1.359   1.256   5.325
 2113SOL    HW2 7239   1.355   1.415   5.361
 2114SOL     OW 7240   1.119   2.673   0.766
 2114SOL    HW1 7241   1.132   2.600   0.699
 2114SOL    HW2 7242   1.192   2.740   0.757
 2115SOL     OW 7243   1.983   3.453   2.827
 2115SOL    HW1 7244   2.051   3.509   2.873
 2115SOL    HW2 7245   2.022   3.415   2.743
 2116SOL     OW 7246   6.620   4.787   3.019
 2116SOL    HW1 7247   6.630   4.859   2.950
 2116SOL    HW2 7248   6.534   4.800   3.068
 2117SOL     OW 7249   6.536   4.740   1.940
 2117SOL    HW1 7250   6.449   4.789   1.951
 2117SOL    HW2 7251   6.589   4.784   1.868
 2118SOL     OW 7252   6.231   3.619   1.668
 2118SOL    HW1 7253   6.277   3.576   1.589
 2118SOL    HW2 7254   6.300   3.644   1.736
 2119SOL     OW 7255   2.107   5.889   1.136
 2119SOL    HW1 7256   2.095   5.826   1.213
 2119SOL    HW2 7257   2.079   5.981   1.164
 2120SOL     OW 7258   0.039   5.061   3.884
 2120SOL    HW1 7259   0.046   5.121   3.805
 2120SOL    HW2 7260   0.040   4.966   3.853
 2121SOL     OW 7261   1.001   3.524   5.971
 2121SOL    HW1 7262   0.971   3.617   5.994
 2121SOL    HW2 7263   1.033   3.522   5.876
 2122SOL     OW 7264   5.921   4.370   5.879
 2122SOL    HW1 7265   5.886   4.283   5.846
 2122SOL    HW2 7266   5.859   4.407   5.948
 2123SOL     OW 7267   6.262   6.016   2.086
 2123SOL    HW1 7268   6.211   6.102   2.092
 2123SOL    HW2 7269   6.252   5.966   2.172
 2124SOL     OW 7270   2.676   1.510   1.791
 2124SOL    HW1 7271   2.760   1.517   1.845
 2124SOL    HW2 7272   2.692   1.546   1.700
 2125SOL     OW 7273   1.968   0.734   1.793
 2125SOL    HW1 7274   1.925   0.663   1.736
 2125SOL    HW2 7275   2.067   0.729   1.783
 2126SOL     OW 7276   3.760   1.183   6.519
 2126SOL    HW1 7277   3.838   1.121   6.532
 2126SOL    HW2 7278   3.752   1.243   6.598
 2127SOL     OW 7279   6.973   3.241   4.198
 2127SOL    HW1 7280   6.949   3.326   4.246
 2127SOL    HW2 7281   6.935   3.163   4.248
 2128SOL     OW 7282   6.964   3.219   3.507
 2128SOL    HW1 7283   6.946   3.315   3.490
 2128SOL    HW2 7284   6.908   3.187   3.583
 2129SOL     OW 7285   4.136   3.885   5.675
 2129SOL    HW1 7286   4.172   3.856   5.764
 2129SOL    HW2 7287   4.036   3.893   5.681
 2130SOL     OW 7288   3.638   0.882   1.872
 2130SOL    HW1 7289   3.553   0.932   1.855
 2130SOL    HW2 7290   3.686   0.923   1.949
 2131SOL     OW 7291   6.333   0.204   0.246
 2131SOL    HW1 7292   6.389   0.148   0.186
 2131SOL    HW2 7293   6.358   0.185   0.341
 2132SOL     OW 7294   3.451   1.510   1.801
 2132SOL    HW1 7295   3.483   1.547   1.714
 2132SOL    HW2 7296   3.525   1.510   1.868
 2133SOL     OW 7297   3.296   3.222   0.213
 2133SOL    HW1 7298   3.275   3.258   0.122
 2133SOL    HW2 7299   3.264   3.128   0.220
 2134SOL     OW 7300   0.145   2.126   6.751
 2134SOL    HW1 7301   0.138   2.129   6.851
 2134SOL    HW2 7302   0.108   2.211   6.712
 2135SOL     OW 7303   0.620   3.723   4.335
 2135SOL    HW1 7304   0.561   3.766   4.403
 2135SOL    HW2 7305   0.569   3.705   4.251
 2136SOL     OW 7306   1.466   3.935   2.576
 2136SOL    HW1 7307   1.559   3.930   2.539
 2136SOL    HW2 7308   1.455   3.867   2.648
 2137SOL     OW 7309   2.322   5.786   5.181
 2137SOL    HW1 7310   2.415   5.752   5.163
 2137SOL    HW2 7311   2.303   5.864   5.122
 2138SOL     OW 7312   6.646   6.817   3.034
 2138SOL    HW1 7313   6.667   6.730   2.990
 2138SOL    HW2 7314   6.634   6.888   2.965
 2139SOL     OW 7315   4.695   1.099   3.554
 2139SOL    HW1 7316   4.670   1.132   3.645
 2139SOL    HW2 7317   4.794   1.089   3.548
 2140SOL     OW 7318   3.552   6.876   3.921
 2140SOL    HW1 7319   3.489   6.872   3.999
 2140SOL    HW2 7320   3.636   6.826   3.944
 2141SOL     OW 7321   6.603   3.129   1.718
 2141SOL    HW1 7322   6.655   3.132   1.633
 2141SOL    HW2 7323   6.580   3.034   1.739
 2142SOL     OW 7324   1.950   1.435   3.073
 2142SOL    HW1 7325   2.009   1.382   3.133
 2142SOL    HW2 7326   1.987   1.527   3.061
 2143SOL     OW 7327   3.039   4.419   1.425
 2143SOL    HW1 7328   3.047   4.515   1.451
 2143SOL    HW2 7329   2.943   4.398   1.407
 2144SOL     OW 7330   0.940   5.479   4.260
 2144SOL    HW1 7331   0.861   5.452   4.314
 2144SOL    HW2 7332   0.978   5.564   4.297
 2145SOL     OW 7333   4.090   6.651   4.302
 2145SOL    HW1 7334   4.052   6.742   4.285
 2145SOL    HW2 7335   4.166   6.635   4.239
 2146SOL     OW 7336   2.340   3.429   1.247
 2146SOL    HW1 7337   2.318   3.524   1.224
 2146SOL    HW2 7338   2.413   3.428   1.315
 2147SOL     OW 7339   6.515   1.394   5.772
 2147SOL    HW1 7340   6.432   1.359   5.728
 2147SOL    HW2 7341   6.501   1.489   5.799
 2148SOL     OW 7342   6.335   3.374   5.952
 2148SOL    HW1 7343   6.326   3.277   5.930
 2148SOL    HW2 7344   6.257   3.424   5.916
 2149SOL     OW 7345   3.061   1.715   1.087
 2149SOL    HW1 7346   3.137   1.688   1.027
 2149SOL    HW2 7347   3.013   1.793   1.046
 2150SOL     OW 7348   2.404   2.560   2.028
 2150SOL    HW1 7349   2.345   2.479   2.023
 2150SOL    HW2 7350   2.500   2.532   2.025
 2151SOL     OW 7351   1.805   0.027   5.869
 2151SOL    HW1 7352   1.811   0.014   5.968
 2151SOL    HW2 7353   1.856   0.109   5.843
 2152SOL     OW 7354   3.100   5.189   1.996
 2152SOL    HW1 7355   3.181   5.246   2.007
 2152SOL    HW2 7356   3.018   5.245   2.004
 2153SOL     OW 7357   4.628   1.741   3.115
 2153SOL    HW1 7358   4.611   1.817   3.052
 2153SOL    HW2 7359   4.710   1.691   3.087
 2154SOL     OW 7360   5.106   1.263   5.012
 2154SOL    HW1 7361   5.196   1.257   5.056
 2154SOL    HW2 7362   5.089   1.358   4.985
 2155SOL     OW 7363   3.629   6.462   0.869
 2155SOL    HW1 7364   3.704   6.438   0.931
 2155SOL    HW2 7365   3.545   6.415   0.897
 2156SOL     OW 7366   1.021   2.157   5.048
 2156SOL    HW1 7367   1.062   2.214   5.119
 2156SOL    HW2 7368   1.020   2.207   4.961
 2157SOL     OW 7369   6.041   0.213   3.161
 2157SOL    HW1 7370   5.959   0.156   3.150
 2157SOL    HW2 7371   6.102   0.199   3.083
 2158SOL     OW 7372   3.496   5.812   0.761
 2158SOL    HW1 7373   3.439   5.784   0.683
 2158SOL    HW2 7374   3.538   5.731   0.802
 2159SOL     OW 7375   1.471   7.002   5.000
 2159SOL    HW1 7376   1.543   0.045   4.991
 2159SOL    HW2 7377   1.511   6.911   4.993
 2160SOL     OW 7378   4.714   3.930   6.763
 2160SOL    HW1 7379   4.783   3.937   6.835
 2160SOL    HW2 7380   4.624   3.917   6.804
 2161SOL     OW 7381   5.693   4.849   2.436
 2161SOL    HW1 7382   5.711   4.777   2.503
 2161SOL    HW2 7383   5.599   4.842   2.404
 2162SOL     OW 7384   3.892   6.947   2.265
 2162SOL    HW1 7385   3.815   6.936   2.202
 2162SOL    HW2 7386   3.956   7.014   2.228
 2163SOL     OW 7387   1.735   4.366   6.756
 2163SOL    HW1 7388   1.769   4.410   6.673
 2163SOL    HW2 7389   1.787   4.400   6.835
 2164SOL     OW 7390   2.076   2.607   6.284
 2164SOL    HW1 7391   2.107   2.607   6.189
 2164SOL    HW2 7392   2.048   2.699   6.310
 2165SOL     OW 7393   6.947   2.499   3.151
 2165SOL    HW1 7394   6.904   2.493   3.241
 2165SOL    HW2 7395   6.927   2.418   3.098
 2166SOL     OW 7396   1.326   2.756   4.945
 2166SOL    HW1 7397   1.406   2.698   4.932
 2166SOL    HW2 7398   1.354   2.852   4.944
 2167SOL     OW 7399   1.337   2.468   3.159
 2167SOL    HW1 7400   1.283   2.428   3.084
 2167SOL    HW2 7401   1.383   2.550   3.127
 2168SOL     OW 7402   0.677   2.338   3.534
 2168SOL    HW1 7403   0.602   2.403   3.540
 2168SOL    HW2 7404   0.750   2.376   3.477
 2169SOL     OW 7405   5.601   1.983   7.021
 2169SOL    HW1 7406   5.691   1.957   0.030
 2169SOL    HW2 7407   5.532   1.921   0.032
 2170SOL     OW 7408   6.670   3.998   4.884
 2170SOL    HW1 7409   6.637   3.975   4.792
 2170SOL    HW2 7410   6.744   4.064   4.877
 2171SOL     OW 7411   0.129   5.244   1.201
 2171SOL    HW1 7412   0.153   5.341   1.194
 2171SOL    HW2 7413   0.213   5.190   1.210
 2172SOL     OW 7414   1.932   1.781   6.304
 2172SOL    HW1 7415   1.999   1.783   6.378
 2172SOL    HW2 7416   1.840   1.788   6.342
 2173SOL     OW 7417   4.028   0.841   5.197
 2173SOL    HW1 7418   4.124   0.825   5.178
 2173SOL    HW2 7419   4.002   0.932   5.165
 2174SOL     OW 7420   6.229   6.140   4.954
 2174SOL    HW1 7421   6.156   6.079   4.985
 2174SOL    HW2 7422   6.265   6.190   5.033
 2175SOL     OW 7423   1.804   2.419   4.769
 2175SOL    HW1 7424   1.862   2.500   4.773
 2175SOL    HW2 7425   1.860   2.337   4.783
 2176SOL     OW 7426   5.745   1.839   0.468
 2176SOL    HW1 7427   5.748   1.760   0.405
 2176SOL    HW2 7428   5.704   1.917   0.421
 2177SOL     OW 7429   6.960   1.970   3.568
 2177SOL    HW1 7430   7.001   1.905   3.631
 2177SOL    HW2 7431   0.003   2.002   3.504
 2178SOL     OW 7432   2.397   1.874   1.653
 2178SOL    HW1 7433   2.349   1.937   1.714
 2178SOL    HW2 7434   2.398   1.911   1.561
 2179SOL     OW 7435   2.226   4.994   5.377
 2179SOL    HW1 7436   2.321   4.967   5.392
 2179SOL    HW2 7437   2.210   5.085   5.415
 2180SOL     OW 7438   2.268   2.301   2.027
 2180SOL    HW1 7439   2.358   2.258   2.032
 2180SOL    HW2 7440   2.207   2.258   2.094
 2181SOL     OW 7441   5.067   4.852   4.769
 2181SOL    HW1 7442   4.978   4.883   4.803
 2181SOL    HW2 7443   5.055   4.803   4.683
 2182SOL     OW 7444   1.688   4.224   3.600
 2182SOL    HW1 7445   1.678   4.247   3.503
 2182SOL    HW2 7446   1.763   4.159   3.610
 2183SOL     OW 7447   2.019   4.766   6.289
 2183SOL    HW1 7448   2.076   4.702   6.237
 2183SOL    HW2 7449   1.932   4.778   6.243
 2184SOL     OW 7450   4.063   0.894   6.164
 2184SOL    HW1 7451   4.101   0.969   6.109
 2184SOL    HW2 7452   4.137   0.849   6.214
 2185SOL     OW 7453   0.765   0.444   0.950
 2185SOL    HW1 7454   0.738   0.540   0.943
 2185SOL    HW2 7455   0.701   0.396   1.011
 2186SOL     OW 7456   6.918   5.829   0.957
 2186SOL    HW1 7457   6.904   5.839   1.055
 2186SOL    HW2 7458   6.983   5.755   0.940
 2187SOL     OW 7459   6.383   6.120   2.899
 2187SOL    HW1 7460   6.453   6.048   2.901
 2187SOL    HW2 7461   6.401   6.181   2.821
 2188SOL     OW 7462   6.906   5.679   4.566
 2188SOL    HW1 7463   7.005   5.671   4.569
 2188SOL    HW2 7464   6.871   5.689   4.659
 2189SOL     OW 7465   2.126   6.647   0.704
 2189SOL    HW1 7466   2.148   6.738   0.740
 2189SOL    HW2 7467   2.184   6.579   0.749
 2190SOL     OW 7468   0.753   3.157   1.968
 2190SOL    HW1 7469   0.667   3.182   1.924
 2190SOL    HW2 7470   0.817   3.121   1.899
 2191SOL     OW 7471   2.691   1.372   6.258
 2191SOL    HW1 7472   2.657   1.324   6.178
 2191SOL    HW2 7473   2.634   1.350   6.337
 2192SOL     OW 7474   5.107   1.024   2.571
 2192SOL    HW1 7475   5.081   1.117   2.596
 2192SOL    HW2 7476   5.091   1.010   2.473
 2193SOL     OW 7477   5.378   6.022   0.101
 2193SOL    HW1 7478   5.371   6.070   0.013
 2193SOL    HW2 7479   5.305   5.954   0.108
 2194SOL     OW 7480   2.098   4.634   5.933
 2194SOL    HW1 7481   2.148   4.720   5.948
 2194SOL    HW2 7482   2.096   4.614   5.835
 2195SOL     OW 7483   0.172   0.222   5.083
 2195SOL    HW1 7484   0.126   0.293   5.030
 2195SOL    HW2 7485   0.105   0.154   5.114
 2196SOL     OW 7486   3.854   0.429   4.902
 2196SOL    HW1 7487   3.768   0.379   4.911
 2196SOL    HW2 7488   3.849   0.492   4.825
 2197SOL     OW 7489   2.504   3.525   0.364
 2197SOL    HW1 7490   2.593   3.479   0.374
 2197SOL    HW2 7491   2.431   3.464   0.395
 2198SOL     OW 7492   5.297   0.164   0.452
 2198SOL    HW1 7493   5.339   0.247   0.488
 2198SOL    HW2 7494   5.331   0.146   0.360
 2199SOL     OW 7495   5.120   0.107   3.187
 2199SOL    HW1 7496   5.169   0.079   3.269
 2199SOL    HW2 7497   5.058   0.183   3.209
 2200SOL     OW 7498   2.223   2.020   4.411
 2200SOL    HW1 7499   2.221   2.071   4.497
 2200SOL    HW2 7500   2.241   1.923   4.429
 2201SOL     OW 7501   6.745   2.802   3.269
 2201SOL    HW1 7502   6.844   2.801   3.285
 2201SOL    HW2 7503   6.704   2.877   3.322
 2202SOL     OW 7504   3.034   5.614   2.400
 2202SOL    HW1 7505   2.974   5.630   2.322
 2202SOL    HW2 7506   3.129   5.632   2.373
 2203SOL     OW 7507   1.776   2.764   0.645
 2203SOL    HW1 7508   1.839   2.701   0.600
 2203SOL    HW2 7509   1.814   2.793   0.733
 2204SOL     OW 7510   4.763   1.873   1.271
 2204SOL    HW1 7511   4.839   1.810   1.287
 2204SOL    HW2 7512   4.732   1.911   1.359
 2205SOL     OW 7513   0.468   6.961   6.253
 2205SOL    HW1 7514   0.558   6.918   6.245
 2205SOL    HW2 7515   0.400   6.905   6.205
 2206SOL     OW 7516   3.820   5.291   6.352
 2206SOL    HW1 7517   3.790   5.206   6.396
 2206SOL    HW2 7518   3.870   5.270   6.268
 2207SOL     OW 7519   2.814   4.897   6.447
 2207SOL    HW1 7520   2.895   4.951   6.471
 2207SOL    HW2 7521   2.778   4.852   6.529
 2208SOL     OW 7522   1.271   5.785   3.110
 2208SOL    HW1 7523   1.215   5.864   3.134
 2208SOL    HW2 7524   1.299   5.738   3.194
 2209SOL     OW 7525   1.416   6.743   5.662
 2209SOL    HW1 7526   1.420   6.778   5.568
 2209SOL    HW2 7527   1.321   6.728   5.689
 2210SOL     OW 7528   0.159   4.891   4.582
 2210SOL    HW1 7529   0.133   4.804   4.539
 2210SOL    HW2 7530   0.195   4.873   4.673
 2211SOL     OW 7531   6.523   0.211   0.775
 2211SOL    HW1 7532   6.561   0.302   0.765
 2211SOL    HW2 7533   6.594   0.148   0.808
 2212SOL     OW 7534   2.446   5.886   0.037
 2212SOL    HW1 7535   2.420   5.973   7.020
 2212SOL    HW2 7536   2.365   5.839   0.070
 2213SOL     OW 7537   3.047   1.719   5.285
 2213SOL    HW1 7538   3.134   1.752   5.247
 2213SOL    HW2 7539   2.991   1.683   5.211
 2214SOL     OW 7540   3.590   3.744   5.522
 2214SOL    HW1 7541   3.586   3.751   5.423
 2214SOL    HW2 7542   3.567   3.832   5.563
 2215SOL     OW 7543   5.987   1.087   0.067
 2215SOL    HW1 7544   6.086   1.097   0.053
 2215SOL    HW2 7545   5.966   1.097   0.164
 2216SOL     OW 7546   1.827   1.063   6.447
 2216SOL    HW1 7547   1.919   1.035   6.422
 2216SOL    HW2 7548   1.832   1.142   6.508
 2217SOL     OW 7549   4.199   6.858   2.217
 2217SOL    HW1 7550   4.151   6.795   2.278
 2217SOL    HW2 7551   4.132   6.913   2.167
 2218SOL     OW 7552   6.772   5.677   6.554
 2218SOL    HW1 7553   6.731   5.585   6.555
 2218SOL    HW2 7554   6.743   5.725   6.472
 2219SOL     OW 7555   5.414   1.655   1.064
 2219SOL    HW1 7556   5.436   1.681   1.159
 2219SOL    HW2 7557   5.323   1.688   1.041
 2220SOL     OW 7558   2.078   6.850   5.179
 2220SOL    HW1 7559   2.094   6.804   5.091
 2220SOL    HW2 7560   2.156   6.833   5.239
 2221SOL     OW 7561   6.360   1.406   5.505
 2221SOL    HW1 7562   6.433   1.464   5.468
 2221SOL    HW2 7563   6.283   1.404   5.442
 2222SOL     OW 7564   5.335   0.884   0.041
 2222SOL    HW1 7565   5.371   0.828   0.116
 2222SOL    HW2 7566   5.238   0.902   0.056
 2223SOL     OW 7567   5.858   1.247   4.946
 2223SOL    HW1 7568   5.914   1.305   4.886
 2223SOL    HW2 7569   5.765   1.284   4.949
 2224SOL     OW 7570   0.242   3.350   1.006
 2224SOL    HW1 7571   0.200   3.435   1.038
 2224SOL    HW2 7572   0.284   3.303   1.084
 2225SOL     OW 7573   6.796   6.954   3.760
 2225SOL    HW1 7574   6.808   6.943   3.859
 2225SOL    HW2 7575   6.801   6.865   3.716
 2226SOL     OW 7576   3.144   5.215   1.204
 2226SOL    HW1 7577   3.235   5.234   1.242
 2226SOL    HW2 7578   3.075   5.263   1.258
 2227SOL     OW 7579   5.201   3.303   6.881
 2227SOL    HW1 7580   5.122   3.265   6.834
 2227SOL    HW2 7581   5.218   3.396   6.848
 2228SOL     OW 7582   3.700   4.719   1.028
 2228SOL    HW1 7583   3.714   4.728   1.127
 2228SOL    HW2 7584   3.673   4.807   0.990
 2229SOL     OW 7585   4.615   2.686   5.393
 2229SOL    HW1 7586   4.551   2.618   5.431
 2229SOL    HW2 7587   4.627   2.760   5.458
 2230SOL     OW 7588   5.671   6.603   0.260
 2230SOL    HW1 7589   5.735   6.584   0.186
 2230SOL    HW2 7590   5.618   6.521   0.280
 2231SOL     OW 7591   0.612   0.555   1.550
 2231SOL    HW1 7592   0.580   0.465   1.579
 2231SOL    HW2 7593   0.587   0.569   1.454
 2232SOL     OW 7594   0.929   2.606   4.930
 2232SOL    HW1 7595   0.969   2.641   4.846
 2232SOL    HW2 7596   0.830   2.613   4.926
 2233SOL     OW 7597   1.612   3.357   0.326
 2233SOL    HW1 7598   1.616   3.418   0.405
 2233SOL    HW2 7599   1.585   3.409   0.245
 2234SOL     OW 7600   4.270   1.533   1.664
 2234SOL    HW1 7601   4.174   1.505   1.671
 2234SOL    HW2 7602   4.328   1.460   1.700
 2235SOL     OW 7603   2.655   6.938   1.635
 2235SOL    HW1 7604   2.686   6.843   1.642
 2235SOL    HW2 7605   2.664   6.969   1.540
 2236SOL     OW 7606   2.041   4.209   6.511
 2236SOL    HW1 7607   2.031   4.160   6.424
 2236SOL    HW2 7608   1.991   4.160   6.582
 2237SOL     OW 7609   5.866   4.954   4.461
 2237SOL    HW1 7610   5.829   4.873   4.507
 2237SOL    HW2 7611   5.837   5.037   4.508
 2238SOL     OW 7612   4.723   4.505   1.949
 2238SOL    HW1 7613   4.779   4.479   1.870
 2238SOL    HW2 7614   4.686   4.422   1.992
 2239SOL     OW 7615   3.514   5.204   3.955
 2239SOL    HW1 7616   3.497   5.115   3.913
 2239SOL    HW2 7617   3.455   5.215   4.035
 2240SOL     OW 7618   4.010   5.918   3.290
 2240SOL    HW1 7619   4.109   5.926   3.302
 2240SOL    HW2 7620   3.981   5.976   3.214
 2241SOL     OW 7621   0.467   5.342   3.375
 2241SOL    HW1 7622   0.385   5.400   3.373
 2241SOL    HW2 7623   0.495   5.321   3.281
 2242SOL     OW 7624   5.676   3.174   2.951
 2242SOL    HW1 7625   5.692   3.245   2.883
 2242SOL    HW2 7626   5.581   3.142   2.944
 2243SOL     OW 7627   1.541   6.766   6.276
 2243SOL    HW1 7628   1.499   6.820   6.348
 2243SOL    HW2 7629   1.515   6.670   6.286
 2244SOL     OW 7630   1.547   6.298   1.758
 2244SOL    HW1 7631   1.548   6.375   1.822
 2244SOL    HW2 7632   1.530   6.213   1.808
 2245SOL     OW 7633   0.794   2.367   1.000
 2245SOL    HW1 7634   0.792   2.382   0.901
 2245SOL    HW2 7635   0.855   2.290   1.020
 2246SOL     OW 7636   1.344   1.187   4.630
 2246SOL    HW1 7637   1.368   1.188   4.728
 2246SOL    HW2 7638   1.317   1.279   4.602
 2247SOL     OW 7639   3.584   3.062   3.972
 2247SOL    HW1 7640   3.616   2.996   3.903
 2247SOL    HW2 7641   3.658   3.082   4.036
 2248SOL     OW 7642   6.234   3.813   5.709
 2248SOL    HW1 7643   6.147   3.817   5.660
 2248SOL    HW2 7644   6.306   3.785   5.646
 2249SOL     OW 7645   5.704   6.407   3.509
 2249SOL    HW1 7646   5.645   6.357   3.572
 2249SOL    HW2 7647   5.738   6.490   3.554
 2250SOL     OW 7648   4.150   3.481   5.963
 2250SOL    HW1 7649   4.211   3.490   6.042
 2250SOL    HW2 7650   4.183   3.538   5.889
 2251SOL     OW 7651   5.233   0.160   6.192
 2251SOL    HW1 7652   5.212   0.257   6.204
 2251SOL    HW2 7653   5.331   0.148   6.180
 2252SOL     OW 7654   4.660   2.538   2.239
 2252SOL    HW1 7655   4.683   2.441   2.247
 2252SOL    HW2 7656   4.744   2.591   2.227
 2253SOL     OW 7657   0.421   4.128   6.934
 2253SOL    HW1 7658   0.419   4.033   6.963
 2253SOL    HW2 7659   0.402   4.133   6.836
 2254SOL     OW 7660   3.631   2.710   5.249
 2254SOL    HW1 7661   3.576   2.758   5.317
 2254SOL    HW2 7662   3.635   2.613   5.271
 2255SOL     OW 7663   4.632   3.275   5.977
 2255SOL    HW1 7664   4.587   3.215   6.043
 2255SOL    HW2 7665   4.673   3.219   5.905
 2256SOL     OW 7666   4.876   6.114   2.285
 2256SOL    HW1 7667   4.921   6.078   2.203
 2256SOL    HW2 7668   4.777   6.104   2.275
 2257SOL     OW 7669   0.098   2.250   4.637
 2257SOL    HW1 7670   0.019   2.295   4.678
 2257SOL    HW2 7671   0.103   2.272   4.540
 2258SOL     OW 7672   1.475   5.558   4.893
 2258SOL    HW1 7673   1.542   5.626   4.921
 2258SOL    HW2 7674   1.400   5.557   4.960
 2259SOL     OW 7675   5.316   3.675   6.363
 2259SOL    HW1 7676   5.396   3.705   6.416
 2259SOL    HW2 7677   5.233   3.701   6.411
 2260SOL     OW 7678   6.834   4.287   1.919
 2260SOL    HW1 7679   6.902   4.343   1.872
 2260SOL    HW2 7680   6.791   4.342   1.991
 2261SOL     OW 7681   6.317   5.644   6.811
 2261SOL    HW1 7682   6.312   5.620   6.714
 2261SOL    HW2 7683   6.411   5.632   6.843
 2262SOL     OW 7684   6.034   1.015   3.249
 2262SOL    HW1 7685   5.984   1.028   3.335
 2262SOL    HW2 7686   6.040   1.102   3.200
 2263SOL     OW 7687   3.079   6.290   6.241
 2263SOL    HW1 7688   2.997   6.235   6.261
 2263SOL    HW2 7689   3.109   6.271   6.148
 2264SOL     OW 7690   2.369   4.388   0.544
 2264SOL    HW1 7691   2.403   4.338   0.623
 2264SOL    HW2 7692   2.403   4.346   0.460
 2265SOL     OW 7693   1.101   0.419   4.191
 2265SOL    HW1 7694   1.075   0.322   4.190
 2265SOL    HW2 7695   1.099   0.453   4.285
 2266SOL     OW 7696   5.220   1.924   0.234
 2266SOL    HW1 7697   5.302   1.923   0.176
 2266SOL    HW2 7698   5.153   1.987   0.195
 2267SOL     OW 7699   4.793   2.151   4.829
 2267SOL    HW1 7700   4.750   2.085   4.890
 2267SOL    HW2 7701   4.764   2.132   4.735
 2268SOL     OW 7702   6.059   3.801   0.123
 2268SOL    HW1 7703   6.156   3.814   0.144
 2268SOL    HW2 7704   6.048   3.782   0.026
 2269SOL     OW 7705   6.267   4.947   5.394
 2269SOL    HW1 7706   6.314   4.866   5.357
 2269SOL    HW2 7707   6.333   5.004   5.443
 2270SOL     OW 7708   3.265   2.599   6.336
 2270SOL    HW1 7709   3.320   2.551   6.268
 2270SOL    HW2 7710   3.179   2.550   6.350
 2271SOL     OW 7711   4.974   3.667   0.578
 2271SOL    HW1 7712   5.039   3.742   0.588
 2271SOL    HW2 7713   5.022   3.580   0.590
 2272SOL     OW 7714   6.033   2.710   6.650
 2272SOL    HW1 7715   6.094   2.787   6.663
 2272SOL    HW2 7716   6.025   2.690   6.552
 2273SOL     OW 7717   1.480   1.290   2.366
 2273SOL    HW1 7718   1.432   1.251   2.287
 2273SOL    HW2 7719   1.419   1.352   2.415
 2274SOL     OW 7720   0.017   2.351   6.690
 2274SOL    HW1 7721   6.992   2.334   6.606
 2274SOL    HW2 7722   6.985   2.397   6.757
 2275SOL     OW 7723   6.492   6.810   4.327
 2275SOL    HW1 7724   6.397   6.795   4.356
 2275SOL    HW2 7725   6.496   6.888   4.264
 2276SOL     OW 7726   2.187   5.447   0.960
 2276SOL    HW1 7727   2.195   5.522   0.894
 2276SOL    HW2 7728   2.274   5.398   0.966
 2277SOL     OW 7729   3.554   3.698   4.349
 2277SOL    HW1 7730   3.467   3.737   4.380
 2277SOL    HW2 7731   3.620   3.772   4.335
 2278SOL     OW 7732   6.428   4.745   4.702
 2278SOL    HW1 7733   6.336   4.745   4.663
 2278SOL    HW2 7734   6.490   4.794   4.641
 2279SOL     OW 7735   5.565   6.892   5.711
 2279SOL    HW1 7736   5.661   6.876   5.734
 2279SOL    HW2 7737   5.558   6.928   5.618
 2280SOL     OW 7738   6.382   6.871   4.818
 2280SOL    HW1 7739   6.454   6.878   4.749
 2280SOL    HW2 7740   6.418   6.821   4.898
 2281SOL     OW 7741   3.375   1.180   2.273
 2281SOL    HW1 7742   3.419   1.224   2.351
 2281SOL    HW2 7743   3.425   1.202   2.189
 2282SOL     OW 7744   5.438   0.840   4.633
 2282SOL    HW1 7745   5.471   0.796   4.716
 2282SOL    HW2 7746   5.394   0.772   4.574
 2283SOL     OW 7747   0.358   4.838   1.158
 2283SOL    HW1 7748   0.452   4.820   1.187
 2283SOL    HW2 7749   0.296   4.775   1.204
 2284SOL     OW 7750   0.968   2.947   6.649
 2284SOL    HW1 7751   1.065   2.955   6.671
 2284SOL    HW2 7752   0.938   2.853   6.662
 2285SOL     OW 7753   2.143   2.266   1.078
 2285SOL    HW1 7754   2.131   2.169   1.099
 2285SOL    HW2 7755   2.218   2.303   1.134
 2286SOL     OW 7756   0.093   0.061   4.076
 2286SOL    HW1 7757   0.107   6.990   4.061
 2286SOL    HW2 7758   0.036   0.074   4.158
 2287SOL     OW 7759   1.969   0.644   3.033
 2287SOL    HW1 7760   2.048   0.669   2.977
 2287SOL    HW2 7761   1.997   0.577   3.102
 2288SOL     OW 7762   6.113   5.073   4.623
 2288SOL    HW1 7763   6.016   5.050   4.635
 2288SOL    HW2 7764   6.125   5.116   4.533
 2289SOL     OW 7765   0.595   4.876   2.003
 2289SOL    HW1 7766   0.509   4.882   2.052
 2289SOL    HW2 7767   0.655   4.810   2.047
 2290SOL     OW 7768   0.758   4.039   0.806
 2290SOL    HW1 7769   0.819   3.984   0.749
 2290SOL    HW2 7770   0.802   4.057   0.894
 2291SOL     OW 7771   2.773   2.694   5.607
 2291SOL    HW1 7772   2.683   2.650   5.600
 2291SOL    HW2 7773   2.794   2.741   5.521
 2292SOL     OW 7774   6.735   2.230   5.181
 2292SOL    HW1 7775   6.758   2.325   5.201
 2292SOL    HW2 7776   6.636   2.220   5.176
 2293SOL     OW 7777   4.407   6.494   1.233
 2293SOL    HW1 7778   4.412   6.465   1.137
 2293SOL    HW2 7779   4.452   6.583   1.243
 2294SOL     OW 7780   3.129   0.853   6.934
 2294SOL    HW1 7781   3.105   0.934   6.987
 2294SOL    HW2 7782   3.046   0.805   6.907
 2295SOL     OW 7783   0.683   2.006   2.688
 2295SOL    HW1 7784   0.782   1.999   2.684
 2295SOL    HW2 7785   0.654   2.099   2.663
 2296SOL     OW 7786   4.317   5.146   1.056
 2296SOL    HW1 7787   4.219   5.137   1.075
 2296SOL    HW2 7788   4.333   5.128   0.959
 2297SOL     OW 7789   4.407   4.511   5.648
 2297SOL    HW1 7790   4.401   4.461   5.562
 2297SOL    HW2 7791   4.396   4.609   5.631
 2298SOL     OW 7792   3.937   3.017   1.788
 2298SOL    HW1 7793   4.032   2.997   1.762
 2298SOL    HW2 7794   3.917   3.113   1.770
 2299SOL     OW 7795   3.918   5.907   5.205
 2299SOL    HW1 7796   3.862   5.921   5.123
 2299SOL    HW2 7797   3.917   5.810   5.230
 2300SOL     OW 7798   2.427   5.537   1.886
 2300SOL    HW1 7799   2.525   5.517   1.885
 2300SOL    HW2 7800   2.377   5.457   1.918
 2301SOL     OW 7801   3.385   2.889   3.149
 2301SOL    HW1 7802   3.303   2.858   3.100
 2301SOL    HW2 7803   3.364   2.898   3.246
 2302SOL     OW 7804   3.976   0.416   0.927
 2302SOL    HW1 7805   3.880   0.438   0.944
 2302SOL    HW2 7806   3.988   0.395   0.830
 2303SOL     OW 7807   2.700   3.247   6.218
 2303SOL    HW1 7808   2.620   3.307   6.217
 2303SOL    HW2 7809   2.694   3.184   6.296
 2304SOL     OW 7810   4.687   6.838   3.893
 2304SOL    HW1 7811   4.696   6.915   3.956
 2304SOL    HW2 7812   4.756   6.769   3.915
 2305SOL     OW 7813   2.429   6.347   2.624
 2305SOL    HW1 7814   2.375   6.431   2.634
 2305SOL    HW2 7815   2.520   6.362   2.662
 2306SOL     OW 7816   2.956   4.891   2.317
 2306SOL    HW1 7817   2.992   4.873   2.408
 2306SOL    HW2 7818   3.030   4.886   2.250
 2307SOL     OW 7819   6.334   3.745   2.654
 2307SOL    HW1 7820   6.423   3.739   2.609
 2307SOL    HW2 7821   6.333   3.825   2.714
 2308SOL     OW 7822   0.585   5.482   1.140
 2308SOL    HW1 7823   0.673   5.461   1.183
 2308SOL    HW2 7824   0.558   5.576   1.164
 2309SOL     OW 7825   1.649   0.877   6.609
 2309SOL    HW1 7826   1.635   0.809   6.538
 2309SOL    HW2 7827   1.693   0.958   6.571
 2310SOL     OW 7828   5.085   6.327   0.979
 2310SOL    HW1 7829   5.113   6.386   0.903
 2310SOL    HW2 7830   5.064   6.383   1.059
 2311SOL     OW 7831   2.065   6.338   1.839
 2311SOL    HW1 7832   2.149   6.376   1.879
 2311SOL    HW2 7833   2.040   6.255   1.889
 2312SOL     OW 7834   3.864   6.702   3.698
 2312SOL    HW1 7835   3.854   6.666   3.605
 2312SOL    HW2 7836   3.785   6.675   3.753
 2313SOL     OW 7837   5.633   5.746   1.746
 2313SOL    HW1 7838   5.653   5.827   1.690
 2313SOL    HW2 7839   5.606   5.671   1.686
 2314SOL     OW 7840   5.713   6.900   4.469
 2314SOL    HW1 7841   5.639   6.856   4.418
 2314SOL    HW2 7842   5.763   6.962   4.409
 2315SOL     OW 7843   5.132   3.356   5.442
 2315SOL    HW1 7844   5.165   3.431   5.385
 2315SOL    HW2 7845   5.192   3.277   5.431
 2316SOL     OW 7846   3.490   0.818   4.444
 2316SOL    HW1 7847   3.457   0.726   4.463
 2316SOL    HW2 7848   3.440   0.856   4.366
 2317SOL     OW 7849   0.300   5.950   3.699
 2317SOL    HW1 7850   0.225   5.885   3.692
 2317SOL    HW2 7851   0.324   5.982   3.607
 2318SOL     OW 7852   2.081   2.753   4.678
 2318SOL    HW1 7853   2.131   2.828   4.722
 2318SOL    HW2 7854   2.061   2.682   4.746
 2319SOL     OW 7855   1.740   5.053   4.368
 2319SOL    HW1 7856   1.734   5.012   4.459
 2319SOL    HW2 7857   1.822   5.020   4.322
 2320SOL     OW 7858   0.552   2.938   5.159
 2320SOL    HW1 7859   0.581   3.015   5.102
 2320SOL    HW2 7860   0.566   2.961   5.255
 2321SOL     OW 7861   2.427   6.352   6.881
 2321SOL    HW1 7862   2.380   6.416   6.941
 2321SOL    HW2 7863   2.389   6.359   6.788
 2322SOL     OW 7864   1.996   2.357   3.805
 2322SOL    HW1 7865   2.039   2.414   3.735
 2322SOL    HW2 7866   2.058   2.349   3.884
 2323SOL     OW 7867   3.160   4.925   2.090
 2323SOL    HW1 7868   3.136   5.019   2.065
 2323SOL    HW2 7869   3.253   4.923   2.127
 2324SOL     OW 7870   6.472   6.759   0.902
 2324SOL    HW1 7871   6.536   6.781   0.975
 2324SOL    HW2 7872   6.398   6.702   0.938
 2325SOL     OW 7873   0.709   4.813   1.507
 2325SOL    HW1 7874   0.659   4.805   1.593
 2325SOL    HW2 7875   0.779   4.885   1.516
 2326SOL     OW 7876   4.199   5.293   6.245
 2326SOL    HW1 7877   4.284   5.244   6.226
 2326SOL    HW2 7878   4.147   5.303   6.160
 2327SOL     OW 7879   6.639   2.229   3.538
 2327SOL    HW1 7880   6.638   2.255   3.441
 2327SOL    HW2 7881   6.546   2.235   3.574
 2328SOL     OW 7882   2.917   1.654   2.614
 2328SOL    HW1 7883   2.912   1.649   2.514
 2328SOL    HW2 7884   3.012   1.663   2.642
 2329SOL     OW 7885   1.777   4.052   4.704
 2329SOL    HW1 7886   1.812   4.009   4.621
 2329SOL    HW2 7887   1.764   4.150   4.687
 2330SOL     OW 7888   0.715   4.242   1.414
 2330SOL    HW1 7889   0.736   4.145   1.407
 2330SOL    HW2 7890   0.716   4.282   1.322
 2331SOL     OW 7891   4.553   5.344   0.220
 2331SOL    HW1 7892   4.602   5.409   0.162
 2331SOL    HW2 7893   4.524   5.266   0.165
 2332SOL     OW 7894   4.876   1.891   5.030
 2332SOL    HW1 7895   4.799   1.935   4.983
 2332SOL    HW2 7896   4.956   1.892   4.970
 2333SOL     OW 7897   0.640   4.852   2.984
 2333SOL    HW1 7898   0.644   4.951   3.003
 2333SOL    HW2 7899   0.587   4.807   3.056
 2334SOL     OW 7900   1.995   0.779   7.015
 2334SOL    HW1 7901   1.971   0.872   6.989
 2334SOL    HW2 7902   2.078   0.750   6.967
 2335SOL     OW 7903   6.353   0.744   2.876
 2335SOL    HW1 7904   6.451   0.728   2.861
 2335SOL    HW2 7905   6.301   0.699   2.804
 2336SOL     OW 7906   4.249   2.368   4.745
 2336SOL    HW1 7907   4.169   2.382   4.686
 2336SOL    HW2 7908   4.223   2.383   4.840
 2337SOL     OW 7909   4.725   1.430   2.409
 2337SOL    HW1 7910   4.710   1.440   2.507
 2337SOL    HW2 7911   4.760   1.338   2.390
 2338SOL     OW 7912   1.518   1.924   5.440
 2338SOL    HW1 7913   1.451   1.990   5.408
 2338SOL    HW2 7914   1.520   1.845   5.379
 2339SOL     OW 7915   3.847   3.897   4.882
 2339SOL    HW1 7916   3.759   3.871   4.843
 2339SOL    HW2 7917   3.837   3.982   4.934
 2340SOL     OW 7918   5.445   4.752   0.092
 2340SOL    HW1 7919   5.431   4.654   0.082
 2340SOL    HW2 7920   5.462   4.775   0.188
 2341SOL     OW 7921   4.477   4.904   1.560
 2341SOL    HW1 7922   4.566   4.937   1.592
 2341SOL    HW2 7923   4.419   4.982   1.534
 2342SOL     OW 7924   0.345   0.021   5.152
 2342SOL    HW1 7925   0.312   0.115   5.147
 2342SOL    HW2 7926   0.313   6.995   5.073
 2343SOL     OW 7927   2.526   5.969   2.380
 2343SOL    HW1 7928   2.543   5.870   2.378
 2343SOL    HW2 7929   2.441   5.988   2.331
 2344SOL     OW 7930   1.728   0.004   0.900
 2344SOL    HW1 7931   1.793   0.040   0.967
 2344SOL    HW2 7932   1.708   6.934   0.921
 2345SOL     OW 7933   3.386   5.305   4.591
 2345SOL    HW1 7934   3.435   5.217   4.587
 2345SOL    HW2 7935   3.350   5.326   4.500
 2346SOL     OW 7936   5.018   2.361   4.850
 2346SOL    HW1 7937   4.953   2.285   4.850
 2346SOL    HW2 7938   4.968   2.448   4.841
 2347SOL     OW 7939   2.531   3.402   1.696
 2347SOL    HW1 7940   2.445   3.424   1.742
 2347SOL    HW2 7941   2.605   3.400   1.763
 2348SOL     OW 7942   3.593   6.389   3.508
 2348SOL    HW1 7943   3.665   6.322   3.490
 2348SOL    HW2 7944   3.561   6.428   3.421
 2349SOL     OW 7945   1.082   4.651   6.023
 2349SOL    HW1 7946   1.011   4.722   6.032
 2349SOL    HW2 7947   1.103   4.614   6.114
 2350SOL     OW 7948   4.946   6.746   6.190
 2350SOL    HW1 7949   4.931   6.782   6.097
 2350SOL    HW2 7950   4.865   6.695   6.218
 2351SOL     OW 7951   3.419   4.922   3.018
 2351SOL    HW1 7952   3.432   4.944   3.114
 2351SOL    HW2 7953   3.324   4.940   2.993
 2352SOL     OW 7954   0.384   4.624   1.837
 2352SOL    HW1 7955   0.430   4.584   1.917
 2352SOL    HW2 7956   0.289   4.593   1.835
 2353SOL     OW 7957   3.130   4.584   5.325
 2353SOL    HW1 7958   3.059   4.550   5.264
 2353SOL    HW2 7959   3.123   4.684   5.330
 2354SOL     OW 7960   2.202   1.498   5.890
 2354SOL    HW1 7961   2.162   1.408   5.877
 2354SOL    HW2 7962   2.246   1.528   5.805
 2355SOL     OW 7963   1.604   6.138   0.192
 2355SOL    HW1 7964   1.590   6.127   0.093
 2355SOL    HW2 7965   1.681   6.083   0.222
 2356SOL     OW 7966   2.092   4.026   0.453
 2356SOL    HW1 7967   2.012   4.080   0.479
 2356SOL    HW2 7968   2.073   3.976   0.368
 2357SOL     OW 7969   4.541   6.126   4.132
 2357SOL    HW1 7970   4.455   6.077   4.134
 2357SOL    HW2 7971   4.617   6.061   4.136
 2358SOL     OW 7972   3.478   5.231   5.153
 2358SOL    HW1 7973   3.538   5.153   5.171
 2358SOL    HW2 7974   3.392   5.219   5.202
 2359SOL     OW 7975   0.292   0.741   6.173
 2359SOL    HW1 7976   0.296   0.784   6.083
 2359SOL    HW2 7977   0.250   0.650   6.165
 2360SOL     OW 7978   5.742   5.475   6.391
 2360SOL    HW1 7979   5.830   5.489   6.437
 2360SOL    HW2 7980   5.700   5.390   6.423
 2361SOL     OW 7981   2.148   0.893   5.316
 2361SOL    HW1 7982   2.062   0.939   5.291
 2361SOL    HW2 7983   2.225   0.946   5.279
 2362SOL     OW 7984   2.726   0.494   5.364
 2362SOL    HW1 7985   2.662   0.545   5.307
 2362SOL    HW2 7986   2.685   0.479   5.454
 2363SOL     OW 7987   4.381   2.479   5.435
 2363SOL    HW1 7988   4.315   2.532   5.488
 2363SOL    HW2 7989   4.398   2.392   5.481
 2364SOL     OW 7990   1.198   2.143   2.539
 2364SOL    HW1 7991   1.159   2.131   2.448
 2364SOL    HW2 7992   1.297   2.132   2.534
 2365SOL     OW 7993   5.825   2.548   6.950
 2365SOL    HW1 7994   5.737   2.510   6.923
 2365SOL    HW2 7995   5.894   2.524   6.882
 2366SOL     OW 7996   1.505   4.396   6.362
 2366SOL    HW1 7997   1.522   4.489   6.328
 2366SOL    HW2 7998   1.583   4.365   6.415
 2367SOL     OW 7999   3.430   4.014   0.627
 2367SOL    HW1 8000   3.503   4.015   0.695
 2367SOL    HW2 8001   3.467   4.045   0.539
 2368SOL     OW 8002   4.841   0.038   2.957
 2368SOL    HW1 8003   4.898   0.112   2.991
 2368SOL    HW2 8004   4.766   0.022   3.021
 2369SOL     OW 8005   1.465   2.673   5.302
 2369SOL    HW1 8006   1.468   2.611   5.380
 2369SOL    HW2 8007   1.506   2.628   5.222
 2370SOL     OW 8008   4.688   4.270   6.199
 2370SOL    HW1 8009   4.613   4.212   6.168
 2370SOL    HW2 8010   4.661   4.318   6.282
 2371SOL     OW 8011   0.225   6.417   1.951
 2371SOL    HW1 8012   0.206   6.320   1.962
 2371SOL    HW2 8013   0.153   6.471   1.996
 2372SOL     OW 8014   6.832   1.818   1.227
 2372SOL    HW1 8015   6.798   1.724   1.216
 2372SOL    HW2 8016   6.768   1.882   1.184
 2373SOL     OW 8017   0.246   0.220   0.008
 2373SOL    HW1 8018   0.307   0.144   0.028
 2373SOL    HW2 8019   0.291   0.306   0.032
 2374SOL     OW 8020   6.139   0.688   4.045
 2374SOL    HW1 8021   6.219   0.704   4.102
 2374SOL    HW2 8022   6.167   0.645   3.959
 2375SOL     OW 8023   1.875   6.863   3.664
 2375SOL    HW1 8024   1.870   6.781   3.721
 2375SOL    HW2 8025   1.947   6.852   3.595
 2376SOL     OW 8026   6.151   2.333   4.586
 2376SOL    HW1 8027   6.209   2.413   4.599
 2376SOL    HW2 8028   6.066   2.361   4.542
 2377SOL     OW 8029   3.338   4.079   3.067
 2377SOL    HW1 8030   3.324   3.979   3.065
 2377SOL    HW2 8031   3.403   4.101   3.139
 2378SOL     OW 8032   4.889   2.486   0.483
 2378SOL    HW1 8033   4.882   2.452   0.576
 2378SOL    HW2 8034   4.904   2.585   0.484
 2379SOL     OW 8035   6.039   1.896   6.357
 2379SOL    HW1 8036   6.001   1.869   6.445
 2379SOL    HW2 8037   6.137   1.876   6.355
 2380SOL     OW 8038   0.212   0.139   5.943
 2380SOL    HW1 8039   0.248   0.052   5.910
 2380SOL    HW2 8040   0.126   0.123   5.992
 2381SOL     OW 8041   2.159   3.792   4.266
 2381SOL    HW1 8042   2.167   3.862   4.337
 2381SOL    HW2 8043   2.111   3.712   4.302
 2382SOL     OW 8044   2.367   4.884   3.503
 2382SOL    HW1 8045   2.270   4.872   3.480
 2382SOL    HW2 8046   2.383   4.979   3.529
 2383SOL     OW 8047   5.829   6.589   0.489
 2383SOL    HW1 8048   5.764   6.526   0.530
 2383SOL    HW2 8049   5.798   6.615   0.397
 2384SOL     OW 8050   6.451   6.354   2.285
 2384SOL    HW1 8051   6.470   6.275   2.226
 2384SOL    HW2 8052   6.516   6.356   2.360
 2385SOL     OW 8053   6.324   6.538   1.039
 2385SOL    HW1 8054   6.378   6.494   1.110
 2385SOL    HW2 8055   6.282   6.621   1.076
 2386SOL     OW 8056   5.277   5.818   4.424
 2386SOL    HW1 8057   5.283   5.718   4.423
 2386SOL    HW2 8058   5.326   5.854   4.503
 2387SOL     OW 8059   0.979   1.716   3.776
 2387SOL    HW1 8060   0.989   1.785   3.704
 2387SOL    HW2 8061   1.065   1.709   3.827
 2388SOL     OW 8062   1.394   2.035   3.439
 2388SOL    HW1 8063   1.389   2.091   3.522
 2388SOL    HW2 8064   1.306   2.038   3.391
 2389SOL     OW 8065   5.237   3.265   3.472
 2389SOL    HW1 8066   5.304   3.219   3.413
 2389SOL    HW2 8067   5.269   3.262   3.567
 2390SOL     OW 8068   3.602   3.753   3.896
 2390SOL    HW1 8069   3.535   3.679   3.889
 2390SOL    HW2 8070   3.655   3.742   3.980
 2391SOL     OW 8071   4.682   5.137   5.648
 2391SOL    HW1 8072   4.661   5.080   5.569
 2391SOL    HW2 8073   4.736   5.216   5.619
 2392SOL     OW 8074   4.004   0.363   5.114
 2392SOL    HW1 8075   3.925   0.389   5.060
 2392SOL    HW2 8076   4.060   0.297   5.063
 2393SOL     OW 8077   4.461   5.239   6.121
 2393SOL    HW1 8078   4.550   5.282   6.109
 2393SOL    HW2 8079   4.470   5.159   6.180
 2394SOL     OW 8080   2.149   3.252   4.512
 2394SOL    HW1 8081   2.165   3.328   4.575
 2394SOL    HW2 8082   2.058   3.260   4.471
 2395SOL     OW 8083   6.182   2.456   0.016
 2395SOL    HW1 8084   6.138   2.460   6.951
 2395SOL    HW2 8085   6.270   2.503   0.012
 2396SOL     OW 8086   3.775   5.398   1.174
 2396SOL    HW1 8087   3.676   5.403   1.159
 2396SOL    HW2 8088   3.794   5.404   1.272
 2397SOL     OW 8089   6.997   4.259   0.048
 2397SOL    HW1 8090   6.953   4.226   0.131
 2397SOL    HW2 8091   7.022   4.181   7.016
 2398SOL     OW 8092   2.962   3.908   6.433
 2398SOL    HW1 8093   2.898   3.862   6.495
 2398SOL    HW2 8094   2.986   3.997   6.471
 2399SOL     OW 8095   4.924   1.275   2.905
 2399SOL    HW1 8096   4.932   1.249   3.001
 2399SOL    HW2 8097   4.836   1.243   2.869
 2400SOL     OW 8098   3.639   5.487   0.504
 2400SOL    HW1 8099   3.541   5.470   0.505
 2400SOL    HW2 8100   3.685   5.421   0.445
 2401SOL     OW 8101   4.389   6.962   6.108
 2401SOL    HW1 8102   4.405   6.928   6.200
 2401SOL    HW2 8103   4.458   6.924   6.046
 2402SOL     OW 8104   0.716   1.105   4.464
 2402SOL    HW1 8105   0.739   1.189   4.513
 2402SOL    HW2 8106   0.696   1.126   4.368
 2403SOL     OW 8107   2.438   2.375   0.225
 2403SOL    HW1 8108   2.477   2.431   0.152
 2403SOL    HW2 8109   2.449   2.423   0.312
 2404SOL     OW 8110   5.426   0.476   1.355
 2404SOL    HW1 8111   5.467   0.558   1.395
 2404SOL    HW2 8112   5.373   0.501   1.275
 2405SOL     OW 8113   3.546   3.429   3.232
 2405SOL    HW1 8114   3.637   3.395   3.208
 2405SOL    HW2 8115   3.492   3.354   3.269
 2406SOL     OW 8116   2.343   0.371   3.263
 2406SOL    HW1 8117   2.265   0.382   3.201
 2406SOL    HW2 8118   2.319   0.403   3.354
 2407SOL     OW 8119   5.476   2.701   2.993
 2407SOL    HW1 8120   5.526   2.736   3.072
 2407SOL    HW2 8121   5.540   2.652   2.933
 2408SOL     OW 8122   4.290   4.667   3.759
 2408SOL    HW1 8123   4.206   4.720   3.764
 2408SOL    HW2 8124   4.319   4.658   3.664
 2409SOL     OW 8125   1.619   2.805   1.167
 2409SOL    HW1 8126   1.550   2.732   1.165
 2409SOL    HW2 8127   1.600   2.871   1.094
 2410SOL     OW 8128   4.887   2.608   6.262
 2410SOL    HW1 8129   4.834   2.651   6.335
 2410SOL    HW2 8130   4.969   2.566   6.301
 2411SOL     OW 8131   4.453   5.515   5.612
 2411SOL    HW1 8132   4.438   5.544   5.707
 2411SOL    HW2 8133   4.434   5.417   5.604
 2412SOL     OW 8134   3.739   4.553   0.514
 2412SOL    HW1 8135   3.822   4.599   0.483
 2412SOL    HW2 8136   3.745   4.455   0.492
 2413SOL     OW 8137   6.382   1.931   0.522
 2413SOL    HW1 8138   6.301   1.913   0.466
 2413SOL    HW2 8139   6.445   1.854   0.515
 2414SOL     OW 8140   4.949   3.976   1.949
 2414SOL    HW1 8141   5.044   3.992   1.978
 2414SOL    HW2 8142   4.887   4.028   2.008
 2415SOL     OW 8143   0.750   6.727   2.070
 2415SOL    HW1 8144   0.826   6.787   2.097
 2415SOL    HW2 8145   0.664   6.765   2.103
 2416SOL     OW 8146   3.304   2.046   5.004
 2416SOL    HW1 8147   3.333   2.036   5.100
 2416SOL    HW2 8148   3.234   2.116   4.998
 2417SOL     OW 8149   4.261   3.166   5.641
 2417SOL    HW1 8150   4.248   3.265   5.632
 2417SOL    HW2 8151   4.340   3.137   5.588
 2418SOL     OW 8152   3.169   3.949   4.031
 2418SOL    HW1 8153   3.159   3.960   3.932
 2418SOL    HW2 8154   3.265   3.932   4.053
 2419SOL     OW 8155   0.861   6.186   3.826
 2419SOL    HW1 8156   0.898   6.224   3.911
 2419SOL    HW2 8157   0.764   6.210   3.818
 2420SOL     OW 8158   3.907   1.691   1.437
 2420SOL    HW1 8159   3.983   1.756   1.440
 2420SOL    HW2 8160   3.824   1.736   1.471
 2421SOL     OW 8161   2.574   1.446   5.404
 2421SOL    HW1 8162   2.645   1.418   5.339
 2421SOL    HW2 8163   2.551   1.542   5.388
 2422SOL     OW 8164   6.291   0.277   1.490
 2422SOL    HW1 8165   6.296   0.209   1.564
 2422SOL    HW2 8166   6.381   0.318   1.476
 2423SOL     OW 8167   1.460   6.460   3.893
 2423SOL    HW1 8168   1.421   6.523   3.826
 2423SOL    HW2 8169   1.394   6.388   3.914
 2424SOL     OW 8170   6.232   6.255   5.763
 2424SOL    HW1 8171   6.160   6.194   5.798
 2424SOL    HW2 8172   6.287   6.207   5.695
 2425SOL     OW 8173   6.379   0.441   4.118
 2425SOL    HW1 8174   6.374   0.467   4.215
 2425SOL    HW2 8175   6.336   0.352   4.104
 2426SOL     OW 8176   0.976   5.396   4.795
 2426SOL    HW1 8177   1.052   5.443   4.751
 2426SOL    HW2 8178   1.011   5.322   4.852
 2427SOL     OW 8179   5.515   5.426   6.723
 2427SOL    HW1 8180   5.431   5.396   6.770
 2427SOL    HW2 8181   5.540   5.357   6.654
 2428SOL     OW 8182   6.951   7.012   3.370
 2428SOL    HW1 8183   6.912   0.078   3.375
 2428SOL    HW2 8184   0.021   7.018   3.340
 2429SOL     OW 8185   6.470   5.743   4.633
 2429SOL    HW1 8186   6.484   5.658   4.684
 2429SOL    HW2 8187   6.385   5.786   4.663
 2430SOL     OW 8188   6.556   1.325   1.075
 2430SOL    HW1 8189   6.537   1.271   0.993
 2430SOL    HW2 8190   6.653   1.319   1.099
 2431SOL     OW 8191   4.043   0.170   2.199
 2431SOL    HW1 8192   4.122   0.195   2.144
 2431SOL    HW2 8193   4.015   0.247   2.256
 2432SOL     OW 8194   3.541   6.602   2.868
 2432SOL    HW1 8195   3.509   6.547   2.790
 2432SOL    HW2 8196   3.566   6.541   2.943
 2433SOL     OW 8197   3.192   6.749   1.190
 2433SOL    HW1 8198   3.285   6.730   1.158
 2433SOL    HW2 8199   3.144   6.805   1.122
 2434SOL     OW 8200   4.713   1.473   3.551
 2434SOL    HW1 8201   4.735   1.376   3.547
 2434SOL    HW2 8202   4.769   1.523   3.485
 2435SOL     OW 8203   4.692   5.377   6.077
 2435SOL    HW1 8204   4.755   5.374   6.000
 2435SOL    HW2 8205   4.709   5.460   6.130
 2436SOL     OW 8206   1.959   6.048   1.654
 2436SOL    HW1 8207   1.938   6.113   1.580
 2436SOL    HW2 8208   2.051   6.068   1.690
 2437SOL     OW 8209   3.901   5.706   0.858
 2437SOL    HW1 8210   3.948   5.784   0.816
 2437SOL    HW2 8211   3.873   5.730   0.951
 2438SOL     OW 8212   3.725   1.749   5.553
 2438SOL    HW1 8213   3.653   1.714   5.493
 2438SOL    HW2 8214   3.691   1.828   5.604
 2439SOL     OW 8215   0.880   4.297   6.500
 2439SOL    HW1 8216   0.909   4.269   6.408
 2439SOL    HW2 8217   0.950   4.270   6.566
 2440SOL     OW 8218   4.869   6.266   4.862
 2440SOL    HW1 8219   4.838   6.332   4.930
 2440SOL    HW2 8220   4.859   6.305   4.771
 2441SOL     OW 8221   6.545   0.571   0.127
 2441SOL    HW1 8222   6.613   0.644   0.123
 2441SOL    HW2 8223   6.494   0.570   0.041
 2442SOL     OW 8224   6.462   5.539   4.308
 2442SOL    HW1 8225   6.498   5.543   4.401
 2442SOL    HW2 8226   6.363   5.553   4.310
 2443SOL     OW 8227   3.381   6.423   5.366
 2443SOL    HW1 8228   3.465   6.391   5.322
 2443SOL    HW2 8229   3.373   6.380   5.456
 2444SOL     OW 8230   3.621   4.699   5.726
 2444SOL    HW1 8231   3.553   4.743   5.667
 2444SOL    HW2 8232   3.659   4.619   5.679
 2445SOL     OW 8233   0.561   0.308   1.654
 2445SOL    HW1 8234   0.533   0.230   1.598
 2445SOL    HW2 8235   0.495   0.321   1.729
 2446SOL     OW 8236   0.044   3.804   3.778
 2446SOL    HW1 8237   6.978   3.771   3.756
 2446SOL    HW2 8238   0.078   3.754   3.858
 2447SOL     OW 8239   3.195   1.779   0.676
 2447SOL    HW1 8240   3.195   1.851   0.607
 2447SOL    HW2 8241   3.283   1.730   0.673
 2448SOL     OW 8242   1.208   0.591   5.412
 2448SOL    HW1 8243   1.183   0.626   5.321
 2448SOL    HW2 8244   1.270   0.513   5.402
 2449SOL     OW 8245   6.907   4.475   1.429
 2449SOL    HW1 8246   6.881   4.566   1.397
 2449SOL    HW2 8247   6.884   4.466   1.526
 2450SOL     OW 8248   2.927   4.845   4.571
 2450SOL    HW1 8249   2.926   4.795   4.485
 2450SOL    HW2 8250   2.871   4.797   4.638
 2451SOL     OW 8251   0.615   0.486   3.318
 2451SOL    HW1 8252   0.549   0.418   3.285
 2451SOL    HW2 8253   0.609   0.493   3.417
 2452SOL     OW 8254   2.187   2.379   2.816
 2452SOL    HW1 8255   2.185   2.475   2.791
 2452SOL    HW2 8256   2.280   2.344   2.809
 2453SOL     OW 8257   6.505   3.573   1.311
 2453SOL    HW1 8258   6.415   3.617   1.309
 2453SOL    HW2 8259   6.523   3.539   1.403
 2454SOL     OW 8260   3.445   1.448   0.435
 2454SOL    HW1 8261   3.509   1.371   0.438
 2454SOL    HW2 8262   3.468   1.507   0.358
 2455SOL     OW 8263   5.530   6.541   0.710
 2455SOL    HW1 8264   5.524   6.640   0.697
 2455SOL    HW2 8265   5.563   6.522   0.803
 2456SOL     OW 8266   6.120   0.208   0.475
 2456SOL    HW1 8267   6.074   0.143   0.535
 2456SOL    HW2 8268   6.073   0.211   0.387
 2457SOL     OW 8269   6.673   6.153   0.286
 2457SOL    HW1 8270   6.604   6.225   0.292
 2457SOL    HW2 8271   6.733   6.157   0.366
 2458SOL     OW 8272   2.548   5.634   4.050
 2458SOL    HW1 8273   2.557   5.725   4.010
 2458SOL    HW2 8274   2.460   5.627   4.097
 2459SOL     OW 8275   2.666   6.758   0.539
 2459SOL    HW1 8276   2.579   6.777   0.493
 2459SOL    HW2 8277   2.677   6.660   0.552
 2460SOL     OW 8278   2.201   0.461   0.856
 2460SOL    HW1 8279   2.263   0.383   0.867
 2460SOL    HW2 8280   2.193   0.484   0.759
 2461SOL     OW 8281   4.699   0.609   2.715
 2461SOL    HW1 8282   4.699   0.598   2.814
 2461SOL    HW2 8283   4.784   0.572   2.677
 2462SOL     OW 8284   2.218   5.357   0.044
 2462SOL    HW1 8285   2.296   5.390   0.097
 2462SOL    HW2 8286   2.140   5.343   0.105
 2463SOL     OW 8287   6.241   2.185   4.380
 2463SOL    HW1 8288   6.221   2.224   4.290
 2463SOL    HW2 8289   6.198   2.241   4.451
 2464SOL     OW 8290   1.643   4.313   1.817
 2464SOL    HW1 8291   1.713   4.345   1.753
 2464SOL    HW2 8292   1.583   4.390   1.841
 2465SOL     OW 8293   6.670   5.995   1.245
 2465SOL    HW1 8294   6.655   5.985   1.146
 2465SOL    HW2 8295   6.662   5.906   1.289
 2466SOL     OW 8296   3.362   0.956   1.573
 2466SOL    HW1 8297   3.343   0.952   1.671
 2466SOL    HW2 8298   3.326   0.874   1.529
 2467SOL     OW 8299   5.728   1.886   5.569
 2467SOL    HW1 8300   5.630   1.907   5.571
 2467SOL    HW2 8301   5.780   1.970   5.564
 2468SOL     OW 8302   5.848   6.417   2.320
 2468SOL    HW1 8303   5.898   6.442   2.237
 2468SOL    HW2 8304   5.773   6.356   2.297
 2469SOL     OW 8305   3.727   5.032   5.169
 2469SOL    HW1 8306   3.679   4.953   5.205
 2469SOL    HW2 8307   3.713   5.037   5.070
 2470SOL     OW 8308   2.914   4.427   6.018
 2470SOL    HW1 8309   2.913   4.450   5.921
 2470SOL    HW2 8310   3.007   4.438   6.055
 2471SOL     OW 8311   1.814   6.121   1.922
 2471SOL    HW1 8312   1.821   6.095   1.826
 2471SOL    HW2 8313   1.844   6.045   1.980
 2472SOL     OW 8314   4.980   1.399   4.146
 2472SOL    HW1 8315   5.062   1.451   4.170
 2472SOL    HW2 8316   4.921   1.393   4.226
 2473SOL     OW 8317   1.649   3.897   5.417
 2473SOL    HW1 8318   1.654   3.971   5.350
 2473SOL    HW2 8319   1.701   3.923   5.499
 2474SOL     OW 8320   0.565   5.539   0.384
 2474SOL    HW1 8321   0.661   5.555   0.364
 2474SOL    HW2 8322   0.514   5.532   0.298
 2475SOL     OW 8323   4.673   1.309   0.788
 2475SOL    HW1 8324   4.615   1.237   0.751
 2475SOL    HW2 8325   4.766   1.300   0.751
 2476SOL     OW 8326   0.516   2.880   3.354
 2476SOL    HW1 8327   0.569   2.907   3.434
 2476SOL    HW2 8328   0.536   2.784   3.331
 2477SOL     OW 8329   6.193   0.137   2.622
 2477SOL    HW1 8330   6.288   0.170   2.623
 2477SOL    HW2 8331   6.131   0.215   2.617
 2478SOL     OW 8332   5.574   6.806   2.360
 2478SOL    HW1 8333   5.656   6.751   2.371
 2478SOL    HW2 8334   5.494   6.753   2.386
 2479SOL     OW 8335   0.877   3.483   1.421
 2479SOL    HW1 8336   0.875   3.465   1.323
 2479SOL    HW2 8337   0.963   3.450   1.459
 2480SOL     OW 8338   5.745   4.060   0.706
 2480SOL    HW1 8339   5.657   4.020   0.681
 2480SOL    HW2 8340   5.817   4.024   0.646
 2481SOL     OW 8341   2.985   6.661   0.209
 2481SOL    HW1 8342   3.064   6.674   0.149
 2481SOL    HW2 8343   2.983   6.733   0.278
 2482SOL     OW 8344   5.580   3.168   5.617
 2482SOL    HW1 8345   5.617   3.195   5.706
 2482SOL    HW2 8346   5.605   3.236   5.549
 2483SOL     OW 8347   2.709   1.105   0.152
 2483SOL    HW1 8348   2.649   1.164   0.205
 2483SOL    HW2 8349   2.662   1.075   0.069
 2484SOL     OW 8350   2.271   0.785   0.707
 2484SOL    HW1 8351   2.349   0.820   0.657
 2484SOL    HW2 8352   2.302   0.715   0.772
 2485SOL     OW 8353   4.458   4.837   1.998
 2485SOL    HW1 8354   4.445   4.849   1.899
 2485SOL    HW2 8355   4.442   4.924   2.044
 2486SOL     OW 8356   3.076   5.937   2.928
 2486SOL    HW1 8357   3.034   6.018   2.885
 2486SOL    HW2 8358   3.124   5.966   3.011
 2487SOL     OW 8359   3.954   5.241   6.914
 2487SOL    HW1 8360   3.938   5.338   6.894
 2487SOL    HW2 8361   3.886   5.186   6.865
 2488SOL     OW 8362   2.287   4.059   1.791
 2488SOL    HW1 8363   2.286   3.959   1.782
 2488SOL    HW2 8364   2.217   4.098   1.731
 2489SOL     OW 8365   2.262   4.915   4.310
 2489SOL    HW1 8366   2.349   4.963   4.310
 2489SOL    HW2 8367   2.261   4.848   4.236
 2490SOL     OW 8368   6.445   5.270   0.830
 2490SOL    HW1 8369   6.508   5.195   0.810
 2490SOL    HW2 8370   6.351   5.240   0.816
 2491SOL     OW 8371   2.028   5.513   3.006
 2491SOL    HW1 8372   2.001   5.488   3.099
 2491SOL    HW2 8373   2.039   5.612   3.000
 2492SOL     OW 8374   3.929   2.820   6.857
 2492SOL    HW1 8375   3.892   2.864   6.939
 2492SOL    HW2 8376   3.862   2.823   6.784
 2493SOL     OW 8377   6.031   0.565   3.164
 2493SOL    HW1 8378   6.033   0.495   3.235
 2493SOL    HW2 8379   6.073   0.530   3.081
 2494SOL     OW 8380   5.635   3.594   2.527
 2494SOL    HW1 8381   5.687   3.648   2.461
 2494SOL    HW2 8382   5.596   3.514   2.482
 2495SOL     OW 8383   4.946   0.546   4.983
 2495SOL    HW1 8384   4.874   0.476   4.987
 2495SOL    HW2 8385   4.973   0.560   4.888
 2496SOL     OW 8386   0.763   5.333   0.086
 2496SOL    HW1 8387   0.811   5.249   0.111
 2496SOL    HW2 8388   0.665   5.315   0.079
 2497SOL     OW 8389   0.083   1.898   0.447
 2497SOL    HW1 8390   0.161   1.881   0.507
 2497SOL    HW2 8391   0.063   1.816   0.394
 2498SOL     OW 8392   3.063   2.232   3.483
 2498SOL    HW1 8393   3.102   2.254   3.572
 2498SOL    HW2 8394   3.134   2.237   3.413
 2499SOL     OW 8395   5.234   1.243   4.633
 2499SOL    HW1 8396   5.293   1.323   4.644
 2499SOL    HW2 8397   5.267   1.188   4.556
 2500SOL     OW 8398   4.584   3.395   5.604
 2500SOL    HW1 8399   4.660   3.393   5.539
 2500SOL    HW2 8400   4.500   3.365   5.558
 2501SOL     OW 8401   6.721   5.401   6.631
 2501SOL    HW1 8402   6.720   5.436   6.724
 2501SOL    HW2 8403   6.734   5.302   6.632
 2502SOL     OW 8404   2.803   6.461   3.514
 2502SOL    HW1 8405   2.723   6.517   3.534
 2502SOL    HW2 8406   2.815   6.393   3.586
 2503SOL     OW 8407   3.883   5.786   5.477
 2503SOL    HW1 8408   3.818   5.862   5.465
 2503SOL    HW2 8409   3.838   5.700   5.458
 2504SOL     OW 8410   2.943   5.463   5.031
 2504SOL    HW1 8411   2.852   5.423   5.042
 2504SOL    HW2 8412   2.935   5.562   5.020
 2505SOL     OW 8413   2.731   6.318   4.135
 2505SOL    HW1 8414   2.744   6.346   4.230
 2505SOL    HW2 8415   2.738   6.218   4.128
 2506SOL     OW 8416   0.032   3.325   6.063
 2506SOL    HW1 8417   0.107   3.380   6.026
 2506SOL    HW2 8418   0.069   3.253   6.122
 2507SOL     OW 8419   6.197   4.996   6.819
 2507SOL    HW1 8420   6.131   5.041   6.880
 2507SOL    HW2 8421   6.162   4.906   6.794
 2508SOL     OW 8422   2.522   1.732   1.864
 2508SOL    HW1 8423   2.558   1.639   1.866
 2508SOL    HW2 8424   2.491   1.754   1.772
 2509SOL     OW 8425   5.898   2.609   2.584
 2509SOL    HW1 8426   5.903   2.602   2.485
 2509SOL    HW2 8427   5.945   2.692   2.614
 2510SOL     OW 8428   2.782   4.352   0.726
 2510SOL    HW1 8429   2.705   4.290   0.710
 2510SOL    HW2 8430   2.849   4.308   0.785
 2511SOL     OW 8431   1.407   1.558   4.858
 2511SOL    HW1 8432   1.329   1.533   4.802
 2511SOL    HW2 8433   1.457   1.475   4.886
 2512SOL     OW 8434   5.775   4.622   4.978
 2512SOL    HW1 8435   5.716   4.680   4.921
 2512SOL    HW2 8436   5.836   4.569   4.919
 2513SOL     OW 8437   1.527   2.425   6.182
 2513SOL    HW1 8438   1.609   2.430   6.126
 2513SOL    HW2 8439   1.542   2.473   6.268
 2514SOL     OW 8440   0.657   3.010   3.548
 2514SOL    HW1 8441   0.665   3.011   3.647
 2514SOL    HW2 8442   0.656   3.104   3.513
 2515SOL     OW 8443   1.019   6.490   1.038
 2515SOL    HW1 8444   1.101   6.539   1.008
 2515SOL    HW2 8445   1.035   6.392   1.034
 2516SOL     OW 8446   6.408   5.387   2.739
 2516SOL    HW1 8447   6.366   5.458   2.795
 2516SOL    HW2 8448   6.352   5.304   2.740
 2517SOL     OW 8449   2.104   5.414   5.900
 2517SOL    HW1 8450   2.089   5.346   5.829
 2517SOL    HW2 8451   2.022   5.470   5.910
 2518SOL     OW 8452   1.907   3.356   0.203
 2518SOL    HW1 8453   1.836   3.396   0.261
 2518SOL    HW2 8454   1.895   3.257   0.198
 2519SOL     OW 8455   5.079   4.704   4.550
 2519SOL    HW1 8456   5.131   4.718   4.466
 2519SOL    HW2 8457   5.069   4.606   4.566
 2520SOL     OW 8458   1.010   2.588   1.246
 2520SOL    HW1 8459   1.069   2.514   1.281
 2520SOL    HW2 8460   1.059   2.675   1.252
 2521SOL     OW 8461   1.140   6.975   6.113
 2521SOL    HW1 8462   1.098   7.018   6.032
 2521SOL    HW2 8463   1.069   6.932   6.168
 2522SOL     OW 8464   0.706   3.082   5.370
 2522SOL    HW1 8465   0.690   3.176   5.339
 2522SOL    HW2 8466   0.620   3.043   5.404
 2523SOL     OW 8467   6.830   2.865   1.004
 2523SOL    HW1 8468   6.867   2.824   0.921
 2523SOL    HW2 8469   6.748   2.918   0.983
 2524SOL     OW 8470   0.454   6.189   4.474
 2524SOL    HW1 8471   0.520   6.128   4.429
 2524SOL    HW2 8472   0.502   6.269   4.510
 2525SOL     OW 8473   1.914   2.907   3.883
 2525SOL    HW1 8474   1.951   2.852   3.809
 2525SOL    HW2 8475   1.980   2.908   3.959
 2526SOL     OW 8476   0.418   3.477   5.641
 2526SOL    HW1 8477   0.391   3.388   5.605
 2526SOL    HW2 8478   0.485   3.519   5.579
 2527SOL     OW 8479   5.713   0.125   5.268
 2527SOL    HW1 8480   5.727   0.221   5.293
 2527SOL    HW2 8481   5.766   0.067   5.330
 2528SOL     OW 8482   6.085   4.511   1.482
 2528SOL    HW1 8483   6.052   4.581   1.419
 2528SOL    HW2 8484   6.180   4.531   1.506
 2529SOL     OW 8485   5.654   4.853   5.818
 2529SOL    HW1 8486   5.566   4.811   5.838
 2529SOL    HW2 8487   5.728   4.798   5.858
 2530SOL     OW 8488   1.208   6.596   4.644
 2530SOL    HW1 8489   1.160   6.672   4.689
 2530SOL    HW2 8490   1.225   6.619   4.549
 2531SOL     OW 8491   5.836   6.132   4.579
 2531SOL    HW1 8492   5.790   6.103   4.495
 2531SOL    HW2 8493   5.781   6.201   4.625
 2532SOL     OW 8494   0.586   5.723   0.830
 2532SOL    HW1 8495   0.647   5.654   0.792
 2532SOL    HW2 8496   0.605   5.811   0.787
 2533SOL     OW 8497   5.289   6.381   4.760
 2533SOL    HW1 8498   5.345   6.460   4.782
 2533SOL    HW2 8499   5.332   6.298   4.797
 2534SOL     OW 8500   2.368   0.723   3.160
 2534SOL    HW1 8501   2.444   0.659   3.145
 2534SOL    HW2 8502   2.298   0.708   3.091
 2535SOL     OW 8503   2.323   2.176   6.372
 2535SOL    HW1 8504   2.224   2.163   6.376
 2535SOL    HW2 8505   2.348   2.257   6.424
 2536SOL     OW 8506   0.897   1.874   3.285
 2536SOL    HW1 8507   0.979   1.824   3.259
 2536SOL    HW2 8508   0.821   1.847   3.225
 2537SOL     OW 8509   4.944   6.217   0.653
 2537SOL    HW1 8510   4.880   6.145   0.625
 2537SOL    HW2 8511   4.897   6.283   0.711
 2538SOL     OW 8512   1.745   4.071   5.195
 2538SOL    HW1 8513   1.843   4.086   5.188
 2538SOL    HW2 8514   1.710   4.038   5.108
 2539SOL     OW 8515   4.292   6.922   5.371
 2539SOL    HW1 8516   4.383   6.941   5.408
 2539SOL    HW2 8517   4.223   6.949   5.437
 2540SOL     OW 8518   5.180   0.795   1.342
 2540SOL    HW1 8519   5.201   0.743   1.259
 2540SOL    HW2 8520   5.264   0.837   1.377
 2541SOL     OW 8521   1.501   0.576   5.860
 2541SOL    HW1 8522   1.415   0.584   5.809
 2541SOL    HW2 8523   1.497   0.634   5.941
 2542SOL     OW 8524   3.795   2.141   4.492
 2542SOL    HW1 8525   3.804   2.041   4.490
 2542SOL    HW2 8526   3.850   2.181   4.418
 2543SOL     OW 8527   2.356   0.366   2.740
 2543SOL    HW1 8528   2.428   0.406   2.797
 2543SOL    HW2 8529   2.363   0.266   2.743
 2544SOL     OW 8530   0.610   5.086   2.200
 2544SOL    HW1 8531   0.565   5.047   2.120
 2544SOL    HW2 8532   0.606   5.186   2.196
 2545SOL     OW 8533   1.582   0.856   1.682
 2545SOL    HW1 8534   1.651   0.831   1.751
 2545SOL    HW2 8535   1.567   0.955   1.684
 2546SOL     OW 8536   6.598   3.053   0.965
 2546SOL    HW1 8537   6.521   3.113   0.943
 2546SOL    HW2 8538   6.676   3.108   0.996
 2547SOL     OW 8539   5.314   5.969   0.556
 2547SOL    HW1 8540   5.406   5.959   0.518
 2547SOL    HW2 8541   5.307   6.055   0.606
 2548SOL     OW 8542   2.316   0.331   4.697
 2548SOL    HW1 8543   2.235   0.366   4.651
 2548SOL    HW2 8544   2.354   0.402   4.757
 2549SOL     OW 8545   2.299   2.338   1.773
 2549SOL    HW1 8546   2.259   2.331   1.864
 2549SOL    HW2 8547   2.399   2.334   1.781
 2550SOL     OW 8548   5.505   0.663   6.908
 2550SOL    HW1 8549   5.426   0.687   6.964
 2550SOL    HW2 8550   5.516   0.564   6.906
 2551SOL     OW 8551   3.389   5.356   0.193
 2551SOL    HW1 8552   3.383   5.453   0.174
 2551SOL    HW2 8553   3.355   5.338   0.286
 2552SOL     OW 8554   2.160   5.299   6.687
 2552SOL    HW1 8555   2.228   5.273   6.755
 2552SOL    HW2 8556   2.156   5.399   6.681
 2553SOL     OW 8557   3.134   2.905   6.143
 2553SOL    HW1 8558   3.062   2.872   6.204
 2553SOL    HW2 8559   3.093   2.941   6.059
 2554SOL     OW 8560   1.802   5.801   6.715
 2554SOL    HW1 8561   1.877   5.799   6.649
 2554SOL    HW2 8562   1.823   5.740   6.791
 2555SOL     OW 8563   6.224   6.404   6.643
 2555SOL    HW1 8564   6.157   6.396   6.717
 2555SOL    HW2 8565   6.210   6.330   6.577
 2556SOL     OW 8566   3.856   6.401   1.057
 2556SOL    HW1 8567   3.850   6.493   1.095
 2556SOL    HW2 8568   3.874   6.336   1.131
 2557SOL     OW 8569   2.729   0.460   6.929
 2557SOL    HW1 8570   2.801   0.406   6.885
 2557SOL    HW2 8571   2.686   0.405   7.001
 2558SOL     OW 8572   4.317   4.168   5.621
 2558SOL    HW1 8573   4.360   4.223   5.548
 2558SOL    HW2 8574   4.258   4.099   5.579
 2559SOL     OW 8575   6.523   3.263   3.849
 2559SOL    HW1 8576   6.575   3.278   3.934
 2559SOL    HW2 8577   6.479   3.174   3.852
 2560SOL     OW 8578   5.229   3.737   3.932
 2560SOL    HW1 8579   5.215   3.638   3.924
 2560SOL    HW2 8580   5.284   3.769   3.855
 2561SOL     OW 8581   3.878   1.346   3.286
 2561SOL    HW1 8582   3.800   1.384   3.336
 2561SOL    HW2 8583   3.945   1.310   3.350
 2562SOL     OW 8584   2.976   5.508   3.490
 2562SOL    HW1 8585   3.017   5.417   3.482
 2562SOL    HW2 8586   2.950   5.541   3.399
 2563SOL     OW 8587   3.417   1.455   5.914
 2563SOL    HW1 8588   3.488   1.415   5.971
 2563SOL    HW2 8589   3.442   1.549   5.891
 2564SOL     OW 8590   1.963   6.357   0.009
 2564SOL    HW1 8591   2.019   6.398   0.082
 2564SOL    HW2 8592   1.874   6.402   0.006
 2565SOL     OW 8593   0.331   0.417   0.310
 2565SOL    HW1 8594   0.426   0.446   0.299
 2565SOL    HW2 8595   0.325   0.317   0.306
 2566SOL     OW 8596   2.212   6.680   1.434
 2566SOL    HW1 8597   2.282   6.749   1.417
 2566SOL    HW2 8598   2.121   6.722   1.426
 2567SOL     OW 8599   1.677   1.349   1.510
 2567SOL    HW1 8600   1.738   1.402   1.451
 2567SOL    HW2 8601   1.705   1.361   1.606
 2568SOL     OW 8602   2.999   0.060   0.647
 2568SOL    HW1 8603   3.050   0.126   0.702
 2568SOL    HW2 8604   2.940   0.005   0.707
 2569SOL     OW 8605   2.235   1.441   2.092
 2569SOL    HW1 8606   2.151   1.433   2.039
 2569SOL    HW2 8607   2.313   1.447   2.030
 2570SOL     OW 8608   4.528   6.577   6.373
 2570SOL    HW1 8609   4.517   6.649   6.441
 2570SOL    HW2 8610   4.458   6.507   6.387
 2571SOL     OW 8611   3.872   3.013   4.739
 2571SOL    HW1 8612   3.848   3.103   4.703
 2571SOL    HW2 8613   3.788   2.962   4.759
 2572SOL     OW 8614   2.463   6.142   1.033
 2572SOL    HW1 8615   2.533   6.073   1.050
 2572SOL    HW2 8616   2.487   6.195   0.952
 2573SOL     OW 8617   6.357   1.222   2.809
 2573SOL    HW1 8618   6.340   1.254   2.902
 2573SOL    HW2 8619   6.324   1.289   2.743
 2574SOL     OW 8620   5.946   3.666   0.786
 2574SOL    HW1 8621   5.954   3.764   0.805
 2574SOL    HW2 8622   6.037   3.629   0.765
 2575SOL     OW 8623   5.392   3.468   1.702
 2575SOL    HW1 8624   5.303   3.514   1.692
 2575SOL    HW2 8625   5.377   3.369   1.709
 2576SOL     OW 8626   3.884   6.999   3.977
 2576SOL    HW1 8627   3.917   7.000   3.883
 2576SOL    HW2 8628   3.857   0.065   4.005
 2577SOL     OW 8629   5.006   0.257   3.611
 2577SOL    HW1 8630   5.066   0.334   3.631
 2577SOL    HW2 8631   5.059   0.183   3.570
 2578SOL     OW 8632   4.934   2.663   5.072
 2578SOL    HW1 8633   5.029   2.634   5.083
 2578SOL    HW2 8634   4.903   2.640   4.980
 2579SOL     OW 8635   1.326   1.135   5.217
 2579SOL    HW1 8636   1.264   1.066   5.253
 2579SOL    HW2 8637   1.327   1.130   5.117
 2580SOL     OW 8638   1.759   2.672   6.201
 2580SOL    HW1 8639   1.823   2.612   6.153
 2580SOL    HW2 8640   1.731   2.629   6.286
 2581SOL     OW 8641   6.019   4.911   1.898
 2581SOL    HW1 8642   5.944   4.933   1.835
 2581SOL    HW2 8643   5.988   4.841   1.962
 2582SOL     OW 8644   2.178   4.730   3.088
 2582SOL    HW1 8645   2.189   4.689   3.179
 2582SOL    HW2 8646   2.096   4.787   3.087
 2583SOL     OW 8647   1.879   0.974   0.928
 2583SOL    HW1 8648   1.825   1.045   0.972
 2583SOL    HW2 8649   1.971   0.972   0.968
 2584SOL     OW 8650   4.228   5.957   0.101
 2584SOL    HW1 8651   4.198   6.052   0.097
 2584SOL    HW2 8652   4.148   5.897   0.096
 2585SOL     OW 8653   3.247   0.312   0.483
 2585SOL    HW1 8654   3.225   0.272   0.573
 2585SOL    HW2 8655   3.298   0.397   0.496
 2586SOL     OW 8656   4.648   1.280   4.745
 2586SOL    HW1 8657   4.590   1.278   4.827
 2586SOL    HW2 8658   4.601   1.330   4.672
 2587SOL     OW 8659   6.794   0.551   4.626
 2587SOL    HW1 8660   6.863   0.542   4.554
 2587SOL    HW2 8661   6.762   0.460   4.653
 2588SOL     OW 8662   4.516   0.300   0.376
 2588SOL    HW1 8663   4.441   0.243   0.410
 2588SOL    HW2 8664   4.585   0.309   0.447
 2589SOL     OW 8665   0.467   6.513   5.796
 2589SOL    HW1 8666   0.552   6.465   5.819
 2589SOL    HW2 8667   0.458   6.520   5.696
 2590SOL     OW 8668   4.035   6.854   2.852
 2590SOL    HW1 8669   4.049   6.929   2.916
 2590SOL    HW2 8670   4.117   6.798   2.846
 2591SOL     OW 8671   5.350   5.854   2.648
 2591SOL    HW1 8672   5.430   5.807   2.686
 2591SOL    HW2 8673   5.323   5.928   2.709
 2592SOL     OW 8674   2.366   6.186   1.761
 2592SOL    HW1 8675   2.332   6.280   1.751
 2592SOL    HW2 8676   2.309   6.137   1.826
 2593SOL     OW 8677   3.436   6.489   1.936
 2593SOL    HW1 8678   3.390   6.536   2.012
 2593SOL    HW2 8679   3.521   6.538   1.914
 2594SOL     OW 8680   6.901   6.211   5.775
 2594SOL    HW1 8681   6.958   6.285   5.811
 2594SOL    HW2 8682   6.929   6.124   5.816
 2595SOL     OW 8683   6.728   1.851   5.898
 2595SOL    HW1 8684   6.711   1.892   5.808
 2595SOL    HW2 8685   6.805   1.897   5.942
 2596SOL     OW 8686   3.527   1.780   1.934
 2596SOL    HW1 8687   3.624   1.795   1.915
 2596SOL    HW2 8688   3.483   1.740   1.853
 2597SOL     OW 8689   1.921   3.856   0.703
 2597SOL    HW1 8690   1.926   3.899   0.613
 2597SOL    HW2 8691   2.012   3.827   0.731
 2598SOL     OW 8692   5.694   1.817   4.441
 2598SOL    HW1 8693   5.781   1.866   4.449
 2598SOL    HW2 8694   5.647   1.816   4.529
 2599SOL     OW 8695   3.690   5.763   0.395
 2599SOL    HW1 8696   3.723   5.824   0.466
 2599SOL    HW2 8697   3.664   5.675   0.436
 2600SOL     OW 8698   4.903   3.713   4.583
 2600SOL    HW1 8699   4.870   3.764   4.663
 2600SOL    HW2 8700   5.002   3.717   4.579
 2601SOL     OW 8701   3.718   1.828   6.328
 2601SOL    HW1 8702   3.774   1.882   6.391
 2601SOL    HW2 8703   3.776   1.790   6.256
 2602SOL     OW 8704   0.184   5.023   4.114
 2602SOL    HW1 8705   0.145   5.061   4.030
 2602SOL    HW2 8706   0.162   5.082   4.191
 2603SOL     OW 8707   2.749   2.176   1.598
 2603SOL    HW1 8708   2.753   2.081   1.566
 2603SOL    HW2 8709   2.837   2.202   1.637
 2604SOL     OW 8710   4.962   1.554   2.325
 2604SOL    HW1 8711   4.885   1.499   2.355
 2604SOL    HW2 8712   4.967   1.638   2.379
 2605SOL     OW 8713   3.882   5.307   3.684
 2605SOL    HW1 8714   3.817   5.338   3.615
 2605SOL    HW2 8715   3.852   5.336   3.775
 2606SOL     OW 8716   6.226   4.473   0.285
 2606SOL    HW1 8717   6.224   4.517   0.196
 2606SOL    HW2 8718   6.156   4.513   0.344
 2607SOL     OW 8719   0.373   1.825   6.272
 2607SOL    HW1 8720   0.342   1.903   6.328
 2607SOL    HW2 8721   0.473   1.820   6.276
 2608SOL     OW 8722   3.941   6.109   2.512
 2608SOL    HW1 8723   3.973   6.018   2.483
 2608SOL    HW2 8724   3.957   6.174   2.438
 2609SOL     OW 8725   0.565   2.433   1.296
 2609SOL    HW1 8726   0.532   2.506   1.236
 2609SOL    HW2 8727   0.520   2.440   1.385
 2610SOL     OW 8728   6.540   5.274   3.955
 2610SOL    HW1 8729   6.596   5.230   3.884
 2610SOL    HW2 8730   6.600   5.324   4.018
 2611SOL     OW 8731   5.568   6.716   0.955
 2611SOL    HW1 8732   5.610   6.799   0.991
 2611SOL    HW2 8733   5.631   6.639   0.967
 2612SOL     OW 8734   6.785   6.826   5.382
 2612SOL    HW1 8735   6.715   6.755   5.375
 2612SOL    HW2 8736   6.832   6.818   5.469
 2613SOL     OW 8737   2.817   6.075   1.632
 2613SOL    HW1 8738   2.883   6.002   1.646
 2613SOL    HW2 8739   2.725   6.037   1.622
 2614SOL     OW 8740   6.460   6.578   5.782
 2614SOL    HW1 8741   6.392   6.651   5.789
 2614SOL    HW2 8742   6.531   6.604   5.717
 2615SOL     OW 8743   5.555   4.348   2.855
 2615SOL    HW1 8744   5.541   4.263   2.803
 2615SOL    HW2 8745   5.615   4.329   2.932
 2616SOL     OW 8746   3.493   3.552   4.121
 2616SOL    HW1 8747   3.548   3.584   4.199
 2616SOL    HW2 8748   3.552   3.501   4.058
 2617SOL     OW 8749   3.127   6.406   1.295
 2617SOL    HW1 8750   3.033   6.372   1.307
 2617SOL    HW2 8751   3.165   6.431   1.384
 2618SOL     OW 8752   0.349   6.676   3.818
 2618SOL    HW1 8753   0.404   6.617   3.758
 2618SOL    HW2 8754   0.348   6.769   3.780
 2619SOL     OW 8755   3.337   1.321   3.424
 2619SOL    HW1 8756   3.364   1.410   3.461
 2619SOL    HW2 8757   3.349   1.251   3.494
 2620SOL     OW 8758   0.526   5.732   3.442
 2620SOL    HW1 8759   0.550   5.821   3.481
 2620SOL    HW2 8760   0.587   5.662   3.478
 2621SOL     OW 8761   1.944   6.253   3.007
 2621SOL    HW1 8762   1.880   6.328   2.989
 2621SOL    HW2 8763   2.037   6.285   2.991
 2622SOL     OW 8764   2.540   2.012   6.273
 2622SOL    HW1 8765   2.470   1.977   6.210
 2622SOL    HW2 8766   2.516   2.104   6.302
 2623SOL     OW 8767   3.473   1.837   5.004
 2623SOL    HW1 8768   3.422   1.922   4.995
 2623SOL    HW2 8769   3.479   1.792   4.914
 2624SOL     OW 8770   6.708   3.253   4.407
 2624SOL    HW1 8771   6.620   3.216   4.438
 2624SOL    HW2 8772   6.775   3.179   4.403
 2625SOL     OW 8773   2.427   2.921   5.432
 2625SOL    HW1 8774   2.446   2.964   5.343
 2625SOL    HW2 8775   2.355   2.972   5.479
 2626SOL     OW 8776   0.325   0.156   4.560
 2626SOL    HW1 8777   0.263   0.122   4.489
 2626SOL    HW2 8778   0.336   0.086   4.631
 2627SOL     OW 8779   0.044   0.777   4.810
 2627SOL    HW1 8780   0.094   0.844   4.756
 2627SOL    HW2 8781   6.972   0.785   4.790
 2628SOL     OW 8782   3.221   5.855   6.551
 2628SOL    HW1 8783   3.134   5.899   6.574
 2628SOL    HW2 8784   3.268   5.830   6.636
 2629SOL     OW 8785   3.249   4.115   2.453
 2629SOL    HW1 8786   3.236   4.209   2.423
 2629SOL    HW2 8787   3.287   4.114   2.545
 2630SOL     OW 8788   3.208   1.297   3.184
 2630SOL    HW1 8789   3.200   1.383   3.133
 2630SOL    HW2 8790   3.243   1.315   3.276
 2631SOL     OW 8791   4.787   0.140   4.389
 2631SOL    HW1 8792   4.825   0.054   4.355
 2631SOL    HW2 8793   4.845   0.216   4.359
 2632SOL     OW 8794   2.409   2.022   6.035
 2632SOL    HW1 8795   2.359   2.107   6.046
 2632SOL    HW2 8796   2.363   1.963   5.968
 2633SOL     OW 8797   6.381   2.282   6.332
 2633SOL    HW1 8798   6.325   2.362   6.350
 2633SOL    HW2 8799   6.478   2.308   6.333
 2634SOL     OW 8800   2.181   3.981   3.026
 2634SOL    HW1 8801   2.088   3.960   2.996
 2634SOL    HW2 8802   2.182   3.993   3.125
 2635SOL     OW 8803   6.100   6.204   4.589
 2635SOL    HW1 8804   6.146   6.160   4.512
 2635SOL    HW2 8805   6.001   6.194   4.580
 2636SOL     OW 8806   4.781   0.717   5.864
 2636SOL    HW1 8807   4.781   0.699   5.962
 2636SOL    HW2 8808   4.785   0.630   5.814
 2637SOL     OW 8809   6.485   1.046   3.930
 2637SOL    HW1 8810   6.513   1.120   3.869
 2637SOL    HW2 8811   6.520   1.064   4.022
 2638SOL     OW 8812   0.174   6.743   2.731
 2638SOL    HW1 8813   0.250   6.761   2.670
 2638SOL    HW2 8814   0.205   6.751   2.826
 2639SOL     OW 8815   0.445   0.362   1.903
 2639SOL    HW1 8816   0.524   0.377   1.963
 2639SOL    HW2 8817   0.377   0.434   1.918
 2640SOL     OW 8818   6.774   6.034   5.367
 2640SOL    HW1 8819   6.828   5.974   5.308
 2640SOL    HW2 8820   6.835   6.084   5.428
 2641SOL     OW 8821   5.402   2.763   2.294
 2641SOL    HW1 8822   5.474   2.733   2.358
 2641SOL    HW2 8823   5.340   2.687   2.276
 2642SOL     OW 8824   5.315   6.771   4.626
 2642SOL    HW1 8825   5.324   6.741   4.721
 2642SOL    HW2 8826   5.316   6.691   4.565
 2643SOL     OW 8827   1.516   4.847   3.355
 2643SOL    HW1 8828   1.471   4.932   3.383
 2643SOL    HW2 8829   1.526   4.787   3.434
 2644SOL     OW 8830   6.894   4.158   5.591
 2644SOL    HW1 8831   6.881   4.257   5.590
 2644SOL    HW2 8832   6.834   4.116   5.522
 2645SOL     OW 8833   4.290   6.604   4.091
 2645SOL    HW1 8834   4.358   6.561   4.150
 2645SOL    HW2 8835   4.245   6.533   4.035
 2646SOL     OW 8836   6.022   6.580   6.473
 2646SOL    HW1 8837   6.062   6.671   6.472
 2646SOL    HW2 8838   5.969   6.568   6.558
 2647SOL     OW 8839   5.324   0.683   1.128
 2647SOL    HW1 8840   5.423   0.679   1.115
 2647SOL    HW2 8841   5.278   0.656   1.043
 2648SOL     OW 8842   6.924   0.562   4.179
 2648SOL    HW1 8843   6.831   0.524   4.188
 2648SOL    HW2 8844   6.946   0.571   4.082
 2649SOL     OW 8845   4.875   2.265   6.034
 2649SOL    HW1 8846   4.943   2.192   6.021
 2649SOL    HW2 8847   4.908   2.348   5.990
 2650SOL     OW 8848   0.499   3.729   3.841
 2650SOL    HW1 8849   0.548   3.680   3.912
 2650SOL    HW2 8850   0.563   3.762   3.772
 2651SOL     OW 8851   1.011   1.681   0.166
 2651SOL    HW1 8852   0.979   1.592   0.135
 2651SOL    HW2 8853   0.991   1.690   0.264
 2652SOL     OW 8854   2.935   3.528   4.039
 2652SOL    HW1 8855   2.923   3.627   4.045
 2652SOL    HW2 8856   2.954   3.491   4.131
 2653SOL     OW 8857   5.090   6.915   5.282
 2653SOL    HW1 8858   5.071   7.013   5.285
 2653SOL    HW2 8859   5.032   6.872   5.213
 2654SOL     OW 8860   4.307   3.493   0.874
 2654SOL    HW1 8861   4.346   3.561   0.937
 2654SOL    HW2 8862   4.276   3.539   0.791
 2655SOL     OW 8863   5.395   4.627   4.732
 2655SOL    HW1 8864   5.370   4.564   4.805
 2655SOL    HW2 8865   5.395   4.579   4.645
 2656SOL     OW 8866   4.322   5.110   4.699
 2656SOL    HW1 8867   4.274   5.044   4.758
 2656SOL    HW2 8868   4.278   5.113   4.610
 2657SOL     OW 8869   2.531   4.557   6.469
 2657SOL    HW1 8870   2.494   4.486   6.409
 2657SOL    HW2 8871   2.459   4.622   6.492
 2658SOL     OW 8872   4.883   3.804   0.244
 2658SOL    HW1 8873   4.830   3.751   0.177
 2658SOL    HW2 8874   4.930   3.741   0.307
 2659SOL     OW 8875   6.424   2.708   4.417
 2659SOL    HW1 8876   6.391   2.686   4.326
 2659SOL    HW2 8877   6.463   2.800   4.417
 2660SOL     OW 8878   0.337   1.336   1.464
 2660SOL    HW1 8879   0.418   1.280   1.486
 2660SOL    HW2 8880   0.261   1.310   1.524
 2661SOL     OW 8881   2.272   6.533   2.090
 2661SOL    HW1 8882   2.299   6.512   2.184
 2661SOL    HW2 8883   2.352   6.524   2.030
 2662SOL     OW 8884   4.511   0.065   5.480
 2662SOL    HW1 8885   4.489   0.162   5.467
 2662SOL    HW2 8886   4.557   0.053   5.568
 2663SOL     OW 8887   2.899   3.890   1.575
 2663SOL    HW1 8888   2.819   3.939   1.610
 2663SOL    HW2 8889   2.883   3.791   1.580
 2664SOL     OW 8890   3.887   4.030   4.572
 2664SOL    HW1 8891   3.793   4.053   4.548
 2664SOL    HW2 8892   3.928   4.106   4.623
 2665SOL     OW 8893   2.657   1.873   4.806
 2665SOL    HW1 8894   2.739   1.911   4.848
 2665SOL    HW2 8895   2.582   1.939   4.815
 2666SOL     OW 8896   4.414   4.145   1.593
 2666SOL    HW1 8897   4.445   4.170   1.684
 2666SOL    HW2 8898   4.455   4.057   1.566
 2667SOL     OW 8899   1.886   5.943   4.646
 2667SOL    HW1 8900   1.883   5.979   4.552
 2667SOL    HW2 8901   1.815   5.874   4.657
 2668SOL     OW 8902   6.993   3.067   3.236
 2668SOL    HW1 8903   6.964   3.115   3.319
 2668SOL    HW2 8904   7.016   2.973   3.259
 2669SOL     OW 8905   3.097   4.865   4.934
 2669SOL    HW1 8906   3.131   4.916   5.014
 2669SOL    HW2 8907   3.067   4.774   4.963
 2670SOL     OW 8908   5.529   1.400   6.418
 2670SOL    HW1 8909   5.448   1.367   6.369
 2670SOL    HW2 8910   5.505   1.421   6.513
 2671SOL     OW 8911   3.073   5.103   0.202
 2671SOL    HW1 8912   3.072   5.146   0.112
 2671SOL    HW2 8913   2.987   5.122   0.250
 2672SOL     OW 8914   0.163   5.521   0.056
 2672SOL    HW1 8915   0.109   5.568   0.125
 2672SOL    HW2 8916   0.110   5.513   6.997
 2673SOL     OW 8917   6.102   1.718   3.637
 2673SOL    HW1 8918   6.182   1.680   3.683
 2673SOL    HW2 8919   6.113   1.817   3.627
 2674SOL     OW 8920   1.918   3.891   4.486
 2674SOL    HW1 8921   1.847   3.845   4.432
 2674SOL    HW2 8922   1.940   3.835   4.566
 2675SOL     OW 8923   0.376   4.961   4.781
 2675SOL    HW1 8924   0.353   4.864   4.786
 2675SOL    HW2 8925   0.449   4.981   4.846
 2676SOL     OW 8926   4.308   1.195   2.210
 2676SOL    HW1 8927   4.272   1.280   2.247
 2676SOL    HW2 8928   4.337   1.135   2.285
 2677SOL     OW 8929   3.235   4.585   0.421
 2677SOL    HW1 8930   3.155   4.634   0.456
 2677SOL    HW2 8931   3.226   4.572   0.322
 2678SOL     OW 8932   0.121   4.094   1.119
 2678SOL    HW1 8933   0.150   4.116   1.026
 2678SOL    HW2 8934   0.023   4.108   1.129
 2679SOL     OW 8935   3.648   4.997   0.833
 2679SOL    HW1 8936   3.657   5.093   0.807
 2679SOL    HW2 8937   3.709   4.942   0.776
 2680SOL     OW 8938   1.303   1.274   0.846
 2680SOL    HW1 8939   1.399   1.270   0.872
 2680SOL    HW2 8940   1.296   1.285   0.747
 2681SOL     OW 8941   1.495   2.397   4.401
 2681SOL    HW1 8942   1.416   2.448   4.433
 2681SOL    HW2 8943   1.570   2.406   4.467
 2682SOL     OW 8944   5.395   3.767   2.483
 2682SOL    HW1 8945   5.375   3.764   2.385
 2682SOL    HW2 8946   5.432   3.679   2.511
 2683SOL     OW 8947   1.054   3.627   6.915
 2683SOL    HW1 8948   0.967   3.598   6.875
 2683SOL    HW2 8949   1.117   3.650   6.841
 2684SOL     OW 8950   4.339   5.377   2.595
 2684SOL    HW1 8951   4.436   5.368   2.618
 2684SOL    HW2 8952   4.313   5.304   2.532
 2685SOL     OW 8953   6.660   6.493   6.284
 2685SOL    HW1 8954   6.663   6.421   6.215
 2685SOL    HW2 8955   6.565   6.510   6.311
 2686SOL     OW 8956   1.542   1.867   5.785
 2686SOL    HW1 8957   1.634   1.907   5.792
 2686SOL    HW2 8958   1.547   1.781   5.734
 2687SOL     OW 8959   4.357   4.665   2.940
 2687SOL    HW1 8960   4.297   4.719   2.881
 2687SOL    HW2 8961   4.408   4.600   2.884
 2688SOL     OW 8962   4.990   5.601   6.659
 2688SOL    HW1 8963   5.079   5.640   6.634
 2688SOL    HW2 8964   4.930   5.603   6.580
 2689SOL     OW 8965   2.208   1.977   3.098
 2689SOL    HW1 8966   2.249   1.938   3.015
 2689SOL    HW2 8967   2.279   2.024   3.151
 2690SOL     OW 8968   2.956   3.803   4.109
 2690SOL    HW1 8969   2.922   3.838   4.196
 2690SOL    HW2 8970   3.016   3.871   4.067
 2691SOL     OW 8971   1.088   5.548   1.937
 2691SOL    HW1 8972   1.102   5.606   2.018
 2691SOL    HW2 8973   1.177   5.518   1.903
 2692SOL     OW 8974   4.540   5.124   3.788
 2692SOL    HW1 8975   4.449   5.085   3.775
 2692SOL    HW2 8976   4.605   5.050   3.811
 2693SOL     OW 8977   1.979   4.231   3.156
 2693SOL    HW1 8978   2.004   4.325   3.134
 2693SOL    HW2 8979   1.918   4.196   3.085
 2694SOL     OW 8980   3.929   0.445   2.552
 2694SOL    HW1 8981   3.969   0.531   2.582
 2694SOL    HW2 8982   3.910   0.387   2.632
 2695SOL     OW 8983   5.612   1.354   2.879
 2695SOL    HW1 8984   5.574   1.406   2.803
 2695SOL    HW2 8985   5.639   1.263   2.847
 2696SOL     OW 8986   3.635   3.478   5.044
 2696SOL    HW1 8987   3.561   3.458   4.980
 2696SOL    HW2 8988   3.723   3.468   4.997
 2697SOL     OW 8989   4.124   1.501   3.390
 2697SOL    HW1 8990   4.224   1.501   3.395
 2697SOL    HW2 8991   4.096   1.500   3.294
 2698SOL     OW 8992   1.916   5.435   0.657
 2698SOL    HW1 8993   1.862   5.435   0.572
 2698SOL    HW2 8994   1.986   5.364   0.653
 2699SOL     OW 8995   3.385   5.713   0.526
 2699SOL    HW1 8996   3.475   5.736   0.489
 2699SOL    HW2 8997   3.322   5.788   0.506
 2700SOL     OW 8998   2.294   4.051   1.257
 2700SOL    HW1 8999   2.336   3.969   1.298
 2700SOL    HW2 9000   2.328   4.132   1.305
 2701SOL     OW 9001   2.901   0.405   6.467
 2701SOL    HW1 9002   2.990   0.422   6.508
 2701SOL    HW2 9003   2.846   0.347   6.527
 2702SOL     OW 9004   0.124   2.626   2.973
 2702SOL    HW1 9005   0.131   2.725   2.973
 2702SOL    HW2 9006   0.035   2.598   3.009
 2703SOL     OW 9007   2.309   0.715   2.392
 2703SOL    HW1 9008   2.295   0.803   2.437
 2703SOL    HW2 9009   2.393   0.719   2.338
 2704SOL     OW 9010   0.393   5.437   0.894
 2704SOL    HW1 9011   0.411   5.487   0.810
 2704SOL    HW2 9012   0.472   5.445   0.955
 2705SOL     OW 9013   1.696   5.744   4.862
 2705SOL    HW1 9014   1.779   5.711   4.818
 2705SOL    HW2 9015   1.646   5.804   4.799
 2706SOL     OW 9016   0.763   0.736   1.077
 2706SOL    HW1 9017   0.847   0.735   1.130
 2706SOL    HW2 9018   0.785   0.748   0.980
 2707SOL     OW 9019   1.961   0.399   5.321
 2707SOL    HW1 9020   2.020   0.479   5.309
 2707SOL    HW2 9021   2.003   0.319   5.277
 2708SOL     OW 9022   1.793   1.936   1.193
 2708SOL    HW1 9023   1.699   1.923   1.226
 2708SOL    HW2 9024   1.831   2.019   1.232
 2709SOL     OW 9025   5.474   6.809   0.698
 2709SOL    HW1 9026   5.489   6.907   0.711
 2709SOL    HW2 9027   5.394   6.780   0.750
 2710SOL     OW 9028   0.226   2.952   2.518
 2710SOL    HW1 9029   0.221   3.051   2.513
 2710SOL    HW2 9030   0.311   2.920   2.475
 2711SOL     OW 9031   2.704   1.255   3.321
 2711SOL    HW1 9032   2.800   1.277   3.338
 2711SOL    HW2 9033   2.671   1.306   3.242
 2712SOL     OW 9034   3.274   5.565   1.460
 2712SOL    HW1 9035   3.361   5.605   1.489
 2712SOL    HW2 9036   3.253   5.485   1.516
 2713SOL     OW 9037   1.672   1.912   4.949
 2713SOL    HW1 9038   1.653   2.009   4.965
 2713SOL    HW2 9039   1.700   1.868   5.034
 2714SOL     OW 9040   5.038   2.248   6.582
 2714SOL    HW1 9041   5.039   2.324   6.516
 2714SOL    HW2 9042   4.950   2.247   6.630
 2715SOL     OW 9043   5.464   0.777   0.247
 2715SOL    HW1 9044   5.487   0.784   0.344
 2715SOL    HW2 9045   5.450   0.682   0.222
 2716SOL     OW 9046   5.548   5.207   2.326
 2716SOL    HW1 9047   5.515   5.146   2.397
 2716SOL    HW2 9048   5.535   5.302   2.355
 2717SOL     OW 9049   0.967   4.963   1.594
 2717SOL    HW1 9050   1.052   4.913   1.607
 2717SOL    HW2 9051   0.903   4.941   1.669
 2718SOL     OW 9052   2.004   3.735   4.691
 2718SOL    HW1 9053   1.924   3.704   4.743
 2718SOL    HW2 9054   2.068   3.781   4.753
 2719SOL     OW 9055   5.791   5.424   1.742
 2719SOL    HW1 9056   5.761   5.332   1.765
 2719SOL    HW2 9057   5.889   5.423   1.723
 2720SOL     OW 9058   2.159   5.907   3.256
 2720SOL    HW1 9059   2.091   5.973   3.224
 2720SOL    HW2 9060   2.140   5.883   3.351
 2721SOL     OW 9061   3.385   0.241   4.164
 2721SOL    HW1 9062   3.299   0.205   4.200
 2721SOL    HW2 9063   3.365   0.308   4.092
 2722SOL     OW 9064   6.098   5.342   2.485
 2722SOL    HW1 9065   6.166   5.269   2.496
 2722SOL    HW2 9066   6.092   5.395   2.570
 2723SOL     OW 9067   0.971   6.819   5.611
 2723SOL    HW1 9068   0.918   6.734   5.608
 2723SOL    HW2 9069   1.038   6.820   5.537
 2724SOL     OW 9070   2.667   6.484   5.942
 2724SOL    HW1 9071   2.659   6.394   5.985
 2724SOL    HW2 9072   2.761   6.516   5.947
 2725SOL     OW 9073   6.392   5.020   3.511
 2725SOL    HW1 9074   6.425   5.111   3.537
 2725SOL    HW2 9075   6.429   4.951   3.573
 2726SOL     OW 9076   6.883   4.245   0.960
 2726SOL    HW1 9077   6.916   4.329   1.004
 2726SOL    HW2 9078   6.806   4.208   1.012
 2727SOL     OW 9079   0.406   4.487   2.745
 2727SOL    HW1 9080   0.344   4.447   2.677
 2727SOL    HW2 9081   0.408   4.586   2.734
 2728SOL     OW 9082   3.614   0.085   4.899
 2728SOL    HW1 9083   3.705   0.089   4.859
 2728SOL    HW2 9084   3.618   0.038   4.987
 2729SOL     OW 9085   5.985   5.962   1.548
 2729SOL    HW1 9086   6.077   5.976   1.511
 2729SOL    HW2 9087   5.927   6.039   1.523
 2730SOL     OW 9088   1.238   5.412   1.362
 2730SOL    HW1 9089   1.238   5.312   1.367
 2730SOL    HW2 9090   1.316   5.448   1.413
 2731SOL     OW 9091   4.196   3.612   1.841
 2731SOL    HW1 9092   4.230   3.628   1.933
 2731SOL    HW2 9093   4.234   3.527   1.805
 2732SOL     OW 9094   5.746   3.120   1.855
 2732SOL    HW1 9095   5.737   3.208   1.903
 2732SOL    HW2 9096   5.662   3.102   1.803
 2733SOL     OW 9097   0.309   0.284   5.582
 2733SOL    HW1 9098   0.368   0.334   5.519
 2733SOL    HW2 9099   0.361   0.261   5.664
 2734SOL     OW 9100   2.351   5.280   2.447
 2734SOL    HW1 9101   2.332   5.194   2.401
 2734SOL    HW2 9102   2.296   5.353   2.406
 2735SOL     OW 9103   0.669   3.778   2.700
 2735SOL    HW1 9104   0.649   3.769   2.797
 2735SOL    HW2 9105   0.760   3.816   2.687
 2736SOL     OW 9106   5.162   0.266   4.635
 2736SOL    HW1 9107   5.180   0.348   4.581
 2736SOL    HW2 9108   5.206   0.187   4.592
 2737SOL     OW 9109   3.303   3.307   5.779
 2737SOL    HW1 9110   3.278   3.214   5.752
 2737SOL    HW2 9111   3.334   3.358   5.698
 2738SOL     OW 9112   5.175   5.132   4.302
 2738SOL    HW1 9113   5.145   5.095   4.390
 2738SOL    HW2 9114   5.095   5.147   4.243
 2739SOL     OW 9115   5.926   5.394   0.306
 2739SOL    HW1 9116   5.916   5.345   0.392
 2739SOL    HW2 9117   5.923   5.329   0.230
 2740SOL     OW 9118   6.147   3.621   2.499
 2740SOL    HW1 9119   6.180   3.599   2.408
 2740SOL    HW2 9120   6.223   3.652   2.556
 2741SOL     OW 9121   6.908   0.775   6.279
 2741SOL    HW1 9122   6.814   0.803   6.258
 2741SOL    HW2 9123   6.931   0.693   6.227
 2742SOL     OW 9124   1.752   5.108   6.928
 2742SOL    HW1 9125   1.846   5.140   6.918
 2742SOL    HW2 9126   1.752   5.018   6.971
 2743SOL     OW 9127   6.550   5.496   1.928
 2743SOL    HW1 9128   6.565   5.411   1.877
 2743SOL    HW2 9129   6.457   5.497   1.965
 2744SOL     OW 9130   4.507   1.961   6.856
 2744SOL    HW1 9131   4.474   2.055   6.858
 2744SOL    HW2 9132   4.446   1.903   6.910
 2745SOL     OW 9133   1.371   6.797   6.712
 2745SOL    HW1 9134   1.454   6.809   6.766
 2745SOL    HW2 9135   1.292   6.828   6.765
 2746SOL     OW 9136   2.510   1.824   4.474
 2746SOL    HW1 9137   2.565   1.905   4.456
 2746SOL    HW2 9138   2.466   1.794   4.390
 2747SOL     OW 9139   5.633   3.299   5.376
 2747SOL    HW1 9140   5.552   3.308   5.318
 2747SOL    HW2 9141   5.661   3.389   5.409
 2748SOL     OW 9142   4.128   1.537   1.270
 2748SOL    HW1 9143   4.195   1.600   1.229
 2748SOL    HW2 9144   4.047   1.588   1.298
 2749SOL     OW 9145   5.964   4.833   3.878
 2749SOL    HW1 9146   5.869   4.814   3.854
 2749SOL    HW2 9147   5.980   4.808   3.973
 2750SOL     OW 9148   0.449   5.344   1.964
 2750SOL    HW1 9149   0.538   5.366   2.002
 2750SOL    HW2 9150   0.416   5.257   2.003
 2751SOL     OW 9151   1.456   6.804   0.521
 2751SOL    HW1 9152   1.364   6.784   0.486
 2751SOL    HW2 9153   1.453   6.888   0.575
 2752SOL     OW 9154   5.088   5.048   5.399
 2752SOL    HW1 9155   5.055   5.068   5.492
 2752SOL    HW2 9156   5.175   4.999   5.405
 2753SOL     OW 9157   1.685   0.303   6.587
 2753SOL    HW1 9158   1.707   0.383   6.644
 2753SOL    HW2 9159   1.586   0.292   6.582
 2754SOL     OW 9160   6.494   0.694   4.304
 2754SOL    HW1 9161   6.564   0.732   4.365
 2754SOL    HW2 9162   6.438   0.768   4.267
 2755SOL     OW 9163   3.375   6.822   2.930
 2755SOL    HW1 9164   3.281   6.795   2.910
 2755SOL    HW2 9165   3.436   6.744   2.915
 2756SOL     OW 9166   6.490   3.854   5.030
 2756SOL    HW1 9167   6.408   3.822   4.982
 2756SOL    HW2 9168   6.545   3.909   4.967
 2757SOL     OW 9169   2.631   1.455   6.565
 2757SOL    HW1 9170   2.539   1.439   6.601
 2757SOL    HW2 9171   2.667   1.370   6.526
 2758SOL     OW 9172   5.270   6.157   3.698
 2758SOL    HW1 9173   5.177   6.127   3.676
 2758SOL    HW2 9174   5.288   6.138   3.795
 2759SOL     OW 9175   4.007   5.606   5.128
 2759SOL    HW1 9176   3.978   5.572   5.039
 2759SOL    HW2 9177   4.101   5.640   5.122
 2760SOL     OW 9178   7.020   5.092   2.883
 2760SOL    HW1 9179   0.057   5.072   2.957
 2760SOL    HW2 9180   6.926   5.095   2.918
 2761SOL     OW 9181   1.403   4.398   3.834
 2761SOL    HW1 9182   1.486   4.453   3.822
 2761SOL    HW2 9183   1.324   4.453   3.809
 2762SOL     OW 9184   1.763   1.708   6.732
 2762SOL    HW1 9185   1.727   1.745   6.817
 2762SOL    HW2 9186   1.688   1.690   6.669
 2763SOL     OW 9187   4.946   2.251   5.339
 2763SOL    HW1 9188   4.899   2.339   5.350
 2763SOL    HW2 9189   5.014   2.259   5.266
 2764SOL     OW 9190   0.215   6.062   2.473
 2764SOL    HW1 9191   0.260   6.015   2.548
 2764SOL    HW2 9192   0.185   6.152   2.504
 2765SOL     OW 9193   6.823   0.056   0.499
 2765SOL    HW1 9194   6.761   0.131   0.476
 2765SOL    HW2 9195   6.772   7.009   0.545
 2766SOL     OW 9196   3.728   1.654   6.571
 2766SOL    HW1 9197   3.742   1.706   6.486
 2766SOL    HW2 9198   3.668   1.576   6.552
 2767SOL     OW 9199   6.062   5.752   6.355
 2767SOL    HW1 9200   6.051   5.850   6.341
 2767SOL    HW2 9201   5.996   5.721   6.424
 2768SOL     OW 9202   4.876   1.340   0.133
 2768SOL    HW1 9203   4.937   1.353   0.212
 2768SOL    HW2 9204   4.848   1.429   0.098
 2769SOL     OW 9205   2.304   4.985   6.785
 2769SOL    HW1 9206   2.295   5.080   6.816
 2769SOL    HW2 9207   2.393   4.949   6.811
 2770SOL     OW 9208   3.992   5.643   5.997
 2770SOL    HW1 9209   4.081   5.661   6.039
 2770SOL    HW2 9210   3.957   5.726   5.954
 2771SOL     OW 9211   5.887   0.948   4.667
 2771SOL    HW1 9212   5.951   1.019   4.639
 2771SOL    HW2 9213   5.824   0.928   4.592
 2772SOL     OW 9214   2.992   1.647   1.612
 2772SOL    HW1 9215   3.001   1.644   1.512
 2772SOL    HW2 9216   3.072   1.691   1.651
 2773SOL     OW 9217   6.939   2.633   3.870
 2773SOL    HW1 9218   6.931   2.574   3.790
 2773SOL    HW2 9219   6.867   2.610   3.936
 2774SOL     OW 9220   5.314   2.982   2.449
 2774SOL    HW1 9221   5.346   2.911   2.386
 2774SOL    HW2 9222   5.214   2.988   2.445
 2775SOL     OW 9223   6.158   3.343   4.184
 2775SOL    HW1 9224   6.237   3.396   4.154
 2775SOL    HW2 9225   6.086   3.349   4.116
 2776SOL     OW 9226   5.490   4.197   5.261
 2776SOL    HW1 9227   5.532   4.251   5.189
 2776SOL    HW2 9228   5.422   4.253   5.309
 2777SOL     OW 9229   2.215   1.441   0.164
 2777SOL    HW1 9230   2.139   1.439   0.099
 2777SOL    HW2 9231   2.300   1.458   0.115
 2778SOL     OW 9232   1.590   5.978   6.249
 2778SOL    HW1 9233   1.555   5.894   6.289
 2778SOL    HW2 9234   1.543   5.995   6.162
 2779SOL     OW 9235   4.993   6.724   1.797
 2779SOL    HW1 9236   4.932   6.799   1.822
 2779SOL    HW2 9237   5.070   6.721   1.862
 2780SOL     OW 9238   6.621   6.867   5.771
 2780SOL    HW1 9239   6.572   6.880   5.685
 2780SOL    HW2 9240   6.715   6.900   5.761
 2781SOL     OW 9241   5.646   0.171   3.369
 2781SOL    HW1 9242   5.643   0.188   3.271
 2781SOL    HW2 9243   5.631   0.073   3.386
 2782SOL     OW 9244   4.608   1.346   5.468
 2782SOL    HW1 9245   4.682   1.371   5.530
 2782SOL    HW2 9246   4.587   1.422   5.408
 2783SOL     OW 9247   6.739   3.764   1.158
 2783SOL    HW1 9248   6.793   3.839   1.195
 2783SOL    HW2 9249   6.646   3.768   1.196
 2784SOL     OW 9250   3.196   1.411   1.925
 2784SOL    HW1 9251   3.153   1.333   1.970
 2784SOL    HW2 9252   3.295   1.405   1.935
 2785SOL     OW 9253   5.705   2.376   0.792
 2785SOL    HW1 9254   5.668   2.285   0.774
 2785SOL    HW2 9255   5.723   2.386   0.890
 2786SOL     OW 9256   6.632   6.558   1.598
 2786SOL    HW1 9257   6.664   6.463   1.592
 2786SOL    HW2 9258   6.561   6.565   1.668
 2787SOL     OW 9259   6.442   5.785   5.389
 2787SOL    HW1 9260   6.400   5.842   5.459
 2787SOL    HW2 9261   6.392   5.795   5.303
 2788SOL     OW 9262   2.830   6.151   6.300
 2788SOL    HW1 9263   2.833   6.082   6.228
 2788SOL    HW2 9264   2.735   6.180   6.315
 2789SOL     OW 9265   2.034   1.728   3.655
 2789SOL    HW1 9266   2.087   1.667   3.597
 2789SOL    HW2 9267   2.096   1.779   3.715
 2790SOL     OW 9268   2.912   5.568   0.918
 2790SOL    HW1 9269   2.960   5.510   0.853
 2790SOL    HW2 9270   2.963   5.570   1.005
 2791SOL     OW 9271   0.489   4.290   2.360
 2791SOL    HW1 9272   0.554   4.289   2.436
 2791SOL    HW2 9273   0.528   4.241   2.282
 2792SOL     OW 9274   2.889   1.161   4.940
 2792SOL    HW1 9275   2.813   1.114   4.895
 2792SOL    HW2 9276   2.940   1.213   4.872
 2793SOL     OW 9277   5.446   3.697   2.027
 2793SOL    HW1 9278   5.410   3.730   1.940
 2793SOL    HW2 9279   5.472   3.601   2.018
 2794SOL     OW 9280   6.780   2.070   6.198
 2794SOL    HW1 9281   6.682   2.064   6.215
 2794SOL    HW2 9282   6.828   2.000   6.252
 2795SOL     OW 9283   0.162   4.581   1.116
 2795SOL    HW1 9284   0.135   4.644   1.043
 2795SOL    HW2 9285   0.146   4.624   1.205
 2796SOL     OW 9286   0.645   5.699   4.044
 2796SOL    HW1 9287   0.566   5.720   3.986
 2796SOL    HW2 9288   0.656   5.600   4.051
 2797SOL     OW 9289   5.504   5.371   5.515
 2797SOL    HW1 9290   5.567   5.409   5.582
 2797SOL    HW2 9291   5.551   5.359   5.427
 2798SOL     OW 9292   5.734   6.108   2.513
 2798SOL    HW1 9293   5.690   6.184   2.561
 2798SOL    HW2 9294   5.696   6.100   2.421
 2799SOL     OW 9295   5.098   6.294   5.910
 2799SOL    HW1 9296   5.030   6.289   5.837
 2799SOL    HW2 9297   5.114   6.390   5.934
 2800SOL     OW 9298   6.002   0.347   6.293
 2800SOL    HW1 9299   5.998   0.443   6.266
 2800SOL    HW2 9300   5.934   0.295   6.241
 2801SOL     OW 9301   1.386   5.582   6.162
 2801SOL    HW1 9302   1.382   5.488   6.197
 2801SOL    HW2 9303   1.470   5.594   6.109
 2802SOL     OW 9304   6.697   6.549   5.638
 2802SOL    HW1 9305   6.790   6.582   5.653
 2802SOL    HW2 9306   6.685   6.460   5.683
 2803SOL     OW 9307   3.326   4.515   5.823
 2803SOL    HW1 9308   3.246   4.534   5.765
 2803SOL    HW2 9309   3.400   4.480   5.766
 2804SOL     OW 9310   0.345   4.030   4.750
 2804SOL    HW1 9311   0.441   4.043   4.724
 2804SOL    HW2 9312   0.286   4.051   4.672
 2805SOL     OW 9313   6.069   4.107   2.861
 2805SOL    HW1 9314   5.979   4.150   2.865
 2805SOL    HW2 9315   6.081   4.062   2.773
 2806SOL     OW 9316   1.371   4.710   6.550
 2806SOL    HW1 9317   1.401   4.713   6.646
 2806SOL    HW2 9318   1.407   4.627   6.507
 2807SOL     OW 9319   4.206   0.714   3.066
 2807SOL    HW1 9320   4.143   0.792   3.068
 2807SOL    HW2 9321   4.300   0.746   3.070
 2808SOL     OW 9322   6.398   5.888   0.759
 2808SOL    HW1 9323   6.351   5.879   0.847
 2808SOL    HW2 9324   6.497   5.878   0.773
 2809SOL     OW 9325   5.667   2.539   1.575
 2809SOL    HW1 9326   5.682   2.637   1.576
 2809SOL    HW2 9327   5.660   2.507   1.481
 2810SOL     OW 9328   2.016   5.510   2.624
 2810SOL    HW1 9329   2.030   5.595   2.675
 2810SOL    HW2 9330   2.026   5.432   2.686
 2811SOL     OW 9331   1.061   1.642   2.590
 2811SOL    HW1 9332   1.065   1.545   2.563
 2811SOL    HW2 9333   1.041   1.649   2.688
 2812SOL     OW 9334   6.188   3.554   0.729
 2812SOL    HW1 9335   6.159   3.473   0.679
 2812SOL    HW2 9336   6.269   3.532   0.784
 2813SOL     OW 9337   0.733   1.579   0.542
 2813SOL    HW1 9338   0.812   1.600   0.483
 2813SOL    HW2 9339   0.735   1.639   0.622
 2814SOL     OW 9340   2.941   4.493   5.737
 2814SOL    HW1 9341   2.873   4.566   5.747
 2814SOL    HW2 9342   2.996   4.511   5.655
 2815SOL     OW 9343   0.115   5.237   5.961
 2815SOL    HW1 9344   0.175   5.172   6.009
 2815SOL    HW2 9345   0.169   5.291   5.897
 2816SOL     OW 9346   6.515   5.483   4.743
 2816SOL    HW1 9347   6.563   5.500   4.657
 2816SOL    HW2 9348   6.419   5.466   4.724
 2817SOL     OW 9349   3.762   1.435   2.806
 2817SOL    HW1 9350   3.801   1.494   2.876
 2817SOL    HW2 9351   3.702   1.488   2.746
 2818SOL     OW 9352   6.833   1.313   2.227
 2818SOL    HW1 9353   6.796   1.270   2.144
 2818SOL    HW2 9354   6.905   1.378   2.201
 2819SOL     OW 9355   1.614   0.063   1.303
 2819SOL    HW1 9356   1.634   0.011   1.385
 2819SOL    HW2 9357   1.699   0.094   1.261
 2820SOL     OW 9358   0.999   2.099   2.322
 2820SOL    HW1 9359   0.955   2.093   2.232
 2820SOL    HW2 9360   1.022   2.007   2.354
 2821SOL     OW 9361   2.793   5.276   6.023
 2821SOL    HW1 9362   2.740   5.317   6.097
 2821SOL    HW2 9363   2.884   5.317   6.019
 2822SOL     OW 9364   4.630   2.534   0.179
 2822SOL    HW1 9365   4.635   2.634   0.184
 2822SOL    HW2 9366   4.564   2.501   0.246
 2823SOL     OW 9367   6.173   0.799   0.012
 2823SOL    HW1 9368   6.081   0.831   7.011
 2823SOL    HW2 9369   6.240   0.868   7.012
 2824SOL     OW 9370   1.337   3.048   5.728
 2824SOL    HW1 9371   1.365   3.029   5.822
 2824SOL    HW2 9372   1.329   2.962   5.677
 2825SOL     OW 9373   5.427   0.593   6.103
 2825SOL    HW1 9374   5.403   0.609   6.198
 2825SOL    HW2 9375   5.526   0.596   6.092
 2826SOL     OW 9376   2.505   3.492   6.611
 2826SOL    HW1 9377   2.412   3.506   6.644
 2826SOL    HW2 9378   2.503   3.454   6.519
 2827SOL     OW 9379   0.411   0.805   6.960
 2827SOL    HW1 9380   0.450   0.875   7.020
 2827SOL    HW2 9381   0.467   0.796   6.878
 2828SOL     OW 9382   1.712   3.458   1.462
 2828SOL    HW1 9383   1.742   3.364   1.481
 2828SOL    HW2 9384   1.633   3.455   1.400
 2829SOL     OW 9385   3.091   3.112   3.416
 2829SOL    HW1 9386   3.043   3.132   3.330
 2829SOL    HW2 9387   3.054   3.170   3.489
 2830SOL     OW 9388   3.576   4.122   5.389
 2830SOL    HW1 9389   3.556   4.219   5.394
 2830SOL    HW2 9390   3.562   4.089   5.296
 2831SOL     OW 9391   0.305   2.514   2.481
 2831SOL    HW1 9392   0.353   2.532   2.566
 2831SOL    HW2 9393   0.302   2.415   2.464
 2832SOL     OW 9394   0.609   3.536   1.499
 2832SOL    HW1 9395   0.706   3.530   1.478
 2832SOL    HW2 9396   0.580   3.452   1.545
 2833SOL     OW 9397   2.253   1.341   1.483
 2833SOL    HW1 9398   2.264   1.414   1.551
 2833SOL    HW2 9399   2.211   1.262   1.526
 2834SOL     OW 9400   4.829   6.351   4.570
 2834SOL    HW1 9401   4.869   6.429   4.523
 2834SOL    HW2 9402   4.744   6.378   4.615
 2835SOL     OW 9403   0.772   6.359   0.646
 2835SOL    HW1 9404   0.738   6.444   0.605
 2835SOL    HW2 9405   0.710   6.284   0.623
 2836SOL     OW 9406   2.332   6.324   2.330
 2836SOL    HW1 9407   2.349   6.250   2.264
 2836SOL    HW2 9408   2.391   6.310   2.410
 2837SOL     OW 9409   5.619   4.482   2.569
 2837SOL    HW1 9410   5.591   4.446   2.659
 2837SOL    HW2 9411   5.666   4.569   2.582
 2838SOL     OW 9412   4.767   4.024   0.360
 2838SOL    HW1 9413   4.814   3.937   0.343
 2838SOL    HW2 9414   4.811   4.097   0.307
 2839SOL     OW 9415   0.273   2.942   2.026
 2839SOL    HW1 9416   0.331   2.973   2.102
 2839SOL    HW2 9417   0.178   2.938   2.058
 2840SOL     OW 9418   1.147   5.768   2.797
 2840SOL    HW1 9419   1.212   5.837   2.830
 2840SOL    HW2 9420   1.065   5.769   2.854
 2841SOL     OW 9421   6.586   2.398   6.870
 2841SOL    HW1 9422   6.604   2.343   6.951
 2841SOL    HW2 9423   6.516   2.353   6.814
 2842SOL     OW 9424   1.308   5.910   4.764
 2842SOL    HW1 9425   1.398   5.913   4.807
 2842SOL    HW2 9426   1.250   5.846   4.814
 2843SOL     OW 9427   2.758   1.810   2.818
 2843SOL    HW1 9428   2.771   1.777   2.912
 2843SOL    HW2 9429   2.809   1.752   2.755
 2844SOL     OW 9430   5.534   4.712   1.389
 2844SOL    HW1 9431   5.563   4.789   1.445
 2844SOL    HW2 9432   5.588   4.631   1.413
 2845SOL     OW 9433   5.484   3.138   2.618
 2845SOL    HW1 9434   5.579   3.145   2.591
 2845SOL    HW2 9435   5.432   3.090   2.547
 2846SOL     OW 9436   3.180   1.450   0.500
 2846SOL    HW1 9437   3.173   1.494   0.590
 2846SOL    HW2 9438   3.276   1.449   0.471
 2847SOL     OW 9439   4.872   3.757   2.097
 2847SOL    HW1 9440   4.876   3.841   2.044
 2847SOL    HW2 9441   4.913   3.682   2.045
 2848SOL     OW 9442   2.345   2.293   5.553
 2848SOL    HW1 9443   2.414   2.335   5.612
 2848SOL    HW2 9444   2.284   2.364   5.517
 2849SOL     OW 9445   3.744   1.401   1.435
 2849SOL    HW1 9446   3.841   1.389   1.411
 2849SOL    HW2 9447   3.724   1.351   1.519
 2850SOL     OW 9448   2.210   6.609   3.412
 2850SOL    HW1 9449   2.297   6.596   3.364
 2850SOL    HW2 9450   2.218   6.572   3.505
 2851SOL     OW 9451   3.929   3.634   6.852
 2851SOL    HW1 9452   3.999   3.565   6.832
 2851SOL    HW2 9453   3.847   3.615   6.799
 2852SOL     OW 9454   5.845   4.699   0.051
 2852SOL    HW1 9455   5.939   4.699   0.016
 2852SOL    HW2 9456   5.799   4.782   0.023
 2853SOL     OW 9457   0.757   3.441   0.726
 2853SOL    HW1 9458   0.737   3.479   0.816
 2853SOL    HW2 9459   0.672   3.431   0.675
 2854SOL     OW 9460   3.135   0.531   6.026
 2854SOL    HW1 9461   3.201   0.517   5.952
 2854SOL    HW2 9462   3.165   0.606   6.085
 2855SOL     OW 9463   1.038   2.777   4.723
 2855SOL    HW1 9464   1.059   2.862   4.772
 2855SOL    HW2 9465   0.949   2.786   4.678
 2856SOL     OW 9466   1.276   2.885   3.755
 2856SOL    HW1 9467   1.339   2.856   3.683
 2856SOL    HW2 9468   1.253   2.982   3.741
 2857SOL     OW 9469   0.244   2.985   0.964
 2857SOL    HW1 9470   0.195   2.915   1.017
 2857SOL    HW2 9471   0.325   2.943   0.921
 2858SOL     OW 9472   5.330   6.469   2.133
 2858SOL    HW1 9473   5.358   6.374   2.146
 2858SOL    HW2 9474   5.260   6.474   2.062
 2859SOL     OW 9475   5.296   6.465   0.801
 2859SOL    HW1 9476   5.280   6.540   0.864
 2859SOL    HW2 9477   5.375   6.486   0.743
 2860SOL     OW 9478   1.581   6.708   2.142
 2860SOL    HW1 9479   1.517   6.748   2.207
 2860SOL    HW2 9480   1.532   6.645   2.082
 2861SOL     OW 9481   3.346   6.028   5.447
 2861SOL    HW1 9482   3.361   6.094   5.520
 2861SOL    HW2 9483   3.341   5.935   5.486
 2862SOL     OW 9484   4.657   2.631   1.952
 2862SOL    HW1 9485   4.647   2.628   2.052
 2862SOL    HW2 9486   4.749   2.660   1.929
 2863SOL     OW 9487   5.107   1.372   6.956
 2863SOL    HW1 9488   5.074   1.380   6.862
 2863SOL    HW2 9489   5.038   1.407   7.019
 2864SOL     OW 9490   4.666   2.949   0.982
 2864SOL    HW1 9491   4.579   2.978   1.021
 2864SOL    HW2 9492   4.707   3.025   0.932
 2865SOL     OW 9493   4.255   0.083   3.849
 2865SOL    HW1 9494   4.219   0.017   3.915
 2865SOL    HW2 9495   4.233   0.054   3.756
 2866SOL     OW 9496   5.583   4.053   0.294
 2866SOL    HW1 9497   5.675   4.056   0.256
 2866SOL    HW2 9498   5.520   4.016   0.226
 2867SOL     OW 9499   6.185   6.463   2.811
 2867SOL    HW1 9500   6.109   6.419   2.762
 2867SOL    HW2 9501   6.247   6.506   2.745
 2868SOL     OW 9502   0.997   1.431   5.346
 2868SOL    HW1 9503   0.906   1.431   5.305
 2868SOL    HW2 9504   1.017   1.340   5.381
 2869SOL     OW 9505   6.295   0.618   3.804
 2869SOL    HW1 9506   6.393   0.616   3.825
 2869SOL    HW2 9507   6.282   0.621   3.705
 2870SOL     OW 9508   0.819   1.770   6.718
 2870SOL    HW1 9509   0.826   1.693   6.654
 2870SOL    HW2 9510   0.852   1.741   6.808
 2871SOL     OW 9511   6.361   0.548   6.902
 2871SOL    HW1 9512   6.325   0.455   6.905
 2871SOL    HW2 9513   6.292   0.611   6.936
 2872SOL     OW 9514   3.014   1.905   0.818
 2872SOL    HW1 9515   3.107   1.884   0.785
 2872SOL    HW2 9516   2.948   1.870   0.752
 2873SOL     OW 9517   6.799   6.202   1.879
 2873SOL    HW1 9518   6.800   6.102   1.882
 2873SOL    HW2 9519   6.736   6.233   1.808
 2874SOL     OW 9520   4.346   6.935   2.974
 2874SOL    HW1 9521   4.416   6.942   2.904
 2874SOL    HW2 9522   4.286   7.015   2.970
 2875SOL     OW 9523   3.798   6.966   2.721
 2875SOL    HW1 9524   3.753   7.007   2.800
 2875SOL    HW2 9525   3.877   6.913   2.753
 2876SOL     OW 9526   1.226   6.436   2.392
 2876SOL    HW1 9527   1.320   6.438   2.357
 2876SOL    HW2 9528   1.162   6.432   2.316
 2877SOL     OW 9529   2.098   0.785   6.718
 2877SOL    HW1 9530   2.126   0.689   6.726
 2877SOL    HW2 9531   2.178   0.840   6.692
 2878SOL     OW 9532   2.884   3.804   5.132
 2878SOL    HW1 9533   2.786   3.820   5.138
 2878SOL    HW2 9534   2.905   3.709   5.156
 2879SOL     OW 9535   4.244   5.321   5.639
 2879SOL    HW1 9536   4.254   5.340   5.541
 2879SOL    HW2 9537   4.158   5.359   5.671
 2880SOL     OW 9538   0.150   1.558   3.764
 2880SOL    HW1 9539   0.142   1.535   3.861
 2880SOL    HW2 9540   0.227   1.509   3.724
 2881SOL     OW 9541   3.517   6.080   7.024
 2881SOL    HW1 9542   3.531   6.057   6.928
 2881SOL    HW2 9543   3.567   6.016   0.056
 2882SOL     OW 9544   6.373   5.881   1.446
 2882SOL    HW1 9545   6.364   5.789   1.485
 2882SOL    HW2 9546   6.399   5.874   1.350
 2883SOL     OW 9547   6.043   6.481   3.366
 2883SOL    HW1 9548   6.119   6.532   3.325
 2883SOL    HW2 9549   6.052   6.482   3.466
 2884SOL     OW 9550   6.899   5.762   2.099
 2884SOL    HW1 9551   6.825   5.716   2.051
 2884SOL    HW2 9552   6.863   5.840   2.151
 2885SOL     OW 9553   1.130   2.263   4.451
 2885SOL    HW1 9554   1.110   2.303   4.362
 2885SOL    HW2 9555   1.063   2.295   4.518
 2886SOL     OW 9556   2.105   4.456   6.573
 2886SOL    HW1 9557   2.130   4.452   6.670
 2886SOL    HW2 9558   2.060   4.371   6.546
 2887SOL     OW 9559   6.921   6.012   4.334
 2887SOL    HW1 9560   6.933   5.945   4.261
 2887SOL    HW2 9561   6.870   5.970   4.410
 2888SOL     OW 9562   0.131   5.211   0.181
 2888SOL    HW1 9563   0.074   5.232   0.101
 2888SOL    HW2 9564   0.108   5.275   0.255
 2889SOL     OW 9565   2.867   6.540   2.863
 2889SOL    HW1 9566   2.957   6.571   2.831
 2889SOL    HW2 9567   2.879   6.461   2.924
 2890SOL     OW 9568   1.850   5.155   0.881
 2890SOL    HW1 9569   1.814   5.178   0.791
 2890SOL    HW2 9570   1.950   5.157   0.878
 2891SOL     OW 9571   1.427   3.492   3.383
 2891SOL    HW1 9572   1.358   3.423   3.362
 2891SOL    HW2 9573   1.385   3.568   3.433
 2892SOL     OW 9574   6.000   2.919   1.099
 2892SOL    HW1 9575   6.013   2.952   1.193
 2892SOL    HW2 9576   6.089   2.911   1.054
 2893SOL     OW 9577   1.655   5.408   4.768
 2893SOL    HW1 9578   1.585   5.457   4.821
 2893SOL    HW2 9579   1.725   5.473   4.738
 2894SOL     OW 9580   1.885   4.044   1.507
 2894SOL    HW1 9581   1.834   4.041   1.593
 2894SOL    HW2 9582   1.890   3.953   1.467
 2895SOL     OW 9583   4.278   0.378   6.357
 2895SOL    HW1 9584   4.311   0.436   6.432
 2895SOL    HW2 9585   4.233   0.435   6.288
 2896SOL     OW 9586   5.010   0.232   5.712
 2896SOL    HW1 9587   5.010   0.172   5.792
 2896SOL    HW2 9588   5.030   0.179   5.630
 2897SOL     OW 9589   4.210   5.088   2.826
 2897SOL    HW1 9590   4.226   5.156   2.897
 2897SOL    HW2 9591   4.119   5.100   2.787
 2898SOL     OW 9592   5.175   4.145   4.094
 2898SOL    HW1 9593   5.252   4.082   4.091
 2898SOL    HW2 9594   5.140   4.151   4.188
 2899SOL     OW 9595   6.484   1.779   0.893
 2899SOL    HW1 9596   6.542   1.741   0.965
 2899SOL    HW2 9597   6.526   1.861   0.855
 2900SOL     OW 9598   4.316   4.785   6.508
 2900SOL    HW1 9599   4.218   4.796   6.496
 2900SOL    HW2 9600   4.363   4.866   6.474
 2901SOL     OW 9601   2.103   4.810   3.468
 2901SOL    HW1 9602   2.036   4.859   3.523
 2901SOL    HW2 9603   2.116   4.718   3.503
 2902SOL     OW 9604   6.725   5.201   3.379
 2902SOL    HW1 9605   6.633   5.204   3.339
 2902SOL    HW2 9606   6.718   5.206   3.478
 2903SOL     OW 9607   4.190   6.203   1.101
 2903SOL    HW1 9608   4.219   6.283   1.049
 2903SOL    HW2 9609   4.129   6.231   1.175
 2904SOL     OW 9610   3.237   5.204   4.781
 2904SOL    HW1 9611   3.220   5.108   4.756
 2904SOL    HW2 9612   3.284   5.250   4.705
 2905SOL     OW 9613   1.486   4.160   3.773
 2905SOL    HW1 9614   1.443   4.241   3.812
 2905SOL    HW2 9615   1.550   4.188   3.701
 2906SOL     OW 9616   5.579   5.753   2.725
 2906SOL    HW1 9617   5.634   5.803   2.792
 2906SOL    HW2 9618   5.604   5.656   2.726
 2907SOL     OW 9619   0.853   1.701   4.098
 2907SOL    HW1 9620   0.852   1.669   4.003
 2907SOL    HW2 9621   0.939   1.749   4.115
 2908SOL     OW 9622   5.493   6.382   3.697
 2908SOL    HW1 9623   5.444   6.404   3.781
 2908SOL    HW2 9624   5.479   6.455   3.630
 2909SOL     OW 9625   1.959   6.957   3.214
 2909SOL    HW1 9626   1.867   6.995   3.205
 2909SOL    HW2 9627   1.963   6.899   3.295
 2910SOL     OW 9628   6.760   0.843   3.822
 2910SOL    HW1 9629   6.680   0.820   3.767
 2910SOL    HW2 9630   6.762   0.941   3.838
 2911SOL     OW 9631   1.762   5.103   3.600
 2911SOL    HW1 9632   1.799   5.115   3.692
 2911SOL    HW2 9633   1.701   5.179   3.579
 2912SOL     OW 9634   6.723   6.031   6.635
 2912SOL    HW1 9635   6.648   6.087   6.600
 2912SOL    HW2 9636   6.788   6.013   6.561
 2913SOL     OW 9637   3.396   4.845   2.436
 2913SOL    HW1 9638   3.490   4.879   2.424
 2913SOL    HW2 9639   3.371   4.790   2.357
 2914SOL     OW 9640   5.576   5.711   1.184
 2914SOL    HW1 9641   5.633   5.630   1.194
 2914SOL    HW2 9642   5.554   5.725   1.088
 2915SOL     OW 9643   3.352   1.856   3.873
 2915SOL    HW1 9644   3.286   1.815   3.810
 2915SOL    HW2 9645   3.444   1.851   3.832
 2916SOL     OW 9646   1.517   5.259   0.424
 2916SOL    HW1 9647   1.545   5.174   0.380
 2916SOL    HW2 9648   1.513   5.332   0.355
 2917SOL     OW 9649   3.141   0.549   4.316
 2917SOL    HW1 9650   3.237   0.521   4.320
 2917SOL    HW2 9651   3.127   0.612   4.240
 2918SOL     OW 9652   6.004   3.639   6.425
 2918SOL    HW1 9653   5.928   3.574   6.436
 2918SOL    HW2 9654   5.968   3.727   6.396
 2919SOL     OW 9655   6.020   0.414   3.399
 2919SOL    HW1 9656   5.958   0.383   3.471
 2919SOL    HW2 9657   6.110   0.372   3.412
 2920SOL     OW 9658   3.373   0.055   1.510
 2920SOL    HW1 9659   3.443   0.070   1.441
 2920SOL    HW2 9660   3.329   0.142   1.533
 2921SOL     OW 9661   0.741   6.940   5.935
 2921SOL    HW1 9662   0.728   6.896   6.024
 2921SOL    HW2 9663   0.732   6.872   5.862
 2922SOL     OW 9664   3.883   6.431   1.808
 2922SOL    HW1 9665   3.870   6.530   1.815
 2922SOL    HW2 9666   3.844   6.387   1.890
 2923SOL     OW 9667   6.658   5.259   4.844
 2923SOL    HW1 9668   6.643   5.235   4.940
 2923SOL    HW2 9669   6.619   5.348   4.825
 2924SOL     OW 9670   0.419   1.994   4.537
 2924SOL    HW1 9671   0.510   1.966   4.565
 2924SOL    HW2 9672   0.352   1.925   4.564
 2925SOL     OW 9673   5.732   1.628   0.265
 2925SOL    HW1 9674   5.770   1.675   0.185
 2925SOL    HW2 9675   5.788   1.548   0.286
 2926SOL     OW 9676   6.485   2.058   6.213
 2926SOL    HW1 9677   6.425   2.116   6.269
 2926SOL    HW2 9678   6.487   2.093   6.120
 2927SOL     OW 9679   1.430   3.284   0.631
 2927SOL    HW1 9680   1.418   3.379   0.601
 2927SOL    HW2 9681   1.346   3.233   0.615
 2928SOL     OW 9682   6.514   1.258   0.044
 2928SOL    HW1 9683   6.433   1.312   0.067
 2928SOL    HW2 9684   6.558   1.296   6.989
 2929SOL     OW 9685   1.661   2.627   5.065
 2929SOL    HW1 9686   1.657   2.613   4.966
 2929SOL    HW2 9687   1.756   2.642   5.093
 2930SOL     OW 9688   5.385   6.316   5.207
 2930SOL    HW1 9689   5.437   6.379   5.265
 2930SOL    HW2 9690   5.288   6.341   5.210
 2931SOL     OW 9691   4.704   4.913   6.717
 2931SOL    HW1 9692   4.773   4.984   6.727
 2931SOL    HW2 9693   4.670   4.886   6.808
 2932SOL     OW 9694   6.926   5.823   1.248
 2932SOL    HW1 9695   6.857   5.829   1.320
 2932SOL    HW2 9696   7.010   5.868   1.279
 2933SOL     OW 9697   0.514   6.818   2.145
 2933SOL    HW1 9698   0.421   6.800   2.113
 2933SOL    HW2 9699   0.511   6.860   2.235
 2934SOL     OW 9700   5.219   2.754   1.146
 2934SOL    HW1 9701   5.308   2.744   1.190
 2934SOL    HW2 9702   5.159   2.811   1.203
 2935SOL     OW 9703   0.158   2.531   6.458
 2935SOL    HW1 9704   0.175   2.620   6.500
 2935SOL    HW2 9705   0.083   2.538   6.392
 2936SOL     OW 9706   3.993   6.459   0.828
 2936SOL    HW1 9707   3.967   6.437   0.922
 2936SOL    HW2 9708   4.003   6.375   0.776
 2937SOL     OW 9709   4.836   5.368   0.825
 2937SOL    HW1 9710   4.885   5.346   0.741
 2937SOL    HW2 9711   4.848   5.294   0.891
 2938SOL     OW 9712   6.935   5.406   0.240
 2938SOL    HW1 9713   6.902   5.379   0.330
 2938SOL    HW2 9714   6.965   5.501   0.241
 2939SOL     OW 9715   1.629   0.335   1.615
 2939SOL    HW1 9716   1.575   0.372   1.691
 2939SOL    HW2 9717   1.568   0.288   1.551
 2940SOL     OW 9718   6.289   5.737   4.976
 2940SOL    HW1 9719   6.286   5.779   4.885
 2940SOL    HW2 9720   6.236   5.652   4.975
 2941SOL     OW 9721   2.601   2.027   3.045
 2941SOL    HW1 9722   2.518   2.059   3.091
 2941SOL    HW2 9723   2.580   1.947   2.989
 2942SOL     OW 9724   3.488   2.391   0.785
 2942SOL    HW1 9725   3.538   2.363   0.867
 2942SOL    HW2 9726   3.507   2.487   0.766
 2943SOL     OW 9727   5.685   4.759   3.861
 2943SOL    HW1 9728   5.680   4.683   3.797
 2943SOL    HW2 9729   5.695   4.724   3.954
 2944SOL     OW 9730   2.552   6.259   3.867
 2944SOL    HW1 9731   2.641   6.285   3.906
 2944SOL    HW2 9732   2.565   6.192   3.795
 2945SOL     OW 9733   4.949   2.670   1.664
 2945SOL    HW1 9734   4.863   2.634   1.628
 2945SOL    HW2 9735   4.932   2.713   1.753
 2946SOL     OW 9736   2.437   4.298   5.631
 2946SOL    HW1 9737   2.353   4.331   5.587
 2946SOL    HW2 9738   2.422   4.207   5.670
 2947SOL     OW 9739   0.010   4.983   0.284
 2947SOL    HW1 9740   0.058   5.071   0.288
 2947SOL    HW2 9741   6.976   4.974   0.363
 2948SOL     OW 9742   6.800   4.307   3.396
 2948SOL    HW1 9743   6.711   4.268   3.420
 2948SOL    HW2 9744   6.873   4.246   3.429
 2949SOL     OW 9745   0.500   5.739   6.952
 2949SOL    HW1 9746   0.507   5.807   6.879
 2949SOL    HW2 9747   0.541   5.653   6.920
 2950SOL     OW 9748   5.984   5.874   3.851
 2950SOL    HW1 9749   5.918   5.808   3.888
 2950SOL    HW2 9750   5.986   5.867   3.752
 2951SOL     OW 9751   5.365   1.181   1.946
 2951SOL    HW1 9752   5.329   1.123   1.873
 2951SOL    HW2 9753   5.348   1.138   2.034
 2952SOL     OW 9754   0.063   6.952   5.022
 2952SOL    HW1 9755   0.042   6.991   5.112
 2952SOL    HW2 9756   7.017   6.977   4.957
 2953SOL     OW 9757   6.999   4.186   3.200
 2953SOL    HW1 9758   6.933   4.257   3.174
 2953SOL    HW2 9759   0.024   4.216   3.281
 2954SOL     OW 9760   6.947   4.489   6.956
 2954SOL    HW1 9761   7.005   4.537   6.889
 2954SOL    HW2 9762   6.996   4.409   6.991
 2955SOL     OW 9763   0.901   4.537   1.239
 2955SOL    HW1 9764   0.996   4.508   1.233
 2955SOL    HW2 9765   0.880   4.568   1.332
 2956SOL     OW 9766   6.795   5.615   3.709
 2956SOL    HW1 9767   6.798   5.519   3.679
 2956SOL    HW2 9768   6.725   5.664   3.657
 2957SOL     OW 9769   4.850   4.555   1.389
 2957SOL    HW1 9770   4.895   4.631   1.340
 2957SOL    HW2 9771   4.791   4.506   1.325
 2958SOL     OW 9772   2.138   5.063   3.307
 2958SOL    HW1 9773   2.191   5.087   3.389
 2958SOL    HW2 9774   2.066   4.998   3.332
 2959SOL     OW 9775   5.643   2.794   2.445
 2959SOL    HW1 9776   5.622   2.820   2.540
 2959SOL    HW2 9777   5.731   2.832   2.419
 2960SOL     OW 9778   3.698   0.158   6.719
 2960SOL    HW1 9779   3.730   0.165   6.624
 2960SOL    HW2 9780   3.760   0.209   6.779
 2961SOL     OW 9781   6.119   4.759   3.188
 2961SOL    HW1 9782   6.192   4.692   3.185
 2961SOL    HW2 9783   6.063   4.752   3.106
 2962SOL     OW 9784   4.790   6.304   3.458
 2962SOL    HW1 9785   4.764   6.400   3.449
 2962SOL    HW2 9786   4.716   6.246   3.424
 2963SOL     OW 9787   0.953   0.819   6.631
 2963SOL    HW1 9788   0.853   0.830   6.634
 2963SOL    HW2 9789   0.996   0.902   6.665
 2964SOL     OW 9790   0.191   2.151   6.239
 2964SOL    HW1 9791   0.117   2.209   6.205
 2964SOL    HW2 9792   0.249   2.124   6.162
 2965SOL     OW 9793   0.522   0.572   4.313
 2965SOL    HW1 9794   0.491   0.582   4.218
 2965SOL    HW2 9795   0.588   0.645   4.334
 2966SOL     OW 9796   4.697   5.728   3.827
 2966SOL    HW1 9797   4.654   5.655   3.881
 2966SOL    HW2 9798   4.766   5.774   3.883
 2967SOL     OW 9799   6.474   0.979   5.587
 2967SOL    HW1 9800   6.422   1.058   5.621
 2967SOL    HW2 9801   6.566   1.008   5.562
 2968SOL     OW 9802   1.262   2.547   0.986
 2968SOL    HW1 9803   1.220   2.601   0.913
 2968SOL    HW2 9804   1.235   2.451   0.976
 2969SOL     OW 9805   4.867   2.898   4.807
 2969SOL    HW1 9806   4.878   2.931   4.713
 2969SOL    HW2 9807   4.956   2.870   4.843
 2970SOL     OW 9808   2.709   3.100   5.331
 2970SOL    HW1 9809   2.685   3.097   5.428
 2970SOL    HW2 9810   2.626   3.101   5.276
 2971SOL     OW 9811   5.167   4.233   0.395
 2971SOL    HW1 9812   5.127   4.163   0.336
 2971SOL    HW2 9813   5.127   4.227   0.486
 2972SOL     OW 9814   5.762   5.002   6.528
 2972SOL    HW1 9815   5.792   4.981   6.622
 2972SOL    HW2 9816   5.679   4.951   6.508
 2973SOL     OW 9817   4.689   6.551   2.276
 2973SOL    HW1 9818   4.645   6.565   2.365
 2973SOL    HW2 9819   4.782   6.518   2.290
 2974SOL     OW 9820   6.327   4.402   3.501
 2974SOL    HW1 9821   6.325   4.371   3.406
 2974SOL    HW2 9822   6.302   4.499   3.505
 2975SOL     OW 9823   5.357   4.485   4.486
 2975SOL    HW1 9824   5.311   4.397   4.474
 2975SOL    HW2 9825   5.455   4.473   4.471
 2976SOL     OW 9826   5.114   1.998   2.981
 2976SOL    HW1 9827   5.125   1.936   2.904
 2976SOL    HW2 9828   5.203   2.036   3.007
 2977SOL     OW 9829   6.992   0.877   2.367
 2977SOL    HW1 9830   7.003   0.976   2.377
 2977SOL    HW2 9831   7.017   0.850   2.274
 2978SOL     OW 9832   3.621   4.293   0.041
 2978SOL    HW1 9833   3.662   4.335   6.986
 2978SOL    HW2 9834   3.609   4.362   0.112
 2979SOL     OW 9835   3.432   1.889   4.368
 2979SOL    HW1 9836   3.480   1.973   4.345
 2979SOL    HW2 9837   3.354   1.911   4.427
 2980SOL     OW 9838   2.124   5.473   6.188
 2980SOL    HW1 9839   2.129   5.430   6.097
 2980SOL    HW2 9840   2.160   5.410   6.256
 2981SOL     OW 9841   2.458   1.044   0.004
 2981SOL    HW1 9842   2.363   1.021   7.007
 2981SOL    HW2 9843   2.459   1.110   0.079
 2982SOL     OW 9844   2.152   5.811   1.834
 2982SOL    HW1 9845   2.169   5.719   1.868
 2982SOL    HW2 9846   2.056   5.820   1.806
 2983SOL     OW 9847   6.635   2.227   1.384
 2983SOL    HW1 9848   6.570   2.298   1.411
 2983SOL    HW2 9849   6.714   2.269   1.339
 2984SOL     OW 9850   5.744   5.460   6.136
 2984SOL    HW1 9851   5.839   5.461   6.105
 2984SOL    HW2 9852   5.740   5.485   6.233
 2985SOL     OW 9853   1.085   1.615   4.954
 2985SOL    HW1 9854   1.136   1.645   4.873
 2985SOL    HW2 9855   1.030   1.691   4.990
 2986SOL     OW 9856   3.713   3.776   2.348
 2986SOL    HW1 9857   3.660   3.709   2.401
 2986SOL    HW2 9858   3.734   3.855   2.405
 2987SOL     OW 9859   1.475   1.174   4.216
 2987SOL    HW1 9860   1.485   1.127   4.128
 2987SOL    HW2 9861   1.378   1.192   4.234
 2988SOL     OW 9862   1.684   0.034   1.793
 2988SOL    HW1 9863   1.648   6.969   1.815
 2988SOL    HW2 9864   1.645   0.101   1.856
 2989SOL     OW 9865   5.383   4.036   5.616
 2989SOL    HW1 9866   5.298   4.088   5.613
 2989SOL    HW2 9867   5.372   3.950   5.566
 2990SOL     OW 9868   5.200   2.444   4.313
 2990SOL    HW1 9869   5.179   2.527   4.262
 2990SOL    HW2 9870   5.149   2.367   4.274
 2991SOL     OW 9871   6.036   3.324   6.274
 2991SOL    HW1 9872   6.030   3.254   6.344
 2991SOL    HW2 9873   6.121   3.376   6.286
 2992SOL     OW 9874   1.793   4.803   4.839
 2992SOL    HW1 9875   1.771   4.848   4.753
 2992SOL    HW2 9876   1.879   4.753   4.829
 2993SOL     OW 9877   0.236   4.993   0.584
 2993SOL    HW1 9878   0.282   5.070   0.628
 2993SOL    HW2 9879   0.182   5.026   0.507
 2994SOL     OW 9880   3.796   5.937   0.575
 2994SOL    HW1 9881   3.775   5.985   0.661
 2994SOL    HW2 9882   3.855   5.995   0.519
 2995SOL     OW 9883   4.079   0.234   0.223
 2995SOL    HW1 9884   4.077   0.156   0.286
 2995SOL    HW2 9885   4.099   0.317   0.275
 2996SOL     OW 9886   0.963   2.371   4.626
 2996SOL    HW1 9887   0.998   2.354   4.718
 2996SOL    HW2 9888   0.889   2.439   4.630
 2997SOL     OW 9889   4.884   6.810   3.295
 2997SOL    HW1 9890   4.928   6.899   3.301
 2997SOL    HW2 9891   4.797   6.813   3.345
 2998SOL     OW 9892   4.414   6.334   3.353
 2998SOL    HW1 9893   4.331   6.287   3.324
 2998SOL    HW2 9894   4.423   6.421   3.305
 2999SOL     OW 9895   2.748   5.068   5.827
 2999SOL    HW1 9896   2.755   5.146   5.889
 2999SOL    HW2 9897   2.763   4.984   5.878
 3000SOL     OW 9898   2.734   3.915   6.749
 3000SOL    HW1 9899   2.739   3.817   6.728
 3000SOL    HW2 9900   2.727   3.927   6.848
 3001SOL     OW 9901   6.163   1.833   0.413
 3001SOL    HW1 9902   6.115   1.852   0.328
 3001SOL    HW2 9903   6.139   1.741   0.444
 3002SOL     OW 9904   3.433   2.113   0.355
 3002SOL    HW1 9905   3.383   2.131   0.271
 3002SOL    HW2 9906   3.372   2.072   0.423
 3003SOL     OW 9907   1.179   6.670   1.471
 3003SOL    HW1 9908   1.215   6.579   1.450
 3003SOL    HW2 9909   1.082   6.663   1.495
 3004SOL     OW 9910   1.188   4.762   2.701
 3004SOL    HW1 9911   1.135   4.815   2.767
 3004SOL    HW2 9912   1.163   4.789   2.608
 3005SOL     OW 9913   1.366   3.197   6.555
 3005SOL    HW1 9914   1.311   3.194   6.639
 3005SOL    HW2 9915   1.384   3.292   6.531
 3006SOL     OW 9916   5.690   1.659   5.006
 3006SOL    HW1 9917   5.670   1.679   4.910
 3006SOL    HW2 9918   5.784   1.625   5.013
 3007SOL     OW 9919   4.718   4.926   0.142
 3007SOL    HW1 9920   4.659   4.960   0.069
 3007SOL    HW2 9921   4.718   4.826   0.141
 3008SOL     OW 9922   3.432   2.238   6.357
 3008SOL    HW1 9923   3.358   2.250   6.291
 3008SOL    HW2 9924   3.508   2.298   6.333
 3009SOL     OW 9925   0.056   3.211   2.237
 3009SOL    HW1 9926   0.071   3.183   2.332
 3009SOL    HW2 9927   0.004   3.140   2.189
 3010SOL     OW 9928   2.961   5.859   4.207
 3010SOL    HW1 9929   2.947   5.857   4.306
 3010SOL    HW2 9930   2.981   5.767   4.175
 3011SOL     OW 9931   6.065   0.150   1.796
 3011SOL    HW1 9932   6.027   0.159   1.888
 3011SOL    HW2 9933   6.017   0.213   1.735
 3012SOL     OW 9934   2.181   3.085   0.305
 3012SOL    HW1 9935   2.202   3.088   0.207
 3012SOL    HW2 9936   2.148   3.175   0.334
 3013SOL     OW 9937   6.489   5.090   3.250
 3013SOL    HW1 9938   6.452   5.056   3.164
 3013SOL    HW2 9939   6.513   5.013   3.309
 3014SOL     OW 9940   4.712   1.673   6.526
 3014SOL    HW1 9941   4.706   1.623   6.440
 3014SOL    HW2 9942   4.799   1.722   6.530
 3015SOL     OW 9943   2.263   1.887   0.201
 3015SOL    HW1 9944   2.224   1.978   0.188
 3015SOL    HW2 9945   2.241   1.829   0.123
 3016SOL     OW 9946   3.523   6.698   4.369
 3016SOL    HW1 9947   3.532   6.795   4.394
 3016SOL    HW2 9948   3.439   6.661   4.408
 3017SOL     OW 9949   5.270   5.491   2.586
 3017SOL    HW1 9950   5.240   5.585   2.567
 3017SOL    HW2 9951   5.282   5.480   2.684
 3018SOL     OW 9952   3.216   0.194   6.906
 3018SOL    HW1 9953   3.248   0.133   6.978
 3018SOL    HW2 9954   3.294   0.235   6.859
 3019SOL     OW 9955   0.861   0.023   0.117
 3019SOL    HW1 9956   0.958   0.029   0.137
 3019SOL    HW2 9957   0.813   0.102   0.157
 3020SOL     OW 9958   4.292   3.225   1.139
 3020SOL    HW1 9959   4.239   3.223   1.055
 3020SOL    HW2 9960   4.345   3.141   1.148
 3021SOL     OW 9961   2.295   6.964   4.352
 3021SOL    HW1 9962   2.256   6.911   4.277
 3021SOL    HW2 9963   2.376   7.013   4.319
 3022SOL     OW 9964   3.967   5.474   4.457
 3022SOL    HW1 9965   4.026   5.525   4.394
 3022SOL    HW2 9966   3.945   5.533   4.535
 3023SOL     OW 9967   3.836   6.593   3.416
 3023SOL    HW1 9968   3.742   6.591   3.383
 3023SOL    HW2 9969   3.897   6.558   3.345
 3024SOL     OW 9970   5.594   6.628   5.567
 3024SOL    HW1 9971   5.592   6.706   5.630
 3024SOL    HW2 9972   5.679   6.629   5.515
 3025SOL     OW 9973   3.754   6.084   1.778
 3025SOL    HW1 9974   3.732   6.141   1.858
 3025SOL    HW2 9975   3.727   6.131   1.695
 3026SOL     OW 9976   0.225   1.269   6.188
 3026SOL    HW1 9977   0.180   1.189   6.229
 3026SOL    HW2 9978   0.254   1.246   6.095
 3027SOL     OW 9979   4.005   1.437   2.053
 3027SOL    HW1 9980   4.004   1.476   2.145
 3027SOL    HW2 9981   3.922   1.384   2.038
 3028SOL     OW 9982   1.246   4.329   6.285
 3028SOL    HW1 9983   1.212   4.423   6.282
 3028SOL    HW2 9984   1.330   4.325   6.340
 3029SOL     OW 9985   1.069   2.745   3.652
 3029SOL    HW1 9986   1.104   2.652   3.639
 3029SOL    HW2 9987   1.133   2.796   3.710
 3030SOL     OW 9988   1.082   4.155   0.848
 3030SOL    HW1 9989   1.129   4.169   0.761
 3030SOL    HW2 9990   1.079   4.058   0.869
 3031SOL     OW 9991   0.948   4.540   0.893
 3031SOL    HW1 9992   0.992   4.459   0.934
 3031SOL    HW2 9993   0.860   4.513   0.853
 3032SOL     OW 9994   2.238   6.012   1.540
 3032SOL    HW1 9995   2.248   6.070   1.459
 3032SOL    HW2 9996   2.255   6.067   1.622
 3033SOL     OW 9997   6.303   1.439   2.625
 3033SOL    HW1 9998   6.288   1.406   2.532
 3033SOL    HW2 9999   6.399   1.467   2.636
 3034SOL     OW10000   0.311   6.033   3.438
 3034SOL    HW110001   0.275   6.029   3.345
 3034SOL    HW210002   0.388   6.097   3.441
 3035SOL     OW10003   0.930   3.134   5.939
 3035SOL    HW110004   0.875   3.197   5.993
 3035SOL    HW210005   0.950   3.174   5.849
 3036SOL     OW10006   1.318   2.455   5.098
 3036SOL    HW110007   1.230   2.409   5.113
 3036SOL    HW210008   1.304   2.554   5.100
 3037SOL     OW10009   6.544   4.955   5.174
 3037SOL    HW110010   6.581   5.048   5.177
 3037SOL    HW210011   6.494   4.941   5.088
 3038SOL     OW10012   4.882   4.050   5.769
 3038SOL    HW110013   4.888   3.996   5.853
 3038SOL    HW210014   4.826   4.132   5.785
 3039SOL     OW10015   0.207   3.371   0.443
 3039SOL    HW110016   0.173   3.277   0.439
 3039SOL    HW210017   0.254   3.385   0.530
 3040SOL     OW10018   3.293   4.754   5.999
 3040SOL    HW110019   3.237   4.815   5.943
 3040SOL    HW210020   3.329   4.681   5.943
 3041SOL     OW10021   1.210   5.232   6.240
 3041SOL    HW110022   1.192   5.168   6.166
 3041SOL    HW210023   1.287   5.198   6.295
 3042SOL     OW10024   5.474   6.341   2.440
 3042SOL    HW110025   5.526   6.322   2.523
 3042SOL    HW210026   5.387   6.292   2.443
 3043SOL     OW10027   3.316   3.953   1.440
 3043SOL    HW110028   3.320   3.853   1.444
 3043SOL    HW210029   3.232   3.984   1.484
 3044SOL     OW10030   3.126   5.171   5.542
 3044SOL    HW110031   3.124   5.127   5.631
 3044SOL    HW210032   3.160   5.265   5.552
 3045SOL     OW10033   4.827   6.511   2.934
 3045SOL    HW110034   4.896   6.454   2.890
 3045SOL    HW210035   4.777   6.456   3.001
 3046SOL     OW10036   3.323   7.013   0.055
 3046SOL    HW110037   3.260   6.997   0.130
 3046SOL    HW210038   3.324   6.934   7.020
 3047SOL     OW10039   6.087   0.007   0.681
 3047SOL    HW110040   6.170   0.026   0.734
 3047SOL    HW210041   6.009   7.023   0.743
 3048SOL     OW10042   5.119   2.314   0.815
 3048SOL    HW110043   5.066   2.239   0.856
 3048SOL    HW210044   5.058   2.392   0.797
 3049SOL     OW10045   1.301   0.396   3.973
 3049SOL    HW110046   1.356   0.320   4.009
 3049SOL    HW210047   1.227   0.417   4.037
 3050SOL     OW10048   2.576   2.312   1.436
 3050SOL    HW110049   2.616   2.235   1.486
 3050SOL    HW210050   2.643   2.385   1.427
 3051SOL     OW10051   2.527   6.449   6.367
 3051SOL    HW110052   2.468   6.515   6.321
 3051SOL    HW210053   2.620   6.484   6.370
 3052SOL     OW10054   5.206   5.413   2.193
 3052SOL    HW110055   5.139   5.428   2.265
 3052SOL    HW210056   5.298   5.433   2.228
 3053SOL     OW10057   0.113   3.498   1.409
 3053SOL    HW110058   0.096   3.596   1.424
 3053SOL    HW210059   0.131   3.482   1.312
 3054SOL     OW10060   6.094   0.721   2.037
 3054SOL    HW110061   6.131   0.672   1.959
 3054SOL    HW210062   6.167   0.770   2.085
 3055SOL     OW10063   5.261   0.143   5.419
 3055SOL    HW110064   5.161   0.151   5.409
 3055SOL    HW210065   5.292   0.204   5.492
 3056SOL     OW10066   6.226   1.602   5.912
 3056SOL    HW110067   6.305   1.663   5.919
 3056SOL    HW210068   6.200   1.571   6.003
 3057SOL     OW10069   5.057   6.241   4.257
 3057SOL    HW110070   5.137   6.287   4.296
 3057SOL    HW210071   5.072   6.226   4.159
 3058SOL     OW10072   6.077   4.328   0.740
 3058SOL    HW110073   6.092   4.252   0.805
 3058SOL    HW210074   5.989   4.316   0.695
 3059SOL     OW10075   2.442   1.644   4.103
 3059SOL    HW110076   2.488   1.728   4.131
 3059SOL    HW210077   2.355   1.667   4.060
 3060SOL     OW10078   2.033   5.160   6.908
 3060SOL    HW110079   2.074   5.137   6.820
 3060SOL    HW210080   2.098   5.212   6.963
 3061SOL     OW10081   6.122   5.845   5.771
 3061SOL    HW110082   6.031   5.804   5.769
 3061SOL    HW210083   6.187   5.780   5.810
 3062SOL     OW10084   2.283   6.146   1.289
 3062SOL    HW110085   2.355   6.099   1.238
 3062SOL    HW210086   2.197   6.141   1.238
 3063SOL     OW10087   0.857   4.581   1.497
 3063SOL    HW110088   0.849   4.546   1.590
 3063SOL    HW210089   0.797   4.661   1.487
 3064SOL     OW10090   4.283   3.480   0.538
 3064SOL    HW110091   4.217   3.547   0.572
 3064SOL    HW210092   4.283   3.480   0.438
 3065SOL     OW10093   1.203   2.048   6.289
 3065SOL    HW110094   1.256   1.975   6.247
 3065SOL    HW210095   1.262   2.103   6.349
 3066SOL     OW10096   5.151   5.360   6.225
 3066SOL    HW110097   5.146   5.411   6.311
 3066SOL    HW210098   5.166   5.424   6.150
 3067SOL     OW10099   2.856   1.156   0.550
 3067SOL    HW110100   2.798   1.075   0.554
 3067SOL    HW210101   2.926   1.144   0.479
 3068SOL     OW10102   7.005   0.222   1.656
 3068SOL    HW110103   0.017   0.312   1.635
 3068SOL    HW210104   7.017   0.202   1.753
 3069SOL     OW10105   6.262   6.673   3.307
 3069SOL    HW110106   6.295   6.705   3.218
 3069SOL    HW210107   6.190   6.733   3.341
 3070SOL     OW10108   2.320   1.028   6.689
 3070SOL    HW110109   2.418   1.015   6.669
 3070SOL    HW210110   2.295   1.123   6.669
 3071SOL     OW10111   6.308   5.438   3.957
 3071SOL    HW110112   6.391   5.383   3.945
 3071SOL    HW210113   6.333   5.534   3.968
 3072SOL     OW10114   2.018   5.800   6.520
 3072SOL    HW110115   2.116   5.817   6.530
 3072SOL    HW210116   1.977   5.873   6.466
 3073SOL     OW10117   6.964   4.040   1.919
 3073SOL    HW110118   6.915   4.008   1.838
 3073SOL    HW210119   6.925   4.126   1.950
 3074SOL     OW10120   0.730   4.343   0.783
 3074SOL    HW110121   0.744   4.245   0.798
 3074SOL    HW210122   0.727   4.362   0.685
 3075SOL     OW10123   2.679   5.510   3.364
 3075SOL    HW110124   2.591   5.532   3.321
 3075SOL    HW210125   2.663   5.470   3.454
 3076SOL     OW10126   6.721   1.473   4.456
 3076SOL    HW110127   6.758   1.466   4.549
 3076SOL    HW210128   6.704   1.569   4.435
 3077SOL     OW10129   6.008   3.739   2.103
 3077SOL    HW110130   5.915   3.708   2.082
 3077SOL    HW210131   6.012   3.838   2.093
 3078SOL     OW10132   6.706   3.163   2.080
 3078SOL    HW110133   6.682   3.238   2.019
 3078SOL    HW210134   6.718   3.198   2.173
 3079SOL     OW10135   3.414   2.150   3.396
 3079SOL    HW110136   3.483   2.162   3.467
 3079SOL    HW210137   3.443   2.199   3.314
 3080SOL     OW10138   5.197   3.982   2.057
 3080SOL    HW110139   5.188   4.072   2.099
 3080SOL    HW210140   5.249   3.921   2.118
 3081SOL     OW10141   0.646   4.604   5.570
 3081SOL    HW110142   0.681   4.611   5.664
 3081SOL    HW210143   0.623   4.509   5.550
 3082SOL     OW10144   2.160   5.892   4.049
 3082SOL    HW110145   2.210   5.815   4.088
 3082SOL    HW210146   2.108   5.938   4.122
 3083SOL     OW10147   3.439   6.370   3.044
 3083SOL    HW110148   3.380   6.387   2.965
 3083SOL    HW210149   3.397   6.302   3.103
 3084SOL     OW10150   6.501   4.418   2.956
 3084SOL    HW110151   6.522   4.325   2.988
 3084SOL    HW210152   6.587   4.468   2.942
 3085SOL     OW10153   5.702   4.424   0.833
 3085SOL    HW110154   5.765   4.410   0.757
 3085SOL    HW210155   5.750   4.407   0.920
 3086SOL     OW10156   4.710   1.082   6.772
 3086SOL    HW110157   4.754   1.170   6.753
 3086SOL    HW210158   4.725   1.058   6.868
 3087SOL     OW10159   2.994   6.254   3.324
 3087SOL    HW110160   2.930   6.265   3.399
 3087SOL    HW210161   3.083   6.226   3.359
 3088SOL     OW10162   1.875   3.298   5.467
 3088SOL    HW110163   1.949   3.344   5.515
 3088SOL    HW210164   1.787   3.334   5.498
 3089SOL     OW10165   4.334   2.380   4.369
 3089SOL    HW110166   4.252   2.369   4.425
 3089SOL    HW210167   4.307   2.390   4.273
 3090SOL     OW10168   2.462   1.128   2.479
 3090SOL    HW110169   2.445   1.190   2.403
 3090SOL    HW210170   2.400   1.050   2.474
 3091SOL     OW10171   1.230   1.380   0.281
 3091SOL    HW110172   1.306   1.444   0.289
 3091SOL    HW210173   1.242   1.326   0.198
 3092SOL     OW10174   5.307   6.722   0.899
 3092SOL    HW110175   5.242   6.779   0.950
 3092SOL    HW210176   5.393   6.716   0.950
 3093SOL     OW10177   5.534   6.022   6.042
 3093SOL    HW110178   5.507   6.029   6.138
 3093SOL    HW210179   5.453   6.001   5.987
 3094SOL     OW10180   2.714   0.426   3.982
 3094SOL    HW110181   2.634   0.449   4.038
 3094SOL    HW210182   2.711   0.479   3.897
 3095SOL     OW10183   2.417   4.036   5.714
 3095SOL    HW110184   2.414   4.010   5.618
 3095SOL    HW210185   2.441   3.956   5.770
 3096SOL     OW10186   1.069   4.711   5.174
 3096SOL    HW110187   1.101   4.805   5.160
 3096SOL    HW210188   1.127   4.666   5.242
 3097SOL     OW10189   5.458   3.172   6.842
 3097SOL    HW110190   5.441   3.090   6.897
 3097SOL    HW210191   5.384   3.237   6.854
 3098SOL     OW10192   1.718   3.482   1.898
 3098SOL    HW110193   1.798   3.494   1.840
 3098SOL    HW210194   1.639   3.528   1.858
 3099SOL     OW10195   0.960   6.305   4.059
 3099SOL    HW110196   0.974   6.383   4.120
 3099SOL    HW210197   0.997   6.222   4.101
 3100SOL     OW10198   6.712   6.298   2.845
 3100SOL    HW110199   6.752   6.379   2.803
 3100SOL    HW210200   6.655   6.251   2.778
 3101SOL     OW10201   4.599   5.874   5.802
 3101SOL    HW110202   4.523   5.917   5.753
 3101SOL    HW210203   4.589   5.774   5.798
 3102SOL     OW10204   6.676   6.891   1.122
 3102SOL    HW110205   6.626   6.944   1.190
 3102SOL    HW210206   6.738   6.827   1.168
 3103SOL     OW10207   4.995   0.914   1.527
 3103SOL    HW110208   4.925   0.843   1.535
 3103SOL    HW210209   5.072   0.879   1.474
 3104SOL     OW10210   3.274   0.422   6.340
 3104SOL    HW110211   3.240   0.511   6.309
 3104SOL    HW210212   3.261   0.414   6.439
 3105SOL     OW10213   4.698   4.066   1.334
 3105SOL    HW110214   4.673   4.162   1.318
 3105SOL    HW210215   4.759   4.061   1.413
 3106SOL     OW10216   5.272   6.848   5.008
 3106SOL    HW110217   5.278   6.947   4.997
 3106SOL    HW210218   5.247   6.826   5.102
 3107SOL     OW10219   4.253   1.368   4.678
 3107SOL    HW110220   4.224   1.273   4.686
 3107SOL    HW210221   4.313   1.378   4.598
 3108SOL     OW10222   2.046   5.138   5.039
 3108SOL    HW110223   1.998   5.103   4.959
 3108SOL    HW210224   2.001   5.222   5.071
 3109SOL     OW10225   6.220   0.194   4.080
 3109SOL    HW110226   6.223   0.126   4.007
 3109SOL    HW210227   6.132   0.188   4.127
 3110SOL     OW10228   2.226   4.557   3.287
 3110SOL    HW110229   2.212   4.600   3.377
 3110SOL    HW210230   2.311   4.505   3.289
 3111SOL     OW10231   0.229   4.754   3.114
 3111SOL    HW110232   0.146   4.706   3.142
 3111SOL    HW210233   0.209   4.852   3.105
 3112SOL     OW10234   2.742   2.947   7.020
 3112SOL    HW110235   2.833   2.990   7.020
 3112SOL    HW210236   2.733   2.890   0.076
 3113SOL     OW10237   3.155   6.067   2.594
 3113SOL    HW110238   3.236   6.118   2.566
 3113SOL    HW210239   3.104   6.039   2.513
 3114SOL     OW10240   4.347   1.494   0.459
 3114SOL    HW110241   4.287   1.549   0.517
 3114SOL    HW210242   4.294   1.451   0.387
 3115SOL     OW10243   3.902   4.603   5.343
 3115SOL    HW110244   3.973   4.568   5.405
 3115SOL    HW210245   3.853   4.527   5.302
 3116SOL     OW10246   6.964   1.724   0.176
 3116SOL    HW110247   7.013   1.669   0.244
 3116SOL    HW210248   6.968   1.677   0.088
 3117SOL     OW10249   4.482   3.003   5.316
 3117SOL    HW110250   4.386   3.029   5.319
 3117SOL    HW210251   4.490   2.909   5.283
 3118SOL     OW10252   0.910   6.446   2.005
 3118SOL    HW110253   0.851   6.525   2.021
 3118SOL    HW210254   0.931   6.438   1.908
 3119SOL     OW10255   2.749   2.151   6.012
 3119SOL    HW110256   2.715   2.094   6.087
 3119SOL    HW210257   2.767   2.093   5.932
 3120SOL     OW10258   2.988   0.911   5.797
 3120SOL    HW110259   2.936   0.914   5.712
 3120SOL    HW210260   3.078   0.869   5.781
 3121SOL     OW10261   6.005   1.913   4.616
 3121SOL    HW110262   5.949   1.962   4.550
 3121SOL    HW210263   5.970   1.820   4.628
 3122SOL     OW10264   4.807   4.999   4.821
 3122SOL    HW110265   4.763   5.018   4.908
 3122SOL    HW210266   4.745   4.945   4.763
 3123SOL     OW10267   1.636   1.304   3.369
 3123SOL    HW110268   1.704   1.253   3.422
 3123SOL    HW210269   1.650   1.402   3.382
 3124SOL     OW10270   4.838   6.864   3.638
 3124SOL    HW110271   4.814   6.939   3.577
 3124SOL    HW210272   4.779   6.866   3.719
 3125SOL     OW10273   1.622   2.941   5.291
 3125SOL    HW110274   1.652   2.981   5.204
 3125SOL    HW210275   1.606   2.843   5.277
 3126SOL     OW10276   5.334   4.471   5.676
 3126SOL    HW110277   5.344   4.442   5.581
 3126SOL    HW210278   5.255   4.426   5.717
 3127SOL     OW10279   2.080   2.263   5.715
 3127SOL    HW110280   2.087   2.352   5.759
 3127SOL    HW210281   2.170   2.236   5.680
 3128SOL     OW10282   3.550   0.619   0.431
 3128SOL    HW110283   3.456   0.614   0.465
 3128SOL    HW210284   3.614   0.620   0.508
 3129SOL     OW10285   4.767   3.561   0.936
 3129SOL    HW110286   4.855   3.551   0.889
 3129SOL    HW210287   4.752   3.483   0.996
 3130SOL     OW10288   1.681   4.623   1.403
 3130SOL    HW110289   1.624   4.705   1.397
 3130SOL    HW210290   1.716   4.600   1.312
 3131SOL     OW10291   0.467   3.444   2.233
 3131SOL    HW110292   0.551   3.389   2.231
 3131SOL    HW210293   0.489   3.539   2.208
 3132SOL     OW10294   4.831   5.160   6.495
 3132SOL    HW110295   4.928   5.149   6.476
 3132SOL    HW210296   4.814   5.144   6.593
 3133SOL     OW10297   3.760   1.204   3.078
 3133SOL    HW110298   3.811   1.240   3.156
 3133SOL    HW210299   3.694   1.273   3.047
 3134SOL     OW10300   4.168   4.952   1.322
 3134SOL    HW110301   4.249   4.988   1.277
 3134SOL    HW210302   4.097   4.936   1.253
 3135SOL     OW10303   4.947   0.045   5.927
 3135SOL    HW110304   4.964   0.054   6.025
 3135SOL    HW210305   4.917   6.977   5.908
 3136SOL     OW10306   5.730   7.014   2.186
 3136SOL    HW110307   5.828   6.998   2.181
 3136SOL    HW210308   5.690   6.955   2.256
 3137SOL     OW10309   6.669   6.564   3.295
 3137SOL    HW110310   6.690   6.509   3.214
 3137SOL    HW210311   6.702   6.657   3.282
 3138SOL     OW10312   5.958   5.797   3.564
 3138SOL    HW110313   5.883   5.754   3.515
 3138SOL    HW210314   5.971   5.891   3.531
 3139SOL     OW10315   3.465   4.855   1.525
 3139SOL    HW110316   3.421   4.828   1.611
 3139SOL    HW210317   3.408   4.828   1.448
 3140SOL     OW10318   6.209   6.292   5.202
 3140SOL    HW110319   6.266   6.352   5.145
 3140SOL    HW210320   6.196   6.334   5.292
 3141SOL     OW10321   0.691   6.891   7.003
 3141SOL    HW110322   0.681   6.801   0.020
 3141SOL    HW210323   0.768   6.939   0.020
 3142SOL     OW10324   2.963   0.448   2.799
 3142SOL    HW110325   2.950   0.537   2.756
 3142SOL    HW210326   2.882   0.391   2.785
 3143SOL     OW10327   6.322   1.445   0.037
 3143SOL    HW110328   6.229   1.443   0.072
 3143SOL    HW210329   6.323   1.486   6.972
 3144SOL     OW10330   4.561   3.464   0.681
 3144SOL    HW110331   4.546   3.438   0.777
 3144SOL    HW210332   4.475   3.498   0.643
 3145SOL     OW10333   1.591   6.527   2.657
 3145SOL    HW110334   1.531   6.485   2.725
 3145SOL    HW210335   1.590   6.472   2.574
 3146SOL     OW10336   0.789   0.909   4.685
 3146SOL    HW110337   0.768   0.988   4.627
 3146SOL    HW210338   0.726   0.835   4.664
 3147SOL     OW10339   2.985   4.836   0.040
 3147SOL    HW110340   3.021   4.885   0.119
 3147SOL    HW210341   2.952   4.746   0.069
 3148SOL     OW10342   6.702   0.234   4.010
 3148SOL    HW110343   6.745   0.242   3.920
 3148SOL    HW210344   6.678   0.326   4.043
 3149SOL     OW10345   3.253   1.180   6.600
 3149SOL    HW110346   3.200   1.180   6.685
 3149SOL    HW210347   3.192   1.197   6.523
 3150SOL     OW10348   0.027   5.993   4.981
 3150SOL    HW110349   0.007   5.956   5.072
 3150SOL    HW210350   0.093   5.934   4.935
 3151SOL     OW10351   0.154   1.260   5.740
 3151SOL    HW110352   0.235   1.255   5.799
 3151SOL    HW210353   0.075   1.288   5.794
 3152SOL     OW10354   0.761   3.796   0.568
 3152SOL    HW110355   0.817   3.877   0.550
 3152SOL    HW210356   0.799   3.747   0.647
 3153SOL     OW10357   6.449   5.805   0.170
 3153SOL    HW110358   6.444   5.903   0.148
 3153SOL    HW210359   6.411   5.789   0.261
 3154SOL     OW10360   6.492   1.334   0.656
 3154SOL    HW110361   6.399   1.307   0.631
 3154SOL    HW210362   6.539   1.256   0.698
 3155SOL     OW10363   5.853   5.022   0.390
 3155SOL    HW110364   5.870   5.109   0.437
 3155SOL    HW210365   5.756   4.999   0.399
 3156SOL     OW10366   3.350   3.731   2.013
 3156SOL    HW110367   3.322   3.678   2.093
 3156SOL    HW210368   3.291   3.709   1.936
 3157SOL     OW10369   2.026   1.352   5.329
 3157SOL    HW110370   2.115   1.379   5.290
 3157SOL    HW210371   1.953   1.379   5.267
 3158SOL     OW10372   2.200   0.754   4.603
 3158SOL    HW110373   2.208   0.854   4.601
 3158SOL    HW210374   2.116   0.727   4.556
 3159SOL     OW10375   5.738   0.096   6.397
 3159SOL    HW110376   5.715   7.025   6.399
 3159SOL    HW210377   5.770   0.121   6.305
 3160SOL     OW10378   1.523   6.062   5.970
 3160SOL    HW110379   1.529   6.143   6.029
 3160SOL    HW210380   1.605   6.056   5.913
 3161SOL     OW10381   2.462   2.287   2.759
 3161SOL    HW110382   2.485   2.214   2.695
 3161SOL    HW210383   2.539   2.303   2.821
 3162SOL     OW10384   0.825   5.578   1.254
 3162SOL    HW110385   0.800   5.675   1.260
 3162SOL    HW210386   0.881   5.553   1.333
 3163SOL     OW10387   3.998   4.093   6.650
 3163SOL    HW110388   3.924   4.050   6.597
 3163SOL    HW210389   4.049   4.155   6.590
 3164SOL     OW10390   3.934   5.572   1.819
 3164SOL    HW110391   4.024   5.579   1.861
 3164SOL    HW210392   3.926   5.638   1.744
 3165SOL     OW10393   1.049   5.653   1.688
 3165SOL    HW110394   1.015   5.609   1.772
 3165SOL    HW210395   1.136   5.698   1.707
 3166SOL     OW10396   4.740   2.390   4.040
 3166SOL    HW110397   4.646   2.358   4.025
 3166SOL    HW210398   4.803   2.337   3.983
 3167SOL     OW10399   5.504   4.203   0.870
 3167SOL    HW110400   5.443   4.182   0.794
 3167SOL    HW210401   5.577   4.264   0.839
 3168SOL     OW10402   5.723   3.259   6.950
 3168SOL    HW110403   5.627   3.233   6.936
 3168SOL    HW210404   5.728   3.326   7.024
 3169SOL     OW10405   2.319   4.357   3.661
 3169SOL    HW110406   2.313   4.316   3.571
 3169SOL    HW210407   2.276   4.296   3.728
 3170SOL     OW10408   4.207   5.608   1.904
 3170SOL    HW110409   4.184   5.676   1.835
 3170SOL    HW210410   4.265   5.537   1.864
 3171SOL     OW10411   6.240   1.954   1.891
 3171SOL    HW110412   6.313   2.015   1.920
 3171SOL    HW210413   6.258   1.862   1.926
 3172SOL     OW10414   6.746   5.127   6.897
 3172SOL    HW110415   6.809   5.190   6.941
 3172SOL    HW210416   6.687   5.085   6.966
 3173SOL     OW10417   3.138   2.204   6.707
 3173SOL    HW110418   3.095   2.149   6.778
 3173SOL    HW210419   3.094   2.185   6.619
 3174SOL     OW10420   3.072   2.636   6.628
 3174SOL    HW110421   3.151   2.576   6.614
 3174SOL    HW210422   3.017   2.638   6.544
 3175SOL     OW10423   5.648   1.575   1.800
 3175SOL    HW110424   5.643   1.475   1.805
 3175SOL    HW210425   5.582   1.615   1.864
 3176SOL     OW10426   1.094   3.466   5.491
 3176SOL    HW110427   1.110   3.486   5.588
 3176SOL    HW210428   1.144   3.531   5.434
 3177SOL     OW10429   5.621   4.259   4.051
 3177SOL    HW110430   5.557   4.209   4.110
 3177SOL    HW210431   5.710   4.214   4.054
 3178SOL     OW10432   6.477   2.598   0.057
 3178SOL    HW110433   6.541   2.521   0.047
 3178SOL    HW210434   6.511   2.676   0.005
 3179SOL     OW10435   1.511   2.149   2.026
 3179SOL    HW110436   1.492   2.163   1.929
 3179SOL    HW210437   1.430   2.173   2.080
 3180SOL     OW10438   6.239   6.854   0.498
 3180SOL    HW110439   6.309   6.795   0.539
 3180SOL    HW210440   6.186   6.898   0.570
 3181SOL     OW10441   6.389   2.270   3.640
 3181SOL    HW110442   6.374   2.343   3.573
 3181SOL    HW210443   6.332   2.286   3.720
 3182SOL     OW10444   2.374   0.395   7.001
 3182SOL    HW110445   2.466   0.411   0.011
 3182SOL    HW210446   2.366   0.300   6.971
 3183SOL     OW10447   4.817   4.222   2.418
 3183SOL    HW110448   4.813   4.122   2.418
 3183SOL    HW210449   4.750   4.258   2.483
 3184SOL     OW10450   0.386   2.115   3.128
 3184SOL    HW110451   0.424   2.139   3.217
 3184SOL    HW210452   0.461   2.099   3.063
 3185SOL     OW10453   4.434   6.345   6.634
 3185SOL    HW110454   4.455   6.323   6.539
 3185SOL    HW210455   4.381   6.271   6.675
 3186SOL     OW10456   2.926   2.326   0.455
 3186SOL    HW110457   2.904   2.285   0.367
 3186SOL    HW210458   2.854   2.391   0.480
 3187SOL     OW10459   4.168   5.283   1.328
 3187SOL    HW110460   4.208   5.237   1.249
 3187SOL    HW210461   4.069   5.269   1.329
 3188SOL     OW10462   1.252   6.863   3.842
 3188SOL    HW110463   1.191   6.917   3.784
 3188SOL    HW210464   1.198   6.815   3.911
 3189SOL     OW10465   1.110   1.883   1.110
 3189SOL    HW110466   1.030   1.894   1.051
 3189SOL    HW210467   1.187   1.851   1.054
 3190SOL     OW10468   0.015   5.653   0.262
 3190SOL    HW110469   0.103   5.629   0.302
 3190SOL    HW210470   7.019   5.748   0.282
 3191SOL     OW10471   4.894   4.990   1.531
 3191SOL    HW110472   4.943   4.911   1.496
 3191SOL    HW210473   4.820   5.015   1.468
 3192SOL     OW10474   0.764   3.865   1.141
 3192SOL    HW110475   0.816   3.794   1.094
 3192SOL    HW210476   0.780   3.953   1.096
 3193SOL     OW10477   3.997   1.787   5.595
 3193SOL    HW110478   3.898   1.788   5.583
 3193SOL    HW210479   4.020   1.802   5.691
 3194SOL     OW10480   1.633   2.320   5.807
 3194SOL    HW110481   1.691   2.390   5.766
 3194SOL    HW210482   1.690   2.252   5.854
 3195SOL     OW10483   1.374   1.467   2.093
 3195SOL    HW110484   1.289   1.452   2.143
 3195SOL    HW210485   1.387   1.395   2.026
 3196SOL     OW10486   0.041   0.643   6.723
 3196SOL    HW110487   6.984   0.698   6.715
 3196SOL    HW210488   0.042   0.598   6.812
 3197SOL     OW10489   2.783   6.540   4.791
 3197SOL    HW110490   2.738   6.540   4.880
 3197SOL    HW210491   2.719   6.572   4.721
 3198SOL     OW10492   6.633   3.328   3.041
 3198SOL    HW110493   6.632   3.231   3.068
 3198SOL    HW210494   6.726   3.364   3.049
 3199SOL     OW10495   5.089   3.925   2.537
 3199SOL    HW110496   5.158   3.855   2.521
 3199SOL    HW210497   5.132   4.015   2.537
 3200SOL     OW10498   5.771   3.272   2.607
 3200SOL    HW110499   5.717   3.345   2.649
 3200SOL    HW210500   5.864   3.304   2.591
 3201SOL     OW10501   6.325   4.589   3.175
 3201SOL    HW110502   6.405   4.558   3.124
 3201SOL    HW210503   6.274   4.509   3.207
 3202SOL     OW10504   0.951   4.910   0.775
 3202SOL    HW110505   0.887   4.900   0.851
 3202SOL    HW210506   0.979   4.820   0.742
 3203SOL     OW10507   5.949   1.407   0.902
 3203SOL    HW110508   5.925   1.378   0.995
 3203SOL    HW210509   6.048   1.406   0.891
 3204SOL     OW10510   4.064   0.164   3.318
 3204SOL    HW110511   4.041   0.073   3.352
 3204SOL    HW210512   3.980   0.215   3.301
 3205SOL     OW10513   5.280   3.266   6.240
 3205SOL    HW110514   5.320   3.198   6.179
 3205SOL    HW210515   5.302   3.357   6.207
 3206SOL     OW10516   1.490   4.417   1.167
 3206SOL    HW110517   1.462   4.363   1.088
 3206SOL    HW210518   1.548   4.493   1.137
 3207SOL     OW10519   1.507   1.104   6.804
 3207SOL    HW110520   1.512   1.061   6.714
 3207SOL    HW210521   1.461   1.043   6.869
 3208SOL     OW10522   5.275   6.671   6.526
 3208SOL    HW110523   5.262   6.686   6.624
 3208SOL    HW210524   5.285   6.573   6.509
 3209SOL     OW10525   3.210   5.410   3.748
 3209SOL    HW110526   3.196   5.317   3.783
 3209SOL    HW210527   3.130   5.466   3.769
 3210SOL     OW10528   1.091   4.415   1.408
 3210SOL    HW110529   1.024   4.481   1.443
 3210SOL    HW210530   1.066   4.323   1.438
 3211SOL     OW10531   1.406   3.756   0.749
 3211SOL    HW110532   1.381   3.678   0.805
 3211SOL    HW210533   1.505   3.770   0.753
 3212SOL     OW10534   3.024   6.788   2.059
 3212SOL    HW110535   2.933   6.747   2.052
 3212SOL    HW210536   3.016   6.887   2.065
 3213SOL     OW10537   1.250   0.010   0.085
 3213SOL    HW110538   1.343   7.009   0.059
 3213SOL    HW210539   1.251   0.105   0.116
 3214SOL     OW10540   4.497   5.446   1.893
 3214SOL    HW110541   4.569   5.382   1.867
 3214SOL    HW210542   4.527   5.540   1.875
 3215SOL     OW10543   0.476   4.090   0.467
 3215SOL    HW110544   0.572   4.118   0.463
 3215SOL    HW210545   0.463   4.021   0.538
 3216SOL     OW10546   5.985   5.434   0.717
 3216SOL    HW110547   5.941   5.508   0.667
 3216SOL    HW210548   6.001   5.462   0.812
 3217SOL     OW10549   0.241   5.504   2.515
 3217SOL    HW110550   0.329   5.542   2.489
 3217SOL    HW210551   0.255   5.420   2.568
 3218SOL     OW10552   5.597   2.739   3.235
 3218SOL    HW110553   5.688   2.698   3.222
 3218SOL    HW210554   5.563   2.715   3.326
 3219SOL     OW10555   0.444   1.443   3.695
 3219SOL    HW110556   0.367   1.382   3.715
 3219SOL    HW210557   0.527   1.389   3.685
 3220SOL     OW10558   7.017   5.309   5.549
 3220SOL    HW110559   7.004   5.210   5.544
 3220SOL    HW210560   0.073   5.330   5.602
 3221SOL     OW10561   3.713   0.274   2.060
 3221SOL    HW110562   3.765   0.317   2.134
 3221SOL    HW210563   3.639   0.336   2.032
 3222SOL     OW10564   2.653   1.522   2.604
 3222SOL    HW110565   2.732   1.582   2.595
 3222SOL    HW210566   2.638   1.500   2.700
 3223SOL     OW10567   2.653   6.613   6.786
 3223SOL    HW110568   2.695   6.528   6.756
 3223SOL    HW210569   2.635   6.610   6.884
 3224SOL     OW10570   4.646   2.637   4.702
 3224SOL    HW110571   4.594   2.553   4.717
 3224SOL    HW210572   4.625   2.702   4.776
 3225SOL     OW10573   5.048   2.491   5.957
 3225SOL    HW110574   5.022   2.587   5.951
 3225SOL    HW210575   5.070   2.456   5.865
 3226SOL     OW10576   2.294   1.176   2.055
 3226SOL    HW110577   2.221   1.135   2.000
 3226SOL    HW210578   2.282   1.275   2.059
 3227SOL     OW10579   3.523   3.587   6.734
 3227SOL    HW110580   3.567   3.644   6.803
 3227SOL    HW210581   3.434   3.626   6.711
 3228SOL     OW10582   6.469   3.987   1.003
 3228SOL    HW110583   6.487   3.942   1.090
 3228SOL    HW210584   6.461   3.919   0.931
 3229SOL     OW10585   3.530   0.673   5.824
 3229SOL    HW110586   3.498   0.744   5.887
 3229SOL    HW210587   3.569   0.716   5.742
 3230SOL     OW10588   2.152   4.997   5.743
 3230SOL    HW110589   2.184   4.918   5.795
 3230SOL    HW210590   2.228   5.060   5.726
 3231SOL     OW10591   2.486   0.441   2.083
 3231SOL    HW110592   2.508   0.529   2.042
 3231SOL    HW210593   2.516   0.441   2.179
 3232SOL     OW10594   4.257   6.549   4.493
 3232SOL    HW110595   4.284   6.628   4.549
 3232SOL    HW210596   4.197   6.580   4.419
 3233SOL     OW10597   6.469   2.370   0.709
 3233SOL    HW110598   6.467   2.406   0.802
 3233SOL    HW210599   6.389   2.312   0.693
 3234SOL     OW10600   0.631   2.321   0.266
 3234SOL    HW110601   0.710   2.379   0.247
 3234SOL    HW210602   0.660   2.225   0.269
 3235SOL     OW10603   6.957   0.008   1.501
 3235SOL    HW110604   6.971   0.097   1.543
 3235SOL    HW210605   6.930   0.020   1.405
 3236SOL     OW10606   0.727   3.968   0.238
 3236SOL    HW110607   0.660   4.042   0.246
 3236SOL    HW210608   0.811   3.994   0.285
 3237SOL     OW10609   6.009   1.261   2.153
 3237SOL    HW110610   6.061   1.246   2.237
 3237SOL    HW210611   5.975   1.355   2.152
 3238SOL     OW10612   6.728   5.469   6.893
 3238SOL    HW110613   6.767   5.416   6.969
 3238SOL    HW210614   6.781   5.552   6.879
 3239SOL     OW10615   0.255   1.318   2.577
 3239SOL    HW110616   0.321   1.342   2.505
 3239SOL    HW210617   0.179   1.383   2.576
 3240SOL     OW10618   0.073   6.294   6.307
 3240SOL    HW110619   0.063   6.322   6.403
 3240SOL    HW210620   7.022   6.235   6.282
 3241SOL     OW10621   4.757   1.225   5.817
 3241SOL    HW110622   4.831   1.233   5.750
 3241SOL    HW210623   4.700   1.146   5.794
 3242SOL     OW10624   4.444   4.554   6.601
 3242SOL    HW110625   4.544   4.544   6.595
 3242SOL    HW210626   4.414   4.630   6.544
 3243SOL     OW10627   4.313   4.741   0.725
 3243SOL    HW110628   4.322   4.655   0.675
 3243SOL    HW210629   4.364   4.813   0.676
 3244SOL     OW10630   5.334   6.385   6.901
 3244SOL    HW110631   5.302   6.371   6.807
 3244SOL    HW210632   5.261   6.359   6.965
 3245SOL     OW10633   5.358   3.089   3.964
 3245SOL    HW110634   5.437   3.141   3.996
 3245SOL    HW210635   5.373   2.991   3.979
 3246SOL     OW10636   6.871   6.960   2.854
 3246SOL    HW110637   6.786   7.007   2.828
 3246SOL    HW210638   6.925   7.020   2.913
 3247SOL     OW10639   5.984   4.402   2.191
 3247SOL    HW110640   6.041   4.363   2.263
 3247SOL    HW210641   5.888   4.384   2.210
 3248SOL     OW10642   5.740   2.793   2.153
 3248SOL    HW110643   5.818   2.839   2.109
 3248SOL    HW210644   5.659   2.851   2.143
 3249SOL     OW10645   3.792   3.900   3.661
 3249SOL    HW110646   3.759   3.978   3.713
 3249SOL    HW210647   3.789   3.818   3.717
 3250SOL     OW10648   6.032   0.356   2.580
 3250SOL    HW110649   6.006   0.404   2.496
 3250SOL    HW210650   5.976   0.390   2.656
 3251SOL     OW10651   3.556   0.703   3.404
 3251SOL    HW110652   3.460   0.676   3.406
 3251SOL    HW210653   3.564   0.798   3.437
 3252SOL     OW10654   2.867   1.154   2.698
 3252SOL    HW110655   2.803   1.185   2.768
 3252SOL    HW210656   2.821   1.091   2.636
 3253SOL     OW10657   4.441   3.436   1.238
 3253SOL    HW110658   4.443   3.513   1.173
 3253SOL    HW210659   4.384   3.363   1.201
 3254SOL     OW10660   4.635   5.788   6.628
 3254SOL    HW110661   4.675   5.819   6.714
 3254SOL    HW210662   4.643   5.861   6.560
 3255SOL     OW10663   4.080   6.885   1.200
 3255SOL    HW110664   4.101   6.788   1.197
 3255SOL    HW210665   3.981   6.898   1.204
 3256SOL     OW10666   3.937   1.458   1.043
 3256SOL    HW110667   3.841   1.442   1.064
 3256SOL    HW210668   3.994   1.415   1.113
 3257SOL     OW10669   1.439   1.943   1.660
 3257SOL    HW110670   1.527   1.984   1.636
 3257SOL    HW210671   1.384   2.009   1.710
 3258SOL     OW10672   4.460   5.878   2.397
 3258SOL    HW110673   4.469   5.929   2.311
 3258SOL    HW210674   4.415   5.790   2.378
 3259SOL     OW10675   4.864   4.934   5.293
 3259SOL    HW110676   4.956   4.964   5.316
 3259SOL    HW210677   4.815   4.911   5.377
 3260SOL     OW10678   1.759   2.555   1.009
 3260SOL    HW110679   1.672   2.512   1.032
 3260SOL    HW210680   1.825   2.484   0.983
 3261SOL     OW10681   5.811   0.835   1.500
 3261SOL    HW110682   5.808   0.932   1.477
 3261SOL    HW210683   5.803   0.824   1.599
 3262SOL     OW10684   3.527   1.924   2.444
 3262SOL    HW110685   3.445   1.919   2.501
 3262SOL    HW210686   3.506   1.892   2.352
 3263SOL     OW10687   2.974   1.517   2.894
 3263SOL    HW110688   2.893   1.459   2.882
 3263SOL    HW210689   3.013   1.539   2.805
 3264SOL     OW10690   1.894   5.819   0.883
 3264SOL    HW110691   1.832   5.888   0.921
 3264SOL    HW210692   1.857   5.728   0.901
 3265SOL     OW10693   4.602   0.161   6.372
 3265SOL    HW110694   4.702   0.163   6.378
 3265SOL    HW210695   4.564   0.174   6.464
 3266SOL     OW10696   2.297   4.317   0.216
 3266SOL    HW110697   2.286   4.219   0.233
 3266SOL    HW210698   2.260   4.340   0.126
 3267SOL     OW10699   3.096   6.214   1.604
 3267SOL    HW110700   3.108   6.311   1.584
 3267SOL    HW210701   3.000   6.189   1.592
 3268SOL     OW10702   2.744   4.121   1.680
 3268SOL    HW110703   2.815   4.181   1.715
 3268SOL    HW210704   2.659   4.135   1.732
 3269SOL     OW10705   5.148   5.750   2.486
 3269SOL    HW110706   5.176   5.783   2.396
 3269SOL    HW210707   5.202   5.795   2.556
 3270SOL     OW10708   1.135   4.579   6.302
 3270SOL    HW110709   1.193   4.661   6.294
 3270SOL    HW210710   1.113   4.563   6.398
 3271SOL     OW10711   6.034   3.370   1.631
 3271SOL    HW110712   6.129   3.376   1.598
 3271SOL    HW210713   6.018   3.279   1.669
 3272SOL     OW10714   2.724   4.387   6.203
 3272SOL    HW110715   2.768   4.395   6.114
 3272SOL    HW210716   2.630   4.421   6.198
 3273SOL     OW10717   6.502   5.527   0.084
 3273SOL    HW110718   6.573   5.570   0.028
 3273SOL    HW210719   6.430   5.593   0.104
 3274SOL     OW10720   5.585   0.597   0.672
 3274SOL    HW110721   5.615   0.657   0.746
 3274SOL    HW210722   5.636   0.510   0.676
 3275SOL     OW10723   5.002   0.690   0.025
 3275SOL    HW110724   5.068   0.615   0.013
 3275SOL    HW210725   5.046   0.765   0.073
 3276SOL     OW10726   3.750   6.002   6.635
 3276SOL    HW110727   3.696   5.996   6.719
 3276SOL    HW210728   3.818   6.074   6.644
 3277SOL     OW10729   3.355   0.446   0.890
 3277SOL    HW110730   3.412   0.507   0.835
 3277SOL    HW210731   3.414   0.388   0.946
 3278SOL     OW10732   1.203   0.838   5.807
 3278SOL    HW110733   1.215   0.739   5.797
 3278SOL    HW210734   1.182   0.878   5.718
 3279SOL     OW10735   4.975   6.869   0.217
 3279SOL    HW110736   5.053   6.890   0.276
 3279SOL    HW210737   5.006   6.817   0.137
 3280SOL     OW10738   5.097   4.238   4.984
 3280SOL    HW110739   5.085   4.232   4.885
 3280SOL    HW210740   5.029   4.300   5.022
 3281SOL     OW10741   0.912   4.474   1.766
 3281SOL    HW110742   1.003   4.504   1.738
 3281SOL    HW210743   0.913   4.375   1.783
 3282SOL     OW10744   0.126   4.521   4.721
 3282SOL    HW110745   0.199   4.566   4.670
 3282SOL    HW210746   0.064   4.475   4.657
 3283SOL     OW10747   3.251   1.137   0.793
 3283SOL    HW110748   3.305   1.110   0.714
 3283SOL    HW210749   3.155   1.112   0.779
 3284SOL     OW10750   1.009   5.834   6.471
 3284SOL    HW110751   1.078   5.906   6.474
 3284SOL    HW210752   0.919   5.873   6.490
 3285SOL     OW10753   4.174   2.279   4.091
 3285SOL    HW110754   4.208   2.190   4.121
 3285SOL    HW210755   4.251   2.336   4.062
 3286SOL     OW10756   3.890   3.095   2.524
 3286SOL    HW110757   3.935   3.106   2.613
 3286SOL    HW210758   3.889   3.183   2.476
 3287SOL     OW10759   0.600   0.229   0.260
 3287SOL    HW110760   0.614   0.328   0.258
 3287SOL    HW210761   0.578   0.201   0.354
 3288SOL     OW10762   2.202   6.387   0.185
 3288SOL    HW110763   2.242   6.472   0.153
 3288SOL    HW210764   2.260   6.348   0.257
 3289SOL     OW10765   3.195   0.977   5.505
 3289SOL    HW110766   3.156   0.935   5.423
 3289SOL    HW210767   3.221   0.905   5.570
 3290SOL     OW10768   6.896   5.175   1.147
 3290SOL    HW110769   6.991   5.194   1.174
 3290SOL    HW210770   6.886   5.191   1.049
 3291SOL     OW10771   1.947   0.715   6.342
 3291SOL    HW110772   1.962   0.808   6.308
 3291SOL    HW210773   1.904   0.718   6.432
 3292SOL     OW10774   0.071   1.119   0.724
 3292SOL    HW110775   0.171   1.126   0.728
 3292SOL    HW210776   0.045   1.035   0.677
 3293SOL     OW10777   6.562   4.551   1.426
 3293SOL    HW110778   6.600   4.460   1.406
 3293SOL    HW210779   6.637   4.613   1.449
 3294SOL     OW10780   5.733   3.106   6.178
 3294SOL    HW110781   5.771   3.116   6.270
 3294SOL    HW210782   5.671   3.027   6.175
 3295SOL     OW10783   1.115   2.801   1.986
 3295SOL    HW110784   1.114   2.758   1.895
 3295SOL    HW210785   1.047   2.757   2.044
 3296SOL     OW10786   1.350   0.716   2.098
 3296SOL    HW110787   1.314   0.623   2.093
 3296SOL    HW210788   1.354   0.755   2.006
 3297SOL     OW10789   3.081   1.590   5.510
 3297SOL    HW110790   3.081   1.647   5.427
 3297SOL    HW210791   3.166   1.604   5.560
 3298SOL     OW10792   5.883   2.008   5.944
 3298SOL    HW110793   5.857   1.916   5.973
 3298SOL    HW210794   5.850   2.075   6.010
 3299SOL     OW10795   3.777   5.805   2.872
 3299SOL    HW110796   3.833   5.885   2.888
 3299SOL    HW210797   3.694   5.832   2.823
 3300SOL     OW10798   0.886   0.372   6.097
 3300SOL    HW110799   0.978   0.352   6.131
 3300SOL    HW210800   0.870   0.321   6.013
 3301SOL     OW10801   1.752   3.277   3.610
 3301SOL    HW110802   1.739   3.343   3.684
 3301SOL    HW210803   1.693   3.300   3.533
 3302SOL     OW10804   0.747   5.243   5.258
 3302SOL    HW110805   0.794   5.168   5.211
 3302SOL    HW210806   0.649   5.238   5.240
 3303SOL     OW10807   3.122   3.341   0.452
 3303SOL    HW110808   3.029   3.308   0.436
 3303SOL    HW210809   3.182   3.308   0.380
 3304SOL     OW10810   2.069   5.599   5.171
 3304SOL    HW110811   2.155   5.649   5.159
 3304SOL    HW210812   1.996   5.647   5.121
 3305SOL     OW10813   2.200   1.716   2.307
 3305SOL    HW110814   2.283   1.770   2.299
 3305SOL    HW210815   2.203   1.639   2.242
 3306SOL     OW10816   2.061   5.489   4.899
 3306SOL    HW110817   2.158   5.501   4.922
 3306SOL    HW210818   2.019   5.427   4.965
 3307SOL     OW10819   0.766   5.951   6.475
 3307SOL    HW110820   0.792   6.031   6.420
 3307SOL    HW210821   0.670   5.928   6.458
 3308SOL     OW10822   2.432   5.820   1.828
 3308SOL    HW110823   2.448   5.723   1.845
 3308SOL    HW210824   2.338   5.833   1.795
 3309SOL     OW10825   5.963   5.345   3.728
 3309SOL    HW110826   5.950   5.313   3.634
 3309SOL    HW210827   6.023   5.425   3.728
 3310SOL     OW10828   0.053   4.371   5.713
 3310SOL    HW110829   7.006   4.428   5.674
 3310SOL    HW210830   0.142   4.413   5.695
 3311SOL     OW10831   3.760   4.285   0.392
 3311SOL    HW110832   3.782   4.221   0.319
 3311SOL    HW210833   3.671   4.260   0.432
 3312SOL     OW10834   4.102   4.461   5.573
 3312SOL    HW110835   4.173   4.440   5.640
 3312SOL    HW210836   4.058   4.547   5.597
 3313SOL     OW10837   1.050   6.329   3.566
 3313SOL    HW110838   1.024   6.243   3.610
 3313SOL    HW210839   1.017   6.406   3.620
 3314SOL     OW10840   2.299   1.359   2.349
 3314SOL    HW110841   2.257   1.406   2.272
 3314SOL    HW210842   2.230   1.304   2.397
 3315SOL     OW10843   0.092   4.292   4.887
 3315SOL    HW110844   0.128   4.360   4.824
 3315SOL    HW210845   0.095   4.329   4.980
 3316SOL     OW10846   5.670   1.224   5.399
 3316SOL    HW110847   5.584   1.267   5.427
 3316SOL    HW210848   5.731   1.218   5.479
 3317SOL     OW10849   4.895   2.818   1.883
 3317SOL    HW110850   4.831   2.878   1.930
 3317SOL    HW210851   4.989   2.843   1.909
 3318SOL     OW10852   1.806   1.431   1.288
 3318SOL    HW110853   1.845   1.523   1.280
 3318SOL    HW210854   1.874   1.363   1.262
 3319SOL     OW10855   5.815   1.358   3.834
 3319SOL    HW110856   5.836   1.437   3.776
 3319SOL    HW210857   5.784   1.390   3.924
 3320SOL     OW10858   6.184   1.103   5.858
 3320SOL    HW110859   6.217   1.103   5.952
 3320SOL    HW210860   6.207   1.191   5.815
 3321SOL     OW10861   5.449   1.675   0.550
 3321SOL    HW110862   5.384   1.602   0.572
 3321SOL    HW210863   5.469   1.674   0.452
 3322SOL     OW10864   6.443   2.519   0.964
 3322SOL    HW110865   6.460   2.613   0.937
 3322SOL    HW210866   6.529   2.475   0.989
 3323SOL     OW10867   3.209   2.983   0.242
 3323SOL    HW110868   3.192   2.901   0.187
 3323SOL    HW210869   3.123   3.018   0.277
 3324SOL     OW10870   3.670   4.760   6.529
 3324SOL    HW110871   3.609   4.738   6.605
 3324SOL    HW210872   3.762   4.725   6.549
 3325SOL     OW10873   0.029   3.795   6.799
 3325SOL    HW110874   6.988   3.743   6.747
 3325SOL    HW210875   0.111   3.740   6.812
 3326SOL     OW10876   4.768   2.002   2.058
 3326SOL    HW110877   4.867   1.999   2.068
 3326SOL    HW210878   4.727   1.922   2.102
 3327SOL     OW10879   3.042   5.159   1.701
 3327SOL    HW110880   3.040   5.178   1.799
 3327SOL    HW210881   2.956   5.116   1.673
 3328SOL     OW10882   4.565   1.974   0.689
 3328SOL    HW110883   4.522   1.940   0.774
 3328SOL    HW210884   4.499   1.969   0.614
 3329SOL     OW10885   5.775   0.479   4.589
 3329SOL    HW110886   5.831   0.459   4.509
 3329SOL    HW210887   5.807   0.563   4.633
 3330SOL     OW10888   6.617   4.125   1.848
 3330SOL    HW110889   6.608   4.126   1.749
 3330SOL    HW210890   6.699   4.174   1.875
 3331SOL     OW10891   2.546   2.922   1.696
 3331SOL    HW110892   2.509   3.009   1.665
 3331SOL    HW210893   2.488   2.885   1.769
 3332SOL     OW10894   5.320   5.547   0.140
 3332SOL    HW110895   5.377   5.577   0.064
 3332SOL    HW210896   5.226   5.579   0.126
 3333SOL     OW10897   4.443   5.219   6.579
 3333SOL    HW110898   4.482   5.220   6.671
 3333SOL    HW210899   4.505   5.173   6.516
 3334SOL     OW10900   3.112   4.071   1.611
 3334SOL    HW110901   3.133   4.063   1.709
 3334SOL    HW210902   3.040   4.006   1.587
 3335SOL     OW10903   4.600   5.956   6.069
 3335SOL    HW110904   4.612   5.928   5.974
 3335SOL    HW210905   4.513   6.004   6.079
 3336SOL     OW10906   2.918   5.729   4.998
 3336SOL    HW110907   2.885   5.754   5.089
 3336SOL    HW210908   2.905   5.806   4.936
 3337SOL     OW10909   2.970   3.797   2.398
 3337SOL    HW110910   2.946   3.723   2.335
 3337SOL    HW210911   2.996   3.878   2.346
 3338SOL     OW10912   5.779   2.802   1.558
 3338SOL    HW110913   5.790   2.822   1.655
 3338SOL    HW210914   5.742   2.883   1.511
 3339SOL     OW10915   6.441   6.972   6.725
 3339SOL    HW110916   6.456   6.881   6.764
 3339SOL    HW210917   6.438   6.965   6.625
 3340SOL     OW10918   3.702   0.664   2.615
 3340SOL    HW110919   3.700   0.684   2.713
 3340SOL    HW210920   3.742   0.573   2.601
 3341SOL     OW10921   0.758   5.989   3.461
 3341SOL    HW110922   0.672   6.036   3.443
 3341SOL    HW210923   0.755   5.946   3.551
 3342SOL     OW10924   2.854   6.823   4.018
 3342SOL    HW110925   2.913   6.805   3.940
 3342SOL    HW210926   2.778   6.758   4.019
 3343SOL     OW10927   4.593   2.844   0.659
 3343SOL    HW110928   4.655   2.793   0.719
 3343SOL    HW210929   4.599   2.942   0.680
 3344SOL     OW10930   5.843   3.477   4.228
 3344SOL    HW110931   5.855   3.519   4.138
 3344SOL    HW210932   5.917   3.505   4.289
 3345SOL     OW10933   1.482   3.795   6.170
 3345SOL    HW110934   1.434   3.855   6.234
 3345SOL    HW210935   1.416   3.732   6.128
 3346SOL     OW10936   2.048   0.956   0.683
 3346SOL    HW110937   2.131   0.900   0.680
 3346SOL    HW210938   1.984   0.916   0.750
 3347SOL     OW10939   0.462   4.380   3.881
 3347SOL    HW110940   0.535   4.442   3.852
 3347SOL    HW210941   0.478   4.353   3.976
 3348SOL     OW10942   3.008   3.264   3.631
 3348SOL    HW110943   2.975   3.343   3.682
 3348SOL    HW210944   3.037   3.192   3.695
 3349SOL     OW10945   0.944   5.548   3.781
 3349SOL    HW110946   0.913   5.475   3.841
 3349SOL    HW210947   0.950   5.633   3.833
 3350SOL     OW10948   1.686   2.556   5.614
 3350SOL    HW110949   1.598   2.516   5.589
 3350SOL    HW210950   1.759   2.514   5.560
 3351SOL     OW10951   5.387   1.047   2.684
 3351SOL    HW110952   5.295   1.065   2.718
 3351SOL    HW210953   5.383   1.024   2.587
 3352SOL     OW10954   0.318   2.461   0.583
 3352SOL    HW110955   0.411   2.459   0.547
 3352SOL    HW210956   0.270   2.541   0.547
 3353SOL     OW10957   1.451   6.056   1.934
 3353SOL    HW110958   1.390   6.084   2.008
 3353SOL    HW210959   1.462   5.956   1.936
 3354SOL     OW10960   5.423   2.614   5.020
 3354SOL    HW110961   5.335   2.569   5.033
 3354SOL    HW210962   5.412   2.713   5.030
 3355SOL     OW10963   1.805   1.556   0.274
 3355SOL    HW110964   1.757   1.589   0.193
 3355SOL    HW210965   1.851   1.470   0.253
 3356SOL     OW10966   2.141   3.880   6.079
 3356SOL    HW110967   2.096   3.915   6.161
 3356SOL    HW210968   2.082   3.894   5.999
 3357SOL     OW10969   2.646   4.726   1.806
 3357SOL    HW110970   2.687   4.673   1.880
 3357SOL    HW210971   2.694   4.704   1.720
 3358SOL     OW10972   5.124   0.467   0.637
 3358SOL    HW110973   5.046   0.494   0.694
 3358SOL    HW210974   5.106   0.378   0.595
 3359SOL     OW10975   6.828   0.448   3.640
 3359SOL    HW110976   6.826   0.353   3.673
 3359SOL    HW210977   6.824   0.510   3.718
 3360SOL     OW10978   0.618   0.867   6.758
 3360SOL    HW110979   0.594   0.959   6.726
 3360SOL    HW210980   0.631   0.807   6.680
 3361SOL     OW10981   0.211   3.867   2.807
 3361SOL    HW110982   0.282   3.906   2.866
 3361SOL    HW210983   0.221   3.768   2.804
 3362SOL     OW10984   3.790   1.061   3.846
 3362SOL    HW110985   3.767   1.128   3.917
 3362SOL    HW210986   3.757   1.093   3.757
 3363SOL     OW10987   7.001   0.224   0.079
 3363SOL    HW110988   6.961   0.142   0.121
 3363SOL    HW210989   0.074   0.215   0.077
 3364SOL     OW10990   1.192   4.731   3.929
 3364SOL    HW110991   1.093   4.721   3.926
 3364SOL    HW210992   1.233   4.670   3.861
 3365SOL     OW10993   0.469   2.423   5.570
 3365SOL    HW110994   0.559   2.421   5.613
 3365SOL    HW210995   0.455   2.339   5.517
 3366SOL     OW10996   5.715   0.645   6.276
 3366SOL    HW110997   5.783   0.670   6.207
 3366SOL    HW210998   5.687   0.727   6.326
 3367SOL     OW10999   3.121   3.004   1.391
 3367SOL    HW111000   3.081   3.085   1.348
 3367SOL    HW211001   3.194   2.969   1.333
 3368SOL     OW11002   0.857   5.447   6.173
 3368SOL    HW111003   0.928   5.467   6.240
 3368SOL    HW211004   0.897   5.445   6.081
 3369SOL     OW11005   3.822   2.580   5.634
 3369SOL    HW111006   3.852   2.645   5.564
 3369SOL    HW211007   3.755   2.517   5.594
 3370SOL     OW11008   6.629   6.271   6.106
 3370SOL    HW111009   6.563   6.285   6.032
 3370SOL    HW211010   6.601   6.193   6.162
 3371SOL     OW11011   1.675   3.630   2.395
 3371SOL    HW111012   1.736   3.552   2.410
 3371SOL    HW211013   1.580   3.601   2.406
 3372SOL     OW11014   0.660   1.228   1.225
 3372SOL    HW111015   0.731   1.282   1.179
 3372SOL    HW211016   0.570   1.267   1.205
 3373SOL     OW11017   0.239   2.157   2.885
 3373SOL    HW111018   0.157   2.101   2.878
 3373SOL    HW211019   0.297   2.123   2.959
 3374SOL     OW11020   2.267   6.000   4.411
 3374SOL    HW111021   2.209   6.030   4.336
 3374SOL    HW211022   2.363   6.015   4.387
 3375SOL     OW11023   5.656   5.208   6.123
 3375SOL    HW111024   5.698   5.299   6.124
 3375SOL    HW211025   5.727   5.138   6.118
 3376SOL     OW11026   3.350   2.896   3.669
 3376SOL    HW111027   3.427   2.832   3.671
 3376SOL    HW211028   3.384   2.990   3.681
 3377SOL     OW11029   0.264   6.657   4.656
 3377SOL    HW111030   0.241   6.749   4.687
 3377SOL    HW211031   0.221   6.590   4.717
 3378SOL     OW11032   6.697   0.784   0.693
 3378SOL    HW111033   6.655   0.846   0.759
 3378SOL    HW211034   6.786   0.753   0.728
 3379SOL     OW11035   0.034   5.697   6.481
 3379SOL    HW111036   0.085   5.618   6.516
 3379SOL    HW211037   6.967   5.694   6.516
 3380SOL     OW11038   5.601   6.769   6.013
 3380SOL    HW111039   5.679   6.773   5.950
 3380SOL    HW211040   5.624   6.818   6.097
 3381SOL     OW11041   1.184   2.814   1.257
 3381SOL    HW111042   1.135   2.857   1.332
 3381SOL    HW211043   1.207   2.882   1.188
 3382SOL     OW11044   1.102   0.675   0.645
 3382SOL    HW111045   1.160   0.647   0.568
 3382SOL    HW211046   1.114   0.611   0.721
 3383SOL     OW11047   4.242   5.745   2.159
 3383SOL    HW111048   4.274   5.685   2.232
 3383SOL    HW211049   4.243   5.695   2.072
 3384SOL     OW11050   2.493   3.729   5.464
 3384SOL    HW111051   2.505   3.633   5.439
 3384SOL    HW211052   2.529   3.743   5.556
 3385SOL     OW11053   0.363   3.042   3.737
 3385SOL    HW111054   0.293   3.022   3.806
 3385SOL    HW211055   0.319   3.060   3.649
 3386SOL     OW11056   6.613   3.214   6.472
 3386SOL    HW111057   6.514   3.221   6.479
 3386SOL    HW211058   6.652   3.306   6.462
 3387SOL     OW11059   3.013   1.230   3.957
 3387SOL    HW111060   2.989   1.206   4.051
 3387SOL    HW211061   3.028   1.328   3.950
 3388SOL     OW11062   5.153   3.149   1.936
 3388SOL    HW111063   5.062   3.141   1.896
 3388SOL    HW211064   5.218   3.176   1.865
 3389SOL     OW11065   5.133   5.208   5.185
 3389SOL    HW111066   5.191   5.275   5.231
 3389SOL    HW211067   5.091   5.147   5.252
 3390SOL     OW11068   5.128   4.387   6.038
 3390SOL    HW111069   5.154   4.360   5.945
 3390SOL    HW211070   5.028   4.392   6.044
 3391SOL     OW11071   5.589   2.686   4.808
 3391SOL    HW111072   5.533   2.644   4.879
 3391SOL    HW211073   5.686   2.674   4.832
 3392SOL     OW11074   2.769   6.829   3.700
 3392SOL    HW111075   2.719   6.851   3.784
 3392SOL    HW211076   2.709   6.842   3.621
 3393SOL     OW11077   0.402   6.283   0.184
 3393SOL    HW111078   0.464   6.275   0.262
 3393SOL    HW211079   0.426   6.215   0.116
 3394SOL     OW11080   6.233   2.833   0.979
 3394SOL    HW111081   6.312   2.831   0.918
 3394SOL    HW211082   6.262   2.815   1.073
 3395SOL     OW11083   5.811   3.309   3.496
 3395SOL    HW111084   5.781   3.302   3.402
 3395SOL    HW211085   5.859   3.224   3.522
 3396SOL     OW11086   5.692   2.103   3.549
 3396SOL    HW111087   5.640   2.053   3.479
 3396SOL    HW211088   5.739   2.037   3.608
 3397SOL     OW11089   2.893   0.845   5.524
 3397SOL    HW111090   2.928   0.777   5.460
 3397SOL    HW211091   2.854   0.922   5.474
 3398SOL     OW11092   1.067   6.731   4.010
 3398SOL    HW111093   1.001   6.799   3.977
 3398SOL    HW211094   1.055   6.717   4.108
 3399SOL     OW11095   5.629   4.483   4.509
 3399SOL    HW111096   5.672   4.568   4.538
 3399SOL    HW211097   5.698   4.425   4.464
 3400SOL     OW11098   5.060   2.387   5.712
 3400SOL    HW111099   5.093   2.452   5.643
 3400SOL    HW211100   4.968   2.356   5.687
 3401SOL     OW11101   0.020   3.480   0.733
 3401SOL    HW111102   0.036   3.570   0.693
 3401SOL    HW211103   7.011   3.490   0.826
 3402SOL     OW11104   3.698   6.546   6.782
 3402SOL    HW111105   3.791   6.536   6.746
 3402SOL    HW211106   3.663   6.456   6.809
 3403SOL     OW11107   4.537   6.740   5.051
 3403SOL    HW111108   4.466   6.771   4.988
 3403SOL    HW211109   4.494   6.700   5.132
 3404SOL     OW11110   5.360   1.587   0.240
 3404SOL    HW111111   5.347   1.519   0.168
 3404SOL    HW211112   5.273   1.602   0.288
 3405SOL     OW11113   6.651   3.921   4.445
 3405SOL    HW111114   6.719   3.863   4.489
 3405SOL    HW211115   6.697   3.992   4.392
 3406SOL     OW11116   0.620   3.574   2.513
 3406SOL    HW111117   0.523   3.551   2.523
 3406SOL    HW211118   0.646   3.643   2.580
 3407SOL     OW11119   1.550   5.490   0.270
 3407SOL    HW111120   1.544   5.587   0.247
 3407SOL    HW211121   1.513   5.435   0.196
 3408SOL     OW11122   5.253   4.004   5.223
 3408SOL    HW111123   5.238   3.944   5.302
 3408SOL    HW211124   5.315   4.078   5.249
 3409SOL     OW11125   3.394   6.053   6.452
 3409SOL    HW111126   3.340   5.980   6.493
 3409SOL    HW211127   3.379   6.052   6.353
 3410SOL     OW11128   0.042   5.943   0.351
 3410SOL    HW111129   6.997   5.928   0.283
 3410SOL    HW211130   0.129   5.962   0.305
 3411SOL     OW11131   0.620   2.483   1.712
 3411SOL    HW111132   0.708   2.528   1.725
 3411SOL    HW211133   0.549   2.534   1.760
 3412SOL     OW11134   4.371   2.615   6.951
 3412SOL    HW111135   4.378   2.548   6.877
 3412SOL    HW211136   4.453   2.672   6.952
 3413SOL     OW11137   5.506   0.984   1.520
 3413SOL    HW111138   5.596   1.024   1.533
 3413SOL    HW211139   5.454   0.989   1.606
 3414SOL     OW11140   1.793   1.030   5.973
 3414SOL    HW111141   1.766   1.037   6.069
 3414SOL    HW211142   1.892   1.016   5.967
 3415SOL     OW11143   1.519   3.973   4.582
 3415SOL    HW111144   1.564   4.035   4.647
 3415SOL    HW211145   1.569   3.887   4.578
 3416SOL     OW11146   6.997   6.050   0.842
 3416SOL    HW111147   6.963   5.963   0.877
 3416SOL    HW211148   0.019   6.034   0.756
 3417SOL     OW11149   0.429   5.972   3.111
 3417SOL    HW111150   0.331   5.952   3.104
 3417SOL    HW211151   0.442   6.056   3.165
 3418SOL     OW11152   3.384   0.560   4.758
 3418SOL    HW111153   3.437   0.483   4.725
 3418SOL    HW211154   3.287   0.545   4.737
 3419SOL     OW11155   4.538   5.978   5.051
 3419SOL    HW111156   4.611   5.962   5.118
 3419SOL    HW211157   4.538   5.904   4.984
 3420SOL     OW11158   5.900   3.006   3.801
 3420SOL    HW111159   5.861   2.951   3.874
 3420SOL    HW211160   5.835   3.014   3.726
 3421SOL     OW11161   5.618   0.883   6.360
 3421SOL    HW111162   5.574   0.969   6.334
 3421SOL    HW211163   5.709   0.879   6.319
 3422SOL     OW11164   1.862   0.115   1.126
 3422SOL    HW111165   1.860   0.020   1.157
 3422SOL    HW211166   1.948   0.157   1.153
 3423SOL     OW11167   2.317   6.216   0.622
 3423SOL    HW111168   2.329   6.120   0.647
 3423SOL    HW211169   2.334   6.228   0.524
 3424SOL     OW11170   2.890   0.013   2.112
 3424SOL    HW111171   2.892   0.109   2.139
 3424SOL    HW211172   2.868   6.982   2.191
 3425SOL     OW11173   5.417   4.356   2.159
 3425SOL    HW111174   5.441   4.396   2.247
 3425SOL    HW211175   5.323   4.321   2.163
 3426SOL     OW11176   3.271   2.792   0.804
 3426SOL    HW111177   3.330   2.872   0.805
 3426SOL    HW211178   3.232   2.778   0.895
 3427SOL     OW11179   6.590   6.694   0.281
 3427SOL    HW111180   6.565   6.721   0.188
 3427SOL    HW211181   6.512   6.652   0.326
 3428SOL     OW11182   3.109   4.790   0.869
 3428SOL    HW111183   3.025   4.759   0.915
 3428SOL    HW211184   3.089   4.872   0.816
 3429SOL     OW11185   0.717   2.062   7.023
 3429SOL    HW111186   0.714   2.127   6.947
 3429SOL    HW211187   0.627   2.059   0.042
 3430SOL     OW11188   0.173   6.259   5.014
 3430SOL    HW111189   0.109   6.188   4.986
 3430SOL    HW211190   0.258   6.252   4.961
 3431SOL     OW11191   1.714   6.765   0.886
 3431SOL    HW111192   1.741   6.701   0.959
 3431SOL    HW211193   1.780   6.760   0.811
 3432SOL     OW11194   2.257   2.708   6.863
 3432SOL    HW111195   2.186   2.763   6.907
 3432SOL    HW211196   2.269   2.622   6.913
 3433SOL     OW11197   1.129   0.271   6.246
 3433SOL    HW111198   1.061   0.214   6.292
 3433SOL    HW211199   1.221   0.237   6.266
 3434SOL     OW11200   4.852   1.994   0.651
 3434SOL    HW111201   4.752   1.987   0.649
 3434SOL    HW211202   4.880   2.048   0.730
 3435SOL     OW11203   1.230   1.128   1.201
 3435SOL    HW111204   1.319   1.166   1.228
 3435SOL    HW211205   1.244   1.050   1.141
 3436SOL     OW11206   3.188   6.526   5.997
 3436SOL    HW111207   3.217   6.584   6.074
 3436SOL    HW211208   3.135   6.581   5.932
 3437SOL     OW11209   2.746   1.036   5.905
 3437SOL    HW111210   2.826   0.984   5.873
 3437SOL    HW211211   2.663   1.000   5.863
 3438SOL     OW11212   1.173   2.477   0.556
 3438SOL    HW111213   1.238   2.401   0.559
 3438SOL    HW211214   1.081   2.441   0.543
 3439SOL     OW11215   1.932   6.278   5.328
 3439SOL    HW111216   2.006   6.249   5.389
 3439SOL    HW211217   1.917   6.377   5.338
 3440SOL     OW11218   3.928   3.311   1.958
 3440SOL    HW111219   3.881   3.227   1.984
 3440SOL    HW211220   4.018   3.314   2.003
 3441SOL     OW11221   5.253   6.760   4.127
 3441SOL    HW111222   5.257   6.858   4.144
 3441SOL    HW211223   5.278   6.741   4.033
 3442SOL     OW11224   3.795   4.976   2.511
 3442SOL    HW111225   3.735   4.952   2.587
 3442SOL    HW211226   3.785   5.074   2.490
 3443SOL     OW11227   5.149   6.514   1.412
 3443SOL    HW111228   5.119   6.419   1.410
 3443SOL    HW211229   5.079   6.571   1.455
 3444SOL     OW11230   5.360   5.665   0.539
 3444SOL    HW111231   5.269   5.624   0.525
 3444SOL    HW211232   5.349   5.761   0.564
 3445SOL     OW11233   6.207   5.640   4.285
 3445SOL    HW111234   6.167   5.563   4.236
 3445SOL    HW211235   6.181   5.725   4.242
 3446SOL     OW11236   5.834   0.289   2.248
 3446SOL    HW111237   5.764   0.356   2.274
 3446SOL    HW211238   5.792   0.210   2.204
 3447SOL     OW11239   5.116   5.594   1.272
 3447SOL    HW111240   5.059   5.609   1.191
 3447SOL    HW211241   5.154   5.501   1.269
 3448SOL     OW11242   3.135   0.281   0.788
 3448SOL    HW111243   3.223   0.297   0.833
 3448SOL    HW211244   3.066   0.261   0.856
 3449SOL     OW11245   6.492   6.950   3.741
 3449SOL    HW111246   6.486   6.890   3.821
 3449SOL    HW211247   6.588   6.966   3.718
 3450SOL     OW11248   0.171   1.973   6.497
 3450SOL    HW111249   0.140   2.012   6.410
 3450SOL    HW211250   0.167   2.043   6.568
 3451SOL     OW11251   1.471   6.443   2.328
 3451SOL    HW111252   1.512   6.529   2.297
 3451SOL    HW211253   1.507   6.367   2.274
 3452SOL     OW11254   6.444   1.542   6.237
 3452SOL    HW111255   6.524   1.482   6.233
 3452SOL    HW211256   6.474   1.637   6.229
 3453SOL     OW11257   6.980   5.745   6.052
 3453SOL    HW111258   0.033   5.687   6.070
 3453SOL    HW211259   6.901   5.687   6.030
 3454SOL     OW11260   1.236   1.867   6.926
 3454SOL    HW111261   1.263   1.774   6.951
 3454SOL    HW211262   1.140   1.883   6.950
 3455SOL     OW11263   2.258   2.367   4.387
 3455SOL    HW111264   2.286   2.301   4.317
 3455SOL    HW211265   2.218   2.319   4.465
 3456SOL     OW11266   5.685   5.573   2.369
 3456SOL    HW111267   5.755   5.504   2.390
 3456SOL    HW211268   5.703   5.656   2.421
 3457SOL     OW11269   2.677   5.809   3.677
 3457SOL    HW111270   2.681   5.728   3.735
 3457SOL    HW211271   2.753   5.807   3.612
 3458SOL     OW11272   4.622   0.435   0.928
 3458SOL    HW111273   4.554   0.504   0.955
 3458SOL    HW211274   4.579   0.345   0.924
 3459SOL     OW11275   5.832   4.201   2.750
 3459SOL    HW111276   5.742   4.158   2.755
 3459SOL    HW211277   5.849   4.234   2.657
 3460SOL     OW11278   2.358   3.170   6.813
 3460SOL    HW111279   2.407   3.254   6.836
 3460SOL    HW211280   2.423   3.095   6.802
 3461SOL     OW11281   4.582   6.403   4.668
 3461SOL    HW111282   4.575   6.306   4.692
 3461SOL    HW211283   4.528   6.457   4.733
 3462SOL     OW11284   0.289   3.348   2.051
 3462SOL    HW111285   0.217   3.290   2.090
 3462SOL    HW211286   0.353   3.374   2.123
 3463SOL     OW11287   1.138   3.817   3.636
 3463SOL    HW111288   1.150   3.721   3.608
 3463SOL    HW211289   1.220   3.869   3.614
 3464SOL     OW11290   6.793   3.040   0.086
 3464SOL    HW111291   6.731   2.986   0.142
 3464SOL    HW211292   6.766   3.136   0.088
 3465SOL     OW11293   1.560   2.466   1.912
 3465SOL    HW111294   1.496   2.537   1.944
 3465SOL    HW211295   1.612   2.431   1.990
 3466SOL     OW11296   6.458   5.225   6.875
 3466SOL    HW111297   6.451   5.305   6.935
 3466SOL    HW211298   6.554   5.204   6.858
 3467SOL     OW11299   2.108   2.425   0.834
 3467SOL    HW111300   2.133   2.351   0.897
 3467SOL    HW211301   2.162   2.418   0.750
 3468SOL     OW11302   5.823   0.537   2.654
 3468SOL    HW111303   5.744   0.507   2.601
 3468SOL    HW211304   5.799   0.539   2.751
 3469SOL     OW11305   4.773   0.002   4.091
 3469SOL    HW111306   4.769   0.098   4.118
 3469SOL    HW211307   4.866   7.006   4.061
 3470SOL     OW11308   6.585   2.113   1.697
 3470SOL    HW111309   6.524   2.052   1.646
 3470SOL    HW211310   6.658   2.145   1.636
 3471SOL     OW11311   4.791   4.824   4.574
 3471SOL    HW111312   4.882   4.796   4.544
 3471SOL    HW211313   4.722   4.789   4.509
 3472SOL     OW11314   2.614   1.477   3.153
 3472SOL    HW111315   2.580   1.465   3.059
 3472SOL    HW211316   2.588   1.567   3.186
 3473SOL     OW11317   0.147   2.652   1.591
 3473SOL    HW111318   0.167   2.677   1.686
 3473SOL    HW211319   0.176   2.725   1.530
 3474SOL     OW11320   1.178   4.527   2.854
 3474SOL    HW111321   1.177   4.550   2.951
 3474SOL    HW211322   1.190   4.610   2.800
 3475SOL     OW11323   1.577   3.968   3.986
 3475SOL    HW111324   1.526   4.010   3.911
 3475SOL    HW211325   1.627   3.889   3.952
 3476SOL     OW11326   2.365   1.887   2.810
 3476SOL    HW111327   2.269   1.911   2.793
 3476SOL    HW211328   2.424   1.943   2.751
 3477SOL     OW11329   1.682   4.816   0.703
 3477SOL    HW111330   1.707   4.729   0.660
 3477SOL    HW211331   1.619   4.800   0.779
 3478SOL     OW11332   2.488   5.552   5.606
 3478SOL    HW111333   2.582   5.518   5.613
 3478SOL    HW211334   2.425   5.475   5.602
 3479SOL     OW11335   1.583   0.746   2.914
 3479SOL    HW111336   1.557   0.668   2.971
 3479SOL    HW211337   1.668   0.786   2.949
 3480SOL     OW11338   6.904   5.918   4.738
 3480SOL    HW111339   6.879   5.830   4.776
 3480SOL    HW211340   6.951   5.973   4.807
 3481SOL     OW11341   5.033   0.615   0.415
 3481SOL    HW111342   4.960   0.658   0.467
 3481SOL    HW211343   5.098   0.573   0.478
 3482SOL     OW11344   6.118   1.081   1.979
 3482SOL    HW111345   6.167   1.113   1.898
 3482SOL    HW211346   6.064   1.156   2.017
 3483SOL     OW11347   4.778   2.343   1.726
 3483SOL    HW111348   4.682   2.338   1.753
 3483SOL    HW211349   4.827   2.263   1.762
 3484SOL     OW11350   1.002   2.840   0.472
 3484SOL    HW111351   0.939   2.771   0.508
 3484SOL    HW211352   1.094   2.801   0.468
 3485SOL     OW11353   1.745   1.888   4.073
 3485SOL    HW111354   1.731   1.985   4.058
 3485SOL    HW211355   1.793   1.848   3.994
 3486SOL     OW11356   2.549   0.152   3.752
 3486SOL    HW111357   2.592   0.094   3.821
 3486SOL    HW211358   2.508   0.232   3.796
 3487SOL     OW11359   6.220   2.066   6.575
 3487SOL    HW111360   6.229   1.992   6.642
 3487SOL    HW211361   6.220   2.027   6.482
 3488SOL     OW11362   6.291   0.310   4.639
 3488SOL    HW111363   6.230   0.326   4.716
 3488SOL    HW211364   6.322   0.397   4.602
 3489SOL     OW11365   4.115   0.392   1.789
 3489SOL    HW111366   4.028   0.353   1.820
 3489SOL    HW211367   4.190   0.338   1.827
 3490SOL     OW11368   3.894   4.345   1.002
 3490SOL    HW111369   3.803   4.380   1.023
 3490SOL    HW211370   3.901   4.327   0.903
 3491SOL     OW11371   4.460   2.819   5.905
 3491SOL    HW111372   4.437   2.880   5.981
 3491SOL    HW211373   4.533   2.757   5.933
 3492SOL     OW11374   6.654   4.468   0.814
 3492SOL    HW111375   6.633   4.380   0.856
 3492SOL    HW211376   6.717   4.520   0.873
 3493SOL     OW11377   4.969   4.041   5.092
 3493SOL    HW111378   5.020   4.116   5.050
 3493SOL    HW211379   5.033   3.975   5.131
 3494SOL     OW11380   3.406   0.740   2.089
 3494SOL    HW111381   3.392   0.677   2.164
 3494SOL    HW211382   3.477   0.704   2.028
 3495SOL     OW11383   5.821   4.967   1.735
 3495SOL    HW111384   5.746   5.033   1.743
 3495SOL    HW211385   5.873   4.986   1.652
 3496SOL     OW11386   5.917   4.614   0.811
 3496SOL    HW111387   5.898   4.574   0.901
 3496SOL    HW211388   5.979   4.553   0.760
 3497SOL     OW11389   2.220   0.900   3.969
 3497SOL    HW111390   2.185   0.819   4.016
 3497SOL    HW211391   2.320   0.900   3.974
 3498SOL     OW11392   3.257   2.357   1.107
 3498SOL    HW111393   3.310   2.273   1.112
 3498SOL    HW211394   3.280   2.416   1.183
 3499SOL     OW11395   5.460   4.035   4.030
 3499SOL    HW111396   5.516   3.954   4.011
 3499SOL    HW211397   5.430   4.076   3.944
 3500SOL     OW11398   1.789   3.616   4.862
 3500SOL    HW111399   1.793   3.609   4.962
 3500SOL    HW211400   1.792   3.525   4.822
 3501SOL     OW11401   1.561   6.051   4.894
 3501SOL    HW111402   1.649   6.097   4.883
 3501SOL    HW211403   1.562   5.996   4.977
 3502SOL     OW11404   6.777   2.776   1.842
 3502SOL    HW111405   6.800   2.797   1.747
 3502SOL    HW211406   6.701   2.834   1.872
 3503SOL     OW11407   5.968   6.729   5.019
 3503SOL    HW111408   5.926   6.660   4.959
 3503SOL    HW211409   6.032   6.784   4.966
 3504SOL     OW11410   2.663   1.135   1.681
 3504SOL    HW111411   2.582   1.076   1.685
 3504SOL    HW211412   2.635   1.230   1.673
 3505SOL     OW11413   5.797   4.186   5.317
 3505SOL    HW111414   5.726   4.257   5.309
 3505SOL    HW211415   5.870   4.220   5.376
 3506SOL     OW11416   4.946   5.703   5.584
 3506SOL    HW111417   4.987   5.612   5.587
 3506SOL    HW211418   5.017   5.771   5.567
 3507SOL     OW11419   2.402   0.650   0.909
 3507SOL    HW111420   2.351   0.567   0.887
 3507SOL    HW211421   2.387   0.674   1.005
 3508SOL     OW11422   2.036   1.772   5.736
 3508SOL    HW111423   2.130   1.777   5.769
 3508SOL    HW211424   1.974   1.762   5.814
 3509SOL     OW11425   5.031   0.694   6.356
 3509SOL    HW111426   5.122   0.677   6.318
 3509SOL    HW211427   4.965   0.701   6.281
 3510SOL     OW11428   1.382   1.680   1.539
 3510SOL    HW111429   1.375   1.776   1.567
 3510SOL    HW211430   1.306   1.657   1.478
 3511SOL     OW11431   2.863   5.145   1.036
 3511SOL    HW111432   2.842   5.089   1.116
 3511SOL    HW211433   2.872   5.241   1.065
 3512SOL     OW11434   6.803   4.285   0.635
 3512SOL    HW111435   6.899   4.281   0.663
 3512SOL    HW211436   6.751   4.338   0.701
 3513SOL     OW11437   5.535   2.718   6.870
 3513SOL    HW111438   5.548   2.619   6.868
 3513SOL    HW211439   5.486   2.743   6.953
 3514SOL     OW11440   0.316   1.712   2.018
 3514SOL    HW111441   0.327   1.787   2.083
 3514SOL    HW211442   0.232   1.724   1.966
 3515SOL     OW11443   4.912   6.149   3.193
 3515SOL    HW111444   5.009   6.146   3.169
 3515SOL    HW211445   4.857   6.146   3.110
 3516SOL     OW11446   4.550   0.048   1.124
 3516SOL    HW111447   4.454   0.070   1.105
 3516SOL    HW211448   4.572   0.071   1.218
 3517SOL     OW11449   1.520   2.242   0.795
 3517SOL    HW111450   1.503   2.325   0.849
 3517SOL    HW211451   1.465   2.167   0.831
 3518SOL     OW11452   5.769   2.208   4.238
 3518SOL    HW111453   5.764   2.307   4.249
 3518SOL    HW211454   5.769   2.185   4.140
 3519SOL     OW11455   1.485   0.547   6.552
 3519SOL    HW111456   1.552   0.588   6.491
 3519SOL    HW211457   1.432   0.479   6.503
 3520SOL     OW11458   3.008   5.244   6.641
 3520SOL    HW111459   3.042   5.330   6.602
 3520SOL    HW211460   3.041   5.167   6.586
 3521SOL     OW11461   5.218   2.518   6.684
 3521SOL    HW111462   5.198   2.587   6.753
 3521SOL    HW211463   5.134   2.492   6.637
 3522SOL     OW11464   0.128   4.716   1.354
 3522SOL    HW111465   0.070   4.642   1.388
 3522SOL    HW211466   0.111   4.798   1.408
 3523SOL     OW11467   1.772   4.827   6.150
 3523SOL    HW111468   1.705   4.871   6.210
 3523SOL    HW211469   1.768   4.870   6.059
 3524SOL     OW11470   4.413   1.642   2.124
 3524SOL    HW111471   4.483   1.581   2.086
 3524SOL    HW211472   4.351   1.671   2.051
 3525SOL     OW11473   1.280   4.665   3.354
 3525SOL    HW111474   1.349   4.652   3.425
 3525SOL    HW211475   1.216   4.737   3.382
 3526SOL     OW11476   2.412   6.692   4.045
 3526SOL    HW111477   2.327   6.743   4.057
 3526SOL    HW211478   2.393   6.607   3.996
 3527SOL     OW11479   5.752   3.433   6.415
 3527SOL    HW111480   5.655   3.410   6.407
 3527SOL    HW211481   5.806   3.349   6.424
 3528SOL     OW11482   1.139   6.120   4.951
 3528SOL    HW111483   1.212   6.097   4.886
 3528SOL    HW211484   1.159   6.209   4.992
 3529SOL     OW11485   3.815   0.218   6.489
 3529SOL    HW111486   3.721   0.237   6.460
 3529SOL    HW211487   3.865   0.304   6.498
 3530SOL     OW11488   0.457   4.799   2.603
 3530SOL    HW111489   0.436   4.778   2.699
 3530SOL    HW211490   0.527   4.872   2.600
 3531SOL     OW11491   5.050   2.859   0.275
 3531SOL    HW111492   5.007   2.843   0.364
 3531SOL    HW211493   5.085   2.773   0.239
 3532SOL     OW11494   3.049   0.572   1.722
 3532SOL    HW111495   3.127   0.511   1.733
 3532SOL    HW211496   2.974   0.540   1.780
 3533SOL     OW11497   1.845   2.036   2.526
 3533SOL    HW111498   1.897   2.087   2.595
 3533SOL    HW211499   1.798   1.959   2.569
 3534SOL     OW11500   6.613   1.358   6.846
 3534SOL    HW111501   6.528   1.403   6.820
 3534SOL    HW211502   6.673   1.353   6.766
 3535SOL     OW11503   1.938   6.233   0.965
 3535SOL    HW111504   1.970   6.287   0.887
 3535SOL    HW211505   1.934   6.137   0.940
 3536SOL     OW11506   3.050   1.837   3.208
 3536SOL    HW111507   3.126   1.778   3.235
 3536SOL    HW211508   3.031   1.903   3.281
 3537SOL     OW11509   3.189   5.743   1.720
 3537SOL    HW111510   3.224   5.649   1.723
 3537SOL    HW211511   3.260   5.803   1.682
 3538SOL     OW11512   1.433   0.201   6.563
 3538SOL    HW111513   1.416   0.204   6.464
 3538SOL    HW211514   1.345   0.202   6.611
 3539SOL     OW11515   5.545   3.382   5.833
 3539SOL    HW111516   5.456   3.383   5.787
 3539SOL    HW211517   5.614   3.424   5.773
 3540SOL     OW11518   2.125   1.941   5.510
 3540SOL    HW111519   2.224   1.955   5.512
 3540SOL    HW211520   2.100   1.869   5.573
 3541SOL     OW11521   1.906   2.479   6.474
 3541SOL    HW111522   1.977   2.510   6.411
 3541SOL    HW211523   1.945   2.464   6.564
 3542SOL     OW11524   1.652   5.451   2.890
 3542SOL    HW111525   1.655   5.359   2.929
 3542SOL    HW211526   1.678   5.517   2.959
 3543SOL     OW11527   0.845   2.123   4.639
 3543SOL    HW111528   0.920   2.069   4.678
 3543SOL    HW211529   0.870   2.220   4.639
 3544SOL     OW11530   2.558   3.930   6.450
 3544SOL    HW111531   2.592   3.855   6.507
 3544SOL    HW211532   2.595   4.017   6.483
 3545SOL     OW11533   4.076   4.918   0.697
 3545SOL    HW111534   4.094   4.917   0.598
 3545SOL    HW211535   4.147   4.865   0.744
 3546SOL     OW11536   1.069   4.605   4.338
 3546SOL    HW111537   0.977   4.598   4.376
 3546SOL    HW211538   1.110   4.514   4.331
 3547SOL     OW11539   6.562   5.019   4.469
 3547SOL    HW111540   6.651   5.004   4.512
 3547SOL    HW211541   6.503   5.069   4.532
 3548SOL     OW11542   5.932   1.075   5.964
 3548SOL    HW111543   5.897   1.169   5.962
 3548SOL    HW211544   6.010   1.067   5.902
 3549SOL     OW11545   6.922   4.918   5.745
 3549SOL    HW111546   6.980   4.955   5.673
 3549SOL    HW211547   6.975   4.909   5.829
 3550SOL     OW11548   6.074   3.402   3.204
 3550SOL    HW111549   6.010   3.475   3.227
 3550SOL    HW211550   6.119   3.422   3.117
 3551SOL     OW11551   3.938   1.254   2.709
 3551SOL    HW111552   3.895   1.335   2.749
 3551SOL    HW211553   3.966   1.273   2.615
 3552SOL     OW11554   5.687   6.817   2.632
 3552SOL    HW111555   5.706   6.738   2.573
 3552SOL    HW211556   5.723   6.900   2.589
 3553SOL     OW11557   4.745   4.956   1.101
 3553SOL    HW111558   4.662   4.948   1.045
 3553SOL    HW211559   4.765   4.868   1.144
 3554SOL     OW11560   4.624   2.163   1.532
 3554SOL    HW111561   4.564   2.115   1.595
 3554SOL    HW211562   4.705   2.107   1.514
 3555SOL     OW11563   0.945   4.673   4.006
 3555SOL    HW111564   0.912   4.580   4.021
 3555SOL    HW211565   0.991   4.706   4.089
 3556SOL     OW11566   4.168   1.580   4.377
 3556SOL    HW111567   4.078   1.548   4.347
 3556SOL    HW211568   4.238   1.544   4.315
 3557SOL     OW11569   1.148   1.399   4.657
 3557SOL    HW111570   1.086   1.477   4.666
 3557SOL    HW211571   1.217   1.419   4.588
 3558SOL     OW11572   1.363   6.805   2.296
 3558SOL    HW111573   1.385   6.823   2.392
 3558SOL    HW211574   1.286   6.741   2.291
 3559SOL     OW11575   0.595   5.962   5.704
 3559SOL    HW111576   0.548   5.893   5.649
 3559SOL    HW211577   0.680   5.924   5.740
 3560SOL     OW11578   0.729   5.786   1.707
 3560SOL    HW111579   0.803   5.808   1.644
 3560SOL    HW211580   0.721   5.687   1.715
 3561SOL     OW11581   4.297   4.708   4.755
 3561SOL    HW111582   4.289   4.619   4.710
 3561SOL    HW211583   4.309   4.695   4.853
 3562SOL     OW11584   4.688   1.305   3.294
 3562SOL    HW111585   4.779   1.270   3.313
 3562SOL    HW211586   4.630   1.231   3.261
 3563SOL     OW11587   5.812   0.918   0.347
 3563SOL    HW111588   5.845   0.874   0.430
 3563SOL    HW211589   5.787   0.849   0.279
 3564SOL     OW11590   2.136   4.580   3.558
 3564SOL    HW111591   2.214   4.525   3.588
 3564SOL    HW211592   2.055   4.521   3.550
 3565SOL     OW11593   2.630   5.675   5.103
 3565SOL    HW111594   2.612   5.577   5.099
 3565SOL    HW211595   2.691   5.695   5.180
 3566SOL     OW11596   6.450   3.588   6.025
 3566SOL    HW111597   6.548   3.572   6.035
 3566SOL    HW211598   6.406   3.504   5.993
 3567SOL     OW11599   0.320   3.033   0.146
 3567SOL    HW111600   0.283   3.070   0.061
 3567SOL    HW211601   0.349   3.109   0.205
 3568SOL     OW11602   4.676   5.101   4.258
 3568SOL    HW111603   4.687   5.115   4.357
 3568SOL    HW211604   4.616   5.172   4.221
 3569SOL     OW11605   1.834   1.853   5.950
 3569SOL    HW111606   1.804   1.948   5.944
 3569SOL    HW211607   1.877   1.837   6.039
 3570SOL     OW11608   5.477   0.868   5.151
 3570SOL    HW111609   5.509   0.807   5.223
 3570SOL    HW211610   5.536   0.948   5.146
 3571SOL     OW11611   0.930   5.735   5.365
 3571SOL    HW111612   0.916   5.671   5.289
 3571SOL    HW211613   0.880   5.820   5.347
 3572SOL     OW11614   6.016   3.185   2.928
 3572SOL    HW111615   5.977   3.115   2.867
 3572SOL    HW211616   5.948   3.256   2.945
 3573SOL     OW11617   6.358   4.880   3.072
 3573SOL    HW111618   6.291   4.852   3.140
 3573SOL    HW211619   6.312   4.894   2.984
 3574SOL     OW11620   0.491   2.745   0.724
 3574SOL    HW111621   0.539   2.664   0.691
 3574SOL    HW211622   0.557   2.810   0.763
 3575SOL     OW11623   5.443   5.463   2.365
 3575SOL    HW111624   5.407   5.461   2.458
 3575SOL    HW211625   5.531   5.509   2.364
 3576SOL     OW11626   0.883   2.277   6.650
 3576SOL    HW111627   0.913   2.182   6.657
 3576SOL    HW211628   0.958   2.338   6.676
 3577SOL     OW11629   1.646   2.669   6.979
 3577SOL    HW111630   1.602   2.714   6.901
 3577SOL    HW211631   1.578   2.657   0.026
 3578SOL     OW11632   4.159   1.084   0.454
 3578SOL    HW111633   4.063   1.105   0.475
 3578SOL    HW211634   4.211   1.081   0.539
 3579SOL     OW11635   6.617   2.397   2.992
 3579SOL    HW111636   6.626   2.494   3.017
 3579SOL    HW211637   6.697   2.347   3.024
 3580SOL     OW11638   6.361   3.320   1.178
 3580SOL    HW111639   6.413   3.392   1.131
 3580SOL    HW211640   6.300   3.275   1.113
 3581SOL     OW11641   1.155   5.089   3.620
 3581SOL    HW111642   1.120   5.174   3.582
 3581SOL    HW211643   1.159   5.096   3.720
 3582SOL     OW11644   1.214   3.678   6.375
 3582SOL    HW111645   1.255   3.769   6.375
 3582SOL    HW211646   1.149   3.671   6.299
 3583SOL     OW11647   1.305   4.866   7.022
 3583SOL    HW111648   1.323   4.777   0.038
 3583SOL    HW211649   1.207   4.880   7.013
 3584SOL     OW11650   6.068   4.586   5.829
 3584SOL    HW111651   6.159   4.568   5.791
 3584SOL    HW211652   6.019   4.500   5.841
 3585SOL     OW11653   2.701   2.017   4.415
 3585SOL    HW111654   2.727   2.088   4.349
 3585SOL    HW211655   2.760   2.022   4.495
 3586SOL     OW11656   6.129   1.573   4.514
 3586SOL    HW111657   6.212   1.606   4.559
 3586SOL    HW211658   6.050   1.590   4.573
 3587SOL     OW11659   1.808   4.530   6.057
 3587SOL    HW111660   1.724   4.583   6.050
 3587SOL    HW211661   1.884   4.583   6.019
 3588SOL     OW11662   0.656   3.382   5.380
 3588SOL    HW111663   0.751   3.405   5.357
 3588SOL    HW211664   0.651   3.357   5.476
 3589SOL     OW11665   5.581   1.003   5.724
 3589SOL    HW111666   5.658   1.000   5.789
 3589SOL    HW211667   5.565   1.098   5.697
 3590SOL     OW11668   0.654   3.592   0.388
 3590SOL    HW111669   0.679   3.662   0.455
 3590SOL    HW211670   0.625   3.509   0.435
 3591SOL     OW11671   5.547   3.936   0.011
 3591SOL    HW111672   5.584   4.011   6.982
 3591SOL    HW211673   5.515   3.863   6.977
 3592SOL     OW11674   0.589   6.026   2.438
 3592SOL    HW111675   0.528   6.047   2.361
 3592SOL    HW211676   0.649   6.104   2.455
 3593SOL     OW11677   1.051   5.162   5.462
 3593SOL    HW111678   0.960   5.197   5.486
 3593SOL    HW211679   1.116   5.238   5.459
 3594SOL     OW11680   4.647   6.937   3.420
 3594SOL    HW111681   4.643   0.000   3.465
 3594SOL    HW211682   4.598   6.870   3.476
 3595SOL     OW11683   4.780   6.479   6.292
 3595SOL    HW111684   4.757   6.414   6.220
 3595SOL    HW211685   4.697   6.518   6.331
 3596SOL     OW11686   5.408   3.431   2.482
 3596SOL    HW111687   5.346   3.402   2.409
 3596SOL    HW211688   5.443   3.351   2.530
 3597SOL     OW11689   1.738   1.995   5.619
 3597SOL    HW111690   1.664   1.987   5.552
 3597SOL    HW211691   1.812   1.933   5.594
 3598SOL     OW11692   1.196   6.710   5.827
 3598SOL    HW111693   1.163   6.741   5.916
 3598SOL    HW211694   1.176   6.613   5.816
 3599SOL     OW11695   5.051   2.082   0.104
 3599SOL    HW111696   4.969   2.043   0.144
 3599SOL    HW211697   5.068   2.040   0.014
 3600SOL     OW11698   1.046   3.067   1.956
 3600SOL    HW111699   1.070   2.973   1.979
 3600SOL    HW211700   1.115   3.105   1.895
 3601SOL     OW11701   4.939   3.262   5.941
 3601SOL    HW111702   4.916   3.188   5.878
 3601SOL    HW211703   4.993   3.331   5.892
 3602SOL     OW11704   1.002   4.021   0.313
 3602SOL    HW111705   1.057   3.989   0.237
 3602SOL    HW211706   1.030   4.114   0.338
 3603SOL     OW11707   3.796   1.182   4.420
 3603SOL    HW111708   3.856   1.166   4.499
 3603SOL    HW211709   3.786   1.280   4.405
 3604SOL     OW11710   6.642   6.185   3.243
 3604SOL    HW111711   6.724   6.129   3.255
 3604SOL    HW211712   6.662   6.259   3.179
 3605SOL     OW11713   0.266   4.592   3.866
 3605SOL    HW111714   0.333   4.519   3.876
 3605SOL    HW211715   0.174   4.555   3.876
 3606SOL     OW11716   0.561   0.153   4.200
 3606SOL    HW111717   0.468   0.155   4.164
 3606SOL    HW211718   0.558   0.168   4.299
 3607SOL     OW11719   5.179   5.286   1.965
 3607SOL    HW111720   5.191   5.331   2.054
 3607SOL    HW211721   5.254   5.221   1.950
 3608SOL     OW11722   4.751   2.104   4.561
 3608SOL    HW111723   4.672   2.157   4.529
 3608SOL    HW211724   4.823   2.108   4.492
 3609SOL     OW11725   1.438   0.161   4.069
 3609SOL    HW111726   1.436   0.080   4.010
 3609SOL    HW211727   1.525   0.163   4.119
 3610SOL     OW11728   1.736   0.466   6.061
 3610SOL    HW111729   1.759   0.468   5.963
 3610SOL    HW211730   1.812   0.427   6.112
 3611SOL     OW11731   4.741   5.116   4.512
 3611SOL    HW111732   4.783   5.166   4.588
 3611SOL    HW211733   4.780   5.025   4.507
 3612SOL     OW11734   0.482   0.566   0.040
 3612SOL    HW111735   0.525   0.528   6.983
 3612SOL    HW211736   0.451   0.659   0.021
 3613SOL     OW11737   4.871   4.715   2.274
 3613SOL    HW111738   4.910   4.624   2.293
 3613SOL    HW211739   4.804   4.737   2.344
 3614SOL     OW11740   3.311   3.790   0.726
 3614SOL    HW111741   3.252   3.731   0.671
 3614SOL    HW211742   3.335   3.872   0.674
 3615SOL     OW11743   5.171   3.458   5.929
 3615SOL    HW111744   5.097   3.525   5.939
 3615SOL    HW211745   5.238   3.472   6.002
 3616SOL     OW11746   0.610   1.152   6.736
 3616SOL    HW111747   0.528   1.142   6.680
 3616SOL    HW211748   0.691   1.155   6.677
 3617SOL     OW11749   4.509   0.788   6.813
 3617SOL    HW111750   4.606   0.767   6.827
 3617SOL    HW211751   4.489   0.881   6.845
 3618SOL     OW11752   2.355   3.242   5.383
 3618SOL    HW111753   2.389   3.161   5.336
 3618SOL    HW211754   2.318   3.217   5.472
 3619SOL     OW11755   6.168   2.642   5.004
 3619SOL    HW111756   6.140   2.671   4.912
 3619SOL    HW211757   6.087   2.641   5.064
 3620SOL     OW11758   6.156   5.657   5.375
 3620SOL    HW111759   6.235   5.631   5.431
 3620SOL    HW211760   6.141   5.588   5.304
 3621SOL     OW11761   3.272   2.830   5.141
 3621SOL    HW111762   3.253   2.734   5.117
 3621SOL    HW211763   3.314   2.876   5.063
 3622SOL     OW11764   1.280   1.668   0.078
 3622SOL    HW111765   1.332   1.722   0.144
 3622SOL    HW211766   1.182   1.675   0.099
 3623SOL     OW11767   6.564   6.356   4.391
 3623SOL    HW111768   6.655   6.316   4.375
 3623SOL    HW211769   6.571   6.426   4.463
 3624SOL     OW11770   1.855   0.140   2.300
 3624SOL    HW111771   1.867   0.239   2.288
 3624SOL    HW211772   1.826   0.099   2.214
 3625SOL     OW11773   0.299   3.106   6.518
 3625SOL    HW111774   0.306   3.204   6.535
 3625SOL    HW211775   0.233   3.090   6.445
 3626SOL     OW11776   1.012   2.965   5.699
 3626SOL    HW111777   1.108   2.938   5.710
 3626SOL    HW211778   1.007   3.046   5.640
 3627SOL     OW11779   3.962   3.070   1.283
 3627SOL    HW111780   3.918   3.160   1.281
 3627SOL    HW211781   4.039   3.071   1.346
 3628SOL     OW11782   0.912   1.540   2.092
 3628SOL    HW111783   0.935   1.635   2.069
 3628SOL    HW211784   0.948   1.480   2.020
 3629SOL     OW11785   1.026   1.170   5.485
 3629SOL    HW111786   1.056   1.206   5.573
 3629SOL    HW211787   0.926   1.160   5.485
 3630SOL     OW11788   5.312   2.442   3.971
 3630SOL    HW111789   5.382   2.455   3.902
 3630SOL    HW211790   5.222   2.462   3.932
 3631SOL     OW11791   2.228   0.713   2.923
 3631SOL    HW111792   2.218   0.777   2.847
 3631SOL    HW211793   2.288   0.638   2.896
 3632SOL     OW11794   5.407   5.136   1.358
 3632SOL    HW111795   5.343   5.197   1.310
 3632SOL    HW211796   5.435   5.062   1.297
 3633SOL     OW11797   3.900   2.207   5.866
 3633SOL    HW111798   3.928   2.278   5.931
 3633SOL    HW211799   3.955   2.214   5.783
 3634SOL     OW11800   1.905   5.632   5.925
 3634SOL    HW111801   1.924   5.708   5.864
 3634SOL    HW211802   1.837   5.572   5.883
 3635SOL     OW11803   3.125   0.181   1.051
 3635SOL    HW111804   3.144   0.140   1.140
 3635SOL    HW211805   3.108   0.279   1.063
 3636SOL     OW11806   6.483   5.693   0.489
 3636SOL    HW111807   6.439   5.768   0.539
 3636SOL    HW211808   6.582   5.708   0.488
 3637SOL     OW11809   0.116   2.455   1.868
 3637SOL    HW111810   0.124   2.554   1.855
 3637SOL    HW211811   0.097   2.435   1.964
 3638SOL     OW11812   6.844   4.003   2.947
 3638SOL    HW111813   6.902   3.960   3.017
 3638SOL    HW211814   6.902   4.047   2.878
 3639SOL     OW11815   4.169   4.924   0.453
 3639SOL    HW111816   4.119   4.966   0.377
 3639SOL    HW211817   4.264   4.954   0.452
 3640SOL     OW11818   4.693   1.153   0.401
 3640SOL    HW111819   4.680   1.252   0.415
 3640SOL    HW211820   4.782   1.126   0.437
 3641SOL     OW11821   6.241   3.624   2.075
 3641SOL    HW111822   6.146   3.651   2.088
 3641SOL    HW211823   6.298   3.666   2.146
 3642SOL     OW11824   4.738   2.070   6.886
 3642SOL    HW111825   4.734   2.107   6.979
 3642SOL    HW211826   4.660   2.010   6.871
 3643SOL     OW11827   3.225   5.914   4.681
 3643SOL    HW111828   3.323   5.930   4.680
 3643SOL    HW211829   3.200   5.858   4.760
 3644SOL     OW11830   2.416   1.419   1.864
 3644SOL    HW111831   2.357   1.438   1.785
 3644SOL    HW211832   2.509   1.447   1.843
 3645SOL     OW11833   1.797   2.182   3.885
 3645SOL    HW111834   1.862   2.248   3.847
 3645SOL    HW211835   1.786   2.198   3.983
 3646SOL     OW11836   1.326   4.075   5.524
 3646SOL    HW111837   1.305   4.165   5.486
 3646SOL    HW211838   1.408   4.081   5.581
 3647SOL     OW11839   2.415   5.684   6.881
 3647SOL    HW111840   2.424   5.768   6.934
 3647SOL    HW211841   2.318   5.662   6.870
 3648SOL     OW11842   4.292   5.953   3.319
 3648SOL    HW111843   4.300   5.880   3.387
 3648SOL    HW211844   4.384   5.980   3.288
 3649SOL     OW11845   6.387   3.046   0.572
 3649SOL    HW111846   6.462   2.983   0.548
 3649SOL    HW211847   6.392   3.068   0.669
 3650SOL     OW11848   6.260   5.214   1.767
 3650SOL    HW111849   6.357   5.239   1.777
 3650SOL    HW211850   6.203   5.295   1.778
 3651SOL     OW11851   1.462   0.322   4.447
 3651SOL    HW111852   1.484   0.346   4.541
 3651SOL    HW211853   1.432   0.403   4.397
 3652SOL     OW11854   6.372   6.893   3.482
 3652SOL    HW111855   6.415   6.926   3.566
 3652SOL    HW211856   6.442   6.875   3.413
 3653SOL     OW11857   1.591   1.518   3.102
 3653SOL    HW111858   1.544   1.560   3.179
 3653SOL    HW211859   1.643   1.588   3.052
 3654SOL     OW11860   3.919   4.703   0.818
 3654SOL    HW111861   3.856   4.691   0.895
 3654SOL    HW211862   3.977   4.783   0.834
 3655SOL     OW11863   3.286   0.642   4.045
 3655SOL    HW111864   3.376   0.686   4.041
 3655SOL    HW211865   3.215   0.710   4.024
 3656SOL     OW11866   0.457   5.441   1.511
 3656SOL    HW111867   0.407   5.527   1.500
 3656SOL    HW211868   0.468   5.397   1.422
 3657SOL     OW11869   4.956   5.833   4.724
 3657SOL    HW111870   5.035   5.785   4.762
 3657SOL    HW211871   4.923   5.784   4.643
 3658SOL     OW11872   2.763   4.770   6.681
 3658SOL    HW111873   2.733   4.676   6.669
 3658SOL    HW211874   2.819   4.777   6.763
 3659SOL     OW11875   1.782   2.597   5.869
 3659SOL    HW111876   1.797   2.696   5.873
 3659SOL    HW211877   1.728   2.575   5.788
 3660SOL     OW11878   5.954   6.513   4.353
 3660SOL    HW111879   5.971   6.579   4.427
 3660SOL    HW211880   6.039   6.470   4.326
 3661SOL     OW11881   6.962   1.006   5.280
 3661SOL    HW111882   6.956   0.919   5.328
 3661SOL    HW211883   6.913   1.076   5.331
 3662SOL     OW11884   4.310   0.593   4.798
 3662SOL    HW111885   4.218   0.612   4.764
 3662SOL    HW211886   4.304   0.546   4.885
 3663SOL     OW11887   1.831   3.082   0.246
 3663SOL    HW111888   1.732   3.082   0.260
 3663SOL    HW211889   1.852   3.055   0.152
 3664SOL     OW11890   4.519   2.378   1.971
 3664SOL    HW111891   4.579   2.455   1.947
 3664SOL    HW211892   4.504   2.378   2.070
 3665SOL     OW11893   0.841   6.458   5.117
 3665SOL    HW111894   0.830   6.399   5.037
 3665SOL    HW211895   0.893   6.540   5.091
 3666SOL     OW11896   0.772   4.077   3.021
 3666SOL    HW111897   0.859   4.122   3.042
 3666SOL    HW211898   0.756   4.080   2.922
 3667SOL     OW11899   6.954   1.562   3.633
 3667SOL    HW111900   6.873   1.588   3.685
 3667SOL    HW211901   0.005   1.548   3.696
 3668SOL     OW11902   1.174   0.523   1.245
 3668SOL    HW111903   1.096   0.567   1.288
 3668SOL    HW211904   1.187   0.431   1.284
 3669SOL     OW11905   5.863   1.588   3.719
 3669SOL    HW111906   5.783   1.647   3.706
 3669SOL    HW211907   5.946   1.639   3.695
 3670SOL     OW11908   2.652   5.270   6.944
 3670SOL    HW111909   2.652   5.234   0.011
 3670SOL    HW211910   2.660   5.370   6.947
 3671SOL     OW11911   0.080   1.990   3.974
 3671SOL    HW111912   0.012   2.063   3.973
 3671SOL    HW211913   0.095   1.957   3.880
 3672SOL     OW11914   4.598   2.090   2.791
 3672SOL    HW111915   4.586   2.064   2.887
 3672SOL    HW211916   4.560   2.019   2.732
 3673SOL     OW11917   3.709   5.872   0.123
 3673SOL    HW111918   3.719   5.846   0.220
 3673SOL    HW211919   3.681   5.792   0.070
 3674SOL     OW11920   1.759   6.082   5.826
 3674SOL    HW111921   1.805   6.162   5.786
 3674SOL    HW211922   1.816   6.001   5.814
 3675SOL     OW11923   1.507   2.582   3.947
 3675SOL    HW111924   1.549   2.566   4.037
 3675SOL    HW211925   1.536   2.670   3.911
 3676SOL     OW11926   5.979   3.925   2.365
 3676SOL    HW111927   6.071   3.947   2.332
 3676SOL    HW211928   5.980   3.836   2.410
 3677SOL     OW11929   3.160   0.169   4.257
 3677SOL    HW111930   3.149   0.085   4.310
 3677SOL    HW211931   3.071   0.198   4.223
 3678SOL     OW11932   1.516   1.068   4.456
 3678SOL    HW111933   1.505   1.101   4.362
 3678SOL    HW211934   1.446   1.109   4.514
 3679SOL     OW11935   0.025   0.388   3.462
 3679SOL    HW111936   6.961   0.397   3.505
 3679SOL    HW211937   0.051   0.476   3.421
 3680SOL     OW11938   4.827   2.635   4.476
 3680SOL    HW111939   4.765   2.636   4.555
 3680SOL    HW211940   4.807   2.712   4.416
 3681SOL     OW11941   0.834   1.168   6.563
 3681SOL    HW111942   0.870   1.172   6.470
 3681SOL    HW211943   0.874   1.243   6.617
 3682SOL     OW11944   5.469   2.216   6.942
 3682SOL    HW111945   5.500   2.123   6.960
 3682SOL    HW211946   5.388   2.214   6.884
 3683SOL     OW11947   0.018   0.971   3.959
 3683SOL    HW111948   6.971   0.993   3.894
 3683SOL    HW211949   7.015   0.998   4.051
 3684SOL     OW11950   1.130   5.524   0.437
 3684SOL    HW111951   1.141   5.456   0.510
 3684SOL    HW211952   1.075   5.485   0.363
 3685SOL     OW11953   1.909   5.837   5.751
 3685SOL    HW111954   2.003   5.848   5.718
 3685SOL    HW211955   1.846   5.839   5.674
 3686SOL     OW11956   5.953   5.509   4.375
 3686SOL    HW111957   5.986   5.602   4.359
 3686SOL    HW211958   5.983   5.450   4.300
 3687SOL     OW11959   4.504   6.470   4.177
 3687SOL    HW111960   4.558   6.432   4.102
 3687SOL    HW211961   4.519   6.417   4.260
 3688SOL     OW11962   6.716   3.277   0.369
 3688SOL    HW111963   6.652   3.244   0.439
 3688SOL    HW211964   6.673   3.272   0.279
 3689SOL     OW11965   2.294   0.745   5.691
 3689SOL    HW111966   2.255   0.803   5.620
 3689SOL    HW211967   2.344   0.802   5.757
 3690SOL     OW11968   3.914   5.536   0.589
 3690SOL    HW111969   3.842   5.473   0.561
 3690SOL    HW211970   3.877   5.601   0.657
 3691SOL     OW11971   2.809   1.766   0.197
 3691SOL    HW111972   2.719   1.740   0.234
 3691SOL    HW211973   2.880   1.746   0.264
 3692SOL     OW11974   6.763   5.131   5.648
 3692SOL    HW111975   6.731   5.220   5.680
 3692SOL    HW211976   6.850   5.109   5.693
 3693SOL     OW11977   2.018   2.226   3.153
 3693SOL    HW111978   1.972   2.239   3.241
 3693SOL    HW211979   2.073   2.142   3.156
 3694SOL     OW11980   1.754   6.782   2.488
 3694SOL    HW111981   1.762   6.734   2.400
 3694SOL    HW211982   1.720   6.718   2.557
 3695SOL     OW11983   5.421   2.302   1.344
 3695SOL    HW111984   5.350   2.329   1.409
 3695SOL    HW211985   5.504   2.277   1.395
 3696SOL     OW11986   4.530   0.252   4.395
 3696SOL    HW111987   4.614   0.197   4.401
 3696SOL    HW211988   4.455   0.193   4.365
 3697SOL     OW11989   0.052   6.002   2.952
 3697SOL    HW111990   0.020   6.096   2.948
 3697SOL    HW211991   7.011   5.942   2.907
 3698SOL     OW11992   2.091   0.645   3.720
 3698SOL    HW111993   2.053   0.677   3.633
 3698SOL    HW211994   2.165   0.706   3.749
 3699SOL     OW11995   2.016   1.130   3.678
 3699SOL    HW111996   1.945   1.121   3.608
 3699SOL    HW211997   2.002   1.061   3.748
 3700SOL     OW11998   1.607   4.609   4.779
 3700SOL    HW111999   1.598   4.647   4.686
 3700SOL    HW212000   1.663   4.670   4.834
 3701SOL     OW12001   1.389   0.033   3.503
 3701SOL    HW112002   1.420   0.084   3.423
 3701SOL    HW212003   1.427   6.966   3.500
 3702SOL     OW12004   5.333   6.563   3.162
 3702SOL    HW112005   5.420   6.558   3.212
 3702SOL    HW212006   5.259   6.585   3.225
 3703SOL     OW12007   0.274   0.723   6.605
 3703SOL    HW112008   0.350   0.690   6.661
 3703SOL    HW212009   0.190   0.723   6.660
 3704SOL     OW12010   4.267   2.183   1.606
 3704SOL    HW112011   4.188   2.122   1.620
 3704SOL    HW212012   4.256   2.264   1.663
 3705SOL     OW12013   5.803   4.287   4.450
 3705SOL    HW112014   5.749   4.214   4.408
 3705SOL    HW212015   5.895   4.288   4.410
 3706SOL     OW12016   0.255   3.893   6.589
 3706SOL    HW112017   0.269   3.959   6.514
 3706SOL    HW212018   0.163   3.904   6.626
 3707SOL     OW12019   4.451   5.459   4.453
 3707SOL    HW112020   4.475   5.551   4.485
 3707SOL    HW212021   4.442   5.398   4.531
 3708SOL     OW12022   4.558   6.739   1.235
 3708SOL    HW112023   4.505   6.747   1.151
 3708SOL    HW212024   4.527   6.808   1.301
 3709SOL     OW12025   2.900   0.354   1.433
 3709SOL    HW112026   2.832   0.364   1.505
 3709SOL    HW212027   2.986   0.322   1.473
 3710SOL     OW12028   0.055   5.310   4.899
 3710SOL    HW112029   0.144   5.266   4.883
 3710SOL    HW212030   7.023   5.296   4.819
 3711SOL     OW12031   1.587   5.753   5.227
 3711SOL    HW112032   1.521   5.807   5.175
 3711SOL    HW212033   1.539   5.697   5.294
 3712SOL     OW12034   1.258   5.785   0.042
 3712SOL    HW112035   1.267   5.726   0.122
 3712SOL    HW212036   1.162   5.787   0.014
 3713SOL     OW12037   0.539   6.982   5.356
 3713SOL    HW112038   0.482   7.001   5.276
 3713SOL    HW212039   0.542   0.037   5.415
 3714SOL     OW12040   5.716   5.390   6.916
 3714SOL    HW112041   5.678   5.302   6.947
 3714SOL    HW212042   5.649   5.436   6.858
 3715SOL     OW12043   1.284   4.386   2.363
 3715SOL    HW112044   1.356   4.324   2.333
 3715SOL    HW212045   1.271   4.377   2.462
 3716SOL     OW12046   5.991   6.372   4.996
 3716SOL    HW112047   6.082   6.333   5.008
 3716SOL    HW212048   5.923   6.300   5.000
 3717SOL     OW12049   5.224   0.540   0.042
 3717SOL    HW112050   5.230   0.482   0.123
 3717SOL    HW212051   5.270   0.494   6.991
 3718SOL     OW12052   6.937   0.281   6.835
 3718SOL    HW112053   6.860   0.219   6.825
 3718SOL    HW212054   6.962   0.288   6.932
 3719SOL     OW12055   4.243   2.582   0.218
 3719SOL    HW112056   4.311   2.542   0.278
 3719SOL    HW212057   4.287   2.611   0.133
 3720SOL     OW12058   5.451   3.319   0.894
 3720SOL    HW112059   5.494   3.380   0.828
 3720SOL    HW212060   5.434   3.230   0.852
 3721SOL     OW12061   0.146   4.641   0.731
 3721SOL    HW112062   0.244   4.622   0.726
 3721SOL    HW212063   0.125   4.682   0.820
 3722SOL     OW12064   5.595   6.444   1.390
 3722SOL    HW112065   5.612   6.533   1.347
 3722SOL    HW212066   5.571   6.377   1.320
 3723SOL     OW12067   4.470   4.958   0.456
 3723SOL    HW112068   4.541   4.968   0.387
 3723SOL    HW212069   4.462   5.043   0.508
 3724SOL     OW12070   1.566   4.062   5.699
 3724SOL    HW112071   1.642   3.998   5.686
 3724SOL    HW212072   1.509   4.031   5.775
 3725SOL     OW12073   0.540   5.963   6.758
 3725SOL    HW112074   0.486   5.941   6.677
 3725SOL    HW212075   0.619   6.019   6.731
 3726SOL     OW12076   5.785   3.502   5.745
 3726SOL    HW112077   5.850   3.435   5.780
 3726SOL    HW212078   5.799   3.590   5.792
 3727SOL     OW12079   6.801   2.927   5.312
 3727SOL    HW112080   6.789   2.940   5.213
 3727SOL    HW212081   6.732   2.863   5.345
 3728SOL     OW12082   1.652   3.470   6.586
 3728SOL    HW112083   1.567   3.493   6.540
 3728SOL    HW212084   1.712   3.422   6.522
 3729SOL     OW12085   1.479   1.845   4.164
 3729SOL    HW112086   1.567   1.859   4.118
 3729SOL    HW212087   1.404   1.873   4.104
 3730SOL     OW12088   3.881   6.051   5.641
 3730SOL    HW112089   3.835   6.032   5.554
 3730SOL    HW212090   3.873   5.971   5.700
 3731SOL     OW12091   0.362   1.337   0.502
 3731SOL    HW112092   0.429   1.356   0.430
 3731SOL    HW212093   0.346   1.239   0.507
 3732SOL     OW12094   2.557   1.751   0.342
 3732SOL    HW112095   2.517   1.812   0.273
 3732SOL    HW212096   2.512   1.767   0.430
 3733SOL     OW12097   2.245   2.147   3.421
 3733SOL    HW112098   2.185   2.068   3.420
 3733SOL    HW212099   2.190   2.231   3.418
 3734SOL     OW12100   4.382   0.266   1.177
 3734SOL    HW112101   4.323   0.311   1.111
 3734SOL    HW212102   4.475   0.304   1.171
 3735SOL     OW12103   3.059   0.715   2.680
 3735SOL    HW112104   3.053   0.736   2.582
 3735SOL    HW212105   3.021   0.791   2.733
 3736SOL     OW12106   0.052   1.581   0.995
 3736SOL    HW112107   0.038   1.501   0.937
 3736SOL    HW212108   0.017   1.662   0.948
 3737SOL     OW12109   6.066   1.250   3.812
 3737SOL    HW112110   5.983   1.281   3.859
 3737SOL    HW212111   6.077   1.152   3.824
 3738SOL     OW12112   6.025   0.321   1.516
 3738SOL    HW112113   5.994   0.416   1.513
 3738SOL    HW212114   6.119   0.316   1.482
 3739SOL     OW12115   2.296   4.555   1.425
 3739SOL    HW112116   2.356   4.484   1.462
 3739SOL    HW212117   2.310   4.563   1.326
 3740SOL     OW12118   6.292   5.975   0.530
 3740SOL    HW112119   6.322   6.069   0.518
 3740SOL    HW212120   6.329   5.938   0.615
 3741SOL     OW12121   5.040   2.747   6.537
 3741SOL    HW112122   4.944   2.773   6.532
 3741SOL    HW212123   5.096   2.817   6.493
 3742SOL     OW12124   3.985   0.336   0.660
 3742SOL    HW112125   3.885   0.330   0.667
 3742SOL    HW212126   4.024   0.243   0.664
 3743SOL     OW12127   5.432   3.151   1.307
 3743SOL    HW112128   5.440   3.228   1.243
 3743SOL    HW212129   5.340   3.112   1.300
 3744SOL     OW12130   1.082   6.033   1.659
 3744SOL    HW112131   1.161   5.971   1.665
 3744SOL    HW212132   1.112   6.120   1.619
 3745SOL     OW12133   5.372   4.191   3.188
 3745SOL    HW112134   5.278   4.199   3.154
 3745SOL    HW212135   5.372   4.141   3.275
 3746SOL     OW12136   6.542   0.440   3.901
 3746SOL    HW112137   6.522   0.351   3.859
 3746SOL    HW212138   6.491   0.448   3.986
 3747SOL     OW12139   4.286   5.873   5.399
 3747SOL    HW112140   4.217   5.945   5.402
 3747SOL    HW212141   4.291   5.835   5.307
 3748SOL     OW12142   5.072   1.255   1.710
 3748SOL    HW112143   5.123   1.341   1.718
 3748SOL    HW212144   5.041   1.244   1.615
 3749SOL     OW12145   2.637   4.918   2.978
 3749SOL    HW112146   2.703   4.990   2.998
 3749SOL    HW212147   2.548   4.959   2.960
 3750SOL     OW12148   6.229   4.592   0.684
 3750SOL    HW112149   6.324   4.591   0.652
 3750SOL    HW212150   6.200   4.498   0.702
 3751SOL     OW12151   6.505   3.369   0.715
 3751SOL    HW112152   6.555   3.450   0.744
 3751SOL    HW212153   6.568   3.293   0.701
 3752SOL     OW12154   0.441   6.854   0.246
 3752SOL    HW112155   0.459   6.927   0.313
 3752SOL    HW212156   0.359   6.803   0.274
 3753SOL     OW12157   6.890   1.156   4.184
 3753SOL    HW112158   6.844   1.104   4.256
 3753SOL    HW212159   6.928   1.241   4.222
 3754SOL     OW12160   4.069   6.330   1.306
 3754SOL    HW112161   3.978   6.306   1.337
 3754SOL    HW212162   4.122   6.365   1.383
 3755SOL     OW12163   5.954   5.810   4.411
 3755SOL    HW112164   5.999   5.827   4.499
 3755SOL    HW212165   5.943   5.896   4.362
 3756SOL     OW12166   2.193   6.411   5.661
 3756SOL    HW112167   2.196   6.315   5.692
 3756SOL    HW212168   2.113   6.456   5.701
 3757SOL     OW12169   3.607   6.589   6.525
 3757SOL    HW112170   3.641   6.587   6.619
 3757SOL    HW212171   3.555   6.506   6.506
 3758SOL     OW12172   2.036   1.382   4.598
 3758SOL    HW112173   1.983   1.416   4.520
 3758SOL    HW212174   2.111   1.324   4.565
 3759SOL     OW12175   4.808   5.617   6.438
 3759SOL    HW112176   4.799   5.524   6.403
 3759SOL    HW212177   4.786   5.683   6.366
 3760SOL     OW12178   1.808   2.759   4.230
 3760SOL    HW112179   1.765   2.672   4.207
 3760SOL    HW212180   1.838   2.758   4.325
 3761SOL     OW12181   0.719   0.363   5.367
 3761SOL    HW112182   0.746   0.278   5.324
 3761SOL    HW212183   0.741   0.360   5.465
 3762SOL     OW12184   0.502   5.294   0.026
 3762SOL    HW112185   0.450   5.380   0.027
 3762SOL    HW212186   0.448   5.221   0.067
 3763SOL     OW12187   6.674   4.738   6.713
 3763SOL    HW112188   6.672   4.661   6.777
 3763SOL    HW212189   6.610   4.809   6.744
 3764SOL     OW12190   1.669   0.152   3.434
 3764SOL    HW112191   1.590   0.209   3.412
 3764SOL    HW212192   1.652   0.101   3.518
 3765SOL     OW12193   4.981   1.554   1.078
 3765SOL    HW112194   5.031   1.582   0.996
 3765SOL    HW212195   5.026   1.592   1.159
 3766SOL     OW12196   0.873   1.223   3.646
 3766SOL    HW112197   0.877   1.217   3.745
 3766SOL    HW212198   0.939   1.290   3.613
 3767SOL     OW12199   2.374   5.221   6.885
 3767SOL    HW112200   2.333   5.288   6.947
 3767SOL    HW212201   2.474   5.224   6.895
 3768SOL     OW12202   2.147   6.025   5.131
 3768SOL    HW112203   2.122   6.103   5.188
 3768SOL    HW212204   2.100   6.030   5.043
 3769SOL     OW12205   5.568   5.678   5.491
 3769SOL    HW112206   5.594   5.615   5.564
 3769SOL    HW212207   5.577   5.772   5.523
 3770SOL     OW12208   1.800   6.678   6.829
 3770SOL    HW112209   1.777   6.652   6.923
 3770SOL    HW212210   1.880   6.738   6.829
 3771SOL     OW12211   6.527   3.108   6.760
 3771SOL    HW112212   6.535   3.009   6.766
 3771SOL    HW212213   6.456   3.140   6.823
 3772SOL     OW12214   0.058   0.841   0.243
 3772SOL    HW112215   0.105   0.753   0.242
 3772SOL    HW212216   6.986   0.826   0.226
 3773SOL     OW12217   6.583   2.814   6.486
 3773SOL    HW112218   6.606   2.738   6.546
 3773SOL    HW212219   6.641   2.893   6.508
 3774SOL     OW12220   0.556   5.932   0.542
 3774SOL    HW112221   0.542   5.864   0.470
 3774SOL    HW212222   0.538   6.023   0.506
 3775SOL     OW12223   5.088   4.966   2.267
 3775SOL    HW112224   5.042   5.010   2.344
 3775SOL    HW212225   5.163   5.024   2.235
 3776SOL     OW12226   4.295   1.188   0.935
 3776SOL    HW112227   4.344   1.272   0.957
 3776SOL    HW212228   4.225   1.170   1.004
 3777SOL     OW12229   3.416   5.028   4.903
 3777SOL    HW112230   3.363   5.110   4.881
 3777SOL    HW212231   3.401   5.004   4.999
 3778SOL     OW12232   3.160   4.906   2.918
 3778SOL    HW112233   3.205   4.884   2.831
 3778SOL    HW212234   3.127   5.000   2.916
 3779SOL     OW12235   2.314   4.987   0.978
 3779SOL    HW112236   2.393   5.048   0.983
 3779SOL    HW212237   2.277   4.972   1.069
 3780SOL     OW12238   4.720   5.723   6.193
 3780SOL    HW112239   4.703   5.807   6.140
 3780SOL    HW212240   4.816   5.699   6.187
 3781SOL     OW12241   1.651   0.099   4.260
 3781SOL    HW112242   1.708   0.142   4.330
 3781SOL    HW212243   1.590   0.032   4.303
 3782SOL     OW12244   2.739   1.028   4.730
 3782SOL    HW112245   2.674   1.078   4.672
 3782SOL    HW212246   2.806   0.981   4.672
 3783SOL     OW12247   5.491   6.104   4.274
 3783SOL    HW112248   5.523   6.035   4.340
 3783SOL    HW212249   5.564   6.170   4.257
 3784SOL     OW12250   5.191   2.703   2.959
 3784SOL    HW112251   5.291   2.704   2.948
 3784SOL    HW212252   5.161   2.788   3.000
 3785SOL     OW12253   1.360   1.460   6.932
 3785SOL    HW112254   1.329   1.531   6.995
 3785SOL    HW212255   1.349   1.370   6.974
 3786SOL     OW12256   2.416   6.636   2.651
 3786SOL    HW112257   2.495   6.687   2.619
 3786SOL    HW212258   2.340   6.649   2.588
 3787SOL     OW12259   5.940   0.081   2.882
 3787SOL    HW112260   5.852   0.100   2.839
 3787SOL    HW212261   5.981   0.001   2.840
 3788SOL     OW12262   0.945   3.916   4.253
 3788SOL    HW112263   1.033   3.950   4.286
 3788SOL    HW212264   0.932   3.821   4.281
 3789SOL     OW12265   0.277   3.416   4.809
 3789SOL    HW112266   0.231   3.361   4.739
 3789SOL    HW212267   0.297   3.506   4.772
 3790SOL     OW12268   1.918   4.286   5.498
 3790SOL    HW112269   1.830   4.305   5.542
 3790SOL    HW212270   1.958   4.372   5.465
 3791SOL     OW12271   6.287   6.884   0.218
 3791SOL    HW112272   6.353   6.920   0.153
 3791SOL    HW212273   6.326   6.888   0.310
 3792SOL     OW12274   0.456   0.963   4.415
 3792SOL    HW112275   0.489   1.033   4.479
 3792SOL    HW212276   0.528   0.895   4.400
 3793SOL     OW12277   4.266   0.370   2.551
 3793SOL    HW112278   4.268   0.279   2.509
 3793SOL    HW212279   4.293   0.364   2.647
 3794SOL     OW12280   2.117   4.291   1.113
 3794SOL    HW112281   2.103   4.199   1.148
 3794SOL    HW212282   2.051   4.310   1.040
 3795SOL     OW12283   3.439   6.260   6.077
 3795SOL    HW112284   3.368   6.257   6.006
 3795SOL    HW212285   3.451   6.169   6.116
 3796SOL     OW12286   3.190   1.979   1.018
 3796SOL    HW112287   3.112   1.962   0.958
 3796SOL    HW212288   3.272   1.994   0.962
 3797SOL     OW12289   6.232   4.260   3.002
 3797SOL    HW112290   6.182   4.204   2.935
 3797SOL    HW212291   6.207   4.356   2.991
 3798SOL     OW12292   3.893   6.066   2.787
 3798SOL    HW112293   3.892   6.076   2.687
 3798SOL    HW212294   3.803   6.091   2.824
 3799SOL     OW12295   0.406   2.451   3.990
 3799SOL    HW112296   0.463   2.494   3.920
 3799SOL    HW212297   0.347   2.383   3.947
 3800SOL     OW12298   5.832   3.222   4.365
 3800SOL    HW112299   5.832   3.251   4.461
 3800SOL    HW212300   5.833   3.302   4.306
 3801SOL     OW12301   6.178   6.163   3.095
 3801SOL    HW112302   6.235   6.129   3.020
 3801SOL    HW212303   6.236   6.188   3.173
 3802SOL     OW12304   1.075   2.627   3.229
 3802SOL    HW112305   1.093   2.716   3.272
 3802SOL    HW212306   1.160   2.575   3.225
 3803SOL     OW12307   3.932   2.032   1.200
 3803SOL    HW112308   3.882   1.966   1.145
 3803SOL    HW212309   3.973   1.987   1.279
 3804SOL     OW12310   5.283   2.180   3.640
 3804SOL    HW112311   5.243   2.106   3.693
 3804SOL    HW212312   5.217   2.212   3.572
 3805SOL     OW12313   2.934   3.623   1.799
 3805SOL    HW112314   2.876   3.653   1.723
 3805SOL    HW212315   2.886   3.553   1.852
 3806SOL     OW12316   3.378   3.857   0.164
 3806SOL    HW112317   3.295   3.885   0.115
 3806SOL    HW212318   3.454   3.916   0.135
 3807SOL     OW12319   2.548   6.556   3.567
 3807SOL    HW112320   2.465   6.550   3.623
 3807SOL    HW212321   2.561   6.650   3.537
 3808SOL     OW12322   4.228   0.418   1.020
 3808SOL    HW112323   4.148   0.404   0.961
 3808SOL    HW212324   4.205   0.482   1.093
 3809SOL     OW12325   5.991   2.747   0.752
 3809SOL    HW112326   6.062   2.788   0.695
 3809SOL    HW212327   5.917   2.712   0.693
 3810SOL     OW12328   4.603   2.328   5.261
 3810SOL    HW112329   4.692   2.352   5.297
 3810SOL    HW212330   4.607   2.237   5.219
 3811SOL     OW12331   1.188   4.103   3.958
 3811SOL    HW112332   1.263   4.117   3.894
 3811SOL    HW212333   1.125   4.181   3.952
 3812SOL     OW12334   5.130   0.402   5.105
 3812SOL    HW112335   5.093   0.315   5.138
 3812SOL    HW212336   5.060   0.449   5.052
 3813SOL     OW12337   4.626   3.941   0.140
 3813SOL    HW112338   4.716   3.919   0.101
 3813SOL    HW212339   4.635   3.951   0.240
 3814SOL     OW12340   0.385   7.007   1.092
 3814SOL    HW112341   0.446   0.050   1.130
 3814SOL    HW212342   0.420   6.916   1.114
 3815SOL     OW12343   4.490   2.797   0.414
 3815SOL    HW112344   4.535   2.821   0.500
 3815SOL    HW212345   4.479   2.698   0.409
 3816SOL     OW12346   0.559   6.186   0.462
 3816SOL    HW112347   0.526   6.264   0.515
 3816SOL    HW212348   0.620   6.219   0.390
 3817SOL     OW12349   5.199   3.587   3.566
 3817SOL    HW112350   5.157   3.507   3.609
 3817SOL    HW212351   5.285   3.560   3.521
 3818SOL     OW12352   5.042   0.110   0.204
 3818SOL    HW112353   5.017   0.014   0.212
 3818SOL    HW212354   5.102   0.135   0.280
 3819SOL     OW12355   5.215   5.332   1.236
 3819SOL    HW112356   5.126   5.314   1.279
 3819SOL    HW212357   5.223   5.278   1.152
 3820SOL     OW12358   6.780   6.803   3.284
 3820SOL    HW112359   6.852   6.857   3.328
 3820SOL    HW212360   6.787   6.813   3.185
 3821SOL     OW12361   2.490   2.522   0.480
 3821SOL    HW112362   2.516   2.617   0.463
 3821SOL    HW212363   2.571   2.469   0.504
 3822SOL     OW12364   1.555   6.130   3.095
 3822SOL    HW112365   1.627   6.144   3.163
 3822SOL    HW212366   1.594   6.130   3.004
 3823SOL     OW12367   3.764   2.566   5.928
 3823SOL    HW112368   3.702   2.488   5.934
 3823SOL    HW212369   3.791   2.580   5.833
 3824SOL     OW12370   5.865   1.750   0.062
 3824SOL    HW112371   5.851   1.791   6.998
 3824SOL    HW212372   5.919   1.667   0.052
 3825SOL     OW12373   0.361   6.796   0.703
 3825SOL    HW112374   0.334   6.705   0.733
 3825SOL    HW212375   0.446   6.822   0.748
 3826SOL     OW12376   0.206   3.500   0.200
 3826SOL    HW112377   0.305   3.508   0.188
 3826SOL    HW212378   0.185   3.474   0.294
 3827SOL     OW12379   3.209   2.675   1.084
 3827SOL    HW112380   3.133   2.636   1.135
 3827SOL    HW212381   3.294   2.628   1.110
 3828SOL     OW12382   4.062   2.548   1.697
 3828SOL    HW112383   4.078   2.454   1.729
 3828SOL    HW212384   3.968   2.575   1.718
 3829SOL     OW12385   2.068   4.193   4.319
 3829SOL    HW112386   2.104   4.126   4.384
 3829SOL    HW212387   1.989   4.155   4.271
 3830SOL     OW12388   0.659   6.994   4.856
 3830SOL    HW112389   0.745   6.994   4.805
 3830SOL    HW212390   0.669   6.939   4.939
 3831SOL     OW12391   4.703   1.820   2.485
 3831SOL    HW112392   4.643   1.791   2.560
 3831SOL    HW212393   4.781   1.870   2.522
 3832SOL     OW12394   5.685   0.506   2.349
 3832SOL    HW112395   5.604   0.511   2.408
 3832SOL    HW212396   5.738   0.590   2.357
 3833SOL     OW12397   0.897   5.717   6.006
 3833SOL    HW112398   0.901   5.785   6.080
 3833SOL    HW212399   0.970   5.650   6.019
 3834SOL     OW12400   3.649   2.754   1.172
 3834SOL    HW112401   3.585   2.685   1.137
 3834SOL    HW212402   3.617   2.786   1.262
 3835SOL     OW12403   3.005   5.090   5.154
 3835SOL    HW112404   2.921   5.063   5.201
 3835SOL    HW212405   3.032   5.181   5.183
 3836SOL     OW12406   1.788   3.917   5.638
 3836SOL    HW112407   1.749   3.825   5.631
 3836SOL    HW212408   1.866   3.916   5.700
 3837SOL     OW12409   4.892   3.562   6.826
 3837SOL    HW112410   4.839   3.613   6.893
 3837SOL    HW212411   4.839   3.484   6.793
 3838SOL     OW12412   6.797   4.094   4.204
 3838SOL    HW112413   6.840   4.176   4.166
 3838SOL    HW212414   6.700   4.094   4.182
 3839SOL     OW12415   4.224   0.789   4.415
 3839SOL    HW112416   4.301   0.778   4.478
 3839SOL    HW212417   4.140   0.806   4.468
 3840SOL     OW12418   1.642   0.829   5.177
 3840SOL    HW112419   1.660   0.852   5.081
 3840SOL    HW212420   1.646   0.911   5.233
 3841SOL     OW12421   0.293   3.367   5.073
 3841SOL    HW112422   0.375   3.409   5.111
 3841SOL    HW212423   0.291   3.383   4.974
 3842SOL     OW12424   0.680   4.515   6.611
 3842SOL    HW112425   0.740   4.456   6.557
 3842SOL    HW212426   0.595   4.467   6.632
 3843SOL     OW12427   0.223   5.034   1.820
 3843SOL    HW112428   0.263   5.021   1.729
 3843SOL    HW212429   0.155   5.106   1.817
 3844SOL     OW12430   0.080   3.770   6.180
 3844SOL    HW112431   0.169   3.729   6.200
 3844SOL    HW212432   0.081   3.867   6.207
 3845SOL     OW12433   3.837   2.948   3.066
 3845SOL    HW112434   3.831   2.957   3.166
 3845SOL    HW212435   3.912   3.006   3.032
 3846SOL     OW12436   0.674   4.633   4.178
 3846SOL    HW112437   0.630   4.575   4.246
 3846SOL    HW212438   0.635   4.615   4.088
 3847SOL     OW12439   6.005   1.210   5.192
 3847SOL    HW112440   6.052   1.130   5.154
 3847SOL    HW212441   5.934   1.240   5.129
 3848SOL     OW12442   3.104   5.591   2.817
 3848SOL    HW112443   3.033   5.660   2.812
 3848SOL    HW212444   3.091   5.535   2.899
 3849SOL     OW12445   0.784   1.425   5.175
 3849SOL    HW112446   0.759   1.518   5.150
 3849SOL    HW212447   0.743   1.361   5.110
 3850SOL     OW12448   2.539   3.458   1.426
 3850SOL    HW112449   2.556   3.445   1.523
 3850SOL    HW212450   2.625   3.485   1.381
 3851SOL     OW12451   0.980   4.202   3.223
 3851SOL    HW112452   1.043   4.146   3.171
 3851SOL    HW212453   0.984   4.177   3.320
 3852SOL     OW12454   4.618   6.682   4.335
 3852SOL    HW112455   4.647   6.647   4.424
 3852SOL    HW212456   4.581   6.607   4.280
 3853SOL     OW12457   1.584   3.360   2.629
 3853SOL    HW112458   1.518   3.285   2.637
 3853SOL    HW212459   1.642   3.346   2.549
 3854SOL     OW12460   1.233   3.622   2.665
 3854SOL    HW112461   1.189   3.682   2.598
 3854SOL    HW212462   1.184   3.535   2.668
 3855SOL     OW12463   4.854   6.062   6.859
 3855SOL    HW112464   4.805   6.148   6.852
 3855SOL    HW212465   4.789   5.987   6.873
 3856SOL     OW12466   6.848   6.400   5.377
 3856SOL    HW112467   6.807   6.411   5.467
 3856SOL    HW212468   6.779   6.418   5.307
 3857SOL     OW12469   0.895   6.291   5.895
 3857SOL    HW112470   0.940   6.264   5.980
 3857SOL    HW212471   0.806   6.332   5.916
 3858SOL     OW12472   1.597   6.539   5.639
 3858SOL    HW112473   1.531   6.609   5.665
 3858SOL    HW212474   1.663   6.578   5.573
 3859SOL     OW12475   6.731   2.464   2.527
 3859SOL    HW112476   6.678   2.519   2.591
 3859SOL    HW212477   6.828   2.481   2.541
 3860SOL     OW12478   1.161   6.922   5.343
 3860SOL    HW112479   1.174   6.979   5.262
 3860SOL    HW212480   1.251   6.893   5.378
 3861SOL     OW12481   4.963   4.355   1.935
 3861SOL    HW112482   4.996   4.435   1.985
 3861SOL    HW212483   4.936   4.284   2.000
 3862SOL     OW12484   0.113   6.578   5.333
 3862SOL    HW112485   0.135   6.482   5.316
 3862SOL    HW212486   0.181   6.636   5.289
 3863SOL     OW12487   3.614   4.281   6.475
 3863SOL    HW112488   3.580   4.350   6.412
 3863SOL    HW212489   3.621   4.319   6.567
 3864SOL     OW12490   4.211   2.036   5.794
 3864SOL    HW112491   4.118   2.011   5.821
 3864SOL    HW212492   4.208   2.085   5.707
 3865SOL     OW12493   3.778   0.509   1.630
 3865SOL    HW112494   3.862   0.517   1.575
 3865SOL    HW212495   3.787   0.431   1.692
 3866SOL     OW12496   4.067   0.825   0.836
 3866SOL    HW112497   4.019   0.772   0.766
 3866SOL    HW212498   4.133   0.886   0.792
 3867SOL     OW12499   1.457   3.339   4.368
 3867SOL    HW112500   1.363   3.372   4.375
 3867SOL    HW212501   1.462   3.266   4.300
 3868SOL     OW12502   1.987   6.567   2.076
 3868SOL    HW112503   2.085   6.559   2.093
 3868SOL    HW212504   1.947   6.476   2.065
 3869SOL     OW12505   6.896   3.070   4.420
 3869SOL    HW112506   6.923   2.995   4.360
 3869SOL    HW212507   6.912   3.043   4.516
 3870SOL     OW12508   4.616   4.651   0.615
 3870SOL    HW112509   4.691   4.693   0.564
 3870SOL    HW212510   4.552   4.608   0.552
 3871SOL     OW12511   3.151   0.910   2.482
 3871SOL    HW112512   3.167   0.991   2.538
 3871SOL    HW212513   3.202   0.918   2.397
 3872SOL     OW12514   2.934   3.130   1.982
 3872SOL    HW112515   3.007   3.095   2.040
 3872SOL    HW212516   2.896   3.056   1.927
 3873SOL     OW12517   5.779   5.553   1.238
 3873SOL    HW112518   5.825   5.472   1.276
 3873SOL    HW212519   5.805   5.634   1.290
 3874SOL     OW12520   4.095   6.208   0.198
 3874SOL    HW112521   3.998   6.190   0.218
 3874SOL    HW212522   4.150   6.190   0.280
 3875SOL     OW12523   1.411   2.911   2.425
 3875SOL    HW112524   1.469   2.959   2.492
 3875SOL    HW212525   1.430   2.946   2.334
 3876SOL     OW12526   5.447   5.243   6.281
 3876SOL    HW112527   5.386   5.164   6.284
 3876SOL    HW212528   5.527   5.220   6.225
 3877SOL     OW12529   6.855   1.322   0.542
 3877SOL    HW112530   6.930   1.294   0.482
 3877SOL    HW212531   6.845   1.422   0.538
 3878SOL     OW12532   2.541   6.082   5.838
 3878SOL    HW112533   2.482   6.001   5.838
 3878SOL    HW212534   2.508   6.147   5.906
 3879SOL     OW12535   4.422   6.247   1.304
 3879SOL    HW112536   4.441   6.344   1.286
 3879SOL    HW212537   4.341   6.219   1.254
 3880SOL     OW12538   5.875   3.934   3.054
 3880SOL    HW112539   5.930   3.852   3.037
 3880SOL    HW212540   5.790   3.928   3.001
 3881SOL     OW12541   1.611   5.411   1.016
 3881SOL    HW112542   1.536   5.465   0.978
 3881SOL    HW212543   1.588   5.314   1.010
 3882SOL     OW12544   6.390   1.139   4.954
 3882SOL    HW112545   6.476   1.112   4.998
 3882SOL    HW212546   6.315   1.084   4.989
 3883SOL     OW12547   4.500   1.721   4.040
 3883SOL    HW112548   4.443   1.798   4.067
 3883SOL    HW212549   4.470   1.687   3.951
 3884SOL     OW12550   1.180   6.425   4.861
 3884SOL    HW112551   1.188   6.478   4.777
 3884SOL    HW212552   1.257   6.361   4.867
 3885SOL     OW12553   6.419   1.120   4.645
 3885SOL    HW112554   6.495   1.157   4.592
 3885SOL    HW212555   6.346   1.091   4.583
 3886SOL     OW12556   5.840   0.583   5.589
 3886SOL    HW112557   5.939   0.593   5.585
 3886SOL    HW212558   5.799   0.621   5.506
 3887SOL     OW12559   5.808   2.148   5.291
 3887SOL    HW112560   5.829   2.051   5.273
 3887SOL    HW212561   5.722   2.173   5.247
 3888SOL     OW12562   0.249   0.524   6.425
 3888SOL    HW112563   0.254   0.594   6.496
 3888SOL    HW212564   0.289   0.439   6.459
 3889SOL     OW12565   6.983   4.612   6.276
 3889SOL    HW112566   0.006   4.596   6.362
 3889SOL    HW212567   6.884   4.616   6.295
 3890SOL     OW12568   6.551   6.560   2.871
 3890SOL    HW112569   6.504   6.515   2.948
 3890SOL    HW212570   6.505   6.535   2.785
 3891SOL     OW12571   5.069   4.610   4.933
 3891SOL    HW112572   5.073   4.697   4.885
 3891SOL    HW212573   5.152   4.557   4.914
 3892SOL     OW12574   1.166   0.320   2.237
 3892SOL    HW112575   1.143   0.353   2.329
 3892SOL    HW212576   1.247   0.262   2.242
 3893SOL     OW12577   3.523   5.878   2.800
 3893SOL    HW112578   3.511   5.798   2.859
 3893SOL    HW212579   3.448   5.882   2.734
 3894SOL     OW12580   4.052   2.307   0.596
 3894SOL    HW112581   4.001   2.381   0.639
 3894SOL    HW212582   4.002   2.221   0.606
 3895SOL     OW12583   1.109   0.900   5.513
 3895SOL    HW112584   1.070   0.988   5.482
 3895SOL    HW212585   1.050   0.826   5.483
 3896SOL     OW12586   0.762   2.435   6.287
 3896SOL    HW112587   0.772   2.456   6.190
 3896SOL    HW212588   0.705   2.504   6.331
 3897SOL     OW12589   2.918   6.517   2.470
 3897SOL    HW112590   2.952   6.468   2.390
 3897SOL    HW212591   2.832   6.475   2.500
 3898SOL     OW12592   3.275   2.918   3.403
 3898SOL    HW112593   3.201   2.985   3.407
 3898SOL    HW212594   3.290   2.880   3.494
 3899SOL     OW12595   4.907   1.079   4.850
 3899SOL    HW112596   4.837   1.140   4.814
 3899SOL    HW212597   4.974   1.131   4.902
 3900SOL     OW12598   5.833   2.649   3.210
 3900SOL    HW112599   5.891   2.696   3.276
 3900SOL    HW212600   5.887   2.623   3.130
 3901SOL     OW12601   1.787   6.624   5.471
 3901SOL    HW112602   1.867   6.634   5.412
 3901SOL    HW212603   1.792   6.692   5.544
 3902SOL     OW12604   5.123   4.237   3.105
 3902SOL    HW112605   5.096   4.177   3.030
 3902SOL    HW212606   5.071   4.322   3.100
 3903SOL     OW12607   4.490   3.912   6.880
 3903SOL    HW112608   4.519   3.927   6.975
 3903SOL    HW212609   4.423   3.982   6.855
 3904SOL     OW12610   1.101   6.889   0.262
 3904SOL    HW112611   1.039   6.957   0.301
 3904SOL    HW212612   1.158   6.932   0.191
 3905SOL     OW12613   6.489   6.156   6.548
 3905SOL    HW112614   6.473   6.173   6.450
 3905SOL    HW212615   6.435   6.078   6.577
 3906SOL     OW12616   1.633   4.752   4.210
 3906SOL    HW112617   1.723   4.719   4.239
 3906SOL    HW212618   1.562   4.690   4.245
 3907SOL     OW12619   0.271   1.110   5.024
 3907SOL    HW112620   0.242   1.044   5.093
 3907SOL    HW212621   0.308   1.061   4.945
 3908SOL     OW12622   0.907   0.461   5.783
 3908SOL    HW112623   0.999   0.426   5.802
 3908SOL    HW212624   0.840   0.388   5.801
 3909SOL     OW12625   5.378   3.502   6.120
 3909SOL    HW112626   5.476   3.497   6.102
 3909SOL    HW212627   5.362   3.554   6.204
 3910SOL     OW12628   3.810   3.935   2.147
 3910SOL    HW112629   3.761   3.873   2.208
 3910SOL    HW212630   3.907   3.936   2.171
 3911SOL     OW12631   5.666   0.271   1.132
 3911SOL    HW112632   5.741   0.207   1.151
 3911SOL    HW212633   5.583   0.219   1.112
 3912SOL     OW12634   3.077   1.190   5.709
 3912SOL    HW112635   3.154   1.251   5.692
 3912SOL    HW212636   3.092   1.104   5.661
 3913SOL     OW12637   3.831   6.148   0.215
 3913SOL    HW112638   3.781   6.063   0.196
 3913SOL    HW212639   3.766   6.222   0.229
 3914SOL     OW12640   5.340   1.714   1.684
 3914SOL    HW112641   5.425   1.766   1.681
 3914SOL    HW212642   5.263   1.777   1.686
 3915SOL     OW12643   3.059   6.484   0.530
 3915SOL    HW112644   3.069   6.474   0.431
 3915SOL    HW212645   3.060   6.394   0.573
 3916SOL     OW12646   3.515   0.260   3.084
 3916SOL    HW112647   3.507   0.320   3.164
 3916SOL    HW212648   3.445   0.189   3.089
 3917SOL     OW12649   2.560   5.008   0.614
 3917SOL    HW112650   2.640   5.029   0.671
 3917SOL    HW212651   2.514   5.093   0.589
 3918SOL     OW12652   4.891   1.417   0.617
 3918SOL    HW112653   4.935   1.407   0.528
 3918SOL    HW212654   4.805   1.467   0.607
 3919SOL     OW12655   4.451   0.942   1.033
 3919SOL    HW112656   4.519   1.015   1.031
 3919SOL    HW212657   4.360   0.982   1.040
 3920SOL     OW12658   2.866   1.478   6.891
 3920SOL    HW112659   2.944   1.498   6.951
 3920SOL    HW212660   2.881   1.521   6.802
 3921SOL     OW12661   6.878   3.014   6.851
 3921SOL    HW112662   6.823   3.061   6.781
 3921SOL    HW212663   6.831   3.018   6.939
 3922SOL     OW12664   4.732   4.783   1.966
 3922SOL    HW112665   4.748   4.685   1.957
 3922SOL    HW212666   4.639   4.798   2.000
 3923SOL     OW12667   6.012   0.671   1.664
 3923SOL    HW112668   5.989   0.643   1.571
 3923SOL    HW212669   6.034   0.590   1.719
 3924SOL     OW12670   6.846   4.535   3.603
 3924SOL    HW112671   6.831   4.456   3.544
 3924SOL    HW212672   6.853   4.506   3.698
 3925SOL     OW12673   4.314   4.077   0.618
 3925SOL    HW112674   4.252   4.001   0.635
 3925SOL    HW212675   4.322   4.093   0.520
 3926SOL     OW12676   1.148   0.327   5.808
 3926SOL    HW112677   1.247   0.317   5.813
 3926SOL    HW212678   1.109   0.249   5.757
 3927SOL     OW12679   0.553   3.162   4.383
 3927SOL    HW112680   0.514   3.217   4.456
 3927SOL    HW212681   0.480   3.130   4.322
 3928SOL     OW12682   2.735   6.615   3.113
 3928SOL    HW112683   2.735   6.518   3.136
 3928SOL    HW212684   2.796   6.631   3.035
 3929SOL     OW12685   6.820   1.836   6.621
 3929SOL    HW112686   6.910   1.796   6.607
 3929SOL    HW212687   6.829   1.921   6.673
 3930SOL     OW12688   1.354   2.189   3.647
 3930SOL    HW112689   1.428   2.255   3.656
 3930SOL    HW212690   1.278   2.215   3.708
 3931SOL     OW12691   1.560   1.771   1.911
 3931SOL    HW112692   1.582   1.786   2.008
 3931SOL    HW212693   1.561   1.858   1.862
 3932SOL     OW12694   1.910   5.648   3.485
 3932SOL    HW112695   1.818   5.640   3.524
 3932SOL    HW212696   1.952   5.733   3.516
 3933SOL     OW12697   1.143   5.327   0.641
 3933SOL    HW112698   1.216   5.367   0.696
 3933SOL    HW212699   1.078   5.280   0.701
 3934SOL     OW12700   0.428   1.458   2.795
 3934SOL    HW112701   0.336   1.420   2.797
 3934SOL    HW212702   0.425   1.554   2.822
 3935SOL     OW12703   6.091   3.028   6.405
 3935SOL    HW112704   6.165   2.975   6.447
 3935SOL    HW212705   6.041   2.969   6.341
 3936SOL     OW12706   6.809   5.691   4.829
 3936SOL    HW112707   6.874   5.642   4.887
 3936SOL    HW212708   6.727   5.714   4.882
 3937SOL     OW12709   0.490   5.196   2.691
 3937SOL    HW112710   0.403   5.191   2.739
 3937SOL    HW212711   0.564   5.168   2.752
 3938SOL     OW12712   0.037   3.590   4.685
 3938SOL    HW112713   0.057   3.574   4.781
 3938SOL    HW212714   0.053   3.686   4.663
 3939SOL     OW12715   0.980   1.421   2.358
 3939SOL    HW112716   1.064   1.376   2.388
 3939SOL    HW212717   0.990   1.450   2.263
 3940SOL     OW12718   2.980   4.702   1.695
 3940SOL    HW112719   2.976   4.798   1.721
 3940SOL    HW212720   2.938   4.646   1.767
 3941SOL     OW12721   6.182   7.012   3.893
 3941SOL    HW112722   6.151   6.990   3.801
 3941SOL    HW212723   6.205   6.927   3.942
 3942SOL     OW12724   1.387   6.523   6.072
 3942SOL    HW112725   1.302   6.508   6.123
 3942SOL    HW212726   1.397   6.453   6.002
 3943SOL     OW12727   0.895   4.066   2.090
 3943SOL    HW112728   0.974   4.041   2.146
 3943SOL    HW212729   0.832   4.123   2.143
 3944SOL     OW12730   5.784   2.878   6.869
 3944SOL    HW112731   5.852   2.810   6.897
 3944SOL    HW212732   5.693   2.851   6.903
 3945SOL     OW12733   1.057   2.058   3.143
 3945SOL    HW112734   0.978   2.023   3.194
 3945SOL    HW212735   1.025   2.116   3.068
 3946SOL     OW12736   6.582   3.700   0.522
 3946SOL    HW112737   6.654   3.744   0.470
 3946SOL    HW212738   6.552   3.617   0.474
 3947SOL     OW12739   5.843   5.902   0.496
 3947SOL    HW112740   5.867   5.904   0.399
 3947SOL    HW212741   5.892   5.827   0.541
 3948SOL     OW12742   2.105   2.910   6.620
 3948SOL    HW112743   2.201   2.890   6.640
 3948SOL    HW212744   2.077   2.992   6.670
 3949SOL     OW12745   6.426   6.578   2.621
 3949SOL    HW112746   6.440   6.675   2.603
 3949SOL    HW212747   6.362   6.541   2.553
 3950SOL     OW12748   4.149   4.129   1.738
 3950SOL    HW112749   4.101   4.056   1.787
 3950SOL    HW212750   4.246   4.107   1.731
 3951SOL     OW12751   0.282   2.219   5.758
 3951SOL    HW112752   0.185   2.242   5.766
 3951SOL    HW212753   0.326   2.282   5.694
 3952SOL     OW12754   5.714   2.324   4.797
 3952SOL    HW112755   5.730   2.225   4.797
 3952SOL    HW212756   5.795   2.371   4.831
 3953SOL     OW12757   3.091   3.838   6.196
 3953SOL    HW112758   3.085   3.904   6.121
 3953SOL    HW212759   3.046   3.875   6.277
 3954SOL     OW12760   6.696   4.030   5.424
 3954SOL    HW112761   6.703   3.951   5.364
 3954SOL    HW212762   6.649   4.004   5.508
 3955SOL     OW12763   5.241   6.371   0.429
 3955SOL    HW112764   5.234   6.304   0.503
 3955SOL    HW212765   5.151   6.409   0.409
 3956SOL     OW12766   0.695   2.963   5.820
 3956SOL    HW112767   0.699   3.035   5.890
 3956SOL    HW212768   0.767   2.978   5.753
 3957SOL     OW12769   2.914   0.045   3.722
 3957SOL    HW112770   2.848   6.997   3.733
 3957SOL    HW212771   3.002   0.018   3.762
 3958SOL     OW12772   6.390   6.370   0.065
 3958SOL    HW112773   6.459   6.386   0.136
 3958SOL    HW212774   6.435   6.335   7.008
 3959SOL     OW12775   2.484   5.672   0.967
 3959SOL    HW112776   2.456   5.619   0.887
 3959SOL    HW212777   2.412   5.668   1.036
 3960SOL     OW12778   4.631   2.394   6.954
 3960SOL    HW112779   4.614   2.429   0.020
 3960SOL    HW212780   4.716   2.342   6.953
 3961SOL     OW12781   5.035   2.023   2.062
 3961SOL    HW112782   5.129   2.006   2.032
 3961SOL    HW212783   4.992   2.089   2.000
 3962SOL     OW12784   1.373   6.209   0.320
 3962SOL    HW112785   1.465   6.174   0.306
 3962SOL    HW212786   1.313   6.134   0.347
 3963SOL     OW12787   5.105   5.768   3.354
 3963SOL    HW112788   5.189   5.788   3.406
 3963SOL    HW212789   5.102   5.671   3.331
 3964SOL     OW12790   5.302   6.157   5.486
 3964SOL    HW112791   5.238   6.119   5.552
 3964SOL    HW212792   5.256   6.170   5.398
 3965SOL     OW12793   3.583   4.898   0.272
 3965SOL    HW112794   3.502   4.947   0.240
 3965SOL    HW212795   3.560   4.802   0.288
 3966SOL     OW12796   6.175   4.348   6.163
 3966SOL    HW112797   6.240   4.407   6.210
 3966SOL    HW212798   6.089   4.347   6.212
 3967SOL     OW12799   0.701   5.307   4.338
 3967SOL    HW112800   0.640   5.384   4.321
 3967SOL    HW212801   0.713   5.255   4.254
 3968SOL     OW12802   5.272   0.422   3.055
 3968SOL    HW112803   5.179   0.455   3.069
 3968SOL    HW212804   5.278   0.373   2.968
 3969SOL     OW12805   1.631   5.199   3.001
 3969SOL    HW112806   1.558   5.217   3.067
 3969SOL    HW212807   1.605   5.124   2.941
 3970SOL     OW12808   4.846   4.713   4.248
 3970SOL    HW112809   4.747   4.699   4.241
 3970SOL    HW212810   4.893   4.642   4.195
 3971SOL     OW12811   2.906   5.573   3.229
 3971SOL    HW112812   2.906   5.672   3.222
 3971SOL    HW212813   2.819   5.542   3.267
 3972SOL     OW12814   0.195   6.541   0.529
 3972SOL    HW112815   0.216   6.617   0.467
 3972SOL    HW212816   0.210   6.570   0.623
 3973SOL     OW12817   3.089   3.182   4.994
 3973SOL    HW112818   3.008   3.186   4.937
 3973SOL    HW212819   3.062   3.178   5.090
 3974SOL     OW12820   0.411   1.258   5.919
 3974SOL    HW112821   0.470   1.231   5.995
 3974SOL    HW212822   0.420   1.355   5.901
 3975SOL     OW12823   6.586   0.543   5.857
 3975SOL    HW112824   6.501   0.535   5.805
 3975SOL    HW212825   6.641   0.461   5.844
 3976SOL     OW12826   0.419   4.424   1.108
 3976SOL    HW112827   0.446   4.399   1.201
 3976SOL    HW212828   0.321   4.447   1.107
 3977SOL     OW12829   2.401   5.872   5.892
 3977SOL    HW112830   2.401   5.887   5.991
 3977SOL    HW212831   2.368   5.779   5.872
 3978SOL     OW12832   5.725   1.743   5.816
 3978SOL    HW112833   5.824   1.748   5.804
 3978SOL    HW212834   5.679   1.772   5.733
 3979SOL     OW12835   2.079   0.064   1.584
 3979SOL    HW112836   2.144   0.087   1.656
 3979SOL    HW212837   1.991   0.109   1.602
 3980SOL     OW12838   5.431   3.425   4.590
 3980SOL    HW112839   5.346   3.456   4.633
 3980SOL    HW212840   5.466   3.344   4.638
 3981SOL     OW12841   0.268   2.252   6.485
 3981SOL    HW112842   0.251   2.216   6.393
 3981SOL    HW212843   0.205   2.328   6.503
 3982SOL     OW12844   1.917   1.001   4.759
 3982SOL    HW112845   2.011   1.027   4.735
 3982SOL    HW212846   1.862   0.996   4.676
 3983SOL     OW12847   3.516   0.353   4.651
 3983SOL    HW112848   3.547   0.344   4.746
 3983SOL    HW212849   3.536   0.269   4.601
 3984SOL     OW12850   1.812   6.632   2.266
 3984SOL    HW112851   1.894   6.640   2.209
 3984SOL    HW212852   1.731   6.644   2.209
 3985SOL     OW12853   1.889   4.095   6.727
 3985SOL    HW112854   1.817   4.165   6.722
 3985SOL    HW212855   1.847   4.005   6.720
 3986SOL     OW12856   0.164   2.072   1.692
 3986SOL    HW112857   0.112   1.987   1.686
 3986SOL    HW212858   0.260   2.051   1.711
 3987SOL     OW12859   1.474   5.594   5.437
 3987SOL    HW112860   1.487   5.519   5.502
 3987SOL    HW212861   1.388   5.641   5.457
 3988SOL     OW12862   4.154   1.616   6.266
 3988SOL    HW112863   4.102   1.537   6.297
 3988SOL    HW212864   4.092   1.688   6.236
 3989SOL     OW12865   6.090   6.814   6.364
 3989SOL    HW112866   6.083   6.912   6.379
 3989SOL    HW212867   6.150   6.797   6.285
 3990SOL     OW12868   0.096   2.439   4.981
 3990SOL    HW112869   0.079   2.529   5.021
 3990SOL    HW212870   0.049   2.433   4.892
 3991SOL     OW12871   0.622   2.026   3.617
 3991SOL    HW112872   0.621   2.005   3.715
 3991SOL    HW212873   0.614   2.125   3.604
 3992SOL     OW12874   3.790   3.350   6.906
 3992SOL    HW112875   3.690   3.341   6.907
 3992SOL    HW212876   3.825   3.321   6.816
 3993SOL     OW12877   2.836   2.220   2.569
 3993SOL    HW112878   2.893   2.301   2.557
 3993SOL    HW212879   2.797   2.193   2.481
 3994SOL     OW12880   2.045   2.584   4.904
 3994SOL    HW112881   2.136   2.545   4.914
 3994SOL    HW212882   1.991   2.567   4.986
 3995SOL     OW12883   2.272   4.233   3.421
 3995SOL    HW112884   2.231   4.152   3.381
 3995SOL    HW212885   2.338   4.273   3.357
 3996SOL     OW12886   1.212   1.458   4.219
 3996SOL    HW112887   1.184   1.403   4.141
 3996SOL    HW212888   1.266   1.536   4.187
 3997SOL     OW12889   4.990   3.541   3.089
 3997SOL    HW112890   4.981   3.491   3.175
 3997SOL    HW212891   5.083   3.531   3.054
 3998SOL     OW12892   5.975   1.791   1.909
 3998SOL    HW112893   5.939   1.809   1.817
 3998SOL    HW212894   6.066   1.832   1.917
 3999SOL     OW12895   6.109   3.937   3.781
 3999SOL    HW112896   6.021   3.905   3.745
 3999SOL    HW212897   6.098   4.030   3.816
 4000SOL     OW12898   3.049   6.184   2.788
 4000SOL    HW112899   3.078   6.126   2.712
 4000SOL    HW212900   2.960   6.225   2.767
 4001SOL     OW12901   2.373   4.054   6.051
 4001SOL    HW112902   2.283   4.012   6.050
 4001SOL    HW212903   2.369   4.141   6.100
 4002SOL     OW12904   3.990   3.110   4.506
 4002SOL    HW112905   4.063   3.178   4.504
 4002SOL    HW212906   3.980   3.074   4.599
 4003SOL     OW12907   2.037   1.339   6.438
 4003SOL    HW112908   2.123   1.319   6.485
 4003SOL    HW212909   2.033   1.288   6.353
 4004SOL     OW12910   6.375   3.492   3.756
 4004SOL    HW112911   6.452   3.443   3.798
 4004SOL    HW212912   6.376   3.478   3.657
 4005SOL     OW12913   4.371   4.488   1.243
 4005SOL    HW112914   4.315   4.478   1.160
 4005SOL    HW212915   4.349   4.575   1.287
 4006SOL     OW12916   5.414   4.859   2.067
 4006SOL    HW112917   5.397   4.854   1.968
 4006SOL    HW212918   5.366   4.937   2.105
 4007SOL     OW12919   0.269   1.958   3.314
 4007SOL    HW112920   0.181   2.000   3.335
 4007SOL    HW212921   0.306   1.999   3.231
 4008SOL     OW12922   3.140   0.379   6.593
 4008SOL    HW112923   3.101   0.288   6.578
 4008SOL    HW212924   3.140   0.399   6.691
 4009SOL     OW12925   5.051   1.988   1.337
 4009SOL    HW112926   5.101   2.016   1.255
 4009SOL    HW212927   5.081   1.897   1.365
 4010SOL     OW12928   3.035   3.433   1.559
 4010SOL    HW112929   3.074   3.400   1.645
 4010SOL    HW212930   3.105   3.431   1.488
 4011SOL     OW12931   6.421   5.950   1.852
 4011SOL    HW112932   6.357   5.989   1.918
 4011SOL    HW212933   6.387   5.861   1.821
 4012SOL     OW12934   3.940   6.679   2.620
 4012SOL    HW112935   3.860   6.637   2.662
 4012SOL    HW212936   3.994   6.726   2.690
 4013SOL     OW12937   2.120   0.216   1.229
 4013SOL    HW112938   2.071   0.292   1.273
 4013SOL    HW212939   2.187   0.178   1.293
 4014SOL     OW12940   3.355   6.341   3.894
 4014SOL    HW112941   3.312   6.341   3.985
 4014SOL    HW212942   3.454   6.344   3.904
 4015SOL     OW12943   4.654   4.960   6.181
 4015SOL    HW112944   4.570   4.927   6.224
 4015SOL    HW212945   4.635   4.985   6.086
 4016SOL     OW12946   2.592   5.203   0.283
 4016SOL    HW112947   2.534   5.122   0.294
 4016SOL    HW212948   2.686   5.181   0.310
 4017SOL     OW12949   6.931   4.981   4.844
 4017SOL    HW112950   6.889   4.983   4.934
 4017SOL    HW212951   7.017   4.930   4.847
 4018SOL     OW12952   4.060   0.068   1.521
 4018SOL    HW112953   4.121   0.143   1.496
 4018SOL    HW212954   4.108   7.007   1.513
 4019SOL     OW12955   5.167   3.328   2.341
 4019SOL    HW112956   5.095   3.274   2.386
 4019SOL    HW212957   5.127   3.379   2.265
 4020SOL     OW12958   6.810   2.912   5.655
 4020SOL    HW112959   6.851   2.986   5.601
 4020SOL    HW212960   6.851   2.911   5.746
 4021SOL     OW12961   3.889   4.266   5.536
 4021SOL    HW112962   3.962   4.326   5.569
 4021SOL    HW212963   3.918   4.221   5.452
 4022SOL     OW12964   3.644   6.303   6.899
 4022SOL    HW112965   3.726   6.248   6.885
 4022SOL    HW212966   3.601   6.276   6.985
 4023SOL     OW12967   0.123   1.050   5.957
 4023SOL    HW112968   0.084   1.109   5.885
 4023SOL    HW212969   0.052   1.031   6.025
 4024SOL     OW12970   2.535   4.742   4.234
 4024SOL    HW112971   2.547   4.837   4.261
 4024SOL    HW212972   2.577   4.728   4.144
 4025SOL     OW12973   0.268   6.274   4.294
 4025SOL    HW112974   0.191   6.320   4.338
 4025SOL    HW212975   0.342   6.259   4.360
 4026SOL     OW12976   6.244   6.609   4.292
 4026SOL    HW112977   6.229   6.652   4.381
 4026SOL    HW212978   6.233   6.510   4.301
 4027SOL     OW12979   2.818   2.469   0.140
 4027SOL    HW112980   2.791   2.516   0.224
 4027SOL    HW212981   2.882   2.395   0.162
 4028SOL     OW12982   4.627   1.655   3.755
 4028SOL    HW112983   4.660   1.576   3.702
 4028SOL    HW212984   4.646   1.739   3.704
 4029SOL     OW12985   3.345   4.002   5.936
 4029SOL    HW112986   3.291   4.019   5.853
 4029SOL    HW212987   3.287   4.013   6.016
 4030SOL     OW12988   6.620   0.947   2.216
 4030SOL    HW112989   6.577   0.858   2.224
 4030SOL    HW212990   6.631   0.971   2.120
 4031SOL     OW12991   5.279   6.194   3.264
 4031SOL    HW112992   5.345   6.194   3.339
 4031SOL    HW212993   5.220   6.113   3.272
 4032SOL     OW12994   0.391   6.969   2.356
 4032SOL    HW112995   0.319   6.944   2.292
 4032SOL    HW212996   0.431   0.031   2.329
 4033SOL     OW12997   2.256   2.815   1.660
 4033SOL    HW112998   2.270   2.726   1.618
 4033SOL    HW212999   2.287   2.812   1.755
 4034SOL     OW13000   5.974   2.024   5.061
 4034SOL    HW113001   5.995   1.970   5.143
 4034SOL    HW213002   6.052   2.080   5.037
 4035SOL     OW13003   6.105   1.098   1.008
 4035SOL    HW113004   6.016   1.095   0.963
 4035SOL    HW213005   6.093   1.120   1.105
 4036SOL     OW13006   4.278   4.658   2.126
 4036SOL    HW113007   4.301   4.595   2.052
 4036SOL    HW213008   4.334   4.741   2.117
 4037SOL     OW13009   2.387   1.873   6.669
 4037SOL    HW113010   2.402   1.812   6.747
 4037SOL    HW213011   2.431   1.835   6.588
 4038SOL     OW13012   4.384   2.967   1.114
 4038SOL    HW113013   4.304   2.943   1.059
 4038SOL    HW213014   4.390   2.906   1.193
 4039SOL     OW13015   5.138   5.389   1.667
 4039SOL    HW113016   5.236   5.386   1.649
 4039SOL    HW213017   5.108   5.303   1.707
 4040SOL     OW13018   3.821   6.820   4.832
 4040SOL    HW113019   3.899   6.880   4.813
 4040SOL    HW213020   3.779   6.847   4.919
 4041SOL     OW13021   1.247   4.873   0.808
 4041SOL    HW113022   1.243   4.950   0.744
 4041SOL    HW213023   1.155   4.840   0.827
 4042SOL     OW13024   6.252   6.117   4.383
 4042SOL    HW113025   6.227   6.022   4.367
 4042SOL    HW213026   6.342   6.121   4.427
 4043SOL     OW13027   6.687   2.312   6.339
 4043SOL    HW113028   6.736   2.226   6.322
 4043SOL    HW213029   6.677   2.362   6.254
 4044SOL     OW13030   4.829   6.256   3.723
 4044SOL    HW113031   4.819   6.296   3.631
 4044SOL    HW213032   4.741   6.222   3.754
 4045SOL     OW13033   3.867   5.990   5.998
 4045SOL    HW113034   3.877   5.915   5.932
 4045SOL    HW213035   3.783   5.976   6.052
 4046SOL     OW13036   1.194   1.736   3.495
 4046SOL    HW113037   1.191   1.772   3.402
 4046SOL    HW213038   1.156   1.803   3.559
 4047SOL     OW13039   3.009   1.991   0.021
 4047SOL    HW113040   3.097   1.980   7.002
 4047SOL    HW213041   2.940   2.021   6.981
 4048SOL     OW13042   5.243   1.464   1.778
 4048SOL    HW113043   5.276   1.555   1.751
 4048SOL    HW213044   5.280   1.440   1.867
 4049SOL     OW13045   5.117   4.880   6.447
 4049SOL    HW113046   5.098   4.796   6.498
 4049SOL    HW213047   5.056   4.886   6.368
 4050SOL     OW13048   0.715   6.478   2.212
 4050SOL    HW113049   0.726   6.558   2.152
 4050SOL    HW213050   0.644   6.497   2.280
 4051SOL     OW13051   4.199   1.429   6.623
 4051SOL    HW113052   4.106   1.446   6.655
 4051SOL    HW213053   4.248   1.516   6.617
 4052SOL     OW13054   5.785   1.113   2.558
 4052SOL    HW113055   5.846   1.039   2.529
 4052SOL    HW213056   5.706   1.075   2.606
 4053SOL     OW13057   3.137   6.943   4.387
 4053SOL    HW113058   3.147   6.860   4.331
 4053SOL    HW213059   3.146   6.919   4.484
 4054SOL     OW13060   5.495   3.757   0.896
 4054SOL    HW113061   5.453   3.780   0.984
 4054SOL    HW213062   5.570   3.821   0.878
 4055SOL     OW13063   2.748   3.453   0.475
 4055SOL    HW113064   2.769   3.388   0.549
 4055SOL    HW213065   2.722   3.541   0.515
 4056SOL     OW13066   5.141   3.874   0.629
 4056SOL    HW113067   5.221   3.890   0.571
 4056SOL    HW213068   5.094   3.961   0.647
 4057SOL     OW13069   6.879   2.567   0.802
 4057SOL    HW113070   6.919   2.655   0.778
 4057SOL    HW213071   6.950   2.504   0.832
 4058SOL     OW13072   2.513   6.800   4.905
 4058SOL    HW113073   2.563   6.824   4.821
 4058SOL    HW213074   2.482   6.705   4.899
 4059SOL     OW13075   1.116   1.837   2.884
 4059SOL    HW113076   1.027   1.795   2.867
 4059SOL    HW213077   1.178   1.769   2.924
 4060SOL     OW13078   5.682   5.358   5.296
 4060SOL    HW113079   5.684   5.458   5.293
 4060SOL    HW213080   5.776   5.324   5.304
 4061SOL     OW13081   2.257   4.633   2.265
 4061SOL    HW113082   2.272   4.693   2.343
 4061SOL    HW213083   2.326   4.561   2.264
 4062SOL     OW13084   2.596   0.515   1.791
 4062SOL    HW113085   2.641   0.460   1.721
 4062SOL    HW213086   2.623   0.611   1.781
 4063SOL     OW13087   6.127   6.338   0.476
 4063SOL    HW113088   6.043   6.285   0.462
 4063SOL    HW213089   6.112   6.433   0.448
 4064SOL     OW13090   2.389   0.361   3.886
 4064SOL    HW113091   2.302   0.337   3.842
 4064SOL    HW213092   2.420   0.449   3.852
 4065SOL     OW13093   1.043   6.699   1.769
 4065SOL    HW113094   0.973   6.630   1.759
 4065SOL    HW213095   1.133   6.656   1.766
 4066SOL     OW13096   6.060   4.405   3.225
 4066SOL    HW113097   5.990   4.449   3.280
 4066SOL    HW213098   6.017   4.343   3.160
 4067SOL     OW13099   6.202   3.933   3.019
 4067SOL    HW113100   6.162   3.997   2.953
 4067SOL    HW213101   6.235   3.983   3.098
 4068SOL     OW13102   1.651   1.135   5.066
 4068SOL    HW113103   1.635   1.044   5.028
 4068SOL    HW213104   1.657   1.130   5.166
 4069SOL     OW13105   3.097   5.505   6.607
 4069SOL    HW113106   3.196   5.512   6.600
 4069SOL    HW213107   3.054   5.585   6.564
 4070SOL     OW13108   0.445   3.044   2.207
 4070SOL    HW113109   0.427   2.988   2.288
 4070SOL    HW213110   0.533   3.091   2.217
 4071SOL     OW13111   1.092   1.659   5.890
 4071SOL    HW113112   1.145   1.652   5.806
 4071SOL    HW213113   1.001   1.620   5.876
 4072SOL     OW13114   0.716   5.740   4.567
 4072SOL    HW113115   0.675   5.777   4.484
 4072SOL    HW213116   0.740   5.644   4.553
 4073SOL     OW13117   2.880   6.637   6.131
 4073SOL    HW113118   2.928   6.609   6.048
 4073SOL    HW213119   2.943   6.690   6.189
 4074SOL     OW13120   6.904   4.159   1.502
 4074SOL    HW113121   6.850   4.237   1.471
 4074SOL    HW213122   6.992   4.191   1.537
 4075SOL     OW13123   4.465   2.017   1.688
 4075SOL    HW113124   4.481   2.030   1.786
 4075SOL    HW213125   4.389   2.074   1.658
 4076SOL     OW13126   3.334   2.961   5.943
 4076SOL    HW113127   3.287   2.905   6.011
 4076SOL    HW213128   3.273   2.979   5.866
 4077SOL     OW13129   3.677   1.280   0.051
 4077SOL    HW113130   3.615   1.211   0.015
 4077SOL    HW213131   3.769   1.241   0.059
 4078SOL     OW13132   0.306   5.456   1.227
 4078SOL    HW113133   0.270   5.531   1.172
 4078SOL    HW213134   0.400   5.438   1.201
 4079SOL     OW13135   1.778   0.842   3.621
 4079SOL    HW113136   1.831   0.815   3.541
 4079SOL    HW213137   1.838   0.848   3.701
 4080SOL     OW13138   4.301   4.228   6.267
 4080SOL    HW113139   4.203   4.246   6.277
 4080SOL    HW213140   4.345   4.231   6.357
 4081SOL     OW13141   1.964   2.991   4.233
 4081SOL    HW113142   1.962   3.011   4.331
 4081SOL    HW213143   1.921   2.902   4.216
 4082SOL     OW13144   0.794   3.647   0.150
 4082SOL    HW113145   0.787   3.633   0.249
 4082SOL    HW213146   0.781   3.743   0.128
 4083SOL     OW13147   6.796   3.275   2.314
 4083SOL    HW113148   6.878   3.329   2.298
 4083SOL    HW213149   6.797   3.239   2.408
 4084SOL     OW13150   5.823   1.911   3.681
 4084SOL    HW113151   5.752   1.847   3.652
 4084SOL    HW213152   5.866   1.877   3.765
 4085SOL     OW13153   2.922   5.763   1.664
 4085SOL    HW113154   3.019   5.744   1.651
 4085SOL    HW213155   2.880   5.689   1.718
 4086SOL     OW13156   1.208   5.153   1.499
 4086SOL    HW113157   1.144   5.119   1.431
 4086SOL    HW213158   1.192   5.108   1.587
 4087SOL     OW13159   2.099   1.699   3.341
 4087SOL    HW113160   2.007   1.663   3.326
 4087SOL    HW213161   2.157   1.627   3.380
 4088SOL     OW13162   0.212   1.318   0.154
 4088SOL    HW113163   0.283   1.332   0.085
 4088SOL    HW213164   0.123   1.342   0.116
 4089SOL     OW13165   6.154   6.355   4.219
 4089SOL    HW113166   6.198   6.304   4.293
 4089SOL    HW213167   6.165   6.305   4.133
 4090SOL     OW13168   1.766   5.003   5.912
 4090SOL    HW113169   1.712   5.086   5.894
 4090SOL    HW213170   1.763   4.944   5.831
 4091SOL     OW13171   6.930   6.396   7.001
 4091SOL    HW113172   6.910   6.430   0.067
 4091SOL    HW213173   6.912   6.298   6.996
 4092SOL     OW13174   6.655   2.474   6.125
 4092SOL    HW113175   6.558   2.471   6.101
 4092SOL    HW213176   6.708   2.503   6.045
 4093SOL     OW13177   4.531   0.060   2.565
 4093SOL    HW113178   4.440   0.099   2.551
 4093SOL    HW213179   4.596   0.133   2.585
 4094SOL     OW13180   2.463   5.644   4.723
 4094SOL    HW113181   2.386   5.698   4.689
 4094SOL    HW213182   2.511   5.694   4.795
 4095SOL     OW13183   0.509   3.857   0.607
 4095SOL    HW113184   0.448   3.800   0.553
 4095SOL    HW213185   0.602   3.849   0.572
 4096SOL     OW13186   4.340   6.067   6.040
 4096SOL    HW113187   4.337   6.163   6.066
 4096SOL    HW213188   4.261   6.020   6.079
 4097SOL     OW13189   3.665   4.793   5.292
 4097SOL    HW113190   3.580   4.758   5.332
 4097SOL    HW213191   3.743   4.745   5.331
 4098SOL     OW13192   0.043   2.469   1.404
 4098SOL    HW113193   0.110   2.459   1.330
 4098SOL    HW213194   0.088   2.508   1.485
 4099SOL     OW13195   2.751   4.666   1.505
 4099SOL    HW113196   2.734   4.572   1.532
 4099SOL    HW213197   2.835   4.699   1.549
 4100SOL     OW13198   6.716   5.944   4.513
 4100SOL    HW113199   6.784   5.927   4.584
 4100SOL    HW213200   6.644   5.874   4.519
 4101SOL     OW13201   6.266   0.970   0.257
 4101SOL    HW113202   6.273   0.984   0.158
 4101SOL    HW213203   6.293   0.877   0.280
 4102SOL     OW13204   6.448   0.512   0.561
 4102SOL    HW113205   6.464   0.459   0.478
 4102SOL    HW213206   6.527   0.504   0.622
 4103SOL     OW13207   0.337   0.419   0.582
 4103SOL    HW113208   0.286   0.443   0.499
 4103SOL    HW213209   0.397   0.341   0.563
 4104SOL     OW13210   1.029   4.613   3.107
 4104SOL    HW113211   0.939   4.576   3.129
 4104SOL    HW213212   1.100   4.552   3.142
 4105SOL     OW13213   4.509   6.912   1.457
 4105SOL    HW113214   4.532   7.000   1.416
 4105SOL    HW213215   4.532   6.913   1.554
 4106SOL     OW13216   6.473   2.491   3.479
 4106SOL    HW113217   6.559   2.496   3.530
 4106SOL    HW213218   6.429   2.581   3.479
 4107SOL     OW13219   0.985   5.552   1.037
 4107SOL    HW113220   0.948   5.595   1.119
 4107SOL    HW213221   1.085   5.557   1.039
 4108SOL     OW13222   6.460   4.106   5.179
 4108SOL    HW113223   6.526   4.171   5.140
 4108SOL    HW213224   6.484   4.013   5.152
 4109SOL     OW13225   6.229   0.177   4.870
 4109SOL    HW113226   6.167   0.119   4.818
 4109SOL    HW213227   6.289   0.120   4.927
 4110SOL     OW13228   3.896   3.676   6.325
 4110SOL    HW113229   3.885   3.615   6.246
 4110SOL    HW213230   3.964   3.637   6.387
 4111SOL     OW13231   4.237   3.486   0.272
 4111SOL    HW113232   4.273   3.560   0.216
 4111SOL    HW213233   4.189   3.420   0.215
 4112SOL     OW13234   5.055   6.535   4.917
 4112SOL    HW113235   4.999   6.482   4.981
 4112SOL    HW213236   5.126   6.476   4.879
 4113SOL     OW13237   4.871   6.082   4.404
 4113SOL    HW113238   4.842   6.092   4.499
 4113SOL    HW213239   4.938   6.153   4.382
 4114SOL     OW13240   3.430   2.094   4.013
 4114SOL    HW113241   3.394   2.014   3.965
 4114SOL    HW213242   3.360   2.166   4.014
 4115SOL     OW13243   3.652   4.922   2.269
 4115SOL    HW113244   3.713   4.887   2.197
 4115SOL    HW213245   3.704   4.934   2.353
 4116SOL     OW13246   3.447   1.846   2.197
 4116SOL    HW113247   3.404   1.935   2.182
 4116SOL    HW213248   3.468   1.803   2.110
 4117SOL     OW13249   0.971   4.617   2.479
 4117SOL    HW113250   0.900   4.600   2.547
 4117SOL    HW213251   1.049   4.557   2.496
 4118SOL     OW13252   2.812   6.545   0.735
 4118SOL    HW113253   2.714   6.540   0.713
 4118SOL    HW213254   2.864   6.496   0.665
 4119SOL     OW13255   3.741   2.120   4.106
 4119SOL    HW113256   3.719   2.155   4.014
 4119SOL    HW213257   3.656   2.109   4.158
 4120SOL     OW13258   3.634   0.352   0.618
 4120SOL    HW113259   3.603   0.327   0.526
 4120SOL    HW213260   3.624   0.451   0.632
 4121SOL     OW13261   6.194   0.742   5.089
 4121SOL    HW113262   6.113   0.718   5.036
 4121SOL    HW213263   6.205   0.678   5.165
 4122SOL     OW13264   1.365   5.928   5.085
 4122SOL    HW113265   1.302   5.862   5.126
 4122SOL    HW213266   1.347   6.019   5.122
 4123SOL     OW13267   4.311   5.150   5.901
 4123SOL    HW113268   4.305   5.212   5.823
 4123SOL    HW213269   4.364   5.194   5.974
 4124SOL     OW13270   6.316   5.663   6.506
 4124SOL    HW113271   6.302   5.572   6.469
 4124SOL    HW213272   6.237   5.720   6.485
 4125SOL     OW13273   4.421   1.325   2.560
 4125SOL    HW113274   4.509   1.278   2.557
 4125SOL    HW213275   4.388   1.330   2.654
 4126SOL     OW13276   1.168   3.751   4.507
 4126SOL    HW113277   1.084   3.785   4.548
 4126SOL    HW213278   1.216   3.827   4.462
 4127SOL     OW13279   4.517   4.954   4.758
 4127SOL    HW113280   4.468   5.037   4.730
 4127SOL    HW213281   4.476   4.874   4.713
 4128SOL     OW13282   1.589   2.906   1.701
 4128SOL    HW113283   1.603   2.835   1.631
 4128SOL    HW213284   1.676   2.951   1.721
 4129SOL     OW13285   4.341   1.277   6.273
 4129SOL    HW113286   4.241   1.273   6.271
 4129SOL    HW213287   4.371   1.354   6.329
 4130SOL     OW13288   6.495   2.879   6.005
 4130SOL    HW113289   6.439   2.960   6.016
 4130SOL    HW213290   6.576   2.887   6.064
 4131SOL     OW13291   2.030   0.455   3.241
 4131SOL    HW113292   2.055   0.385   3.174
 4131SOL    HW213293   1.990   0.412   3.322
 4132SOL     OW13294   5.263   4.356   3.887
 4132SOL    HW113295   5.211   4.292   3.943
 4132SOL    HW213296   5.267   4.324   3.793
 4133SOL     OW13297   3.336   6.450   1.123
 4133SOL    HW113298   3.262   6.434   1.188
 4133SOL    HW213299   3.424   6.440   1.168
 4134SOL     OW13300   2.634   2.825   0.205
 4134SOL    HW113301   2.572   2.752   0.177
 4134SOL    HW213302   2.583   2.896   0.254
 4135SOL     OW13303   1.285   1.665   2.985
 4135SOL    HW113304   1.370   1.705   2.951
 4135SOL    HW213305   1.293   1.565   2.987
 4136SOL     OW13306   1.390   2.236   2.751
 4136SOL    HW113307   1.374   2.138   2.742
 4136SOL    HW213308   1.487   2.256   2.739
 4137SOL     OW13309   0.409   4.575   0.664
 4137SOL    HW113310   0.452   4.581   0.754
 4137SOL    HW213311   0.407   4.479   0.634
 4138SOL     OW13312   4.484   5.349   3.336
 4138SOL    HW113313   4.557   5.385   3.278
 4138SOL    HW213314   4.524   5.309   3.418
 4139SOL     OW13315   1.965   2.117   5.063
 4139SOL    HW113316   1.932   2.153   5.150
 4139SOL    HW213317   1.977   2.018   5.069
 4140SOL     OW13318   3.010   1.216   5.252
 4140SOL    HW113319   3.077   1.243   5.322
 4140SOL    HW213320   3.058   1.180   5.172
 4141SOL     OW13321   6.225   6.125   1.427
 4141SOL    HW113322   6.293   6.052   1.435
 4141SOL    HW213323   6.168   6.109   1.347
 4142SOL     OW13324   5.987   5.473   0.972
 4142SOL    HW113325   5.889   5.488   0.988
 4142SOL    HW213326   6.040   5.525   1.039
 4143SOL     OW13327   6.752   2.650   1.195
 4143SOL    HW113328   6.812   2.669   1.272
 4143SOL    HW213329   6.759   2.723   1.127
 4144SOL     OW13330   4.929   3.914   6.012
 4144SOL    HW113331   4.962   3.975   6.085
 4144SOL    HW213332   4.849   3.863   6.044
 4145SOL     OW13333   6.728   6.258   1.100
 4145SOL    HW113334   6.779   6.239   1.184
 4145SOL    HW213335   6.681   6.175   1.070
 4146SOL     OW13336   6.952   0.520   5.331
 4146SOL    HW113337   6.931   0.445   5.269
 4146SOL    HW213338   7.006   0.487   5.408
 4147SOL     OW13339   4.948   3.597   5.977
 4147SOL    HW113340   4.895   3.549   6.046
 4147SOL    HW213341   4.895   3.676   5.944
 4148SOL     OW13342   1.257   0.451   5.091
 4148SOL    HW113343   1.199   0.529   5.116
 4148SOL    HW213344   1.257   0.385   5.166
 4149SOL     OW13345   0.255   2.707   0.382
 4149SOL    HW113346   0.341   2.696   0.332
 4149SOL    HW213347   0.184   2.653   0.338
 4150SOL     OW13348   0.894   0.803   6.082
 4150SOL    HW113349   0.964   0.818   6.152
 4150SOL    HW213350   0.808   0.777   6.126
 4151SOL     OW13351   3.820   5.534   5.331
 4151SOL    HW113352   3.822   5.435   5.324
 4151SOL    HW213353   3.906   5.572   5.298
 4152SOL     OW13354   3.528   6.352   1.503
 4152SOL    HW113355   3.624   6.327   1.518
 4152SOL    HW213356   3.480   6.352   1.591
 4153SOL     OW13357   4.330   4.906   0.155
 4153SOL    HW113358   4.250   4.960   0.181
 4153SOL    HW213359   4.340   4.829   0.217
 4154SOL     OW13360   0.698   4.721   4.647
 4154SOL    HW113361   0.649   4.785   4.588
 4154SOL    HW213362   0.797   4.736   4.638
 4155SOL     OW13363   6.996   1.275   1.900
 4155SOL    HW113364   0.020   1.244   1.980
 4155SOL    HW213365   6.899   1.254   1.911
 4156SOL     OW13366   5.732   5.947   5.163
 4156SOL    HW113367   5.788   5.990   5.092
 4156SOL    HW213368   5.702   6.017   5.228
 4157SOL     OW13369   4.569   5.707   4.563
 4157SOL    HW113370   4.550   5.777   4.494
 4157SOL    HW213371   4.647   5.651   4.533
 4158SOL     OW13372   1.669   4.660   2.823
 4158SOL    HW113373   1.640   4.564   2.829
 4158SOL    HW213374   1.594   4.719   2.854
 4159SOL     OW13375   1.913   3.387   4.374
 4159SOL    HW113376   1.828   3.420   4.415
 4159SOL    HW213377   1.891   3.326   4.297
 4160SOL     OW13378   6.246   0.403   0.684
 4160SOL    HW113379   6.203   0.342   0.618
 4160SOL    HW213380   6.338   0.428   0.653
 4161SOL     OW13381   0.814   0.661   0.079
 4161SOL    HW113382   0.776   0.750   0.107
 4161SOL    HW213383   0.817   0.657   7.005
 4162SOL     OW13384   6.090   6.797   5.847
 4162SOL    HW113385   6.086   6.735   5.768
 4162SOL    HW213386   6.174   6.851   5.843
 4163SOL     OW13387   6.223   6.767   3.676
 4163SOL    HW113388   6.288   6.692   3.693
 4163SOL    HW213389   6.252   6.817   3.594
 4164SOL     OW13390   1.526   6.431   6.945
 4164SOL    HW113391   1.556   6.433   0.015
 4164SOL    HW213392   1.432   6.465   6.939
 4165SOL     OW13393   3.607   0.418   0.005
 4165SOL    HW113394   3.656   0.506   0.007
 4165SOL    HW213395   3.672   0.344   0.021
 4166SOL     OW13396   6.276   4.036   0.740
 4166SOL    HW113397   6.299   3.948   0.783
 4166SOL    HW213398   6.344   4.059   0.672
 4167SOL     OW13399   0.865   4.105   1.055
 4167SOL    HW113400   0.957   4.120   1.092
 4167SOL    HW213401   0.808   4.185   1.072
 4168SOL     OW13402   6.599   5.019   0.860
 4168SOL    HW113403   6.558   4.928   0.865
 4168SOL    HW213404   6.698   5.010   0.849
 4169SOL     OW13405   5.980   4.241   3.797
 4169SOL    HW113406   5.975   4.341   3.797
 4169SOL    HW213407   6.063   4.211   3.751
 4170SOL     OW13408   3.821   4.004   5.417
 4170SOL    HW113409   3.733   4.047   5.400
 4170SOL    HW213410   3.836   3.999   5.516
 4171SOL     OW13411   5.602   5.528   1.548
 4171SOL    HW113412   5.667   5.498   1.618
 4171SOL    HW213413   5.621   5.479   1.463
 4172SOL     OW13414   0.526   2.192   6.248
 4172SOL    HW113415   0.483   2.154   6.166
 4172SOL    HW213416   0.456   2.216   6.315
 4173SOL     OW13417   5.274   3.597   5.287
 4173SOL    HW113418   5.257   3.692   5.261
 4173SOL    HW213419   5.316   3.595   5.377
 4174SOL     OW13420   5.395   0.797   3.431
 4174SOL    HW113421   5.350   0.872   3.481
 4174SOL    HW213422   5.494   0.809   3.435
 4175SOL     OW13423   2.112   6.373   4.455
 4175SOL    HW113424   2.168   6.443   4.411
 4175SOL    HW213425   2.151   6.282   4.437
 4176SOL     OW13426   3.215   6.589   2.105
 4176SOL    HW113427   3.159   6.667   2.078
 4176SOL    HW213428   3.229   6.591   2.204
 4177SOL     OW13429   6.739   4.331   4.638
 4177SOL    HW113430   6.698   4.412   4.679
 4177SOL    HW213431   6.668   4.264   4.615
 4178SOL     OW13432   4.654   0.868   4.223
 4178SOL    HW113433   4.712   0.842   4.300
 4178SOL    HW213434   4.565   0.823   4.230
 4179SOL     OW13435   5.259   2.173   3.192
 4179SOL    HW113436   5.353   2.202   3.206
 4179SOL    HW213437   5.203   2.253   3.168
 4180SOL     OW13438   5.158   3.990   1.605
 4180SOL    HW113439   5.211   3.971   1.523
 4180SOL    HW213440   5.213   3.970   1.686
 4181SOL     OW13441   2.551   2.122   6.952
 4181SOL    HW113442   2.605   2.046   6.916
 4181SOL    HW213443   2.575   2.207   6.905
 4182SOL     OW13444   0.260   6.374   3.115
 4182SOL    HW113445   0.177   6.419   3.082
 4182SOL    HW213446   0.329   6.374   3.042
 4183SOL     OW13447   4.586   0.747   0.372
 4183SOL    HW113448   4.604   0.665   0.318
 4183SOL    HW213449   4.618   0.828   0.322
 4184SOL     OW13450   4.458   5.204   1.298
 4184SOL    HW113451   4.441   5.189   1.200
 4184SOL    HW213452   4.483   5.299   1.314
 4185SOL     OW13453   0.831   5.724   2.234
 4185SOL    HW113454   0.902   5.792   2.249
 4185SOL    HW213455   0.791   5.736   2.143
 4186SOL     OW13456   2.180   4.948   1.212
 4186SOL    HW113457   2.082   4.966   1.205
 4186SOL    HW213458   2.195   4.862   1.262
 4187SOL     OW13459   3.722   3.704   5.987
 4187SOL    HW113460   3.625   3.701   5.965
 4187SOL    HW213461   3.747   3.622   6.039
 4188SOL     OW13462   5.339   0.126   4.361
 4188SOL    HW113463   5.412   0.106   4.427
 4188SOL    HW213464   5.255   0.082   4.390
 4189SOL     OW13465   3.593   0.744   5.009
 4189SOL    HW113466   3.548   0.655   5.003
 4189SOL    HW213467   3.650   0.758   4.928
 4190SOL     OW13468   0.650   0.478   6.843
 4190SOL    HW113469   0.739   0.522   6.835
 4190SOL    HW213470   0.662   0.379   6.844
 4191SOL     OW13471   5.348   3.163   3.204
 4191SOL    HW113472   5.429   3.109   3.181
 4191SOL    HW213473   5.372   3.260   3.209
 4192SOL     OW13474   0.455   0.933   3.945
 4192SOL    HW113475   0.427   0.902   3.855
 4192SOL    HW213476   0.555   0.940   3.949
 4193SOL     OW13477   2.229   6.678   2.417
 4193SOL    HW113478   2.207   6.751   2.351
 4193SOL    HW213479   2.309   6.628   2.385
 4194SOL     OW13480   5.848   0.918   5.404
 4194SOL    HW113481   5.809   1.011   5.400
 4194SOL    HW213482   5.847   0.885   5.498
 4195SOL     OW13483   4.130   0.568   1.568
 4195SOL    HW113484   4.150   0.495   1.633
 4195SOL    HW213485   4.125   0.655   1.617
 4196SOL     OW13486   5.790   2.387   3.807
 4196SOL    HW113487   5.773   2.407   3.710
 4196SOL    HW213488   5.826   2.294   3.816
 4197SOL     OW13489   5.142   5.847   5.424
 4197SOL    HW113490   5.135   5.906   5.343
 4197SOL    HW213491   5.189   5.763   5.399
 4198SOL     OW13492   5.724   2.943   6.570
 4198SOL    HW113493   5.779   2.918   6.649
 4198SOL    HW213494   5.628   2.924   6.589
 4199SOL     OW13495   1.745   4.025   6.279
 4199SOL    HW113496   1.728   3.935   6.320
 4199SOL    HW213497   1.733   4.020   6.180
 4200SOL     OW13498   3.142   6.173   4.814
 4200SOL    HW113499   3.218   6.115   4.841
 4200SOL    HW213500   3.140   6.181   4.714
 4201SOL     OW13501   6.274   6.075   3.545
 4201SOL    HW113502   6.367   6.091   3.512
 4201SOL    HW213503   6.276   6.062   3.645
 4202SOL     OW13504   4.131   6.061   5.748
 4202SOL    HW113505   4.181   5.977   5.727
 4202SOL    HW213506   4.046   6.062   5.696
 4203SOL     OW13507   4.896   5.342   1.187
 4203SOL    HW113508   4.947   5.344   1.273
 4203SOL    HW213509   4.809   5.389   1.198
 4204SOL     OW13510   3.486   2.847   2.500
 4204SOL    HW113511   3.580   2.882   2.499
 4204SOL    HW213512   3.445   2.862   2.590
 4205SOL     OW13513   3.722   4.956   4.023
 4205SOL    HW113514   3.737   4.863   4.057
 4205SOL    HW213515   3.728   5.021   4.098
 4206SOL     OW13516   5.910   0.934   5.686
 4206SOL    HW113517   5.883   0.897   5.775
 4206SOL    HW213518   6.005   0.909   5.668
 4207SOL     OW13519   2.111   1.703   1.513
 4207SOL    HW113520   2.020   1.666   1.532
 4207SOL    HW213521   2.104   1.779   1.448
 4208SOL     OW13522   1.487   2.955   6.587
 4208SOL    HW113523   1.569   2.948   6.531
 4208SOL    HW213524   1.455   3.050   6.588
 4209SOL     OW13525   0.733   1.692   5.204
 4209SOL    HW113526   0.698   1.635   5.279
 4209SOL    HW213527   0.711   1.788   5.223
 4210SOL     OW13528   2.967   3.611   2.190
 4210SOL    HW113529   2.948   3.513   2.193
 4210SOL    HW213530   3.002   3.635   2.100
 4211SOL     OW13531   3.507   5.830   4.857
 4211SOL    HW113532   3.583   5.871   4.907
 4211SOL    HW213533   3.485   5.741   4.898
 4212SOL     OW13534   5.906   2.670   2.330
 4212SOL    HW113535   5.832   2.724   2.289
 4212SOL    HW213536   5.985   2.669   2.269
 4213SOL     OW13537   2.600   1.121   2.888
 4213SOL    HW113538   2.561   1.210   2.908
 4213SOL    HW213539   2.557   1.052   2.947
 4214SOL     OW13540   1.174   4.357   5.642
 4214SOL    HW113541   1.146   4.331   5.734
 4214SOL    HW213542   1.093   4.370   5.584
 4215SOL     OW13543   6.481   6.112   4.480
 4215SOL    HW113544   6.506   6.209   4.479
 4215SOL    HW213545   6.563   6.056   4.489
 4216SOL     OW13546   1.825   1.996   3.311
 4216SOL    HW113547   1.817   2.054   3.230
 4216SOL    HW213548   1.912   2.014   3.357
 4217SOL     OW13549   6.605   0.049   2.335
 4217SOL    HW113550   6.514   0.018   2.308
 4217SOL    HW213551   6.648   7.006   2.393
 4218SOL     OW13552   5.141   0.112   1.250
 4218SOL    HW113553   5.193   0.193   1.223
 4218SOL    HW213554   5.202   0.046   1.294
 4219SOL     OW13555   2.985   5.600   4.082
 4219SOL    HW113556   3.003   5.559   3.993
 4219SOL    HW213557   2.919   5.543   4.132
 4220SOL     OW13558   6.238   2.609   2.972
 4220SOL    HW113559   6.300   2.681   3.003
 4220SOL    HW213560   6.240   2.533   3.037
 4221SOL     OW13561   6.303   5.654   6.231
 4221SOL    HW113562   6.381   5.609   6.274
 4221SOL    HW213563   6.235   5.676   6.300
 4222SOL     OW13564   6.216   2.317   2.615
 4222SOL    HW113565   6.155   2.253   2.567
 4222SOL    HW213566   6.311   2.287   2.604
 4223SOL     OW13567   3.277   3.479   5.214
 4223SOL    HW113568   3.364   3.450   5.254
 4223SOL    HW213569   3.254   3.420   5.137
 4224SOL     OW13570   4.851   3.180   3.552
 4224SOL    HW113571   4.922   3.110   3.558
 4224SOL    HW213572   4.773   3.145   3.501
 4225SOL     OW13573   4.705   0.074   5.699
 4225SOL    HW113574   4.666   0.014   5.769
 4225SOL    HW213575   4.798   0.045   5.679
 4226SOL     OW13576   0.417   0.704   3.448
 4226SOL    HW113577   0.489   0.774   3.446
 4226SOL    HW213578   0.392   0.685   3.543
 4227SOL     OW13579   3.358   4.953   6.997
 4227SOL    HW113580   3.376   4.928   6.902
 4227SOL    HW213581   3.323   5.046   7.001
 4228SOL     OW13582   0.447   3.259   3.230
 4228SOL    HW113583   0.393   3.175   3.236
 4228SOL    HW213584   0.430   3.316   3.311
 4229SOL     OW13585   4.655   5.122   5.923
 4229SOL    HW113586   4.662   5.122   5.824
 4229SOL    HW213587   4.650   5.216   5.957
 4230SOL     OW13588   2.249   0.724   4.889
 4230SOL    HW113589   2.255   0.719   4.790
 4230SOL    HW213590   2.173   0.667   4.921
 4231SOL     OW13591   5.279   6.277   4.397
 4231SOL    HW113592   5.335   6.199   4.368
 4231SOL    HW213593   5.219   6.248   4.472
 4232SOL     OW13594   6.959   4.646   1.921
 4232SOL    HW113595   6.966   4.651   2.021
 4232SOL    HW213596   7.007   4.565   1.889
 4233SOL     OW13597   6.951   0.445   6.584
 4233SOL    HW113598   6.988   0.530   6.621
 4233SOL    HW213599   6.937   0.379   6.658
 4234SOL     OW13600   1.428   0.313   5.831
 4234SOL    HW113601   1.477   0.394   5.865
 4234SOL    HW213602   1.473   0.231   5.866
 4235SOL     OW13603   6.073   3.574   5.550
 4235SOL    HW113604   6.063   3.655   5.492
 4235SOL    HW213605   6.037   3.494   5.503
 4236SOL     OW13606   0.722   3.328   2.773
 4236SOL    HW113607   0.673   3.415   2.763
 4236SOL    HW213608   0.693   3.284   2.858
 4237SOL     OW13609   6.432   4.919   4.249
 4237SOL    HW113610   6.395   4.978   4.177
 4237SOL    HW213611   6.479   4.976   4.317
 4238SOL     OW13612   4.613   4.730   3.723
 4238SOL    HW113613   4.617   4.682   3.810
 4238SOL    HW213614   4.523   4.718   3.681
 4239SOL     OW13615   6.293   0.652   3.529
 4239SOL    HW113616   6.366   0.587   3.508
 4239SOL    HW213617   6.274   0.707   3.448
 4240SOL     OW13618   1.996   6.886   6.893
 4240SOL    HW113619   1.951   6.956   6.838
 4240SOL    HW213620   1.994   6.913   6.989
 4241SOL     OW13621   4.970   0.977   1.260
 4241SOL    HW113622   4.884   0.930   1.239
 4241SOL    HW213623   5.045   0.910   1.261
 4242SOL     OW13624   1.808   0.854   3.007
 4242SOL    HW113625   1.870   0.930   3.026
 4242SOL    HW213626   1.856   0.768   3.023
 4243SOL     OW13627   0.636   3.624   3.219
 4243SOL    HW113628   0.669   3.532   3.198
 4243SOL    HW213629   0.600   3.626   3.312
 4244SOL     OW13630   4.419   5.092   0.772
 4244SOL    HW113631   4.353   5.088   0.698
 4244SOL    HW213632   4.481   5.169   0.758
 4245SOL     OW13633   6.945   1.396   6.797
 4245SOL    HW113634   6.910   1.310   6.834
 4245SOL    HW213635   0.019   1.394   6.797
 4246SOL     OW13636   5.741   2.560   3.514
 4246SOL    HW113637   5.652   2.560   3.470
 4246SOL    HW213638   5.812   2.548   3.445
 4247SOL     OW13639   2.127   5.198   4.011
 4247SOL    HW113640   2.095   5.191   4.106
 4247SOL    HW213641   2.154   5.292   3.992
 4248SOL     OW13642   1.254   1.161   3.685
 4248SOL    HW113643   1.240   1.207   3.598
 4248SOL    HW213644   1.351   1.161   3.709
 4249SOL     OW13645   6.415   1.022   3.506
 4249SOL    HW113646   6.351   0.958   3.549
 4249SOL    HW213647   6.366   1.081   3.442
 4250SOL     OW13648   6.734   5.923   3.975
 4250SOL    HW113649   6.827   5.892   3.992
 4250SOL    HW213650   6.671   5.845   3.976
 4251SOL     OW13651   6.635   2.950   0.326
 4251SOL    HW113652   6.694   2.937   0.406
 4251SOL    HW213653   6.590   2.863   0.304
 4252SOL     OW13654   5.452   6.415   6.543
 4252SOL    HW113655   5.449   6.396   6.444
 4252SOL    HW213656   5.377   6.368   6.588
 4253SOL     OW13657   3.797   5.854   1.976
 4253SOL    HW113658   3.835   5.777   1.924
 4253SOL    HW213659   3.697   5.852   1.971
 4254SOL     OW13660   2.128   4.437   1.746
 4254SOL    HW113661   2.166   4.517   1.699
 4254SOL    HW213662   2.159   4.437   1.841
 4255SOL     OW13663   0.279   3.944   3.770
 4255SOL    HW113664   0.197   3.892   3.795
 4255SOL    HW213665   0.353   3.881   3.746
 4256SOL     OW13666   0.841   6.049   1.510
 4256SOL    HW113667   0.841   6.145   1.482
 4256SOL    HW213668   0.927   6.029   1.557
 4257SOL     OW13669   4.983   1.132   4.087
 4257SOL    HW113670   5.015   1.220   4.120
 4257SOL    HW213671   5.037   1.059   4.130
 4258SOL     OW13672   3.471   6.094   1.105
 4258SOL    HW113673   3.443   6.064   1.014
 4258SOL    HW213674   3.415   6.048   1.174
 4259SOL     OW13675   1.649   6.327   1.019
 4259SOL    HW113676   1.698   6.266   0.957
 4259SOL    HW213677   1.551   6.307   1.015
 4260SOL     OW13678   5.464   7.023   3.677
 4260SOL    HW113679   5.510   6.983   3.598
 4260SOL    HW213680   5.425   0.085   3.652
 4261SOL     OW13681   1.707   0.855   2.614
 4261SOL    HW113682   1.692   0.954   2.619
 4261SOL    HW213683   1.693   0.814   2.704
 4262SOL     OW13684   1.340   4.239   6.047
 4262SOL    HW113685   1.323   4.260   6.143
 4262SOL    HW213686   1.255   4.245   5.996
 4263SOL     OW13687   2.582   1.057   3.468
 4263SOL    HW113688   2.529   1.116   3.529
 4263SOL    HW213689   2.636   1.113   3.406
 4264SOL     OW13690   6.112   1.884   4.287
 4264SOL    HW113691   6.139   1.795   4.325
 4264SOL    HW213692   6.091   1.874   4.190
 4265SOL     OW13693   3.913   1.046   0.583
 4265SOL    HW113694   3.820   1.019   0.559
 4265SOL    HW213695   3.912   1.097   0.669
 4266SOL     OW13696   1.300   6.509   0.292
 4266SOL    HW113697   1.279   6.539   0.199
 4266SOL    HW213698   1.356   6.427   0.288
 4267SOL     OW13699   1.987   3.434   3.792
 4267SOL    HW113700   2.044   3.361   3.831
 4267SOL    HW213701   1.891   3.414   3.808
 4268SOL     OW13702   1.971   5.558   6.917
 4268SOL    HW113703   1.897   5.490   6.923
 4268SOL    HW213704   2.027   5.538   6.837
 4269SOL     OW13705   2.755   1.098   3.966
 4269SOL    HW113706   2.720   1.051   3.885
 4269SOL    HW213707   2.823   1.166   3.938
 4270SOL     OW13708   3.098   3.110   2.260
 4270SOL    HW113709   3.151   3.029   2.285
 4270SOL    HW213710   3.070   3.158   2.343
 4271SOL     OW13711   7.018   1.251   0.341
 4271SOL    HW113712   0.064   1.242   0.272
 4271SOL    HW213713   6.929   1.258   0.295
 4272SOL     OW13714   6.799   3.023   5.058
 4272SOL    HW113715   6.897   3.036   5.069
 4272SOL    HW213716   6.754   3.112   5.048
 4273SOL     OW13717   5.081   6.276   5.218
 4273SOL    HW113718   4.988   6.268   5.184
 4273SOL    HW213719   5.082   6.334   5.300
 4274SOL     OW13720   1.026   0.207   1.787
 4274SOL    HW113721   1.105   0.223   1.727
 4274SOL    HW213722   1.023   0.111   1.815
 4275SOL     OW13723   0.586   1.969   3.881
 4275SOL    HW113724   0.518   2.018   3.934
 4275SOL    HW213725   0.555   1.875   3.864
 4276SOL     OW13726   3.229   4.937   3.721
 4276SOL    HW113727   3.155   4.897   3.666
 4276SOL    HW213728   3.314   4.933   3.670
 4277SOL     OW13729   0.287   4.370   2.516
 4277SOL    HW113730   0.354   4.348   2.445
 4277SOL    HW213731   0.212   4.304   2.514
 4278SOL     OW13732   0.532   0.065   3.801
 4278SOL    HW113733   0.437   0.078   3.771
 4278SOL    HW213734   0.592   0.067   3.722
 4279SOL     OW13735   1.176   1.312   2.495
 4279SOL    HW113736   1.181   1.321   2.594
 4279SOL    HW213737   1.210   1.222   2.468
 4280SOL     OW13738   6.242   0.001   5.856
 4280SOL    HW113739   6.254   0.067   5.782
 4280SOL    HW213740   6.193   0.045   5.932
 4281SOL     OW13741   5.450   4.783   3.374
 4281SOL    HW113742   5.385   4.859   3.367
 4281SOL    HW213743   5.408   4.700   3.339
 4282SOL     OW13744   2.984   4.942   0.503
 4282SOL    HW113745   3.050   4.997   0.554
 4282SOL    HW213746   2.996   4.845   0.526
 4283SOL     OW13747   4.002   1.028   3.404
 4283SOL    HW113748   4.025   1.060   3.495
 4283SOL    HW213749   4.073   0.965   3.371
 4284SOL     OW13750   4.355   5.465   0.596
 4284SOL    HW113751   4.279   5.512   0.640
 4284SOL    HW213752   4.384   5.515   0.515
 4285SOL     OW13753   2.507   1.007   5.726
 4285SOL    HW113754   2.524   1.092   5.676
 4285SOL    HW213755   2.547   0.931   5.676
 4286SOL     OW13756   5.682   0.394   6.197
 4286SOL    HW113757   5.700   0.395   6.099
 4286SOL    HW213758   5.708   0.482   6.238
 4287SOL     OW13759   4.826   1.023   5.484
 4287SOL    HW113760   4.867   1.103   5.527
 4287SOL    HW213761   4.728   1.040   5.469
 4288SOL     OW13762   0.520   5.352   3.096
 4288SOL    HW113763   0.613   5.382   3.076
 4288SOL    HW213764   0.460   5.431   3.103
 4289SOL     OW13765   1.293   2.414   6.516
 4289SOL    HW113766   1.255   2.426   6.424
 4289SOL    HW213767   1.315   2.318   6.531
 4290SOL     OW13768   0.237   6.567   4.973
 4290SOL    HW113769   0.220   6.481   5.021
 4290SOL    HW213770   0.336   6.582   4.965
 4291SOL     OW13771   5.029   4.071   6.203
 4291SOL    HW113772   4.969   4.149   6.224
 4291SOL    HW213773   5.117   4.083   6.248
 4292SOL     OW13774   5.809   3.043   0.098
 4292SOL    HW113775   5.744   3.074   0.028
 4292SOL    HW213776   5.807   2.943   0.102
 4293SOL     OW13777   3.406   4.183   6.654
 4293SOL    HW113778   3.440   4.091   6.633
 4293SOL    HW213779   3.480   4.237   6.695
 4294SOL     OW13780   2.124   1.840   6.083
 4294SOL    HW113781   2.080   1.847   6.173
 4294SOL    HW213782   2.187   1.763   6.083
 4295SOL     OW13783   4.495   5.726   3.386
 4295SOL    HW113784   4.495   5.643   3.441
 4295SOL    HW213785   4.584   5.770   3.392
 4296SOL     OW13786   3.133   6.752   0.566
 4296SOL    HW113787   3.050   6.804   0.552
 4296SOL    HW213788   3.116   6.656   0.543
 4297SOL     OW13789   6.409   6.624   2.146
 4297SOL    HW113790   6.404   6.685   2.225
 4297SOL    HW213791   6.444   6.535   2.175
 4298SOL     OW13792   3.148   6.129   1.842
 4298SOL    HW113793   3.145   6.136   1.742
 4298SOL    HW213794   3.243   6.121   1.871
 4299SOL     OW13795   0.865   3.043   6.945
 4299SOL    HW113796   0.808   3.074   6.869
 4299SOL    HW213797   0.952   3.009   6.910
 4300SOL     OW13798   2.740   0.180   0.558
 4300SOL    HW113799   2.680   0.114   0.513
 4300SOL    HW213800   2.814   0.131   0.604
 4301SOL     OW13801   4.402   0.568   1.477
 4301SOL    HW113802   4.303   0.569   1.481
 4301SOL    HW213803   4.439   0.644   1.531
 4302SOL     OW13804   6.397   6.945   6.457
 4302SOL    HW113805   6.469   6.933   6.389
 4302SOL    HW213806   6.312   6.903   6.423
 4303SOL     OW13807   0.053   4.807   3.795
 4303SOL    HW113808   0.129   4.792   3.732
 4303SOL    HW213809   0.030   4.721   3.841
 4304SOL     OW13810   3.518   3.606   2.434
 4304SOL    HW113811   3.489   3.608   2.338
 4304SOL    HW213812   3.441   3.633   2.492
 4305SOL     OW13813   0.542   6.584   6.115
 4305SOL    HW113814   0.480   6.653   6.075
 4305SOL    HW213815   0.504   6.551   6.201
 4306SOL     OW13816   4.724   5.464   4.556
 4306SOL    HW113817   4.631   5.427   4.550
 4306SOL    HW213818   4.784   5.398   4.602
 4307SOL     OW13819   5.558   3.528   4.945
 4307SOL    HW113820   5.520   3.466   4.877
 4307SOL    HW213821   5.654   3.505   4.961
 4308SOL     OW13822   5.657   5.297   1.388
 4308SOL    HW113823   5.598   5.224   1.353
 4308SOL    HW213824   5.753   5.274   1.369
 4309SOL     OW13825   1.363   2.396   0.248
 4309SOL    HW113826   1.416   2.372   0.330
 4309SOL    HW213827   1.269   2.364   0.260
 4310SOL     OW13828   1.373   2.694   1.798
 4310SOL    HW113829   1.407   2.617   1.744
 4310SOL    HW213830   1.362   2.774   1.738
 4311SOL     OW13831   0.984   5.980   2.270
 4311SOL    HW113832   0.915   6.045   2.238
 4311SOL    HW213833   0.985   5.979   2.370
 4312SOL     OW13834   1.552   5.763   2.990
 4312SOL    HW113835   1.608   5.708   3.053
 4312SOL    HW213836   1.458   5.766   3.023
 4313SOL     OW13837   4.211   1.744   0.388
 4313SOL    HW113838   4.169   1.739   0.297
 4313SOL    HW213839   4.153   1.697   0.454
 4314SOL     OW13840   6.193   1.772   5.055
 4314SOL    HW113841   6.228   1.810   5.140
 4314SOL    HW213842   6.230   1.825   4.977
 4315SOL     OW13843   2.034   1.031   3.292
 4315SOL    HW113844   2.105   0.977   3.336
 4315SOL    HW213845   2.035   1.012   3.193
 4316SOL     OW13846   5.283   0.217   2.489
 4316SOL    HW113847   5.202   0.248   2.439
 4316SOL    HW213848   5.308   0.126   2.458
 4317SOL     OW13849   4.839   1.665   5.673
 4317SOL    HW113850   4.841   1.622   5.583
 4317SOL    HW213851   4.744   1.675   5.704
 4318SOL     OW13852   0.755   1.299   4.748
 4318SOL    HW113853   0.765   1.398   4.738
 4318SOL    HW213854   0.826   1.264   4.809
 4319SOL     OW13855   1.715   1.775   0.986
 4319SOL    HW113856   1.736   1.823   1.071
 4319SOL    HW213857   1.616   1.757   0.982
 4320SOL     OW13858   3.542   5.711   1.165
 4320SOL    HW113859   3.588   5.744   1.082
 4320SOL    HW213860   3.471   5.645   1.140
 4321SOL     OW13861   6.782   4.748   3.883
 4321SOL    HW113862   6.860   4.686   3.877
 4321SOL    HW213863   6.797   4.828   3.827
 4322SOL     OW13864   6.557   3.200   6.137
 4322SOL    HW113865   6.603   3.114   6.157
 4322SOL    HW213866   6.474   3.207   6.191
 4323SOL     OW13867   4.797   5.304   0.372
 4323SOL    HW113868   4.712   5.274   0.328
 4323SOL    HW213869   4.875   5.284   0.312
 4324SOL     OW13870   6.557   4.346   5.488
 4324SOL    HW113871   6.510   4.325   5.574
 4324SOL    HW213872   6.548   4.268   5.425
 4325SOL     OW13873   2.640   1.543   2.174
 4325SOL    HW113874   2.711   1.580   2.114
 4325SOL    HW213875   2.558   1.599   2.166
 4326SOL     OW13876   5.532   4.151   2.002
 4326SOL    HW113877   5.467   4.214   2.045
 4326SOL    HW213878   5.536   4.066   2.055
 4327SOL     OW13879   4.210   6.238   2.888
 4327SOL    HW113880   4.232   6.197   2.799
 4327SOL    HW213881   4.173   6.330   2.873
 4328SOL     OW13882   5.686   4.536   5.208
 4328SOL    HW113883   5.725   4.571   5.123
 4328SOL    HW213884   5.671   4.612   5.271
 4329SOL     OW13885   6.027   2.636   5.557
 4329SOL    HW113886   6.029   2.583   5.472
 4329SOL    HW213887   6.041   2.733   5.535
 4330SOL     OW13888   1.765   6.585   3.992
 4330SOL    HW113889   1.724   6.496   4.011
 4330SOL    HW213890   1.818   6.580   3.907
 4331SOL     OW13891   6.450   0.652   1.651
 4331SOL    HW113892   6.492   0.573   1.607
 4331SOL    HW213893   6.433   0.723   1.583
 4332SOL     OW13894   6.723   3.085   3.091
 4332SOL    HW113895   6.820   3.095   3.111
 4332SOL    HW213896   6.712   3.034   3.005
 4333SOL     OW13897   4.377   1.966   5.030
 4333SOL    HW113898   4.328   2.019   4.961
 4333SOL    HW213899   4.321   1.888   5.058
 4334SOL     OW13900   1.586   3.118   2.412
 4334SOL    HW113901   1.666   3.081   2.458
 4334SOL    HW213902   1.595   3.106   2.313
 4335SOL     OW13903   3.790   2.804   1.861
 4335SOL    HW113904   3.831   2.885   1.818
 4335SOL    HW213905   3.743   2.832   1.945
 4336SOL     OW13906   2.762   5.379   5.623
 4336SOL    HW113907   2.797   5.335   5.705
 4336SOL    HW213908   2.774   5.318   5.545
 4337SOL     OW13909   2.111   4.966   1.705
 4337SOL    HW113910   2.172   5.043   1.727
 4337SOL    HW213911   2.166   4.889   1.674
 4338SOL     OW13912   6.215   0.218   6.429
 4338SOL    HW113913   6.161   0.301   6.433
 4338SOL    HW213914   6.312   0.241   6.425
 4339SOL     OW13915   3.623   2.418   6.281
 4339SOL    HW113916   3.719   2.411   6.252
 4339SOL    HW213917   3.567   2.446   6.204
 4340SOL     OW13918   5.780   3.514   0.985
 4340SOL    HW113919   5.826   3.580   0.925
 4340SOL    HW213920   5.722   3.562   1.050
 4341SOL     OW13921   1.253   4.886   1.340
 4341SOL    HW113922   1.254   4.834   1.425
 4341SOL    HW213923   1.165   4.874   1.294
 4342SOL     OW13924   5.223   3.398   3.026
 4342SOL    HW113925   5.288   3.439   3.089
 4342SOL    HW213926   5.268   3.325   2.974
 4343SOL     OW13927   3.148   6.161   5.281
 4343SOL    HW113928   3.209   6.153   5.360
 4343SOL    HW213929   3.198   6.201   5.205
 4344SOL     OW13930   0.979   2.990   3.063
 4344SOL    HW113931   0.940   2.915   3.009
 4344SOL    HW213932   0.906   3.042   3.107
 4345SOL     OW13933   2.909   3.322   4.792
 4345SOL    HW113934   2.811   3.302   4.789
 4345SOL    HW213935   2.949   3.306   4.703
 4346SOL     OW13936   2.221   2.863   2.287
 4346SOL    HW113937   2.197   2.770   2.258
 4346SOL    HW213938   2.303   2.893   2.237
 4347SOL     OW13939   5.995   6.725   2.607
 4347SOL    HW113940   5.937   6.743   2.687
 4347SOL    HW213941   6.036   6.810   2.576
 4348SOL     OW13942   0.503   5.817   4.301
 4348SOL    HW113943   0.539   5.785   4.213
 4348SOL    HW213944   0.509   5.916   4.306
 4349SOL     OW13945   6.911   2.930   3.835
 4349SOL    HW113946   6.993   2.959   3.884
 4349SOL    HW213947   6.902   2.830   3.841
 4350SOL     OW13948   5.127   2.219   4.176
 4350SOL    HW113949   5.174   2.135   4.202
 4350SOL    HW213950   5.052   2.197   4.113
 4351SOL     OW13951   1.221   5.897   1.220
 4351SOL    HW113952   1.228   5.800   1.197
 4351SOL    HW213953   1.267   5.914   1.308
 4352SOL     OW13954   6.358   4.034   1.876
 4352SOL    HW113955   6.438   4.093   1.871
 4352SOL    HW213956   6.324   4.032   1.970
 4353SOL     OW13957   3.346   3.712   0.409
 4353SOL    HW113958   3.251   3.703   0.439
 4353SOL    HW213959   3.350   3.765   0.325
 4354SOL     OW13960   0.963   1.665   6.323
 4354SOL    HW113961   0.881   1.622   6.363
 4354SOL    HW213962   0.944   1.689   6.227
 4355SOL     OW13963   2.014   6.991   2.924
 4355SOL    HW113964   2.009   0.001   3.017
 4355SOL    HW213965   2.109   6.987   2.894
 4356SOL     OW13966   4.567   3.600   5.366
 4356SOL    HW113967   4.515   3.515   5.375
 4356SOL    HW213968   4.608   3.605   5.275
 4357SOL     OW13969   6.990   1.662   1.436
 4357SOL    HW113970   7.013   1.733   1.369
 4357SOL    HW213971   6.999   1.572   1.394
 4358SOL     OW13972   6.865   0.024   0.224
 4358SOL    HW113973   6.781   0.047   0.176
 4358SOL    HW213974   6.858   0.054   0.320
 4359SOL     OW13975   1.559   1.372   6.752
 4359SOL    HW113976   1.545   1.274   6.769
 4359SOL    HW213977   1.509   1.425   6.821
 4360SOL     OW13978   0.789   2.545   4.407
 4360SOL    HW113979   0.778   2.459   4.357
 4360SOL    HW213980   0.836   2.612   4.349
 4361SOL     OW13981   2.034   3.281   1.174
 4361SOL    HW113982   2.050   3.233   1.087
 4361SOL    HW213983   2.121   3.317   1.208
 4362SOL     OW13984   0.115   5.746   3.711
 4362SOL    HW113985   0.018   5.768   3.702
 4362SOL    HW213986   0.143   5.686   3.636
 4363SOL     OW13987   4.466   1.334   2.013
 4363SOL    HW113988   4.545   1.391   2.035
 4363SOL    HW213989   4.422   1.303   2.097
 4364SOL     OW13990   3.143   4.032   3.284
 4364SOL    HW113991   3.232   4.074   3.304
 4364SOL    HW213992   3.143   3.995   3.192
 4365SOL     OW13993   3.177   0.355   1.944
 4365SOL    HW113994   3.117   0.412   2.000
 4365SOL    HW213995   3.215   0.281   2.000
 4366SOL     OW13996   5.738   6.105   6.470
 4366SOL    HW113997   5.797   6.143   6.541
 4366SOL    HW213998   5.786   6.107   6.382
 4367SOL     OW13999   3.158   4.878   3.362
 4367SOL    HW114000   3.086   4.871   3.431
 4367SOL    HW214001   3.236   4.927   3.400
 4368SOL     OW14002   4.045   5.438   2.060
 4368SOL    HW114003   4.073   5.531   2.085
 4368SOL    HW214004   3.972   5.407   2.122
 4369SOL     OW14005   5.036   5.465   3.517
 4369SOL    HW114006   5.070   5.499   3.429
 4369SOL    HW214007   5.080   5.515   3.591
 4370SOL     OW14008   3.586   3.929   1.573
 4370SOL    HW114009   3.545   3.909   1.661
 4370SOL    HW214010   3.526   3.988   1.520
 4371SOL     OW14011   2.252   1.378   3.032
 4371SOL    HW114012   2.293   1.469   3.036
 4371SOL    HW214013   2.226   1.358   2.937
 4372SOL     OW14014   2.190   3.243   3.824
 4372SOL    HW114015   2.264   3.310   3.828
 4372SOL    HW214016   2.173   3.206   3.916
 4373SOL     OW14017   4.390   0.636   6.437
 4373SOL    HW114018   4.481   0.615   6.402
 4373SOL    HW214019   4.380   0.599   6.530
 4374SOL     OW14020   1.934   1.691   1.252
 4374SOL    HW114021   1.913   1.789   1.256
 4374SOL    HW214022   1.991   1.672   1.172
 4375SOL     OW14023   4.086   6.480   2.924
 4375SOL    HW114024   4.148   6.558   2.915
 4375SOL    HW214025   4.045   6.460   2.835
 4376SOL     OW14026   6.745   0.282   1.575
 4376SOL    HW114027   6.706   0.251   1.661
 4376SOL    HW214028   6.845   0.287   1.583
 4377SOL     OW14029   6.232   5.459   0.383
 4377SOL    HW114030   6.136   5.486   0.376
 4377SOL    HW214031   6.287   5.537   0.410
 4378SOL     OW14032   1.318   4.364   2.650
 4378SOL    HW114033   1.268   4.425   2.711
 4378SOL    HW214034   1.365   4.294   2.704
 4379SOL     OW14035   2.402   0.907   1.851
 4379SOL    HW114036   2.338   0.851   1.798
 4379SOL    HW214037   2.496   0.885   1.824
 4380SOL     OW14038   1.826   5.991   4.400
 4380SOL    HW114039   1.736   6.033   4.408
 4380SOL    HW214040   1.817   5.900   4.358
 4381SOL     OW14041   2.191   4.256   4.786
 4381SOL    HW114042   2.202   4.207   4.700
 4381SOL    HW214043   2.219   4.197   4.862
 4382SOL     OW14044   5.884   3.863   6.341
 4382SOL    HW114045   5.900   3.914   6.257
 4382SOL    HW214046   5.878   3.927   6.418
 4383SOL     OW14047   0.380   2.685   5.607
 4383SOL    HW114048   0.298   2.717   5.558
 4383SOL    HW214049   0.414   2.601   5.563
 4384SOL     OW14050   5.087   0.971   6.931
 4384SOL    HW114051   5.113   1.056   6.978
 4384SOL    HW214052   4.988   0.967   6.923
 4385SOL     OW14053   7.002   2.864   4.229
 4385SOL    HW114054   0.053   2.803   4.212
 4385SOL    HW214055   6.922   2.833   4.177
 4386SOL     OW14056   1.079   3.354   6.751
 4386SOL    HW114057   1.103   3.386   6.659
 4386SOL    HW214058   0.990   3.390   6.777
 4387SOL     OW14059   0.978   2.381   2.104
 4387SOL    HW114060   0.925   2.296   2.105
 4387SOL    HW214061   0.925   2.453   2.060
 4388SOL     OW14062   4.702   0.870   6.573
 4388SOL    HW114063   4.759   0.798   6.612
 4388SOL    HW214064   4.652   0.917   6.646
 4389SOL     OW14065   5.860   1.735   0.675
 4389SOL    HW114066   5.806   1.780   0.604
 4389SOL    HW214067   5.895   1.803   0.739
 4390SOL     OW14068   3.741   2.005   2.238
 4390SOL    HW114069   3.672   1.981   2.306
 4390SOL    HW214070   3.712   2.089   2.190
 4391SOL     OW14071   1.251   5.606   6.527
 4391SOL    HW114072   1.327   5.601   6.593
 4391SOL    HW214073   1.198   5.689   6.545
 4392SOL     OW14074   6.418   3.496   5.269
 4392SOL    HW114075   6.358   3.576   5.275
 4392SOL    HW214076   6.421   3.450   5.357
 4393SOL     OW14077   5.250   6.480   2.917
 4393SOL    HW114078   5.183   6.528   2.860
 4393SOL    HW214079   5.272   6.536   2.997
 4394SOL     OW14080   6.430   5.317   3.020
 4394SOL    HW114081   6.409   5.392   3.083
 4394SOL    HW214082   6.527   5.296   3.024
 4395SOL     OW14083   4.114   1.911   1.864
 4395SOL    HW114084   4.169   1.832   1.892
 4395SOL    HW214085   4.040   1.925   1.929
 4396SOL     OW14086   2.424   2.010   4.004
 4396SOL    HW114087   2.487   1.953   4.057
 4396SOL    HW214088   2.476   2.062   3.936
 4397SOL     OW14089   0.357   1.567   4.732
 4397SOL    HW114090   0.399   1.529   4.814
 4397SOL    HW214091   0.372   1.504   4.655
 4398SOL     OW14092   1.289   4.563   5.359
 4398SOL    HW114093   1.215   4.533   5.420
 4398SOL    HW214094   1.363   4.496   5.362
 4399SOL     OW14095   2.105   0.369   2.031
 4399SOL    HW114096   2.166   0.292   2.013
 4399SOL    HW214097   2.142   0.423   2.107
 4400SOL     OW14098   2.024   6.487   4.711
 4400SOL    HW114099   2.037   6.585   4.691
 4400SOL    HW214100   2.027   6.435   4.625
 4401SOL     OW14101   5.465   6.088   6.316
 4401SOL    HW114102   5.418   6.176   6.305
 4401SOL    HW214103   5.549   6.101   6.369
 4402SOL     OW14104   1.933   5.863   2.644
 4402SOL    HW114105   1.995   5.897   2.714
 4402SOL    HW214106   1.844   5.843   2.685
 4403SOL     OW14107   0.079   6.870   3.737
 4403SOL    HW114108   0.066   6.969   3.734
 4403SOL    HW214109   0.090   6.841   3.832
 4404SOL     OW14110   1.081   4.011   5.706
 4404SOL    HW114111   1.158   4.058   5.661
 4404SOL    HW214112   1.020   3.973   5.636
 4405SOL     OW14113   3.017   3.804   0.402
 4405SOL    HW114114   3.035   3.894   0.362
 4405SOL    HW214115   2.962   3.750   0.339
 4406SOL     OW14116   5.774   4.556   1.444
 4406SOL    HW114117   5.813   4.579   1.533
 4406SOL    HW214118   5.845   4.562   1.374
 4407SOL     OW14119   6.903   4.703   0.594
 4407SOL    HW114120   6.876   4.797   0.615
 4407SOL    HW214121   6.989   4.682   0.640
 4408SOL     OW14122   4.952   0.911   0.857
 4408SOL    HW114123   4.985   0.999   0.893
 4408SOL    HW214124   4.852   0.909   0.861
 4409SOL     OW14125   4.189   0.875   2.354
 4409SOL    HW114126   4.254   0.945   2.380
 4409SOL    HW214127   4.221   0.786   2.387
 4410SOL     OW14128   1.661   4.782   0.148
 4410SOL    HW114129   1.727   4.785   0.072
 4410SOL    HW214130   1.706   4.743   0.229
 4411SOL     OW14131   4.008   3.299   3.595
 4411SOL    HW114132   4.026   3.290   3.693
 4411SOL    HW214133   4.044   3.387   3.562
 4412SOL     OW14134   3.565   1.697   4.507
 4412SOL    HW114135   3.509   1.779   4.490
 4412SOL    HW214136   3.531   1.622   4.451
 4413SOL     OW14137   4.899   5.993   4.985
 4413SOL    HW114138   4.884   6.080   4.939
 4413SOL    HW214139   4.894   5.919   4.918
 4414SOL     OW14140   4.170   4.956   1.719
 4414SOL    HW114141   4.097   4.918   1.662
 4414SOL    HW214142   4.228   4.881   1.751
 4415SOL     OW14143   4.009   3.947   6.319
 4415SOL    HW114144   3.962   4.010   6.381
 4415SOL    HW214145   3.965   3.857   6.324
 4416SOL     OW14146   3.041   0.355   4.466
 4416SOL    HW114147   3.096   0.380   4.545
 4416SOL    HW214148   3.072   0.408   4.386
 4417SOL     OW14149   6.750   4.350   2.704
 4417SOL    HW114150   6.708   4.331   2.792
 4417SOL    HW214151   6.779   4.446   2.700
 4418SOL     OW14152   5.258   0.742   4.230
 4418SOL    HW114153   5.314   0.752   4.148
 4418SOL    HW214154   5.206   0.826   4.246
 4419SOL     OW14155   5.909   6.172   0.497
 4419SOL    HW114156   5.827   6.229   0.497
 4419SOL    HW214157   5.881   6.075   0.492
 4420SOL     OW14158   5.073   1.764   0.899
 4420SOL    HW114159   5.142   1.826   0.936
 4420SOL    HW214160   4.983   1.807   0.903
 4421SOL     OW14161   1.816   1.094   3.482
 4421SOL    HW114162   1.764   1.016   3.518
 4421SOL    HW214163   1.886   1.061   3.419
 4422SOL     OW14164   2.304   3.700   5.980
 4422SOL    HW114165   2.271   3.680   5.888
 4422SOL    HW214166   2.241   3.764   6.024
 4423SOL     OW14167   1.490   2.730   6.044
 4423SOL    HW114168   1.455   2.754   6.135
 4423SOL    HW214169   1.574   2.677   6.054
 4424SOL     OW14170   5.616   6.617   3.793
 4424SOL    HW114171   5.631   6.576   3.883
 4424SOL    HW214172   5.649   6.712   3.794
 4425SOL     OW14173   3.651   5.727   5.712
 4425SOL    HW114174   3.625   5.686   5.624
 4425SOL    HW214175   3.590   5.804   5.732
 4426SOL     OW14176   0.083   1.976   4.661
 4426SOL    HW114177   0.150   1.916   4.618
 4426SOL    HW214178   0.114   2.071   4.655
 4427SOL     OW14179   6.917   6.767   2.676
 4427SOL    HW114180   7.008   6.730   2.694
 4427SOL    HW214181   6.890   6.828   2.750
 4428SOL     OW14182   3.069   5.194   2.584
 4428SOL    HW114183   3.115   5.181   2.496
 4428SOL    HW214184   3.098   5.281   2.623
 4429SOL     OW14185   2.969   0.931   4.161
 4429SOL    HW114186   2.908   0.862   4.201
 4429SOL    HW214187   2.927   0.971   4.080
 4430SOL     OW14188   5.612   3.184   4.034
 4430SOL    HW114189   5.639   3.233   3.951
 4430SOL    HW214190   5.677   3.110   4.051
 4431SOL     OW14191   1.580   1.286   2.061
 4431SOL    HW114192   1.563   1.372   2.108
 4431SOL    HW214193   1.500   1.227   2.068
 4432SOL     OW14194   3.167   3.884   3.776
 4432SOL    HW114195   3.083   3.833   3.753
 4432SOL    HW214196   3.209   3.918   3.692
 4433SOL     OW14197   6.067   0.631   4.469
 4433SOL    HW114198   6.020   0.642   4.557
 4433SOL    HW214199   6.158   0.592   4.484
 4434SOL     OW14200   4.108   2.158   3.350
 4434SOL    HW114201   4.196   2.114   3.370
 4434SOL    HW214202   4.119   2.218   3.271
 4435SOL     OW14203   4.357   3.854   0.810
 4435SOL    HW114204   4.268   3.852   0.855
 4435SOL    HW214205   4.423   3.804   0.865
 4436SOL     OW14206   3.259   2.254   0.728
 4436SOL    HW114207   3.338   2.312   0.747
 4436SOL    HW214208   3.224   2.274   0.636
 4437SOL     OW14209   5.499   1.050   3.769
 4437SOL    HW114210   5.446   1.132   3.792
 4437SOL    HW214211   5.590   1.078   3.738
 4438SOL     OW14212   4.246   1.162   6.585
 4438SOL    HW114213   4.287   1.176   6.494
 4438SOL    HW214214   4.242   1.249   6.634
 4439SOL     OW14215   0.197   6.129   1.493
 4439SOL    HW114216   0.153   6.176   1.569
 4439SOL    HW214217   0.291   6.108   1.516
 4440SOL     OW14218   1.547   4.410   0.276
 4440SOL    HW114219   1.635   4.386   0.235
 4440SOL    HW214220   1.562   4.460   0.361
 4441SOL     OW14221   0.029   1.491   2.637
 4441SOL    HW114222   0.038   1.590   2.642
 4441SOL    HW214223   6.963   1.466   2.606
 4442SOL     OW14224   3.264   6.322   4.151
 4442SOL    HW114225   3.182   6.271   4.176
 4442SOL    HW214226   3.328   6.323   4.228
 4443SOL     OW14227   0.227   2.740   0.669
 4443SOL    HW114228   0.321   2.758   0.699
 4443SOL    HW214229   0.218   2.763   0.572
 4444SOL     OW14230   3.581   5.812   6.047
 4444SOL    HW114231   3.618   5.721   6.065
 4444SOL    HW214232   3.500   5.805   5.990
 4445SOL     OW14233   0.247   0.521   1.056
 4445SOL    HW114234   0.255   0.620   1.054
 4445SOL    HW214235   0.215   0.491   1.146
 4446SOL     OW14236   5.600   1.310   1.865
 4446SOL    HW114237   5.519   1.251   1.865
 4446SOL    HW214238   5.681   1.255   1.843
 4447SOL     OW14239   6.154   3.731   5.963
 4447SOL    HW114240   6.190   3.793   5.894
 4447SOL    HW214241   6.201   3.746   6.050
 4448SOL     OW14242   3.426   4.208   0.957
 4448SOL    HW114243   3.405   4.121   1.003
 4448SOL    HW214244   3.342   4.250   0.925
 4449SOL     OW14245   4.004   0.582   6.194
 4449SOL    HW114246   4.053   0.634   6.264
 4449SOL    HW214247   4.016   0.627   6.106
 4450SOL     OW14248   4.021   3.547   4.349
 4450SOL    HW114249   4.040   3.473   4.414
 4450SOL    HW214250   4.006   3.632   4.399
 4451SOL     OW14251   5.614   3.828   2.945
 4451SOL    HW114252   5.566   3.915   2.935
 4451SOL    HW214253   5.554   3.754   2.917
 4452SOL     OW14254   5.503   6.802   5.250
 4452SOL    HW114255   5.603   6.808   5.258
 4452SOL    HW214256   5.477   6.811   5.153
 4453SOL     OW14257   6.289   2.471   1.227
 4453SOL    HW114258   6.311   2.540   1.158
 4453SOL    HW214259   6.192   2.476   1.251
 4454SOL     OW14260   5.289   2.433   6.977
 4454SOL    HW114261   5.385   2.406   6.971
 4454SOL    HW214262   5.246   2.387   0.029
 4455SOL     OW14263   3.521   0.447   6.159
 4455SOL    HW114264   3.426   0.458   6.190
 4455SOL    HW214265   3.575   0.526   6.187
 4456SOL     OW14266   2.639   5.043   2.500
 4456SOL    HW114267   2.644   5.143   2.498
 4456SOL    HW214268   2.694   5.009   2.577
 4457SOL     OW14269   4.315   2.189   0.399
 4457SOL    HW114270   4.241   2.224   0.342
 4457SOL    HW214271   4.279   2.121   0.463
 4458SOL     OW14272   0.850   3.808   6.456
 4458SOL    HW114273   0.786   3.737   6.487
 4458SOL    HW214274   0.919   3.824   6.526
 4459SOL     OW14275   5.053   0.518   3.234
 4459SOL    HW114276   4.978   0.454   3.224
 4459SOL    HW214277   5.018   0.607   3.264
 4460SOL     OW14278   2.672   3.152   5.624
 4460SOL    HW114279   2.704   3.246   5.624
 4460SOL    HW214280   2.609   3.137   5.701
 4461SOL     OW14281   0.847   0.613   2.590
 4461SOL    HW114282   0.837   0.659   2.502
 4461SOL    HW214283   0.915   0.660   2.645
 4462SOL     OW14284   6.877   3.563   1.575
 4462SOL    HW114285   6.943   3.632   1.546
 4462SOL    HW214286   6.861   3.499   1.500
 4463SOL     OW14287   2.721   2.629   6.831
 4463SOL    HW114288   2.699   2.686   6.911
 4463SOL    HW214289   2.770   2.685   6.764
 4464SOL     OW14290   5.814   4.912   6.775
 4464SOL    HW114291   5.746   4.917   6.848
 4464SOL    HW214292   5.836   4.816   6.756
 4465SOL     OW14293   2.228   5.563   3.648
 4465SOL    HW114294   2.257   5.635   3.584
 4465SOL    HW214295   2.230   5.475   3.601
 4466SOL     OW14296   1.474   0.475   1.811
 4466SOL    HW114297   1.457   0.573   1.819
 4466SOL    HW214298   1.421   0.426   1.881
 4467SOL     OW14299   1.411   6.115   3.471
 4467SOL    HW114300   1.344   6.096   3.544
 4467SOL    HW214301   1.481   6.177   3.506
 4468SOL     OW14302   1.350   2.291   0.533
 4468SOL    HW114303   1.449   2.277   0.535
 4468SOL    HW214304   1.304   2.202   0.543
 4469SOL     OW14305   3.606   0.145   1.362
 4469SOL    HW114306   3.703   0.139   1.339
 4469SOL    HW214307   3.590   0.230   1.413
 4470SOL     OW14308   6.391   3.737   1.865
 4470SOL    HW114309   6.360   3.695   1.950
 4470SOL    HW214310   6.386   3.837   1.873
 4471SOL     OW14311   6.763   1.892   0.299
 4471SOL    HW114312   6.668   1.868   0.282
 4471SOL    HW214313   6.823   1.822   0.262
 4472SOL     OW14314   1.659   2.988   3.565
 4472SOL    HW114315   1.706   2.941   3.489
 4472SOL    HW214316   1.692   3.082   3.572
 4473SOL     OW14317   6.524   2.066   3.292
 4473SOL    HW114318   6.474   2.056   3.378
 4473SOL    HW214319   6.490   2.147   3.243
 4474SOL     OW14320   3.302   0.899   1.857
 4474SOL    HW114321   3.221   0.958   1.862
 4474SOL    HW214322   3.306   0.842   1.939
 4475SOL     OW14323   1.878   3.775   2.696
 4475SOL    HW114324   1.828   3.825   2.625
 4475SOL    HW214325   1.826   3.694   2.723
 4476SOL     OW14326   5.010   6.374   3.886
 4476SOL    HW114327   5.079   6.310   3.921
 4476SOL    HW214328   4.951   6.327   3.821
 4477SOL     OW14329   1.666   7.019   5.317
 4477SOL    HW114330   1.686   0.082   5.359
 4477SOL    HW214331   1.643   0.007   5.220
 4478SOL     OW14332   2.929   6.039   2.377
 4478SOL    HW114333   2.883   5.976   2.315
 4478SOL    HW214334   2.913   6.010   2.472
 4479SOL     OW14335   0.856   0.311   0.721
 4479SOL    HW114336   0.826   0.355   0.806
 4479SOL    HW214337   0.886   0.381   0.656
 4480SOL     OW14338   1.727   3.691   5.249
 4480SOL    HW114339   1.723   3.765   5.317
 4480SOL    HW214340   1.637   3.680   5.207
 4481SOL     OW14341   2.855   6.892   4.966
 4481SOL    HW114342   2.935   6.831   4.959
 4481SOL    HW214343   2.790   6.869   4.893
 4482SOL     OW14344   0.258   4.227   3.797
 4482SOL    HW114345   0.280   4.138   3.755
 4482SOL    HW214346   0.335   4.257   3.853
 4483SOL     OW14347   5.592   3.259   1.513
 4483SOL    HW114348   5.582   3.357   1.531
 4483SOL    HW214349   5.524   3.230   1.445
 4484SOL     OW14350   2.993   2.569   5.348
 4484SOL    HW114351   2.903   2.563   5.304
 4484SOL    HW214352   3.059   2.515   5.296
 4485SOL     OW14353   5.420   2.539   6.037
 4485SOL    HW114354   5.330   2.572   6.067
 4485SOL    HW214355   5.460   2.606   5.974
 4486SOL     OW14356   5.575   3.681   4.631
 4486SOL    HW114357   5.518   3.612   4.588
 4486SOL    HW214358   5.526   3.721   4.709
 4487SOL     OW14359   2.710   3.054   6.425
 4487SOL    HW114360   2.616   3.037   6.454
 4487SOL    HW214361   2.756   3.111   6.493
 4488SOL     OW14362   6.141   3.294   5.169
 4488SOL    HW114363   6.147   3.393   5.159
 4488SOL    HW214364   6.168   3.250   5.083
 4489SOL     OW14365   4.944   5.768   4.453
 4489SOL    HW114366   4.932   5.854   4.403
 4489SOL    HW214367   5.042   5.751   4.466
 4490SOL     OW14368   5.896   2.319   2.260
 4490SOL    HW114369   5.966   2.383   2.289
 4490SOL    HW214370   5.856   2.351   2.174
 4491SOL     OW14371   0.435   3.277   3.893
 4491SOL    HW114372   0.425   3.355   3.831
 4491SOL    HW214373   0.453   3.195   3.840
 4492SOL     OW14374   4.902   2.992   0.710
 4492SOL    HW114375   4.802   2.988   0.708
 4492SOL    HW214376   4.932   3.081   0.675
 4493SOL     OW14377   4.756   6.272   6.122
 4493SOL    HW114378   4.763   6.173   6.131
 4493SOL    HW214379   4.802   6.302   6.039
 4494SOL     OW14380   6.766   1.492   5.789
 4494SOL    HW114381   6.829   1.494   5.867
 4494SOL    HW214382   6.684   1.440   5.813
 4495SOL     OW14383   4.598   6.200   3.843
 4495SOL    HW114384   4.588   6.221   3.941
 4495SOL    HW214385   4.562   6.277   3.789
 4496SOL     OW14386   4.588   5.742   0.888
 4496SOL    HW114387   4.574   5.727   0.790
 4496SOL    HW214388   4.500   5.759   0.933
 4497SOL     OW14389   4.621   0.523   0.233
 4497SOL    HW114390   4.718   0.519   0.211
 4497SOL    HW214391   4.596   0.440   0.285
 4498SOL     OW14392   0.274   2.814   6.062
 4498SOL    HW114393   0.342   2.820   5.989
 4498SOL    HW214394   0.308   2.861   6.143
 4499SOL     OW14395   0.219   3.605   3.875
 4499SOL    HW114396   0.214   3.582   3.972
 4499SOL    HW214397   0.309   3.643   3.854
 4500SOL     OW14398   3.012   3.426   4.296
 4500SOL    HW114399   2.971   3.489   4.361
 4500SOL    HW214400   3.096   3.466   4.258
 4501SOL     OW14401   0.158   3.517   5.787
 4501SOL    HW114402   0.255   3.528   5.767
 4501SOL    HW214403   0.114   3.466   5.713
 4502SOL     OW14404   1.935   1.902   6.642
 4502SOL    HW114405   1.869   1.977   6.639
 4502SOL    HW214406   1.888   1.817   6.666
 4503SOL     OW14407   3.497   0.043   2.501
 4503SOL    HW114408   3.447   0.014   2.582
 4503SOL    HW214409   3.579   7.013   2.490
 4504SOL     OW14410   6.892   1.472   4.708
 4504SOL    HW114411   6.898   1.560   4.755
 4504SOL    HW214412   6.981   1.450   4.668
 4505SOL     OW14413   6.434   5.762   3.318
 4505SOL    HW114414   6.459   5.843   3.265
 4505SOL    HW214415   6.345   5.776   3.361
 4506SOL     OW14416   4.671   2.743   4.215
 4506SOL    HW114417   4.686   2.832   4.257
 4506SOL    HW214418   4.621   2.684   4.278
 4507SOL     OW14419   5.265   4.649   2.175
 4507SOL    HW114420   5.360   4.620   2.169
 4507SOL    HW214421   5.255   4.739   2.133
 4508SOL     OW14422   0.793   5.216   5.788
 4508SOL    HW114423   0.703   5.200   5.829
 4508SOL    HW214424   0.783   5.234   5.690
 4509SOL     OW14425   5.549   2.714   3.696
 4509SOL    HW114426   5.488   2.750   3.767
 4509SOL    HW214427   5.568   2.618   3.714
 4510SOL     OW14428   5.426   0.259   5.592
 4510SOL    HW114429   5.518   0.297   5.583
 4510SOL    HW214430   5.364   0.330   5.627
 4511SOL     OW14431   6.659   3.817   6.649
 4511SOL    HW114432   6.728   3.745   6.643
 4511SOL    HW214433   6.595   3.809   6.572
 4512SOL     OW14434   2.390   6.533   5.794
 4512SOL    HW114435   2.308   6.492   5.756
 4512SOL    HW214436   2.380   6.632   5.797
 4513SOL     OW14437   4.983   6.520   0.589
 4513SOL    HW114438   4.972   6.422   0.576
 4513SOL    HW214439   4.941   6.569   0.512
 4514SOL     OW14440   5.150   1.275   5.478
 4514SOL    HW114441   5.152   1.299   5.381
 4514SOL    HW214442   5.210   1.196   5.494
 4515SOL     OW14443   6.763   3.893   5.848
 4515SOL    HW114444   6.678   3.901   5.899
 4515SOL    HW214445   6.824   3.969   5.871
 4516SOL     OW14446   1.674   1.046   6.230
 4516SOL    HW114447   1.616   1.127   6.235
 4516SOL    HW214448   1.728   1.037   6.314
 4517SOL     OW14449   1.971   0.452   0.028
 4517SOL    HW114450   1.893   0.461   6.992
 4517SOL    HW214451   2.044   0.513   7.025
 4518SOL     OW14452   6.550   1.666   3.681
 4518SOL    HW114453   6.637   1.630   3.714
 4518SOL    HW214454   6.563   1.710   3.593
 4519SOL     OW14455   5.408   0.116   1.774
 4519SOL    HW114456   5.453   0.096   1.861
 4519SOL    HW214457   5.339   0.187   1.787
 4520SOL     OW14458   5.554   5.647   3.603
 4520SOL    HW114459   5.526   5.564   3.651
 4520SOL    HW214460   5.634   5.627   3.546
 4521SOL     OW14461   5.014   1.747   4.412
 4521SOL    HW114462   5.010   1.845   4.392
 4521SOL    HW214463   4.921   1.711   4.421
 4522SOL     OW14464   5.780   0.102   3.708
 4522SOL    HW114465   5.838   0.141   3.780
 4522SOL    HW214466   5.789   0.157   3.625
 4523SOL     OW14467   1.175   4.172   6.917
 4523SOL    HW114468   1.095   4.112   6.917
 4523SOL    HW214469   1.258   4.117   6.914
 4524SOL     OW14470   5.298   2.154   4.847
 4524SOL    HW114471   5.253   2.166   4.758
 4524SOL    HW214472   5.341   2.241   4.874
 4525SOL     OW14473   6.287   1.238   3.362
 4525SOL    HW114474   6.237   1.248   3.276
 4525SOL    HW214475   6.237   1.286   3.435
 4526SOL     OW14476   4.883   0.517   0.799
 4526SOL    HW114477   4.867   0.418   0.797
 4526SOL    HW214478   4.796   0.565   0.802
 4527SOL     OW14479   4.184   0.806   3.970
 4527SOL    HW114480   4.089   0.776   3.964
 4527SOL    HW214481   4.198   0.886   3.911
 4528SOL     OW14482   4.428   6.786   0.103
 4528SOL    HW114483   4.387   6.875   0.122
 4528SOL    HW214484   4.400   6.721   0.173
 4529SOL     OW14485   3.227   1.803   4.804
 4529SOL    HW114486   3.182   1.858   4.734
 4529SOL    HW214487   3.217   1.847   4.893
 4530SOL     OW14488   6.955   3.180   5.718
 4530SOL    HW114489   0.025   3.197   5.739
 4530SOL    HW214490   6.942   3.178   5.619
 4531SOL     OW14491   0.696   3.273   3.488
 4531SOL    HW114492   0.709   3.303   3.394
 4531SOL    HW214493   0.770   3.309   3.545
 4532SOL     OW14494   7.007   1.133   2.389
 4532SOL    HW114495   0.007   1.138   2.485
 4532SOL    HW214496   6.921   1.180   2.375
 4533SOL     OW14497   1.119   0.415   2.484
 4533SOL    HW114498   1.028   0.436   2.520
 4533SOL    HW214499   1.189   0.462   2.539
 4534SOL     OW14500   6.195   4.014   4.520
 4534SOL    HW114501   6.120   4.052   4.466
 4534SOL    HW214502   6.199   4.061   4.608
 4535SOL     OW14503   4.896   1.987   2.624
 4535SOL    HW114504   4.915   1.924   2.699
 4535SOL    HW214505   4.832   2.058   2.655
 4536SOL     OW14506   5.032   2.487   3.918
 4536SOL    HW114507   5.034   2.529   4.009
 4536SOL    HW214508   5.014   2.389   3.927
 4537SOL     OW14509   4.133   2.952   5.650
 4537SOL    HW114510   4.186   2.868   5.638
 4537SOL    HW214511   4.195   3.029   5.662
 4538SOL     OW14512   2.606   0.591   4.613
 4538SOL    HW114513   2.663   0.548   4.682
 4538SOL    HW214514   2.639   0.567   4.522
 4539SOL     OW14515   2.023   0.632   4.422
 4539SOL    HW114516   2.011   0.571   4.343
 4539SOL    HW214517   1.934   0.670   4.448
 4540SOL     OW14518   3.521   3.010   4.623
 4540SOL    HW114519   3.560   2.969   4.705
 4540SOL    HW214520   3.557   2.962   4.542
 4541SOL     OW14521   5.789   1.086   0.613
 4541SOL    HW114522   5.717   1.138   0.568
 4541SOL    HW214523   5.876   1.100   0.566
 4542SOL     OW14524   6.136   6.812   1.963
 4542SOL    HW114525   6.216   6.759   1.934
 4542SOL    HW214526   6.057   6.785   1.908
 4543SOL     OW14527   5.143   2.334   0.256
 4543SOL    HW114528   5.054   2.341   0.210
 4543SOL    HW214529   5.146   2.251   0.311
 4544SOL     OW14530   2.921   6.501   5.247
 4544SOL    HW114531   2.913   6.402   5.251
 4544SOL    HW214532   2.925   6.539   5.340
 4545SOL     OW14533   5.814   2.826   4.650
 4545SOL    HW114534   5.840   2.917   4.681
 4545SOL    HW214535   5.808   2.765   4.729
 4546SOL     OW14536   1.214   1.742   6.295
 4546SOL    HW114537   1.134   1.685   6.315
 4546SOL    HW214538   1.249   1.720   6.204
 4547SOL     OW14539   6.618   2.664   3.060
 4547SOL    HW114540   6.551   2.727   3.021
 4547SOL    HW214541   6.684   2.715   3.114
 4548SOL     OW14542   1.537   4.107   4.861
 4548SOL    HW114543   1.573   4.200   4.856
 4548SOL    HW214544   1.607   4.046   4.898
 4549SOL     OW14545   6.269   4.092   2.153
 4549SOL    HW114546   6.304   4.183   2.175
 4549SOL    HW214547   6.179   4.100   2.111
 4550SOL     OW14548   0.721   5.786   2.572
 4550SOL    HW114549   0.821   5.777   2.569
 4550SOL    HW214550   0.694   5.871   2.528
 4551SOL     OW14551   6.460   1.743   5.889
 4551SOL    HW114552   6.414   1.813   5.834
 4551SOL    HW214553   6.559   1.762   5.890
 4552SOL     OW14554   6.679   2.780   6.986
 4552SOL    HW114555   6.762   2.776   0.016
 4552SOL    HW214556   6.698   2.828   6.901
 4553SOL     OW14557   3.977   4.308   6.990
 4553SOL    HW114558   4.035   4.227   6.989
 4553SOL    HW214559   4.026   4.383   0.009
 4554SOL     OW14560   4.283   1.020   1.656
 4554SOL    HW114561   4.274   1.050   1.561
 4554SOL    HW214562   4.195   1.028   1.702
 4555SOL     OW14563   3.422   1.885   5.573
 4555SOL    HW114564   3.437   1.943   5.493
 4555SOL    HW214565   3.365   1.933   5.639
 4556SOL     OW14566   4.563   2.477   3.125
 4556SOL    HW114567   4.544   2.494   3.221
 4556SOL    HW214568   4.607   2.557   3.085
 4557SOL     OW14569   5.462   6.976   5.470
 4557SOL    HW114570   5.414   0.031   5.438
 4557SOL    HW214571   5.455   6.904   5.401
 4558SOL     OW14572   6.774   3.604   5.793
 4558SOL    HW114573   6.793   3.552   5.876
 4558SOL    HW214574   6.798   3.700   5.807
 4559SOL     OW14575   0.648   4.767   1.227
 4559SOL    HW114576   0.711   4.701   1.186
 4559SOL    HW214577   0.671   4.779   1.324
 4560SOL     OW14578   4.991   4.936   3.922
 4560SOL    HW114579   4.912   4.927   3.862
 4560SOL    HW214580   4.976   5.012   3.985
 4561SOL     OW14581   3.013   0.566   1.289
 4561SOL    HW114582   3.060   0.613   1.364
 4561SOL    HW214583   2.955   0.494   1.325
 4562SOL     OW14584   3.104   5.899   5.179
 4562SOL    HW114585   3.096   5.822   5.242
 4562SOL    HW214586   3.112   5.984   5.231
 4563SOL     OW14587   0.231   4.162   0.296
 4563SOL    HW114588   0.309   4.143   0.355
 4563SOL    HW214589   0.175   4.234   0.337
 4564SOL     OW14590   0.124   6.756   1.191
 4564SOL    HW114591   0.215   6.716   1.180
 4564SOL    HW214592   0.104   6.814   1.112
 4565SOL     OW14593   0.265   1.419   5.519
 4565SOL    HW114594   0.236   1.352   5.587
 4565SOL    HW214595   0.232   1.391   5.429
 4566SOL     OW14596   6.816   1.299   1.072
 4566SOL    HW114597   6.864   1.343   0.996
 4566SOL    HW214598   6.865   1.216   1.099
 4567SOL     OW14599   0.504   1.013   0.121
 4567SOL    HW114600   0.544   1.102   0.098
 4567SOL    HW214601   0.421   1.027   0.176
 4568SOL     OW14602   1.239   4.933   5.185
 4568SOL    HW114603   1.318   4.955   5.128
 4568SOL    HW214604   1.269   4.887   5.268
 4569SOL     OW14605   2.180   1.547   2.759
 4569SOL    HW114606   2.177   1.606   2.841
 4569SOL    HW214607   2.171   1.603   2.677
 4570SOL     OW14608   0.514   5.089   3.074
 4570SOL    HW114609   0.477   5.074   3.166
 4570SOL    HW214610   0.520   5.187   3.056
 4571SOL     OW14611   3.474   3.545   6.133
 4571SOL    HW114612   3.468   3.622   6.069
 4571SOL    HW214613   3.436   3.463   6.090
 4572SOL     OW14614   1.054   6.786   6.554
 4572SOL    HW114615   1.151   6.809   6.560
 4572SOL    HW214616   1.008   6.817   6.637
 4573SOL     OW14617   5.973   5.823   0.750
 4573SOL    HW114618   6.054   5.780   0.709
 4573SOL    HW214619   5.994   5.917   0.775
 4574SOL     OW14620   6.542   3.927   1.264
 4574SOL    HW114621   6.586   3.887   1.344
 4574SOL    HW214622   6.458   3.974   1.293
 4575SOL     OW14623   6.739   2.128   6.669
 4575SOL    HW114624   6.758   2.218   6.628
 4575SOL    HW214625   6.655   2.091   6.628
 4576SOL     OW14626   1.946   6.228   6.568
 4576SOL    HW114627   1.911   6.282   6.491
 4576SOL    HW214628   1.969   6.289   6.643
 4577SOL     OW14629   0.762   2.352   3.845
 4577SOL    HW114630   0.690   2.414   3.813
 4577SOL    HW214631   0.820   2.326   3.768
 4578SOL     OW14632   0.721   2.950   4.313
 4578SOL    HW114633   0.649   2.888   4.284
 4578SOL    HW214634   0.680   3.029   4.358
 4579SOL     OW14635   5.382   1.841   2.581
 4579SOL    HW114636   5.461   1.788   2.612
 4579SOL    HW214637   5.301   1.782   2.580
 4580SOL     OW14638   5.054   5.625   0.086
 4580SOL    HW114639   4.988   5.676   0.141
 4580SOL    HW214640   5.007   5.552   0.037
 4581SOL     OW14641   3.045   5.394   3.066
 4581SOL    HW114642   3.007   5.463   3.129
 4581SOL    HW214643   3.014   5.303   3.094
 4582SOL     OW14644   5.574   6.426   4.680
 4582SOL    HW114645   5.598   6.504   4.736
 4582SOL    HW214646   5.583   6.342   4.734
 4583SOL     OW14647   2.752   0.893   5.139
 4583SOL    HW114648   2.839   0.943   5.135
 4583SOL    HW214649   2.762   0.816   5.202
 4584SOL     OW14650   0.360   4.980   5.399
 4584SOL    HW114651   0.386   4.906   5.461
 4584SOL    HW214652   0.368   4.949   5.304
 4585SOL     OW14653   3.127   6.593   2.647
 4585SOL    HW114654   3.045   6.552   2.606
 4585SOL    HW214655   3.156   6.537   2.725
 4586SOL     OW14656   3.771   5.288   0.370
 4586SOL    HW114657   3.740   5.196   0.391
 4586SOL    HW214658   3.839   5.284   0.296
 4587SOL     OW14659   4.177   3.244   2.054
 4587SOL    HW114660   4.161   3.164   1.996
 4587SOL    HW214661   4.276   3.262   2.059
 4588SOL     OW14662   3.876   4.023   5.677
 4588SOL    HW114663   3.896   4.119   5.659
 4588SOL    HW214664   3.792   4.015   5.731
 4589SOL     OW14665   5.816   1.139   1.860
 4589SOL    HW114666   5.885   1.211   1.859
 4589SOL    HW214667   5.860   1.050   1.870
 4590SOL     OW14668   4.260   6.034   2.019
 4590SOL    HW114669   4.318   5.972   2.072
 4590SOL    HW214670   4.259   6.124   2.063
 4591SOL     OW14671   0.510   6.088   5.246
 4591SOL    HW114672   0.500   6.109   5.149
 4591SOL    HW214673   0.465   6.158   5.300
 4592SOL     OW14674   4.091   2.212   2.036
 4592SOL    HW114675   4.069   2.285   2.101
 4592SOL    HW214676   4.153   2.146   2.080
 4593SOL     OW14677   3.730   5.752   4.146
 4593SOL    HW114678   3.753   5.656   4.133
 4593SOL    HW214679   3.743   5.802   4.061
 4594SOL     OW14680   3.362   2.114   1.544
 4594SOL    HW114681   3.324   2.060   1.469
 4594SOL    HW214682   3.446   2.159   1.514
 4595SOL     OW14683   3.669   2.927   5.725
 4595SOL    HW114684   3.754   2.937   5.673
 4595SOL    HW214685   3.671   2.989   5.804
 4596SOL     OW14686   5.980   6.430   2.600
 4596SOL    HW114687   5.940   6.403   2.513
 4596SOL    HW214688   5.978   6.530   2.608
 4597SOL     OW14689   5.208   4.569   6.948
 4597SOL    HW114690   5.248   4.540   6.861
 4597SOL    HW214691   5.250   4.517   7.022
 4598SOL     OW14692   1.658   5.603   6.914
 4598SOL    HW114693   1.695   5.520   6.957
 4598SOL    HW214694   1.635   5.584   6.819
 4599SOL     OW14695   1.452   4.404   0.613
 4599SOL    HW114696   1.390   4.468   0.567
 4599SOL    HW214697   1.494   4.450   0.691
 4600SOL     OW14698   1.327   5.214   5.979
 4600SOL    HW114699   1.275   5.282   5.928
 4600SOL    HW214700   1.267   5.140   6.008
 4601SOL     OW14701   1.651   0.173   4.947
 4601SOL    HW114702   1.667   0.251   5.008
 4601SOL    HW214703   1.725   0.165   4.881
 4602SOL     OW14704   0.942   5.970   1.167
 4602SOL    HW114705   0.921   5.947   1.072
 4602SOL    HW214706   1.036   5.944   1.188
 4603SOL     OW14707   3.810   6.071   1.025
 4603SOL    HW114708   3.752   6.124   1.087
 4603SOL    HW214709   3.852   5.995   1.075
 4604SOL     OW14710   4.731   0.528   2.022
 4604SOL    HW114711   4.683   0.451   2.064
 4604SOL    HW214712   4.795   0.567   2.088
 4605SOL     OW14713   4.679   1.468   3.058
 4605SOL    HW114714   4.743   1.544   3.046
 4605SOL    HW214715   4.661   1.454   3.155
 4606SOL     OW14716   0.964   6.921   1.563
 4606SOL    HW114717   0.970   6.940   1.661
 4606SOL    HW214718   0.978   6.823   1.547
 4607SOL     OW14719   2.433   2.669   1.027
 4607SOL    HW114720   2.352   2.628   0.984
 4607SOL    HW214721   2.418   2.678   1.125
 4608SOL     OW14722   0.741   5.574   3.588
 4608SOL    HW114723   0.795   5.569   3.672
 4608SOL    HW214724   0.742   5.486   3.542
 4609SOL     OW14725   3.750   5.627   6.145
 4609SOL    HW114726   3.842   5.591   6.127
 4609SOL    HW214727   3.756   5.698   6.215
 4610SOL     OW14728   5.392   2.385   0.375
 4610SOL    HW114729   5.388   2.368   0.474
 4610SOL    HW214730   5.305   2.358   0.334
 4611SOL     OW14731   6.282   5.672   5.965
 4611SOL    HW114732   6.254   5.662   6.060
 4611SOL    HW214733   6.376   5.705   5.961
 4612SOL     OW14734   1.052   6.393   0.708
 4612SOL    HW114735   0.967   6.349   0.680
 4612SOL    HW214736   1.083   6.353   0.794
 4613SOL     OW14737   2.831   5.790   2.536
 4613SOL    HW114738   2.902   5.736   2.489
 4613SOL    HW214739   2.833   5.768   2.634
 4614SOL     OW14740   0.875   4.248   5.127
 4614SOL    HW114741   0.906   4.305   5.051
 4614SOL    HW214742   0.947   4.183   5.151
 4615SOL     OW14743   1.752   1.024   0.192
 4615SOL    HW114744   1.670   1.067   0.230
 4615SOL    HW214745   1.821   1.014   0.264
 4616SOL     OW14746   5.842   0.315   5.881
 4616SOL    HW114747   5.926   0.350   5.842
 4616SOL    HW214748   5.768   0.322   5.814
 4617SOL     OW14749   1.470   2.323   2.383
 4617SOL    HW114750   1.444   2.413   2.418
 4617SOL    HW214751   1.387   2.269   2.367
 4618SOL     OW14752   2.190   2.238   5.135
 4618SOL    HW114753   2.143   2.214   5.220
 4618SOL    HW214754   2.156   2.181   5.060
 4619SOL     OW14755   3.889   6.161   3.185
 4619SOL    HW114756   3.864   6.235   3.124
 4619SOL    HW214757   3.986   6.167   3.208
 4620SOL     OW14758   3.043   4.057   0.220
 4620SOL    HW114759   2.992   4.108   0.289
 4620SOL    HW214760   2.993   4.058   0.133
 4621SOL     OW14761   5.248   1.591   3.251
 4621SOL    HW114762   5.328   1.536   3.273
 4621SOL    HW214763   5.171   1.530   3.230
 4622SOL     OW14764   1.445   3.556   0.556
 4622SOL    HW114765   1.543   3.565   0.537
 4622SOL    HW214766   1.415   3.633   0.612
 4623SOL     OW14767   7.014   6.540   0.882
 4623SOL    HW114768   7.004   6.458   0.827
 4623SOL    HW214769   6.941   6.545   0.950
 4624SOL     OW14770   5.401   6.828   3.007
 4624SOL    HW114771   5.390   6.744   3.061
 4624SOL    HW214772   5.317   6.847   2.958
 4625SOL     OW14773   1.405   4.670   0.143
 4625SOL    HW114774   1.450   4.581   0.145
 4625SOL    HW214775   1.473   4.743   0.149
 4626SOL     OW14776   5.571   5.807   2.239
 4626SOL    HW114777   5.598   5.820   2.144
 4626SOL    HW214778   5.623   5.732   2.279
 4627SOL     OW14779   3.296   5.731   3.692
 4627SOL    HW114780   3.205   5.773   3.698
 4627SOL    HW214781   3.344   5.742   3.779
 4628SOL     OW14782   5.934   3.679   4.001
 4628SOL    HW114783   5.970   3.600   3.950
 4628SOL    HW214784   5.950   3.762   3.949
 4629SOL     OW14785   2.442   5.074   4.808
 4629SOL    HW114786   2.387   5.091   4.726
 4629SOL    HW214787   2.437   4.977   4.833
 4630SOL     OW14788   3.775   5.648   2.632
 4630SOL    HW114789   3.805   5.676   2.723
 4630SOL    HW214790   3.853   5.613   2.581
 4631SOL     OW14791   2.220   6.228   3.622
 4631SOL    HW114792   2.314   6.239   3.591
 4631SOL    HW214793   2.212   6.145   3.677
 4632SOL     OW14794   4.446   5.032   3.223
 4632SOL    HW114795   4.370   4.972   3.198
 4632SOL    HW214796   4.415   5.098   3.292
 4633SOL     OW14797   6.134   2.002   3.664
 4633SOL    HW114798   6.121   2.071   3.593
 4633SOL    HW214799   6.103   2.038   3.752
 4634SOL     OW14800   2.137   4.407   6.850
 4634SOL    HW114801   2.176   4.494   6.880
 4634SOL    HW214802   2.054   4.387   6.903
 4635SOL     OW14803   5.488   3.723   1.457
 4635SOL    HW114804   5.470   3.822   1.453
 4635SOL    HW214805   5.525   3.700   1.547
 4636SOL     OW14806   1.767   5.376   7.021
 4636SOL    HW114807   1.746   5.296   6.966
 4636SOL    HW214808   1.810   5.348   0.081
 4637SOL     OW14809   1.535   0.753   0.237
 4637SOL    HW114810   1.615   0.748   0.177
 4637SOL    HW214811   1.556   0.710   0.325
 4638SOL     OW14812   4.070   2.593   6.863
 4638SOL    HW114813   4.013   2.675   6.865
 4638SOL    HW214814   4.154   2.610   6.915
 4639SOL     OW14815   1.936   4.366   5.087
 4639SOL    HW114816   1.992   4.445   5.112
 4639SOL    HW214817   1.987   4.282   5.106
 4640SOL     OW14818   5.148   5.208   3.562
 4640SOL    HW114819   5.136   5.298   3.520
 4640SOL    HW214820   5.150   5.218   3.661
 4641SOL     OW14821   3.138   6.744   4.165
 4641SOL    HW114822   3.051   6.787   4.142
 4641SOL    HW214823   3.122   6.670   4.229
 4642SOL     OW14824   0.498   6.533   5.171
 4642SOL    HW114825   0.568   6.521   5.241
 4642SOL    HW214826   0.443   6.614   5.193
 4643SOL     OW14827   5.511   2.475   1.140
 4643SOL    HW114828   5.600   2.432   1.122
 4643SOL    HW214829   5.458   2.417   1.202
 4644SOL     OW14830   1.461   5.050   4.942
 4644SOL    HW114831   1.544   5.033   4.995
 4644SOL    HW214832   1.483   5.109   4.863
 4645SOL     OW14833   0.922   0.367   3.833
 4645SOL    HW114834   0.842   0.356   3.775
 4645SOL    HW214835   0.897   0.419   3.915
 4646SOL     OW14836   2.840   6.685   3.349
 4646SOL    HW114837   2.800   6.614   3.406
 4646SOL    HW214838   2.794   6.688   3.261
 4647SOL     OW14839   1.437   6.983   3.192
 4647SOL    HW114840   1.425   6.933   3.278
 4647SOL    HW214841   1.351   0.002   3.167
 4648SOL     OW14842   3.825   0.843   1.428
 4648SOL    HW114843   3.856   0.867   1.519
 4648SOL    HW214844   3.801   0.926   1.377
 4649SOL     OW14845   5.164   6.808   5.783
 4649SOL    HW114846   5.231   6.865   5.830
 4649SOL    HW214847   5.187   6.801   5.686
 4650SOL     OW14848   4.232   5.867   3.900
 4650SOL    HW114849   4.310   5.906   3.850
 4650SOL    HW214850   4.261   5.842   3.993
 4651SOL     OW14851   7.018   1.801   0.849
 4651SOL    HW114852   6.973   1.861   0.782
 4651SOL    HW214853   0.091   1.816   0.845
 4652SOL     OW14854   0.552   0.269   4.463
 4652SOL    HW114855   0.505   0.350   4.427
 4652SOL    HW214856   0.493   0.223   4.529
 4653SOL     OW14857   6.022   5.837   6.910
 4653SOL    HW114858   5.983   5.744   6.911
 4653SOL    HW214859   5.952   5.902   6.880
 4654SOL     OW14860   0.207   6.710   0.311
 4654SOL    HW114861   0.193   6.627   0.257
 4654SOL    HW214862   0.119   6.750   0.337
 4655SOL     OW14863   6.756   5.689   1.844
 4655SOL    HW114864   6.785   5.661   1.752
 4655SOL    HW214865   6.679   5.633   1.874
 4656SOL     OW14866   1.196   0.339   3.220
 4656SOL    HW114867   1.197   0.433   3.186
 4656SOL    HW214868   1.150   0.335   3.308
 4657SOL     OW14869   4.688   6.474   1.557
 4657SOL    HW114870   4.744   6.398   1.526
 4657SOL    HW214871   4.615   6.492   1.490
 4658SOL     OW14872   3.811   1.288   2.328
 4658SOL    HW114873   3.802   1.199   2.371
 4658SOL    HW214874   3.882   1.341   2.376
 4659SOL     OW14875   2.806   3.987   5.672
 4659SOL    HW114876   2.901   4.003   5.699
 4659SOL    HW214877   2.776   4.059   5.609
 4660SOL     OW14878   1.167   3.057   5.334
 4660SOL    HW114879   1.184   2.961   5.311
 4660SOL    HW214880   1.252   3.109   5.325
 4661SOL     OW14881   3.532   4.006   5.623
 4661SOL    HW114882   3.532   4.069   5.701
 4661SOL    HW214883   3.525   4.059   5.538
 4662SOL     OW14884   4.587   0.440   5.084
 4662SOL    HW114885   4.545   0.500   5.153
 4662SOL    HW214886   4.664   0.391   5.125
 4663SOL     OW14887   0.978   1.849   2.438
 4663SOL    HW114888   1.002   1.766   2.487
 4663SOL    HW214889   1.028   1.853   2.352
 4664SOL     OW14890   2.173   1.806   0.457
 4664SOL    HW114891   2.180   1.707   0.457
 4664SOL    HW214892   2.201   1.842   0.367
 4665SOL     OW14893   4.111   0.069   0.594
 4665SOL    HW114894   4.155   0.077   0.684
 4665SOL    HW214895   4.028   0.014   0.602
 4666SOL     OW14896   1.463   1.937   0.591
 4666SOL    HW114897   1.549   1.985   0.609
 4666SOL    HW214898   1.477   1.839   0.600
 4667SOL     OW14899   6.486   4.367   1.103
 4667SOL    HW114900   6.496   4.326   1.012
 4667SOL    HW214901   6.505   4.465   1.097
 4668SOL     OW14902   5.971   2.538   2.987
 4668SOL    HW114903   5.952   2.462   2.924
 4668SOL    HW214904   6.066   2.566   2.978
 4669SOL     OW14905   3.237   6.959   0.371
 4669SOL    HW114906   3.231   6.907   0.457
 4669SOL    HW214907   3.154   7.013   0.358
 4670SOL     OW14908   2.952   1.960   4.900
 4670SOL    HW114909   2.938   1.968   4.998
 4670SOL    HW214910   2.985   2.047   4.863
 4671SOL     OW14911   6.553   2.628   2.362
 4671SOL    HW114912   6.641   2.674   2.351
 4671SOL    HW214913   6.537   2.567   2.284
 4672SOL     OW14914   2.648   4.790   6.246
 4672SOL    HW114915   2.708   4.821   6.319
 4672SOL    HW214916   2.596   4.711   6.276
 4673SOL     OW14917   4.870   6.470   0.838
 4673SOL    HW114918   4.927   6.519   0.772
 4673SOL    HW214919   4.873   6.517   0.926
 4674SOL     OW14920   5.105   6.983   6.944
 4674SOL    HW114921   5.149   0.005   7.020
 4674SOL    HW214922   5.121   0.007   6.859
 4675SOL     OW14923   0.701   2.815   6.782
 4675SOL    HW114924   0.706   2.914   6.798
 4675SOL    HW214925   0.711   2.796   6.684
 4676SOL     OW14926   6.640   5.640   3.925
 4676SOL    HW114927   6.640   5.567   3.993
 4676SOL    HW214928   6.716   5.625   3.861
 4677SOL     OW14929   2.996   2.225   0.826
 4677SOL    HW114930   3.001   2.186   0.917
 4677SOL    HW214931   3.089   2.238   0.791
 4678SOL     OW14932   1.951   4.478   3.279
 4678SOL    HW114933   1.953   4.410   3.352
 4678SOL    HW214934   2.043   4.514   3.263
 4679SOL     OW14935   4.169   6.945   1.751
 4679SOL    HW114936   4.138   6.901   1.667
 4679SOL    HW214937   4.268   6.932   1.760
 4680SOL     OW14938   3.981   1.047   6.616
 4680SOL    HW114939   3.985   0.947   6.625
 4680SOL    HW214940   4.074   1.083   6.607
 4681SOL     OW14941   5.246   4.911   7.007
 4681SOL    HW114942   5.314   4.838   7.017
 4681SOL    HW214943   5.263   4.961   6.921
 4682SOL     OW14944   4.463   4.773   5.630
 4682SOL    HW114945   4.390   4.839   5.647
 4682SOL    HW214946   4.525   4.770   5.709
 4683SOL     OW14947   5.305   5.473   2.853
 4683SOL    HW114948   5.219   5.451   2.898
 4683SOL    HW214949   5.380   5.464   2.919
 4684SOL     OW14950   4.945   6.972   5.619
 4684SOL    HW114951   4.921   6.986   5.523
 4684SOL    HW214952   5.035   6.928   5.625
 4685SOL     OW14953   1.903   4.740   6.686
 4685SOL    HW114954   1.997   4.707   6.684
 4685SOL    HW214955   1.844   4.676   6.638
 4686SOL     OW14956   3.890   6.204   6.867
 4686SOL    HW114957   3.964   6.248   6.917
 4686SOL    HW214958   3.887   6.238   6.773
 4687SOL     OW14959   4.917   3.129   3.893
 4687SOL    HW114960   4.961   3.052   3.845
 4687SOL    HW214961   4.820   3.131   3.870
 4688SOL     OW14962   5.789   2.849   5.051
 4688SOL    HW114963   5.757   2.776   5.111
 4688SOL    HW214964   5.849   2.911   5.102
 4689SOL     OW14965   5.375   0.478   0.537
 4689SOL    HW114966   5.292   0.500   0.589
 4689SOL    HW214967   5.455   0.504   0.591
 4690SOL     OW14968   2.127   0.549   0.613
 4690SOL    HW114969   2.036   0.589   0.627
 4690SOL    HW214970   2.161   0.577   0.523
 4691SOL     OW14971   2.977   3.290   0.890
 4691SOL    HW114972   2.986   3.200   0.932
 4691SOL    HW214973   2.894   3.293   0.835
 4692SOL     OW14974   5.540   5.470   3.078
 4692SOL    HW114975   5.611   5.531   3.112
 4692SOL    HW214976   5.538   5.387   3.134
 4693SOL     OW14977   1.318   0.661   3.491
 4693SOL    HW114978   1.249   0.593   3.515
 4693SOL    HW214979   1.274   0.751   3.482
 4694SOL     OW14980   2.483   1.487   0.079
 4694SOL    HW114981   2.553   1.469   0.148
 4694SOL    HW214982   2.513   1.451   7.016
 4695SOL     OW14983   1.191   4.579   1.183
 4695SOL    HW114984   1.236   4.508   1.238
 4695SOL    HW214985   1.214   4.566   1.087
 4696SOL     OW14986   0.392   5.228   6.681
 4696SOL    HW114987   0.370   5.231   6.778
 4696SOL    HW214988   0.488   5.199   6.670
 4697SOL     OW14989   1.162   3.841   1.541
 4697SOL    HW114990   1.228   3.916   1.550
 4697SOL    HW214991   1.080   3.862   1.594
 4698SOL     OW14992   4.158   6.154   3.168
 4698SOL    HW114993   4.241   6.112   3.204
 4698SOL    HW214994   4.172   6.179   3.072
 4699SOL     OW14995   0.550   6.348   2.562
 4699SOL    HW114996   0.484   6.273   2.566
 4699SOL    HW214997   0.641   6.311   2.540
 4700SOL     OW14998   6.693   1.861   2.560
 4700SOL    HW114999   6.708   1.928   2.487
 4700SOL    HW215000   6.629   1.898   2.626
 4701SOL     OW15001   3.317   2.138   0.116
 4701SOL    HW115002   3.346   2.096   0.029
 4701SOL    HW215003   3.243   2.203   0.099
 4702SOL     OW15004   4.872   5.014   0.378
 4702SOL    HW115005   4.823   4.983   0.460
 4702SOL    HW215006   4.815   4.998   0.297
 4703SOL     OW15007   0.785   0.351   2.597
 4703SOL    HW115008   0.846   0.311   2.664
 4703SOL    HW215009   0.797   0.450   2.595
 4704SOL     OW15010   6.485   6.063   6.224
 4704SOL    HW115011   6.397   6.109   6.208
 4704SOL    HW215012   6.488   5.978   6.172
 4705SOL     OW15013   4.371   2.271   0.978
 4705SOL    HW115014   4.352   2.178   1.007
 4705SOL    HW215015   4.407   2.324   1.055
 4706SOL     OW15016   2.039   0.708   0.271
 4706SOL    HW115017   2.036   0.719   0.171
 4706SOL    HW215018   2.040   0.799   0.314
 4707SOL     OW15019   0.913   6.653   1.480
 4707SOL    HW115020   0.823   6.642   1.522
 4707SOL    HW215021   0.903   6.654   1.381
 4708SOL     OW15022   1.183   2.006   5.651
 4708SOL    HW115023   1.227   1.930   5.603
 4708SOL    HW215024   1.249   2.048   5.714
 4709SOL     OW15025   4.908   5.581   5.197
 4709SOL    HW115026   4.874   5.648   5.263
 4709SOL    HW215027   5.002   5.604   5.172
 4710SOL     OW15028   5.418   0.262   5.955
 4710SOL    HW115029   5.386   0.186   5.899
 4710SOL    HW215030   5.452   0.227   6.042
 4711SOL     OW15031   6.319   1.441   1.585
 4711SOL    HW115032   6.340   1.453   1.488
 4711SOL    HW215033   6.222   1.461   1.600
 4712SOL     OW15034   3.326   4.875   6.738
 4712SOL    HW115035   3.245   4.880   6.795
 4712SOL    HW215036   3.302   4.840   6.648
 4713SOL     OW15037   3.571   4.500   0.730
 4713SOL    HW115038   3.486   4.552   0.735
 4713SOL    HW215039   3.633   4.546   0.666
 4714SOL     OW15040   0.812   1.375   6.114
 4714SOL    HW115041   0.901   1.337   6.089
 4714SOL    HW215042   0.776   1.431   6.039
 4715SOL     OW15043   6.038   3.600   1.372
 4715SOL    HW115044   5.995   3.534   1.309
 4715SOL    HW215045   6.095   3.551   1.437
 4716SOL     OW15046   4.210   6.566   5.712
 4716SOL    HW115047   4.235   6.647   5.765
 4716SOL    HW215048   4.154   6.505   5.768
 4717SOL     OW15049   0.665   6.059   4.348
 4717SOL    HW115050   0.712   6.137   4.390
 4717SOL    HW215051   0.731   5.998   4.305
 4718SOL     OW15052   5.793   1.601   1.213
 4718SOL    HW115053   5.759   1.624   1.122
 4718SOL    HW215054   5.893   1.606   1.213
 4719SOL     OW15055   5.033   3.446   2.157
 4719SOL    HW115056   4.952   3.392   2.136
 4719SOL    HW215057   5.061   3.496   2.075
 4720SOL     OW15058   2.341   5.336   5.533
 4720SOL    HW115059   2.403   5.319   5.457
 4720SOL    HW215060   2.247   5.319   5.503
 4721SOL     OW15061   6.582   1.734   1.954
 4721SOL    HW115062   6.629   1.787   1.883
 4721SOL    HW215063   6.579   1.787   2.039
 4722SOL     OW15064   1.014   5.836   6.893
 4722SOL    HW115065   1.061   5.896   6.827
 4722SOL    HW215066   0.937   5.885   6.933
 4723SOL     OW15067   2.545   3.448   5.408
 4723SOL    HW115068   2.636   3.409   5.422
 4723SOL    HW215069   2.475   3.378   5.423
 4724SOL     OW15070   6.597   0.067   4.388
 4724SOL    HW115071   6.676   0.008   4.369
 4724SOL    HW215072   6.545   0.081   4.303
 4725SOL     OW15073   6.217   5.288   0.177
 4725SOL    HW115074   6.205   5.370   0.121
 4725SOL    HW215075   6.213   5.313   0.274
 4726SOL     OW15076   1.497   3.084   6.238
 4726SOL    HW115077   1.444   3.080   6.322
 4726SOL    HW215078   1.579   3.027   6.247
 4727SOL     OW15079   0.597   6.302   1.374
 4727SOL    HW115080   0.634   6.245   1.301
 4727SOL    HW215081   0.528   6.250   1.425
 4728SOL     OW15082   5.289   1.413   2.549
 4728SOL    HW115083   5.333   1.431   2.460
 4728SOL    HW215084   5.359   1.409   2.620
 4729SOL     OW15085   4.941   1.081   0.603
 4729SOL    HW115086   4.929   0.993   0.648
 4729SOL    HW215087   5.029   1.120   0.627
 4730SOL     OW15088   3.191   5.705   4.904
 4730SOL    HW115089   3.215   5.618   4.948
 4730SOL    HW215090   3.122   5.752   4.959
 4731SOL     OW15091   3.037   0.971   0.408
 4731SOL    HW115092   3.022   0.900   0.477
 4731SOL    HW215093   3.129   1.009   0.419
 4732SOL     OW15094   0.894   3.462   5.271
 4732SOL    HW115095   0.911   3.378   5.219
 4732SOL    HW215096   0.973   3.482   5.329
 4733SOL     OW15097   1.686   3.753   3.838
 4733SOL    HW115098   1.653   3.770   3.745
 4733SOL    HW215099   1.785   3.763   3.840
 4734SOL     OW15100   4.284   3.189   0.595
 4734SOL    HW115101   4.297   3.138   0.510
 4734SOL    HW215102   4.283   3.287   0.575
 4735SOL     OW15103   6.953   5.796   4.160
 4735SOL    HW115104   0.023   5.768   4.147
 4735SOL    HW215105   6.899   5.718   4.189
 4736SOL     OW15106   5.915   1.519   6.115
 4736SOL    HW115107   5.882   1.611   6.133
 4736SOL    HW215108   6.013   1.515   6.130
 4737SOL     OW15109   2.912   4.371   1.105
 4737SOL    HW115110   2.887   4.302   1.037
 4737SOL    HW215111   2.850   4.366   1.183
 4738SOL     OW15112   2.397   6.626   2.924
 4738SOL    HW115113   2.460   6.552   2.945
 4738SOL    HW215114   2.380   6.628   2.825
 4739SOL     OW15115   5.119   1.533   2.942
 4739SOL    HW115116   5.103   1.462   3.010
 4739SOL    HW215117   5.217   1.543   2.926
 4740SOL     OW15118   0.333   1.463   0.993
 4740SOL    HW115119   0.249   1.506   1.026
 4740SOL    HW215120   0.339   1.474   0.894
 4741SOL     OW15121   4.640   3.420   1.435
 4741SOL    HW115122   4.547   3.428   1.399
 4741SOL    HW215123   4.705   3.441   1.362
 4742SOL     OW15124   2.517   6.757   0.824
 4742SOL    HW115125   2.457   6.678   0.822
 4742SOL    HW215126   2.595   6.742   0.762
 4743SOL     OW15127   1.659   3.050   5.045
 4743SOL    HW115128   1.686   3.145   5.055
 4743SOL    HW215129   1.707   3.009   4.968
 4744SOL     OW15130   2.917   4.135   6.217
 4744SOL    HW115131   2.871   4.203   6.161
 4744SOL    HW215132   2.849   4.084   6.269
 4745SOL     OW15133   3.023   5.331   5.273
 4745SOL    HW115134   3.092   5.368   5.335
 4745SOL    HW215135   3.019   5.388   5.191
 4746SOL     OW15136   5.775   6.651   2.439
 4746SOL    HW115137   5.865   6.690   2.458
 4746SOL    HW215138   5.785   6.557   2.407
 4747SOL     OW15139   1.409   4.030   0.081
 4747SOL    HW115140   1.350   4.093   0.131
 4747SOL    HW215141   1.382   3.936   0.100
 4748SOL     OW15142   1.016   5.168   0.833
 4748SOL    HW115143   0.997   5.071   0.823
 4748SOL    HW215144   0.941   5.212   0.881
 4749SOL     OW15145   2.875   6.241   5.251
 4749SOL    HW115146   2.868   6.223   5.153
 4749SOL    HW215147   2.966   6.216   5.284
 4750SOL     OW15148   0.145   3.222   3.966
 4750SOL    HW115149   0.233   3.259   3.937
 4750SOL    HW215150   0.114   3.271   4.048
 4751SOL     OW15151   2.641   2.613   0.815
 4751SOL    HW115152   2.604   2.652   0.899
 4751SOL    HW215153   2.636   2.513   0.820
 4752SOL     OW15154   2.609   0.346   0.108
 4752SOL    HW115155   2.646   0.256   0.130
 4752SOL    HW215156   2.624   0.408   0.185
 4753SOL     OW15157   5.697   0.237   4.381
 4753SOL    HW115158   5.747   0.317   4.348
 4753SOL    HW215159   5.678   0.247   4.478
 4754SOL     OW15160   5.937   0.670   4.700
 4754SOL    HW115161   5.919   0.635   4.792
 4754SOL    HW215162   5.914   0.767   4.696
 4755SOL     OW15163   2.800   0.769   1.138
 4755SOL    HW115164   2.884   0.718   1.154
 4755SOL    HW215165   2.797   0.849   1.198
 4756SOL     OW15166   5.792   3.104   1.453
 4756SOL    HW115167   5.716   3.157   1.491
 4756SOL    HW215168   5.766   3.066   1.364
 4757SOL     OW15169   1.411   2.452   1.650
 4757SOL    HW115170   1.479   2.409   1.709
 4757SOL    HW215171   1.440   2.445   1.555
 4758SOL     OW15172   2.334   6.123   4.146
 4758SOL    HW115173   2.319   6.212   4.102
 4758SOL    HW215174   2.301   6.050   4.087
 4759SOL     OW15175   5.167   5.461   4.701
 4759SOL    HW115176   5.119   5.403   4.767
 4759SOL    HW215177   5.116   5.461   4.615
 4760SOL     OW15178   3.882   1.854   0.491
 4760SOL    HW115179   3.905   1.889   0.400
 4760SOL    HW215180   3.873   1.754   0.487
 4761SOL     OW15181   0.796   6.426   6.580
 4761SOL    HW115182   0.747   6.342   6.556
 4761SOL    HW215183   0.850   6.410   6.663
 4762SOL     OW15184   2.005   5.326   2.827
 4762SOL    HW115185   2.024   5.407   2.882
 4762SOL    HW215186   2.036   5.244   2.876
 4763SOL     OW15187   6.071   6.665   3.861
 4763SOL    HW115188   5.998   6.613   3.816
 4763SOL    HW215189   6.136   6.697   3.792
 4764SOL     OW15190   5.283   4.340   5.412
 4764SOL    HW115191   5.298   4.403   5.336
 4764SOL    HW215192   5.185   4.325   5.424
 4765SOL     OW15193   5.667   0.902   4.496
 4765SOL    HW115194   5.638   0.883   4.402
 4765SOL    HW215195   5.604   0.858   4.559
 4766SOL     OW15196   4.547   6.965   4.267
 4766SOL    HW115197   4.639   6.985   4.234
 4766SOL    HW215198   4.541   6.868   4.292
 4767SOL     OW15199   3.818   4.829   5.875
 4767SOL    HW115200   3.732   4.820   5.825
 4767SOL    HW215201   3.801   4.874   5.963
 4768SOL     OW15202   4.616   2.039   5.264
 4768SOL    HW115203   4.685   1.966   5.261
 4768SOL    HW215204   4.529   2.001   5.297
 4769SOL     OW15205   4.852   4.670   0.045
 4769SOL    HW115206   4.901   4.690   6.986
 4769SOL    HW215207   4.766   4.624   0.023
 4770SOL     OW15208   0.937   0.939   4.397
 4770SOL    HW115209   1.026   0.963   4.434
 4770SOL    HW215210   0.868   1.005   4.428
 4771SOL     OW15211   3.403   5.546   5.690
 4771SOL    HW115212   3.467   5.492   5.745
 4771SOL    HW215213   3.439   5.557   5.598
 4772SOL     OW15214   3.156   4.938   1.316
 4772SOL    HW115215   3.154   5.027   1.271
 4772SOL    HW215216   3.179   4.868   1.249
 4773SOL     OW15217   6.581   5.747   4.984
 4773SOL    HW115218   6.621   5.837   5.006
 4773SOL    HW215219   6.484   5.747   5.008
 4774SOL     OW15220   1.125   2.486   1.699
 4774SOL    HW115221   1.117   2.485   1.799
 4774SOL    HW215222   1.222   2.484   1.674
 4775SOL     OW15223   4.978   6.505   2.338
 4775SOL    HW115224   4.943   6.473   2.425
 4775SOL    HW215225   5.063   6.457   2.316
 4776SOL     OW15226   1.068   6.347   5.273
 4776SOL    HW115227   1.092   6.385   5.363
 4776SOL    HW215228   0.969   6.349   5.261
 4777SOL     OW15229   2.770   4.317   1.345
 4777SOL    HW115230   2.802   4.227   1.316
 4777SOL    HW215231   2.752   4.317   1.443
 4778SOL     OW15232   6.277   2.715   2.359
 4778SOL    HW115233   6.369   2.680   2.379
 4778SOL    HW215234   6.224   2.718   2.443
 4779SOL     OW15235   6.222   6.532   2.435
 4779SOL    HW115236   6.131   6.504   2.465
 4779SOL    HW215237   6.255   6.469   2.364
 4780SOL     OW15238   6.648   0.797   0.434
 4780SOL    HW115239   6.728   0.750   0.398
 4780SOL    HW215240   6.648   0.790   0.534
 4781SOL     OW15241   2.837   5.877   2.154
 4781SOL    HW115242   2.902   5.896   2.081
 4781SOL    HW215243   2.744   5.896   2.121
 4782SOL     OW15244   4.125   6.315   6.967
 4782SOL    HW115245   4.225   6.318   6.974
 4782SOL    HW215246   4.087   6.289   0.030
 4783SOL     OW15247   4.720   4.624   6.619
 4783SOL    HW115248   4.721   4.565   6.699
 4783SOL    HW215249   4.716   4.719   6.648
 4784SOL     OW15250   5.898   4.075   6.508
 4784SOL    HW115251   5.906   4.133   6.427
 4784SOL    HW215252   5.970   4.098   6.573
 4785SOL     OW15253   5.819   5.686   1.933
 4785SOL    HW115254   5.856   5.594   1.942
 4785SOL    HW215255   5.732   5.682   1.884
 4786SOL     OW15256   2.672   2.021   0.855
 4786SOL    HW115257   2.700   2.078   0.932
 4786SOL    HW215258   2.753   1.979   0.814
 4787SOL     OW15259   3.524   1.826   3.272
 4787SOL    HW115260   3.579   1.747   3.247
 4787SOL    HW215261   3.554   1.905   3.218
 4788SOL     OW15262   1.374   5.051   5.669
 4788SOL    HW115263   1.412   4.961   5.694
 4788SOL    HW215264   1.447   5.107   5.631
 4789SOL     OW15265   5.144   0.759   0.652
 4789SOL    HW115266   5.201   0.815   0.591
 4789SOL    HW215267   5.111   0.816   0.727
 4790SOL     OW15268   0.189   2.998   5.533
 4790SOL    HW115269   0.115   2.932   5.549
 4790SOL    HW215270   0.236   3.017   5.619
 4791SOL     OW15271   6.204   1.777   0.962
 4791SOL    HW115272   6.195   1.873   0.989
 4791SOL    HW215273   6.295   1.761   0.924
 4792SOL     OW15274   2.098   3.110   2.858
 4792SOL    HW115275   2.142   3.177   2.919
 4792SOL    HW215276   2.002   3.136   2.845
 4793SOL     OW15277   2.072   3.145   5.984
 4793SOL    HW115278   2.008   3.183   6.051
 4793SOL    HW215279   2.043   3.171   5.891
 4794SOL     OW15280   4.687   0.459   3.239
 4794SOL    HW115281   4.670   0.539   3.296
 4794SOL    HW215282   4.635   0.381   3.274
 4795SOL     OW15283   6.737   1.871   3.832
 4795SOL    HW115284   6.697   1.900   3.745
 4795SOL    HW215285   6.767   1.951   3.883
 4796SOL     OW15286   5.213   1.941   6.031
 4796SOL    HW115287   5.116   1.932   6.053
 4796SOL    HW215288   5.237   1.878   5.958
 4797SOL     OW15289   1.855   6.293   5.695
 4797SOL    HW115290   1.777   6.349   5.722
 4797SOL    HW215291   1.934   6.352   5.677
 4798SOL     OW15292   6.973   3.200   4.678
 4798SOL    HW115293   6.891   3.145   4.689
 4798SOL    HW215294   6.948   3.293   4.653
 4799SOL     OW15295   4.839   2.484   6.627
 4799SOL    HW115296   4.803   2.391   6.617
 4799SOL    HW215297   4.908   2.501   6.557
 4800SOL     OW15298   2.938   3.399   6.264
 4800SOL    HW115299   2.852   3.349   6.258
 4800SOL    HW215300   2.947   3.460   6.185
 4801SOL     OW15301   2.866   2.128   1.103
 4801SOL    HW115302   2.928   2.191   1.151
 4801SOL    HW215303   2.894   2.034   1.122
 4802SOL     OW15304   0.768   6.231   2.436
 4802SOL    HW115305   0.812   6.297   2.375
 4802SOL    HW215306   0.835   6.162   2.464
 4803SOL     OW15307   1.443   5.758   1.064
 4803SOL    HW115308   1.490   5.744   0.977
 4803SOL    HW215309   1.494   5.825   1.119
 4804SOL     OW15310   5.037   6.031   6.659
 4804SOL    HW115311   4.979   6.038   6.740
 4804SOL    HW215312   4.990   6.071   6.581
 4805SOL     OW15313   5.824   6.840   1.428
 4805SOL    HW115314   5.859   6.929   1.459
 4805SOL    HW215315   5.742   6.854   1.372
 4806SOL     OW15316   0.992   4.884   3.183
 4806SOL    HW115317   1.008   4.798   3.136
 4806SOL    HW215318   1.031   4.879   3.276
 4807SOL     OW15319   0.796   4.855   0.151
 4807SOL    HW115320   0.755   4.853   0.243
 4807SOL    HW215321   0.731   4.896   0.087
 4808SOL     OW15322   6.276   3.608   6.493
 4808SOL    HW115323   6.182   3.638   6.480
 4808SOL    HW215324   6.278   3.532   6.559
 4809SOL     OW15325   3.376   4.294   6.964
 4809SOL    HW115326   3.366   4.362   6.891
 4809SOL    HW215327   3.473   4.277   6.981
 4810SOL     OW15328   1.021   5.232   2.630
 4810SOL    HW115329   1.082   5.228   2.551
 4810SOL    HW215330   0.933   5.271   2.601
 4811SOL     OW15331   1.950   4.520   2.207
 4811SOL    HW115332   1.986   4.576   2.132
 4811SOL    HW215333   1.942   4.425   2.176
 4812SOL     OW15334   6.821   4.958   4.574
 4812SOL    HW115335   6.831   4.973   4.672
 4812SOL    HW215336   6.881   4.884   4.545
 4813SOL     OW15337   5.505   1.881   0.727
 4813SOL    HW115338   5.516   1.804   0.664
 4813SOL    HW215339   5.563   1.868   0.807
 4814SOL     OW15340   5.756   4.294   0.360
 4814SOL    HW115341   5.749   4.383   0.314
 4814SOL    HW215342   5.782   4.224   0.293
 4815SOL     OW15343   5.841   4.173   3.215
 4815SOL    HW115344   5.890   4.095   3.178
 4815SOL    HW215345   5.839   4.166   3.315
 4816SOL     OW15346   0.815   5.077   1.413
 4816SOL    HW115347   0.853   5.090   1.321
 4816SOL    HW215348   0.881   5.028   1.469
 4817SOL     OW15349   0.710   2.296   6.872
 4817SOL    HW115350   0.620   2.338   6.868
 4817SOL    HW215351   0.759   2.313   6.786
 4818SOL     OW15352   1.097   0.659   5.170
 4818SOL    HW115353   1.005   0.630   5.145
 4818SOL    HW215354   1.104   0.759   5.165
 4819SOL     OW15355   0.826   2.137   0.224
 4819SOL    HW115356   0.780   2.094   0.146
 4819SOL    HW215357   0.896   2.201   0.190
 4820SOL     OW15358   6.331   2.830   1.234
 4820SOL    HW115359   6.427   2.859   1.237
 4820SOL    HW215360   6.296   2.819   1.327
 4821SOL     OW15361   0.984   5.746   2.599
 4821SOL    HW115362   0.999   5.648   2.586
 4821SOL    HW215363   1.047   5.781   2.668
 4822SOL     OW15364   2.245   2.929   4.231
 4822SOL    HW115365   2.245   2.948   4.329
 4822SOL    HW215366   2.210   3.008   4.182
 4823SOL     OW15367   1.896   1.122   4.189
 4823SOL    HW115368   1.955   1.049   4.226
 4823SOL    HW215369   1.928   1.211   4.222
 4824SOL     OW15370   4.927   2.962   5.143
 4824SOL    HW115371   4.901   3.052   5.177
 4824SOL    HW215372   4.851   2.922   5.091
 4825SOL     OW15373   1.529   2.889   4.243
 4825SOL    HW115374   1.620   2.860   4.214
 4825SOL    HW215375   1.470   2.901   4.163
 4826SOL     OW15376   5.720   0.830   6.993
 4826SOL    HW115377   5.757   0.767   0.035
 4826SOL    HW215378   5.643   0.787   6.946
 4827SOL     OW15379   6.206   1.359   0.949
 4827SOL    HW115380   6.273   1.362   1.023
 4827SOL    HW215381   6.162   1.269   0.948
 4828SOL     OW15382   5.295   1.363   0.628
 4828SOL    HW115383   5.236   1.369   0.709
 4828SOL    HW215384   5.241   1.331   0.550
 4829SOL     OW15385   3.665   0.341   5.304
 4829SOL    HW115386   3.683   0.243   5.307
 4829SOL    HW215387   3.654   0.375   5.398
 4830SOL     OW15388   3.968   5.874   4.509
 4830SOL    HW115389   3.870   5.856   4.506
 4830SOL    HW215390   4.008   5.861   4.418
 4831SOL     OW15391   1.294   4.811   5.456
 4831SOL    HW115392   1.367   4.841   5.518
 4831SOL    HW215393   1.316   4.721   5.419
 4832SOL     OW15394   3.395   4.181   3.630
 4832SOL    HW115395   3.320   4.129   3.588
 4832SOL    HW215396   3.480   4.161   3.582
 4833SOL     OW15397   6.503   1.231   3.159
 4833SOL    HW115398   6.472   1.210   3.251
 4833SOL    HW215399   6.442   1.299   3.118
 4834SOL     OW15400   2.839   5.558   1.811
 4834SOL    HW115401   2.841   5.552   1.910
 4834SOL    HW215402   2.807   5.472   1.772
 4835SOL     OW15403   5.723   2.682   5.576
 4835SOL    HW115404   5.818   2.672   5.605
 4835SOL    HW215405   5.680   2.592   5.568
 4836SOL     OW15406   5.399   1.807   4.547
 4836SOL    HW115407   5.299   1.805   4.553
 4836SOL    HW215408   5.429   1.899   4.526
 4837SOL     OW15409   0.167   3.373   3.198
 4837SOL    HW115410   0.192   3.310   3.124
 4837SOL    HW215411   0.186   3.331   3.286
 4838SOL     OW15412   2.264   5.961   0.317
 4838SOL    HW115413   2.342   5.902   0.299
 4838SOL    HW215414   2.194   5.909   0.367
 4839SOL     OW15415   1.067   3.811   0.112
 4839SOL    HW115416   1.037   3.751   0.038
 4839SOL    HW215417   1.150   3.773   0.154
 4840SOL     OW15418   6.735   4.607   6.315
 4840SOL    HW115419   6.674   4.573   6.386
 4840SOL    HW215420   6.693   4.686   6.269
 4841SOL     OW15421   2.299   5.297   3.066
 4841SOL    HW115422   2.214   5.349   3.063
 4841SOL    HW215423   2.279   5.199   3.067
 4842SOL     OW15424   2.856   5.072   2.944
 4842SOL    HW115425   2.822   5.107   3.031
 4842SOL    HW215426   2.924   5.135   2.907
 4843SOL     OW15427   6.264   2.790   1.491
 4843SOL    HW115428   6.173   2.758   1.515
 4843SOL    HW215429   6.271   2.889   1.509
 4844SOL     OW15430   0.316   3.648   6.243
 4844SOL    HW115431   0.328   3.606   6.334
 4844SOL    HW215432   0.405   3.672   6.206
 4845SOL     OW15433   4.931   4.844   6.224
 4845SOL    HW115434   4.949   4.748   6.244
 4845SOL    HW215435   4.833   4.860   6.222
 4846SOL     OW15436   0.483   2.524   3.528
 4846SOL    HW115437   0.501   2.551   3.433
 4846SOL    HW215438   0.386   2.505   3.539
 4847SOL     OW15439   1.904   1.594   6.084
 4847SOL    HW115440   1.924   1.645   6.168
 4847SOL    HW215441   1.977   1.610   6.018
 4848SOL     OW15442   2.287   1.001   4.913
 4848SOL    HW115443   2.256   0.906   4.910
 4848SOL    HW215444   2.385   1.004   4.929
 4849SOL     OW15445   1.557   5.770   0.802
 4849SOL    HW115446   1.540   5.715   0.720
 4849SOL    HW215447   1.571   5.866   0.776
 4850SOL     OW15448   4.753   1.037   1.448
 4850SOL    HW115449   4.707   0.964   1.397
 4850SOL    HW215450   4.850   1.014   1.459
 4851SOL     OW15451   3.325   5.815   5.633
 4851SOL    HW115452   3.348   5.723   5.665
 4851SOL    HW215453   3.227   5.830   5.645
 4852SOL     OW15454   2.034   5.939   4.887
 4852SOL    HW115455   1.984   5.959   4.802
 4852SOL    HW215456   1.975   5.887   4.948
 4853SOL     OW15457   4.414   1.185   3.506
 4853SOL    HW115458   4.510   1.159   3.519
 4853SOL    HW215459   4.394   1.190   3.408
 4854SOL     OW15460   5.149   6.991   2.190
 4854SOL    HW115461   5.107   0.038   2.136
 4854SOL    HW215462   5.082   6.919   2.206
 4855SOL     OW15463   6.305   2.961   5.660
 4855SOL    HW115464   6.273   2.979   5.567
 4855SOL    HW215465   6.401   2.986   5.667
 4856SOL     OW15466   1.703   3.199   2.843
 4856SOL    HW115467   1.617   3.238   2.812
 4856SOL    HW215468   1.758   3.171   2.763
 4857SOL     OW15469   2.893   2.042   3.355
 4857SOL    HW115470   2.967   2.091   3.401
 4857SOL    HW215471   2.850   2.103   3.288
 4858SOL     OW15472   6.852   6.348   5.012
 4858SOL    HW115473   6.883   6.438   5.042
 4858SOL    HW215474   6.848   6.286   5.091
 4859SOL     OW15475   0.363   4.857   2.142
 4859SOL    HW115476   0.351   4.845   2.241
 4859SOL    HW215477   0.296   4.801   2.093
 4860SOL     OW15478   4.475   4.351   6.970
 4860SOL    HW115479   4.452   4.272   6.913
 4860SOL    HW215480   4.514   4.320   0.031
 4861SOL     OW15481   5.902   5.661   6.536
 4861SOL    HW115482   5.829   5.725   6.561
 4861SOL    HW215483   5.939   5.619   6.618
 4862SOL     OW15484   2.476   4.813   4.926
 4862SOL    HW115485   2.484   4.783   5.021
 4862SOL    HW215486   2.484   4.734   4.865
 4863SOL     OW15487   5.074   2.894   2.284
 4863SOL    HW115488   4.979   2.877   2.259
 4863SOL    HW215489   5.133   2.879   2.204
 4864SOL     OW15490   3.050   1.035   1.894
 4864SOL    HW115491   3.057   1.080   1.983
 4864SOL    HW215492   2.955   1.010   1.876
 4865SOL     OW15493   2.277   5.807   4.620
 4865SOL    HW115494   2.266   5.864   4.702
 4865SOL    HW215495   2.249   5.859   4.539
 4866SOL     OW15496   5.951   4.686   1.284
 4866SOL    HW115497   5.876   4.747   1.259
 4866SOL    HW215498   6.033   4.740   1.303
 4867SOL     OW15499   5.162   5.943   3.135
 4867SOL    HW115500   5.097   5.926   3.061
 4867SOL    HW215501   5.140   5.886   3.214
 4868SOL     OW15502   0.081   5.446   1.536
 4868SOL    HW115503   0.140   5.508   1.587
 4868SOL    HW215504   0.131   5.408   1.459
 4869SOL     OW15505   6.831   2.388   1.280
 4869SOL    HW115506   6.923   2.401   1.318
 4869SOL    HW215507   6.802   2.472   1.233
 4870SOL     OW15508   5.405   5.413   1.697
 4870SOL    HW115509   5.460   5.469   1.635
 4870SOL    HW215510   5.461   5.384   1.774
 4871SOL     OW15511   0.421   1.423   4.517
 4871SOL    HW115512   0.437   1.339   4.567
 4871SOL    HW215513   0.507   1.473   4.508
 4872SOL     OW15514   0.230   6.003   4.080
 4872SOL    HW115515   0.212   6.060   4.160
 4872SOL    HW215516   0.320   5.961   4.089
 4873SOL     OW15517   6.700   4.852   4.126
 4873SOL    HW115518   6.692   4.800   4.040
 4873SOL    HW215519   6.609   4.874   4.160
 4874SOL     OW15520   6.152   4.256   2.424
 4874SOL    HW115521   6.126   4.327   2.490
 4874SOL    HW215522   6.106   4.170   2.447
 4875SOL     OW15523   4.969   2.600   1.181
 4875SOL    HW115524   5.049   2.594   1.122
 4875SOL    HW215525   4.973   2.530   1.252
 4876SOL     OW15526   6.140   0.918   4.484
 4876SOL    HW115527   6.177   0.937   4.575
 4876SOL    HW215528   6.125   0.819   4.475
 4877SOL     OW15529   6.763   1.730   0.929
 4877SOL    HW115530   6.848   1.769   0.894
 4877SOL    HW215531   6.702   1.711   0.852
 4878SOL     OW15532   6.292   1.578   2.253
 4878SOL    HW115533   6.305   1.623   2.165
 4878SOL    HW215534   6.271   1.646   2.323
 4879SOL     OW15535   4.180   5.314   3.708
 4879SOL    HW115536   4.097   5.322   3.763
 4879SOL    HW215537   4.189   5.394   3.649
 4880SOL     OW15538   5.830   3.159   6.460
 4880SOL    HW115539   5.794   3.067   6.475
 4880SOL    HW215540   5.825   3.211   6.546
 4881SOL     OW15541   2.293   6.074   6.865
 4881SOL    HW115542   2.201   6.081   6.904
 4881SOL    HW215543   2.341   6.161   6.878
 4882SOL     OW15544   5.640   1.449   4.434
 4882SOL    HW115545   5.604   1.360   4.406
 4882SOL    HW215546   5.691   1.439   4.520
 4883SOL     OW15547   5.243   4.738   2.830
 4883SOL    HW115548   5.181   4.677   2.781
 4883SOL    HW215549   5.334   4.696   2.834
 4884SOL     OW15550   4.212   0.173   0.837
 4884SOL    HW115551   4.195   0.100   0.903
 4884SOL    HW215552   4.310   0.177   0.817
 4885SOL     OW15553   2.486   6.579   2.304
 4885SOL    HW115554   2.523   6.490   2.275
 4885SOL    HW215555   2.560   6.646   2.304
 4886SOL     OW15556   0.133   5.549   6.082
 4886SOL    HW115557   0.204   5.575   6.018
 4886SOL    HW215558   0.121   5.450   6.080
 4887SOL     OW15559   0.563   1.467   2.556
 4887SOL    HW115560   0.642   1.407   2.544
 4887SOL    HW215561   0.514   1.442   2.640
 4888SOL     OW15562   1.684   6.745   4.357
 4888SOL    HW115563   1.678   6.787   4.267
 4888SOL    HW215564   1.680   6.646   4.348
 4889SOL     OW15565   0.187   1.357   6.769
 4889SOL    HW115566   0.249   1.387   6.842
 4889SOL    HW215567   0.191   1.258   6.760
 4890SOL     OW15568   0.497   2.207   5.434
 4890SOL    HW115569   0.587   2.183   5.469
 4890SOL    HW215570   0.506   2.250   5.344
 4891SOL     OW15571   1.275   5.997   0.659
 4891SOL    HW115572   1.192   6.018   0.712
 4891SOL    HW215573   1.250   5.980   0.564
 4892SOL     OW15574   2.377   6.084   2.175
 4892SOL    HW115575   2.470   6.048   2.165
 4892SOL    HW215576   2.322   6.055   2.096
 4893SOL     OW15577   6.099   4.702   6.961
 4893SOL    HW115578   6.152   4.716   0.019
 4893SOL    HW215579   6.162   4.692   6.884
 4894SOL     OW15580   2.691   0.785   1.759
 4894SOL    HW115581   2.722   0.869   1.804
 4894SOL    HW215582   2.757   0.757   1.690
 4895SOL     OW15583   0.133   5.021   1.431
 4895SOL    HW115584   0.232   5.038   1.436
 4895SOL    HW215585   0.100   5.045   1.340
 4896SOL     OW15586   2.623   5.305   2.407
 4896SOL    HW115587   2.536   5.354   2.415
 4896SOL    HW215588   2.624   5.252   2.322
 4897SOL     OW15589   2.659   5.406   6.219
 4897SOL    HW115590   2.596   5.359   6.281
 4897SOL    HW215591   2.750   5.408   6.259
 4898SOL     OW15592   6.019   1.622   5.338
 4898SOL    HW115593   6.088   1.551   5.330
 4898SOL    HW215594   5.929   1.580   5.347
 4899SOL     OW15595   6.211   4.574   2.928
 4899SOL    HW115596   6.115   4.603   2.917
 4899SOL    HW215597   6.259   4.640   2.984
 4900SOL     OW15598   1.741   6.094   5.491
 4900SOL    HW115599   1.769   6.150   5.569
 4900SOL    HW215600   1.791   6.124   5.409
 4901SOL     OW15601   2.631   6.712   5.425
 4901SOL    HW115602   2.563   6.685   5.357
 4901SOL    HW215603   2.658   6.807   5.410
 4902SOL     OW15604   2.214   2.199   4.594
 4902SOL    HW115605   2.294   2.245   4.633
 4902SOL    HW215606   2.149   2.178   4.667
 4903SOL     OW15607   3.303   6.779   6.942
 4903SOL    HW115608   3.356   6.734   6.871
 4903SOL    HW215609   3.210   6.741   6.943
 4904SOL     OW15610   1.487   6.943   3.902
 4904SOL    HW115611   1.390   6.922   3.887
 4904SOL    HW215612   1.529   6.966   3.815
 4905SOL     OW15613   4.392   2.035   2.517
 4905SOL    HW115614   4.319   2.003   2.457
 4905SOL    HW215615   4.478   2.040   2.465
 4906SOL     OW15616   3.458   1.089   6.433
 4906SOL    HW115617   3.386   1.127   6.491
 4906SOL    HW215618   3.544   1.135   6.452
 4907SOL     OW15619   4.612   6.187   2.242
 4907SOL    HW115620   4.659   6.215   2.158
 4907SOL    HW215621   4.580   6.268   2.291
 4908SOL     OW15622   4.229   5.165   6.920
 4908SOL    HW115623   4.137   5.178   6.884
 4908SOL    HW215624   4.253   5.068   6.916
 4909SOL     OW15625   6.458   0.045   6.119
 4909SOL    HW115626   6.482   0.082   6.209
 4909SOL    HW215627   6.513   0.090   6.048
 4910SOL     OW15628   5.613   6.964   5.018
 4910SOL    HW115629   5.573   6.955   4.926
 4910SOL    HW215630   5.575   0.019   5.063
 4911SOL     OW15631   6.888   2.591   6.014
 4911SOL    HW115632   6.983   2.581   5.983
 4911SOL    HW215633   6.852   2.679   5.983
 4912SOL     OW15634   5.476   1.786   1.329
 4912SOL    HW115635   5.551   1.736   1.373
 4912SOL    HW215636   5.504   1.881   1.313
 4913SOL     OW15637   3.679   3.116   3.592
 4913SOL    HW115638   3.749   3.070   3.647
 4913SOL    HW215639   3.706   3.114   3.495
 4914SOL     OW15640   3.807   0.788   4.832
 4914SOL    HW115641   3.892   0.738   4.841
 4914SOL    HW215642   3.825   0.886   4.844
 4915SOL     OW15643   4.934   0.389   4.732
 4915SOL    HW115644   5.012   0.335   4.701
 4915SOL    HW215645   4.913   0.459   4.663
 4916SOL     OW15646   2.025   1.333   3.352
 4916SOL    HW115647   2.011   1.234   3.353
 4916SOL    HW215648   2.123   1.352   3.356
 4917SOL     OW15649   1.639   4.189   0.652
 4917SOL    HW115650   1.571   4.261   0.640
 4917SOL    HW215651   1.622   4.141   0.738
 4918SOL     OW15652   3.241   6.981   2.143
 4918SOL    HW115653   3.187   7.023   2.215
 4918SOL    HW215654   3.180   6.929   2.082
 4919SOL     OW15655   2.485   1.731   1.247
 4919SOL    HW115656   2.527   1.669   1.313
 4919SOL    HW215657   2.537   1.729   1.162
 4920SOL     OW15658   4.069   0.544   6.790
 4920SOL    HW115659   4.085   0.459   6.739
 4920SOL    HW215660   4.078   0.527   6.888
 4921SOL     OW15661   2.025   4.049   1.230
 4921SOL    HW115662   1.977   4.091   1.308
 4921SOL    HW215663   2.121   4.034   1.254
 4922SOL     OW15664   1.003   3.250   5.171
 4922SOL    HW115665   1.008   3.156   5.203
 4922SOL    HW215666   1.088   3.273   5.123
 4923SOL     OW15667   4.375   0.953   1.372
 4923SOL    HW115668   4.472   0.963   1.397
 4923SOL    HW215669   4.355   1.009   1.292
 4924SOL     OW15670   2.219   2.919   5.892
 4924SOL    HW115671   2.311   2.892   5.919
 4924SOL    HW215672   2.188   2.995   5.950
 4925SOL     OW15673   6.228   6.316   0.907
 4925SOL    HW115674   6.259   6.389   0.967
 4925SOL    HW215675   6.304   6.284   0.850
 4926SOL     OW15676   5.157   3.104   1.337
 4926SOL    HW115677   5.137   3.071   1.430
 4926SOL    HW215678   5.071   3.119   1.288
 4927SOL     OW15679   4.037   3.414   4.078
 4927SOL    HW115680   3.975   3.337   4.094
 4927SOL    HW215681   4.054   3.462   4.164
 4928SOL     OW15682   0.483   6.853   6.817
 4928SOL    HW115683   0.558   6.858   6.883
 4928SOL    HW215684   0.493   6.929   6.752
 4929SOL     OW15685   1.122   3.960   5.369
 4929SOL    HW115686   1.135   3.976   5.271
 4929SOL    HW215687   1.207   3.980   5.418
 4930SOL     OW15688   6.515   0.448   1.480
 4930SOL    HW115689   6.535   0.517   1.410
 4930SOL    HW215690   6.597   0.392   1.496
 4931SOL     OW15691   0.266   6.565   0.828
 4931SOL    HW115692   0.166   6.557   0.827
 4931SOL    HW215693   0.303   6.511   0.904
 4932SOL     OW15694   2.128   3.231   1.918
 4932SOL    HW115695   2.202   3.297   1.924
 4932SOL    HW215696   2.051   3.261   1.974
 4933SOL     OW15697   2.889   6.871   4.351
 4933SOL    HW115698   2.977   6.904   4.386
 4933SOL    HW215699   2.852   6.937   4.286
 4934SOL     OW15700   1.607   5.302   3.522
 4934SOL    HW115701   1.572   5.369   3.587
 4934SOL    HW215702   1.615   5.343   3.432
 4935SOL     OW15703   1.041   1.143   0.040
 4935SOL    HW115704   1.051   1.048   0.070
 4935SOL    HW215705   0.949   1.174   0.062
 4936SOL     OW15706   1.784   4.956   2.122
 4936SOL    HW115707   1.834   4.905   2.052
 4936SOL    HW215708   1.718   5.017   2.078
 4937SOL     OW15709   0.720   3.956   6.040
 4937SOL    HW115710   0.709   3.988   6.134
 4937SOL    HW215711   0.641   3.984   5.986
 4938SOL     OW15712   3.251   5.199   1.528
 4938SOL    HW115713   3.197   5.204   1.612
 4938SOL    HW215714   3.210   5.131   1.467
 4939SOL     OW15715   1.150   1.794   3.195
 4939SOL    HW115716   1.165   1.878   3.143
 4939SOL    HW215717   1.168   1.715   3.137
 4940SOL     OW15718   0.339   1.660   5.630
 4940SOL    HW115719   0.311   1.580   5.576
 4940SOL    HW215720   0.260   1.719   5.645
 4941SOL     OW15721   4.253   2.714   5.351
 4941SOL    HW115722   4.169   2.768   5.346
 4941SOL    HW215723   4.249   2.638   5.287
 4942SOL     OW15724   5.156   3.265   4.545
 4942SOL    HW115725   5.175   3.228   4.636
 4942SOL    HW215726   5.197   3.204   4.476
 4943SOL     OW15727   5.218   3.894   5.982
 4943SOL    HW115728   5.119   3.890   5.997
 4943SOL    HW215729   5.257   3.969   6.035
 4944SOL     OW15730   2.202   4.454   2.006
 4944SOL    HW115731   2.142   4.384   2.044
 4944SOL    HW215732   2.226   4.520   2.077
 4945SOL     OW15733   1.135   0.233   4.955
 4945SOL    HW115734   1.168   0.321   4.990
 4945SOL    HW215735   1.049   0.210   4.999
 4946SOL     OW15736   0.985   5.458   0.194
 4946SOL    HW115737   0.910   5.392   0.188
 4946SOL    HW215738   1.058   5.429   0.132
 4947SOL     OW15739   2.503   0.978   1.091
 4947SOL    HW115740   2.569   1.037   1.138
 4947SOL    HW215741   2.528   0.882   1.105
 4948SOL     OW15742   2.167   2.639   2.784
 4948SOL    HW115743   2.184   2.705   2.857
 4948SOL    HW215744   2.175   2.684   2.695
 4949SOL     OW15745   0.036   3.955   5.016
 4949SOL    HW115746   0.058   4.032   5.075
 4949SOL    HW215747   6.983   3.978   4.959
 4950SOL     OW15748   2.391   3.969   5.456
 4950SOL    HW115749   2.425   3.876   5.440
 4950SOL    HW215750   2.394   4.020   5.370
 4951SOL     OW15751   6.282   0.040   4.609
 4951SOL    HW115752   6.313   0.132   4.636
 4951SOL    HW215753   6.355   7.000   4.627
 4952SOL     OW15754   0.378   6.809   6.037
 4952SOL    HW115755   0.283   6.783   6.049
 4952SOL    HW215756   0.392   6.844   5.944
 4953SOL     OW15757   1.210   6.834   3.104
 4953SOL    HW115758   1.156   6.763   3.060
 4953SOL    HW215759   1.201   6.920   3.053
 4954SOL     OW15760   3.277   3.568   0.101
 4954SOL    HW115761   3.229   3.598   0.183
 4954SOL    HW215762   3.264   3.636   0.028
 4955SOL     OW15763   3.020   6.419   6.988
 4955SOL    HW115764   3.011   6.392   0.058
 4955SOL    HW215765   3.111   6.394   6.955
 4956SOL     OW15766   2.874   0.149   4.898
 4956SOL    HW115767   2.955   0.187   4.854
 4956SOL    HW215768   2.892   0.055   4.926
 4957SOL     OW15769   5.419   3.065   0.826
 4957SOL    HW115770   5.471   2.983   0.854
 4957SOL    HW215771   5.338   3.074   0.883
 4958SOL     OW15772   1.687   5.465   5.851
 4958SOL    HW115773   1.658   5.371   5.866
 4958SOL    HW215774   1.610   5.527   5.865
 4959SOL     OW15775   6.099   0.905   1.340
 4959SOL    HW115776   6.039   0.908   1.260
 4959SOL    HW215777   6.145   0.817   1.344
 4960SOL     OW15778   4.431   4.936   4.216
 4960SOL    HW115779   4.492   5.015   4.216
 4960SOL    HW215780   4.484   4.854   4.239
 4961SOL     OW15781   3.069   0.078   6.554
 4961SOL    HW115782   2.993   0.051   6.495
 4961SOL    HW215783   3.058   0.036   6.644
 4962SOL     OW15784   5.802   2.580   0.627
 4962SOL    HW115785   5.830   2.534   0.543
 4962SOL    HW215786   5.740   2.521   0.679
 4963SOL     OW15787   0.754   5.583   0.656
 4963SOL    HW115788   0.730   5.645   0.582
 4963SOL    HW215789   0.839   5.613   0.699
 4964SOL     OW15790   2.224   0.085   4.572
 4964SOL    HW115791   2.260   0.026   4.500
 4964SOL    HW215792   2.286   0.163   4.585
 4965SOL     OW15793   0.969   6.003   2.543
 4965SOL    HW115794   0.984   5.904   2.544
 4965SOL    HW215795   0.961   6.036   2.637
 4966SOL     OW15796   3.059   6.720   4.975
 4966SOL    HW115797   3.058   6.670   4.888
 4966SOL    HW215798   3.116   6.670   5.041
 4967SOL     OW15799   3.033   5.117   5.848
 4967SOL    HW115800   2.934   5.104   5.843
 4967SOL    HW215801   3.053   5.208   5.886
 4968SOL     OW15802   0.471   1.396   3.377
 4968SOL    HW115803   0.414   1.400   3.459
 4968SOL    HW215804   0.421   1.432   3.299
 4969SOL     OW15805   1.437   5.963   2.586
 4969SOL    HW115806   1.505   5.944   2.657
 4969SOL    HW215807   1.347   5.977   2.628
 4970SOL     OW15808   2.655   1.537   1.322
 4970SOL    HW115809   2.741   1.540   1.271
 4970SOL    HW215810   2.614   1.446   1.311
 4971SOL     OW15811   6.149   5.662   3.145
 4971SOL    HW115812   6.114   5.752   3.172
 4971SOL    HW215813   6.146   5.601   3.224
 4972SOL     OW15814   0.467   4.139   0.816
 4972SOL    HW115815   0.469   4.224   0.764
 4972SOL    HW215816   0.557   4.097   0.814
 4973SOL     OW15817   0.661   0.074   2.048
 4973SOL    HW115818   0.651   0.173   2.039
 4973SOL    HW215819   0.571   0.031   2.055
 4974SOL     OW15820   6.239   5.012   0.680
 4974SOL    HW115821   6.152   4.964   0.673
 4974SOL    HW215822   6.222   5.111   0.683
 4975SOL     OW15823   5.682   3.863   6.685
 4975SOL    HW115824   5.748   3.938   6.683
 4975SOL    HW215825   5.592   3.899   6.709
 4976SOL     OW15826   1.626   1.383   4.435
 4976SOL    HW115827   1.586   1.291   4.428
 4976SOL    HW215828   1.568   1.448   4.387
 4977SOL     OW15829   4.494   5.139   0.000
 4977SOL    HW115830   4.488   5.044   0.031
 4977SOL    HW215831   4.404   5.171   6.997
 4978SOL     OW15832   5.943   5.181   5.050
 4978SOL    HW115833   5.849   5.146   5.058
 4978SOL    HW215834   6.000   5.138   5.120
 4979SOL     OW15835   6.791   6.659   5.935
 4979SOL    HW115836   6.726   6.697   5.869
 4979SOL    HW215837   6.822   6.731   5.996
 4980SOL     OW15838   5.434   5.181   3.551
 4980SOL    HW115839   5.336   5.168   3.562
 4980SOL    HW215840   5.482   5.099   3.583
 4981SOL     OW15841   4.126   5.467   1.525
 4981SOL    HW115842   4.105   5.423   1.613
 4981SOL    HW215843   4.153   5.397   1.458
 4982SOL     OW15844   3.216   2.275   5.745
 4982SOL    HW115845   3.192   2.344   5.813
 4982SOL    HW215846   3.304   2.298   5.703
 4983SOL     OW15847   5.531   3.919   5.232
 4983SOL    HW115848   5.540   4.017   5.210
 4983SOL    HW215849   5.547   3.906   5.330
 4984SOL     OW15850   4.901   3.734   2.894
 4984SOL    HW115851   4.924   3.673   2.969
 4984SOL    HW215852   4.863   3.680   2.818
 4985SOL     OW15853   5.870   7.016   3.130
 4985SOL    HW115854   5.775   6.986   3.142
 4985SOL    HW215855   5.884   0.017   3.034
 4986SOL     OW15856   6.707   5.180   0.476
 4986SOL    HW115857   6.713   5.248   0.402
 4986SOL    HW215858   6.618   5.136   0.472
 4987SOL     OW15859   0.868   6.644   2.480
 4987SOL    HW115860   0.828   6.697   2.555
 4987SOL    HW215861   0.807   6.647   2.401
 4988SOL     OW15862   5.046   1.278   2.635
 4988SOL    HW115863   5.007   1.300   2.724
 4988SOL    HW215864   5.126   1.335   2.619
 4989SOL     OW15865   5.276   6.571   1.170
 4989SOL    HW115866   5.201   6.579   1.104
 4989SOL    HW215867   5.239   6.542   1.258
 4990SOL     OW15868   3.002   2.089   6.172
 4990SOL    HW115869   2.921   2.123   6.124
 4990SOL    HW215870   3.015   1.992   6.150
 4991SOL     OW15871   6.095   5.428   4.153
 4991SOL    HW115872   6.169   5.427   4.085
 4991SOL    HW215873   6.009   5.402   4.108
 4992SOL     OW15874   4.998   0.198   2.042
 4992SOL    HW115875   4.946   0.186   2.127
 4992SOL    HW215876   4.962   0.277   1.992
 4993SOL     OW15877   3.587   6.351   5.212
 4993SOL    HW115878   3.664   6.390   5.160
 4993SOL    HW215879   3.622   6.297   5.289
 4994SOL     OW15880   2.049   6.742   4.601
 4994SOL    HW115881   2.004   6.754   4.513
 4994SOL    HW215882   2.054   6.830   4.648
 4995SOL     OW15883   0.776   2.206   5.389
 4995SOL    HW115884   0.780   2.284   5.327
 4995SOL    HW215885   0.769   2.122   5.336
 4996SOL     OW15886   0.121   1.164   3.509
 4996SOL    HW115887   0.185   1.133   3.438
 4996SOL    HW215888   0.030   1.129   3.489
 4997SOL     OW15889   4.416   2.322   2.235
 4997SOL    HW115890   4.443   2.226   2.247
 4997SOL    HW215891   4.445   2.375   2.315
 4998SOL     OW15892   2.077   3.582   4.394
 4998SOL    HW115893   2.135   3.574   4.475
 4998SOL    HW215894   2.012   3.507   4.393
 4999SOL     OW15895   6.767   3.515   4.858
 4999SOL    HW115896   6.695   3.448   4.841
 4999SOL    HW215897   6.854   3.468   4.869
 5000SOL     OW15898   3.354   0.218   3.410
 5000SOL    HW115899   3.319   0.295   3.356
 5000SOL    HW215900   3.303   0.136   3.386
 5001SOL     OW15901   0.839   4.891   1.833
 5001SOL    HW115902   0.828   4.795   1.859
 5001SOL    HW215903   0.762   4.944   1.870
 5002SOL     OW15904   0.538   3.731   2.196
 5002SOL    HW115905   0.602   3.687   2.133
 5002SOL    HW215906   0.489   3.804   2.148
 5003SOL     OW15907   3.476   5.680   2.984
 5003SOL    HW115908   3.396   5.652   3.037
 5003SOL    HW215909   3.557   5.676   3.043
 5004SOL     OW15910   2.499   4.909   5.437
 5004SOL    HW115911   2.508   4.931   5.340
 5004SOL    HW215912   2.580   4.860   5.468
 5005SOL     OW15913   3.452   2.829   0.180
 5005SOL    HW115914   3.499   2.824   0.268
 5005SOL    HW215915   3.376   2.894   0.186
 5006SOL     OW15916   5.319   0.761   1.916
 5006SOL    HW115917   5.263   0.707   1.979
 5006SOL    HW215918   5.416   0.738   1.930
 5007SOL     OW15919   0.149   6.718   1.678
 5007SOL    HW115920   0.205   6.795   1.709
 5007SOL    HW215921   0.192   6.676   1.598
 5008SOL     OW15922   5.328   6.145   2.185
 5008SOL    HW115923   5.301   6.063   2.135
 5008SOL    HW215924   5.360   6.119   2.276
 5009SOL     OW15925   6.941   2.136   0.281
 5009SOL    HW115926   6.857   2.181   0.248
 5009SOL    HW215927   6.926   2.038   0.288
 5010SOL     OW15928   3.858   2.835   1.489
 5010SOL    HW115929   3.942   2.795   1.525
 5010SOL    HW215930   3.882   2.908   1.425
 5011SOL     OW15931   1.536   4.863   1.881
 5011SOL    HW115932   1.517   4.854   1.783
 5011SOL    HW215933   1.519   4.776   1.926
 5012SOL     OW15934   5.746   3.183   5.172
 5012SOL    HW115935   5.677   3.143   5.112
 5012SOL    HW215936   5.703   3.213   5.257
 5013SOL     OW15937   5.331   1.563   6.681
 5013SOL    HW115938   5.357   1.641   6.625
 5013SOL    HW215939   5.266   1.593   6.752
 5014SOL     OW15940   5.630   4.380   1.266
 5014SOL    HW115941   5.691   4.304   1.244
 5014SOL    HW215942   5.675   4.442   1.330
 5015SOL     OW15943   5.228   1.739   5.096
 5015SOL    HW115944   5.320   1.719   5.130
 5015SOL    HW215945   5.230   1.826   5.045
 5016SOL     OW15946   1.808   3.042   5.463
 5016SOL    HW115947   1.724   3.013   5.417
 5016SOL    HW215948   1.820   3.141   5.453
 5017SOL     OW15949   2.395   2.307   1.206
 5017SOL    HW115950   2.458   2.320   1.130
 5017SOL    HW215951   2.442   2.327   1.292
 5018SOL     OW15952   1.010   4.905   2.873
 5018SOL    HW115953   0.924   4.861   2.851
 5018SOL    HW215954   1.020   4.911   2.972
 5019SOL     OW15955   1.362   5.629   5.823
 5019SOL    HW115956   1.335   5.722   5.847
 5019SOL    HW215957   1.306   5.564   5.873
 5020SOL     OW15958   5.563   0.117   6.179
 5020SOL    HW115959   5.581   0.138   6.275
 5020SOL    HW215960   5.613   0.035   6.152
 5021SOL     OW15961   0.905   1.433   0.115
 5021SOL    HW115962   0.941   1.364   0.178
 5021SOL    HW215963   0.832   1.392   0.059
 5022SOL     OW15964   2.545   1.891   0.648
 5022SOL    HW115965   2.575   1.946   0.726
 5022SOL    HW215966   2.512   1.952   0.576
 5023SOL     OW15967   0.286   3.325   1.552
 5023SOL    HW115968   0.253   3.345   1.644
 5023SOL    HW215969   0.262   3.400   1.490
 5024SOL     OW15970   6.058   5.539   1.625
 5024SOL    HW115971   6.065   5.630   1.665
 5024SOL    HW215972   6.063   5.545   1.525
 5025SOL     OW15973   4.204   1.901   3.658
 5025SOL    HW115974   4.258   1.820   3.683
 5025SOL    HW215975   4.122   1.905   3.715
 5026SOL     OW15976   6.439   6.306   5.472
 5026SOL    HW115977   6.513   6.325   5.537
 5026SOL    HW215978   6.471   6.240   5.405
 5027SOL     OW15979   6.546   6.389   1.821
 5027SOL    HW115980   6.463   6.416   1.772
 5027SOL    HW215981   6.533   6.299   1.863
 5028SOL     OW15982   0.285   2.148   2.129
 5028SOL    HW115983   0.227   2.222   2.096
 5028SOL    HW215984   0.372   2.149   2.079
 5029SOL     OW15985   6.428   2.247   2.281
 5029SOL    HW115986   6.462   2.265   2.373
 5029SOL    HW215987   6.382   2.158   2.279
 5030SOL     OW15988   0.435   5.924   6.506
 5030SOL    HW115989   0.337   5.942   6.516
 5030SOL    HW215990   0.468   5.961   6.420
 5031SOL     OW15991   6.483   0.845   6.439
 5031SOL    HW115992   6.409   0.874   6.378
 5031SOL    HW215993   6.535   0.926   6.468
 5032SOL     OW15994   2.442   2.604   6.028
 5032SOL    HW115995   2.445   2.513   5.986
 5032SOL    HW215996   2.516   2.613   6.094
 5033SOL     OW15997   2.110   6.928   5.916
 5033SOL    HW115998   2.031   6.974   5.957
 5033SOL    HW215999   2.098   6.829   5.923
 5034SOL     OW16000   6.175   0.086   3.367
 5034SOL    HW116001   6.158   7.025   3.320
 5034SOL    HW216002   6.130   0.161   3.316
 5035SOL     OW16003   0.503   4.030   5.908
 5035SOL    HW116004   0.494   4.028   5.808
 5035SOL    HW216005   0.412   4.040   5.948
 5036SOL     OW16006   0.474   4.933   6.783
 5036SOL    HW116007   0.399   4.993   6.810
 5036SOL    HW216008   0.458   4.898   6.691
 5037SOL     OW16009   5.317   3.934   1.825
 5037SOL    HW116010   5.411   3.965   1.812
 5037SOL    HW216011   5.277   3.982   1.902
 5038SOL     OW16012   3.445   3.748   5.901
 5038SOL    HW116013   3.397   3.706   5.824
 5038SOL    HW216014   3.402   3.835   5.924
 5039SOL     OW16015   2.499   4.479   5.850
 5039SOL    HW116016   2.502   4.413   5.774
 5039SOL    HW216017   2.437   4.553   5.826
 5040SOL     OW16018   1.537   6.707   5.953
 5040SOL    HW116019   1.493   6.637   6.009
 5040SOL    HW216020   1.467   6.755   5.899
 5041SOL     OW16021   1.774   1.786   2.649
 5041SOL    HW116022   1.707   1.713   2.655
 5041SOL    HW216023   1.864   1.752   2.676
 5042SOL     OW16024   6.299   3.330   6.954
 5042SOL    HW116025   6.322   3.385   6.873
 5042SOL    HW216026   6.204   3.299   6.947
 5043SOL     OW16027   3.428   6.932   6.227
 5043SOL    HW116028   3.446   6.944   6.130
 5043SOL    HW216029   3.382   7.013   6.263
 5044SOL     OW16030   0.653   6.352   0.261
 5044SOL    HW116031   0.716   6.426   0.286
 5044SOL    HW216032   0.653   6.339   0.162
 5045SOL     OW16033   5.895   0.163   6.089
 5045SOL    HW116034   5.882   0.230   6.016
 5045SOL    HW216035   5.902   0.072   6.050
 5046SOL     OW16036   3.325   4.118   2.762
 5046SOL    HW116037   3.304   4.190   2.828
 5046SOL    HW216038   3.279   4.034   2.790
 5047SOL     OW16039   0.924   3.889   2.702
 5047SOL    HW116040   0.967   3.837   2.775
 5047SOL    HW216041   0.899   3.980   2.736
 5048SOL     OW16042   1.243   1.302   2.792
 5048SOL    HW116043   1.329   1.350   2.772
 5048SOL    HW216044   1.211   1.327   2.883
 5049SOL     OW16045   5.120   1.990   6.524
 5049SOL    HW116046   5.102   2.085   6.549
 5049SOL    HW216047   5.203   1.986   6.467
 5050SOL     OW16048   2.168   0.618   1.397
 5050SOL    HW116049   2.186   0.532   1.446
 5050SOL    HW216050   2.098   0.670   1.446
 5051SOL     OW16051   4.273   4.434   0.714
 5051SOL    HW116052   4.306   4.376   0.640
 5051SOL    HW216053   4.182   4.469   0.691
 5052SOL     OW16054   2.371   0.828   5.951
 5052SOL    HW116055   2.432   0.843   6.028
 5052SOL    HW216056   2.328   0.914   5.924
 5053SOL     OW16057   1.887   3.586   4.136
 5053SOL    HW116058   1.929   3.563   4.047
 5053SOL    HW216059   1.959   3.607   4.202
 5054SOL     OW16060   3.367   4.897   4.382
 5054SOL    HW116061   3.394   4.922   4.476
 5054SOL    HW216062   3.432   4.830   4.346
 5055SOL     OW16063   1.780   2.406   5.270
 5055SOL    HW116064   1.823   2.361   5.348
 5055SOL    HW216065   1.688   2.370   5.257
 5056SOL     OW16066   5.503   4.117   6.480
 5056SOL    HW116067   5.422   4.166   6.448
 5056SOL    HW216068   5.485   4.077   6.570
 5057SOL     OW16069   6.711   6.174   3.710
 5057SOL    HW116070   6.638   6.134   3.765
 5057SOL    HW216071   6.728   6.268   3.740
 5058SOL     OW16072   3.259   4.045   5.676
 5058SOL    HW116073   3.341   4.098   5.657
 5058SOL    HW216074   3.272   3.951   5.645
 5059SOL     OW16075   6.735   1.434   2.898
 5059SOL    HW116076   6.711   1.364   2.832
 5059SOL    HW216077   6.798   1.396   2.966
 5060SOL     OW16078   0.852   2.084   6.056
 5060SOL    HW116079   0.933   2.029   6.040
 5060SOL    HW216080   0.786   2.069   5.982
 5061SOL     OW16081   4.389   2.772   1.308
 5061SOL    HW116082   4.477   2.789   1.354
 5061SOL    HW216083   4.319   2.754   1.377
 5062SOL     OW16084   5.850   0.607   3.421
 5062SOL    HW116085   5.760   0.564   3.426
 5062SOL    HW216086   5.920   0.537   3.408
 5063SOL     OW16087   0.988   0.097   2.345
 5063SOL    HW116088   1.043   0.179   2.355
 5063SOL    HW216089   0.920   0.094   2.419
 5064SOL     OW16090   4.994   3.623   1.371
 5064SOL    HW116091   4.939   3.547   1.337
 5064SOL    HW216092   5.091   3.601   1.360
 5065SOL     OW16093   2.240   0.701   4.178
 5065SOL    HW116094   2.188   0.617   4.163
 5065SOL    HW216095   2.292   0.693   4.263
 5066SOL     OW16096   5.025   4.824   2.657
 5066SOL    HW116097   5.033   4.889   2.732
 5066SOL    HW216098   4.937   4.775   2.664
 5067SOL     OW16099   4.442   1.350   1.726
 5067SOL    HW116100   4.458   1.354   1.825
 5067SOL    HW216101   4.530   1.350   1.678
 5068SOL     OW16102   3.120   4.083   0.983
 5068SOL    HW116103   3.167   3.996   0.968
 5068SOL    HW216104   3.169   4.137   1.051
 5069SOL     OW16105   1.946   3.903   5.879
 5069SOL    HW116106   1.869   3.957   5.913
 5069SOL    HW216107   2.023   3.965   5.860
 5070SOL     OW16108   5.064   4.018   4.336
 5070SOL    HW116109   4.967   4.037   4.325
 5070SOL    HW216110   5.084   3.925   4.305
 5071SOL     OW16111   4.369   2.399   3.949
 5071SOL    HW116112   4.364   2.374   3.853
 5071SOL    HW216113   4.448   2.459   3.965
 5072SOL     OW16114   1.127   0.185   0.692
 5072SOL    HW116115   1.210   0.202   0.746
 5072SOL    HW216116   1.048   0.220   0.742
 5073SOL     OW16117   6.993   5.864   2.465
 5073SOL    HW116118   0.052   5.908   2.492
 5073SOL    HW216119   6.978   5.877   2.367
 5074SOL     OW16120   3.139   3.152   1.112
 5074SOL    HW116121   3.091   3.197   1.188
 5074SOL    HW216122   3.203   3.217   1.071
 5075SOL     OW16123   1.405   2.178   6.899
 5075SOL    HW116124   1.425   2.276   6.908
 5075SOL    HW216125   1.307   2.165   6.881
 5076SOL     OW16126   3.668   1.273   0.746
 5076SOL    HW116127   3.625   1.185   0.763
 5076SOL    HW216128   3.768   1.261   0.744
 5077SOL     OW16129   0.862   4.023   5.474
 5077SOL    HW116130   0.953   4.017   5.435
 5077SOL    HW216131   0.800   4.068   5.410
 5078SOL     OW16132   2.157   1.652   4.010
 5078SOL    HW116133   2.167   1.642   4.108
 5078SOL    HW216134   2.077   1.601   3.979
 5079SOL     OW16135   2.154   3.627   5.765
 5079SOL    HW116136   2.074   3.662   5.716
 5079SOL    HW216137   2.191   3.548   5.716
 5080SOL     OW16138   6.294   6.255   6.170
 5080SOL    HW116139   6.210   6.309   6.170
 5080SOL    HW216140   6.365   6.304   6.119
 5081SOL     OW16141   3.564   2.879   4.353
 5081SOL    HW116142   3.579   2.790   4.310
 5081SOL    HW216143   3.648   2.933   4.351
 5082SOL     OW16144   5.224   6.308   6.667
 5082SOL    HW116145   5.188   6.217   6.686
 5082SOL    HW216146   5.152   6.366   6.629
 5083SOL     OW16147   2.833   0.134   3.016
 5083SOL    HW116148   2.783   0.129   3.103
 5083SOL    HW216149   2.931   0.143   3.035
 5084SOL     OW16150   0.477   4.447   4.284
 5084SOL    HW116151   0.403   4.512   4.271
 5084SOL    HW216152   0.449   4.357   4.251
 5085SOL     OW16153   4.667   3.632   6.442
 5085SOL    HW116154   4.639   3.630   6.538
 5085SOL    HW216155   4.589   3.659   6.386
 5086SOL     OW16156   0.207   5.192   3.484
 5086SOL    HW116157   0.268   5.126   3.528
 5086SOL    HW216158   0.250   5.282   3.484
 5087SOL     OW16159   0.331   4.771   2.858
 5087SOL    HW116160   0.276   4.844   2.816
 5087SOL    HW216161   0.289   4.743   2.944
 5088SOL     OW16162   6.340   1.542   5.124
 5088SOL    HW116163   6.278   1.617   5.100
 5088SOL    HW216164   6.359   1.486   5.043
 5089SOL     OW16165   5.297   3.239   3.767
 5089SOL    HW116166   5.331   3.173   3.835
 5089SOL    HW216167   5.206   3.270   3.795
 5090SOL     OW16168   1.949   3.848   2.965
 5090SOL    HW116169   1.908   3.847   2.873
 5090SOL    HW216170   1.876   3.851   3.033
 5091SOL     OW16171   1.293   7.026   2.565
 5091SOL    HW116172   1.358   0.043   2.627
 5091SOL    HW216173   1.310   0.031   2.471
 5092SOL     OW16174   3.575   3.117   1.622
 5092SOL    HW116175   3.569   3.083   1.528
 5092SOL    HW216176   3.665   3.157   1.638
 5093SOL     OW16177   3.061   1.395   0.912
 5093SOL    HW116178   3.072   1.318   0.849
 5093SOL    HW216179   3.114   1.379   0.995
 5094SOL     OW16180   1.501   6.171   5.380
 5094SOL    HW116181   1.591   6.147   5.417
 5094SOL    HW216182   1.477   6.264   5.409
 5095SOL     OW16183   0.097   2.791   4.780
 5095SOL    HW116184   0.117   2.886   4.805
 5095SOL    HW216185   0.020   2.788   4.717
 5096SOL     OW16186   4.104   3.924   0.912
 5096SOL    HW116187   4.132   4.001   0.970
 5096SOL    HW216188   4.071   3.850   0.970
 5097SOL     OW16189   1.183   0.615   6.936
 5097SOL    HW116190   1.187   0.581   0.004
 5097SOL    HW216191   1.270   0.596   6.890
 5098SOL     OW16192   1.566   0.733   1.450
 5098SOL    HW116193   1.571   0.781   1.538
 5098SOL    HW216194   1.546   0.798   1.377
 5099SOL     OW16195   0.650   6.314   6.981
 5099SOL    HW116196   0.636   6.303   6.883
 5099SOL    HW216197   0.638   6.410   7.007
 5100SOL     OW16198   4.097   6.056   5.362
 5100SOL    HW116199   4.025   5.987   5.368
 5100SOL    HW216200   4.055   6.146   5.350
 5101SOL     OW16201   3.926   6.887   0.588
 5101SOL    HW116202   3.876   6.805   0.618
 5101SOL    HW216203   3.863   6.946   0.537
 5102SOL     OW16204   6.373   0.656   4.738
 5102SOL    HW116205   6.445   0.724   4.753
 5102SOL    HW216206   6.376   0.587   4.811
 5103SOL     OW16207   0.387   0.835   4.166
 5103SOL    HW116208   0.420   0.866   4.077
 5103SOL    HW216209   0.412   0.902   4.236
 5104SOL     OW16210   1.972   6.556   2.469
 5104SOL    HW116211   1.916   6.574   2.388
 5104SOL    HW216212   2.031   6.635   2.487
 5105SOL     OW16213   3.499   2.583   0.052
 5105SOL    HW116214   3.458   2.589   6.986
 5105SOL    HW216215   3.500   2.673   0.094
 5106SOL     OW16216   3.304   1.060   1.041
 5106SOL    HW116217   3.279   1.087   0.948
 5106SOL    HW216218   3.222   1.053   1.098
 5107SOL     OW16219   4.432   0.676   1.059
 5107SOL    HW116220   4.377   0.635   0.986
 5107SOL    HW216221   4.437   0.775   1.047
 5108SOL     OW16222   3.004   3.718   4.400
 5108SOL    HW116223   3.082   3.719   4.338
 5108SOL    HW216224   3.035   3.688   4.491
 5109SOL     OW16225   1.373   0.591   1.088
 5109SOL    HW116226   1.309   0.538   1.144
 5109SOL    HW216227   1.444   0.630   1.147
 5110SOL     OW16228   0.513   0.520   6.593
 5110SOL    HW116229   0.507   0.435   6.540
 5110SOL    HW216230   0.566   0.504   6.676
 5111SOL     OW16231   2.149   0.959   5.571
 5111SOL    HW116232   2.073   1.010   5.612
 5111SOL    HW216233   2.121   0.924   5.481
 5112SOL     OW16234   0.824   0.040   2.549
 5112SOL    HW116235   0.739   7.015   2.559
 5112SOL    HW216236   0.838   0.099   2.629
 5113SOL     OW16237   2.273   0.136   2.042
 5113SOL    HW116238   2.263   0.042   2.011
 5113SOL    HW216239   2.302   0.137   2.138
 5114SOL     OW16240   3.322   2.530   0.316
 5114SOL    HW116241   3.276   2.603   0.368
 5114SOL    HW216242   3.386   2.571   0.252
 5115SOL     OW16243   2.237   5.095   4.607
 5115SOL    HW116244   2.184   5.015   4.633
 5115SOL    HW216245   2.187   5.178   4.633
 5116SOL     OW16246   5.829   6.525   6.680
 5116SOL    HW116247   5.838   6.427   6.661
 5116SOL    HW216248   5.751   6.562   6.629
 5117SOL     OW16249   1.920   4.651   4.646
 5117SOL    HW116250   1.846   4.625   4.584
 5117SOL    HW216251   1.944   4.573   4.704
 5118SOL     OW16252   4.449   0.289   0.727
 5118SOL    HW116253   4.536   0.337   0.715
 5118SOL    HW216254   4.374   0.346   0.692
 5119SOL     OW16255   5.333   0.956   1.748
 5119SOL    HW116256   5.261   0.959   1.680
 5119SOL    HW216257   5.324   0.874   1.804
 5120SOL     OW16258   4.266   1.265   3.728
 5120SOL    HW116259   4.319   1.248   3.645
 5120SOL    HW216260   4.216   1.351   3.720
 5121SOL     OW16261   2.380   2.457   6.947
 5121SOL    HW116262   2.475   2.429   6.932
 5121SOL    HW216263   2.320   2.377   6.940
 5122SOL     OW16264   3.129   0.414   3.977
 5122SOL    HW116265   3.169   0.502   4.001
 5122SOL    HW216266   3.131   0.402   3.878
 5123SOL     OW16267   5.997   2.386   4.835
 5123SOL    HW116268   6.036   2.360   4.924
 5123SOL    HW216269   6.061   2.363   4.762
 5124SOL     OW16270   2.846   5.305   4.778
 5124SOL    HW116271   2.920   5.242   4.801
 5124SOL    HW216272   2.784   5.315   4.856
 5125SOL     OW16273   6.238   3.075   4.249
 5125SOL    HW116274   6.191   3.041   4.330
 5125SOL    HW216275   6.181   3.144   4.203
 5126SOL     OW16276   6.002   5.193   6.234
 5126SOL    HW116277   5.993   5.291   6.216
 5126SOL    HW216278   5.957   5.142   6.161
 5127SOL     OW16279   6.771   3.869   0.401
 5127SOL    HW116280   6.792   3.921   0.318
 5127SOL    HW216281   6.765   3.931   0.479
 5128SOL     OW16282   0.003   6.747   6.763
 5128SOL    HW116283   0.080   6.805   6.787
 5128SOL    HW216284   6.952   6.765   6.824
 5129SOL     OW16285   4.410   0.338   2.772
 5129SOL    HW116286   4.368   0.426   2.795
 5129SOL    HW216287   4.455   0.300   2.853
 5130SOL     OW16288   1.578   6.114   4.418
 5130SOL    HW116289   1.578   6.210   4.391
 5130SOL    HW216290   1.493   6.094   4.467
 5131SOL     OW16291   3.012   4.869   3.578
 5131SOL    HW116292   2.991   4.846   3.673
 5131SOL    HW216293   2.945   4.827   3.518
 5132SOL     OW16294   3.565   1.071   6.130
 5132SOL    HW116295   3.627   0.998   6.102
 5132SOL    HW216296   3.524   1.048   6.218
 5133SOL     OW16297   2.382   5.545   6.652
 5133SOL    HW116298   2.448   5.596   6.706
 5133SOL    HW216299   2.421   5.523   6.563
 5134SOL     OW16300   0.034   0.053   2.515
 5134SOL    HW116301   0.017   0.037   2.418
 5134SOL    HW216302   7.018   7.006   2.569
 5135SOL     OW16303   5.344   3.501   4.072
 5135SOL    HW116304   5.255   3.468   4.041
 5135SOL    HW216305   5.342   3.515   4.171
 5136SOL     OW16306   5.668   0.651   5.944
 5136SOL    HW116307   5.725   0.646   5.862
 5136SOL    HW216308   5.669   0.744   5.981
 5137SOL     OW16309   5.433   3.381   5.162
 5137SOL    HW116310   5.363   3.442   5.201
 5137SOL    HW216311   5.493   3.433   5.102
 5138SOL     OW16312   3.399   4.028   4.704
 5138SOL    HW116313   3.371   4.003   4.611
 5138SOL    HW216314   3.320   4.057   4.757
 5139SOL     OW16315   0.801   0.267   4.597
 5139SOL    HW116316   0.735   0.302   4.530
 5139SOL    HW216317   0.753   0.211   4.664
 5140SOL     OW16318   4.089   2.488   5.694
 5140SOL    HW116319   3.993   2.512   5.683
 5140SOL    HW216320   4.147   2.559   5.653
 5141SOL     OW16321   6.831   3.717   0.901
 5141SOL    HW116322   6.914   3.773   0.890
 5141SOL    HW216323   6.781   3.747   0.981
 5142SOL     OW16324   5.389   6.631   4.876
 5142SOL    HW116325   5.351   6.716   4.914
 5142SOL    HW216326   5.454   6.591   4.941
 5143SOL     OW16327   0.664   4.230   4.809
 5143SOL    HW116328   0.649   4.205   4.904
 5143SOL    HW216329   0.760   4.219   4.786
 5144SOL     OW16330   1.936   4.275   6.040
 5144SOL    HW116331   1.852   4.321   6.068
 5144SOL    HW216332   1.972   4.318   5.957
 5145SOL     OW16333   4.108   6.055   6.187
 5145SOL    HW116334   4.027   6.058   6.127
 5145SOL    HW216335   4.084   6.093   6.276
 5146SOL     OW16336   3.795   4.374   5.237
 5146SOL    HW116337   3.753   4.377   5.147
 5146SOL    HW216338   3.873   4.311   5.235
 5147SOL     OW16339   6.130   5.038   3.487
 5147SOL    HW116340   6.126   5.041   3.388
 5147SOL    HW216341   6.225   5.035   3.517
 5148SOL     OW16342   0.586   1.093   1.835
 5148SOL    HW116343   0.684   1.103   1.851
 5148SOL    HW216344   0.536   1.130   1.913
 5149SOL     OW16345   6.001   5.919   4.687
 5149SOL    HW116346   5.959   6.000   4.644
 5149SOL    HW216347   5.931   5.849   4.701
 5150SOL     OW16348   1.867   4.409   3.988
 5150SOL    HW116349   1.930   4.485   4.006
 5150SOL    HW216350   1.774   4.437   4.011
 5151SOL     OW16351   6.709   4.083   2.267
 5151SOL    HW116352   6.786   4.137   2.234
 5151SOL    HW216353   6.643   4.069   2.193
 5152SOL     OW16354   2.110   5.584   6.670
 5152SOL    HW116355   2.082   5.670   6.626
 5152SOL    HW216356   2.209   5.575   6.664
 5153SOL     OW16357   0.551   2.148   0.936
 5153SOL    HW116358   0.453   2.138   0.919
 5153SOL    HW216359   0.594   2.193   0.858
 5154SOL     OW16360   1.267   2.641   5.911
 5154SOL    HW116361   1.355   2.687   5.929
 5154SOL    HW216362   1.192   2.700   5.942
 5155SOL     OW16363   3.891   0.839   1.705
 5155SOL    HW116364   3.819   0.864   1.769
 5155SOL    HW216365   3.957   0.779   1.750
 5156SOL     OW16366   5.891   4.799   5.216
 5156SOL    HW116367   5.913   4.779   5.312
 5156SOL    HW216368   5.913   4.719   5.159
 5157SOL     OW16369   3.276   2.140   2.368
 5157SOL    HW116370   3.308   2.207   2.434
 5157SOL    HW216371   3.270   2.182   2.278
 5158SOL     OW16372   4.245   2.546   0.994
 5158SOL    HW116373   4.180   2.471   0.997
 5158SOL    HW216374   4.297   2.548   1.079
 5159SOL     OW16375   5.857   3.521   6.145
 5159SOL    HW116376   5.765   3.483   6.142
 5159SOL    HW216377   5.917   3.461   6.197
 5160SOL     OW16378   0.104   5.156   3.243
 5160SOL    HW116379   0.138   5.229   3.184
 5160SOL    HW216380   0.145   5.164   3.334
 5161SOL     OW16381   1.369   3.724   0.096
 5161SOL    HW116382   1.384   3.785   0.173
 5161SOL    HW216383   1.354   3.631   0.129
 5162SOL     OW16384   1.020   5.490   2.675
 5162SOL    HW116385   1.027   5.390   2.671
 5162SOL    HW216386   1.105   5.527   2.713
 5163SOL     OW16387   3.701   6.384   0.385
 5163SOL    HW116388   3.703   6.484   0.376
 5163SOL    HW216389   3.720   6.358   0.479
 5164SOL     OW16390   3.294   3.217   6.724
 5164SOL    HW116391   3.241   3.141   6.760
 5164SOL    HW216392   3.347   3.186   6.645
 5165SOL     OW16393   0.591   4.342   5.882
 5165SOL    HW116394   0.587   4.281   5.803
 5165SOL    HW216395   0.626   4.292   5.961
 5166SOL     OW16396   1.943   5.239   2.354
 5166SOL    HW116397   1.938   5.235   2.453
 5166SOL    HW216398   1.875   5.304   2.320
 5167SOL     OW16399   6.416   4.155   4.729
 5167SOL    HW116400   6.357   4.139   4.808
 5167SOL    HW216401   6.480   4.079   4.718
 5168SOL     OW16402   5.377   3.007   2.926
 5168SOL    HW116403   5.329   3.013   3.014
 5168SOL    HW216404   5.324   3.054   2.856
 5169SOL     OW16405   4.392   2.093   3.604
 5169SOL    HW116406   4.404   2.079   3.506
 5169SOL    HW216407   4.320   2.032   3.638
 5170SOL     OW16408   1.268   3.344   5.106
 5170SOL    HW116409   1.334   3.277   5.138
 5170SOL    HW216410   1.316   3.417   5.056
 5171SOL     OW16411   6.664   4.603   5.928
 5171SOL    HW116412   6.636   4.526   5.985
 5171SOL    HW216413   6.762   4.617   5.935
 5172SOL     OW16414   1.521   4.372   3.126
 5172SOL    HW116415   1.613   4.348   3.155
 5172SOL    HW216416   1.462   4.291   3.132
 5173SOL     OW16417   4.526   5.182   5.240
 5173SOL    HW116418   4.616   5.225   5.231
 5173SOL    HW216419   4.516   5.112   5.169
 5174SOL     OW16420   2.293   4.968   3.913
 5174SOL    HW116421   2.277   5.061   3.946
 5174SOL    HW216422   2.389   4.958   3.888
 5175SOL     OW16423   2.762   3.994   7.025
 5175SOL    HW116424   2.710   3.969   0.080
 5175SOL    HW216425   2.794   4.089   0.008
 5176SOL     OW16426   4.992   4.588   6.270
 5176SOL    HW116427   4.928   4.537   6.212
 5176SOL    HW216428   5.079   4.597   6.223
 5177SOL     OW16429   4.536   6.730   0.670
 5177SOL    HW116430   4.481   6.800   0.626
 5177SOL    HW216431   4.590   6.770   0.744
 5178SOL     OW16432   1.344   4.540   1.901
 5178SOL    HW116433   1.439   4.560   1.926
 5178SOL    HW216434   1.283   4.604   1.947
 5179SOL     OW16435   5.031   4.438   4.350
 5179SOL    HW116436   4.990   4.485   4.272
 5179SOL    HW216437   4.982   4.462   4.433
 5180SOL     OW16438   3.570   1.114   1.430
 5180SOL    HW116439   3.536   1.138   1.339
 5180SOL    HW216440   3.494   1.082   1.487
 5181SOL     OW16441   6.334   0.418   1.785
 5181SOL    HW116442   6.403   0.487   1.766
 5181SOL    HW216443   6.373   0.346   1.842
 5182SOL     OW16444   4.608   4.447   2.225
 5182SOL    HW116445   4.694   4.499   2.221
 5182SOL    HW216446   4.604   4.384   2.148
 5183SOL     OW16447   3.714   1.857   2.638
 5183SOL    HW116448   3.669   1.905   2.563
 5183SOL    HW216449   3.794   1.909   2.668
 5184SOL     OW16450   2.047   1.930   3.442
 5184SOL    HW116451   2.028   1.931   3.541
 5184SOL    HW216452   2.060   1.835   3.412
 5185SOL     OW16453   5.245   0.532   2.701
 5185SOL    HW116454   5.256   0.440   2.739
 5185SOL    HW216455   5.290   0.537   2.612
 5186SOL     OW16456   6.065   2.480   6.804
 5186SOL    HW116457   6.044   2.395   6.757
 5186SOL    HW216458   6.097   2.548   6.738
 5187SOL     OW16459   1.197   5.691   5.461
 5187SOL    HW116460   1.101   5.719   5.469
 5187SOL    HW216461   1.226   5.701   5.366
 5188SOL     OW16462   6.184   6.174   1.844
 5188SOL    HW116463   6.158   6.207   1.753
 5188SOL    HW216464   6.126   6.098   1.870
 5189SOL     OW16465   4.819   6.014   0.338
 5189SOL    HW116466   4.918   6.015   0.320
 5189SOL    HW216467   4.803   5.984   0.432
 5190SOL     OW16468   0.608   3.921   3.667
 5190SOL    HW116469   0.706   3.931   3.685
 5190SOL    HW216470   0.591   3.925   3.569
 5191SOL     OW16471   3.349   6.055   2.264
 5191SOL    HW116472   3.336   5.973   2.319
 5191SOL    HW216473   3.413   6.116   2.309
 5192SOL     OW16474   1.560   6.002   1.197
 5192SOL    HW116475   1.635   5.966   1.252
 5192SOL    HW216476   1.485   6.030   1.258
 5193SOL     OW16477   5.008   5.984   5.953
 5193SOL    HW116478   5.027   6.080   5.934
 5193SOL    HW216479   4.978   5.974   6.048
 5194SOL     OW16480   3.725   2.248   6.967
 5194SOL    HW116481   3.806   2.284   6.919
 5194SOL    HW216482   3.714   2.296   0.028
 5195SOL     OW16483   0.312   0.798   4.635
 5195SOL    HW116484   0.302   0.702   4.611
 5195SOL    HW216485   0.274   0.855   4.561
 5196SOL     OW16486   4.898   6.789   2.173
 5196SOL    HW116487   4.859   6.699   2.193
 5196SOL    HW216488   4.833   6.860   2.198
 5197SOL     OW16489   1.780   3.867   6.716
 5197SOL    HW116490   1.752   3.782   6.760
 5197SOL    HW216491   1.788   3.853   6.618
 5198SOL     OW16492   4.651   5.610   3.158
 5198SOL    HW116493   4.576   5.634   3.220
 5198SOL    HW216494   4.708   5.540   3.201
 5199SOL     OW16495   0.887   5.936   0.913
 5199SOL    HW116496   0.905   5.841   0.890
 5199SOL    HW216497   0.814   5.971   0.854
 5200SOL     OW16498   0.047   3.678   5.057
 5200SOL    HW116499   6.984   3.723   5.047
 5200SOL    HW216500   0.118   3.748   5.069
 5201SOL     OW16501   0.882   6.907   2.899
 5201SOL    HW116502   0.932   6.894   2.813
 5201SOL    HW216503   0.787   6.882   2.886
 5202SOL     OW16504   4.949   3.022   6.410
 5202SOL    HW116505   4.948   3.074   6.324
 5202SOL    HW216506   5.043   2.996   6.431
 5203SOL     OW16507   2.142   1.908   6.457
 5203SOL    HW116508   2.238   1.928   6.479
 5203SOL    HW216509   2.087   1.914   6.540
 5204SOL     OW16510   3.725   5.030   0.449
 5204SOL    HW116511   3.666   4.976   0.390
 5204SOL    HW216512   3.735   4.985   0.538
 5205SOL     OW16513   1.434   6.789   0.844
 5205SOL    HW116514   1.523   6.793   0.890
 5205SOL    HW216515   1.446   6.801   0.746
 5206SOL     OW16516   0.516   4.422   5.110
 5206SOL    HW116517   0.504   4.323   5.116
 5206SOL    HW216518   0.502   4.452   5.015
 5207SOL     OW16519   0.997   6.059   3.638
 5207SOL    HW116520   0.939   6.089   3.714
 5207SOL    HW216521   0.943   6.002   3.575
 5208SOL     OW16522   3.890   1.972   6.718
 5208SOL    HW116523   3.804   2.022   6.706
 5208SOL    HW216524   3.930   1.953   6.628
 5209SOL     OW16525   5.503   5.882   3.792
 5209SOL    HW116526   5.559   5.945   3.738
 5209SOL    HW216527   5.477   5.804   3.735
 5210SOL     OW16528   5.947   2.605   5.124
 5210SOL    HW116529   5.955   2.505   5.122
 5210SOL    HW216530   5.877   2.631   5.191
 5211SOL     OW16531   3.674   3.131   5.036
 5211SOL    HW116532   3.684   3.080   5.122
 5211SOL    HW216533   3.764   3.162   5.006
 5212SOL     OW16534   6.326   1.546   0.707
 5212SOL    HW116535   6.269   1.528   0.787
 5212SOL    HW216536   6.404   1.484   0.707
 5213SOL     OW16537   5.186   3.924   6.580
 5213SOL    HW116538   5.227   3.964   6.498
 5213SOL    HW216539   5.142   3.837   6.557
 5214SOL     OW16540   5.039   1.532   6.050
 5214SOL    HW116541   5.034   1.432   6.048
 5214SOL    HW216542   5.075   1.562   6.139
 5215SOL     OW16543   5.951   4.855   3.597
 5215SOL    HW116544   6.016   4.931   3.584
 5215SOL    HW216545   5.939   4.839   3.695
 5216SOL     OW16546   4.316   5.113   1.552
 5216SOL    HW116547   4.259   5.139   1.474
 5216SOL    HW216548   4.258   5.076   1.625
 5217SOL     OW16549   3.498   5.413   3.802
 5217SOL    HW116550   3.503   5.329   3.857
 5217SOL    HW216551   3.402   5.439   3.792
 5218SOL     OW16552   1.169   0.588   3.119
 5218SOL    HW116553   1.090   0.615   3.174
 5218SOL    HW216554   1.232   0.666   3.112
 5219SOL     OW16555   3.884   0.566   5.590
 5219SOL    HW116556   3.973   0.521   5.578
 5219SOL    HW216557   3.883   0.652   5.539
 5220SOL     OW16558   1.666   5.805   2.706
 5220SOL    HW116559   1.612   5.756   2.638
 5220SOL    HW216560   1.646   5.769   2.797
 5221SOL     OW16561   5.511   2.095   3.830
 5221SOL    HW116562   5.466   2.158   3.766
 5221SOL    HW216563   5.479   2.002   3.811
 5222SOL     OW16564   2.434   6.642   3.258
 5222SOL    HW116565   2.441   6.543   3.243
 5222SOL    HW216566   2.431   6.689   3.169
 5223SOL     OW16567   5.600   0.671   1.105
 5223SOL    HW116568   5.655   0.592   1.134
 5223SOL    HW216569   5.646   0.717   1.029
 5224SOL     OW16570   0.262   2.201   4.045
 5224SOL    HW116571   0.246   2.102   4.045
 5224SOL    HW216572   0.199   2.245   4.109
 5225SOL     OW16573   6.766   0.220   3.422
 5225SOL    HW116574   6.759   0.307   3.374
 5225SOL    HW216575   6.753   0.236   3.520
 5226SOL     OW16576   0.749   5.930   5.211
 5226SOL    HW116577   0.829   5.987   5.190
 5226SOL    HW216578   0.670   5.989   5.227
 5227SOL     OW16579   1.654   4.794   3.816
 5227SOL    HW116580   1.641   4.700   3.783
 5227SOL    HW216581   1.579   4.852   3.782
 5228SOL     OW16582   6.353   2.249   1.059
 5228SOL    HW116583   6.450   2.224   1.056
 5228SOL    HW216584   6.344   2.346   1.078
 5229SOL     OW16585   1.668   4.035   0.180
 5229SOL    HW116586   1.639   4.071   0.269
 5229SOL    HW216587   1.588   4.012   0.125
 5230SOL     OW16588   0.438   6.753   1.406
 5230SOL    HW116589   0.532   6.782   1.423
 5230SOL    HW216590   0.376   6.826   1.432
 5231SOL     OW16591   3.864   3.479   4.924
 5231SOL    HW116592   3.820   3.516   4.842
 5231SOL    HW216593   3.917   3.551   4.969
 5232SOL     OW16594   3.282   1.983   5.785
 5232SOL    HW116595   3.198   1.947   5.744
 5232SOL    HW216596   3.272   2.082   5.798
 5233SOL     OW16597   5.819   0.241   1.721
 5233SOL    HW116598   5.760   0.169   1.757
 5233SOL    HW216599   5.793   0.261   1.627
 5234SOL     OW16600   2.116   0.281   6.787
 5234SOL    HW116601   2.152   0.336   6.863
 5234SOL    HW216602   2.038   0.228   6.818
 5235SOL     OW16603   2.461   2.953   1.179
 5235SOL    HW116604   2.413   2.944   1.266
 5235SOL    HW216605   2.557   2.926   1.191
 5236SOL     OW16606   5.731   3.726   2.312
 5236SOL    HW116607   5.750   3.818   2.349
 5236SOL    HW216608   5.751   3.725   2.214
 5237SOL     OW16609   2.688   0.757   5.687
 5237SOL    HW116610   2.728   0.716   5.768
 5237SOL    HW216611   2.762   0.786   5.624
 5238SOL     OW16612   1.424   4.769   0.545
 5238SOL    HW116613   1.521   4.789   0.540
 5238SOL    HW216614   1.392   4.784   0.639
 5239SOL     OW16615   3.997   3.789   4.488
 5239SOL    HW116616   3.959   3.870   4.532
 5239SOL    HW216617   4.087   3.769   4.527
 5240SOL     OW16618   2.825   1.721   6.393
 5240SOL    HW116619   2.791   1.684   6.307
 5240SOL    HW216620   2.817   1.820   6.392
 5241SOL     OW16621   1.304   5.354   6.585
 5241SOL    HW116622   1.234   5.288   6.613
 5241SOL    HW216623   1.260   5.440   6.559
 5242SOL     OW16624   0.203   6.858   5.538
 5242SOL    HW116625   0.140   6.782   5.524
 5242SOL    HW216626   0.297   6.823   5.539
 5243SOL     OW16627   0.986   5.478   1.470
 5243SOL    HW116628   1.064   5.430   1.430
 5243SOL    HW216629   1.018   5.538   1.543
 5244SOL     OW16630   3.506   4.296   5.799
 5244SOL    HW116631   3.415   4.319   5.833
 5244SOL    HW216632   3.552   4.235   5.864
 5245SOL     OW16633   4.560   4.604   0.032
 5245SOL    HW116634   4.553   4.505   0.016
 5245SOL    HW216635   4.509   4.628   0.114
 5246SOL     OW16636   5.771   4.710   2.667
 5246SOL    HW116637   5.728   4.717   2.757
 5246SOL    HW216638   5.870   4.716   2.676
 5247SOL     OW16639   1.525   6.075   0.749
 5247SOL    HW116640   1.437   6.053   0.705
 5247SOL    HW216641   1.558   6.163   0.715
 5248SOL     OW16642   5.919   0.062   4.870
 5248SOL    HW116643   5.849   7.018   4.886
 5248SOL    HW216644   5.942   0.063   4.772
 5249SOL     OW16645   0.594   5.164   4.867
 5249SOL    HW116646   0.533   5.173   4.946
 5249SOL    HW216647   0.686   5.140   4.898
 5250SOL     OW16648   0.726   0.955   5.717
 5250SOL    HW116649   0.756   1.028   5.779
 5250SOL    HW216650   0.775   0.871   5.738
 5251SOL     OW16651   0.709   3.540   0.975
 5251SOL    HW116652   0.624   3.581   0.942
 5251SOL    HW216653   0.696   3.509   1.070
 5252SOL     OW16654   1.980   5.523   1.108
 5252SOL    HW116655   2.061   5.500   1.054
 5252SOL    HW216656   1.904   5.542   1.046
 5253SOL     OW16657   6.226   4.138   4.997
 5253SOL    HW116658   6.141   4.166   5.043
 5253SOL    HW216659   6.303   4.149   5.060
 5254SOL     OW16660   5.420   0.797   3.808
 5254SOL    HW116661   5.325   0.776   3.787
 5254SOL    HW216662   5.437   0.894   3.790
 5255SOL     OW16663   4.280   0.210   6.062
 5255SOL    HW116664   4.372   0.250   6.066
 5255SOL    HW216665   4.279   0.125   6.115
 5256SOL     OW16666   4.637   0.648   3.419
 5256SOL    HW116667   4.565   0.711   3.451
 5256SOL    HW216668   4.622   0.558   3.459
 5257SOL     OW16669   4.680   6.970   2.240
 5257SOL    HW116670   4.599   6.983   2.183
 5257SOL    HW216671   4.745   0.018   2.224
 5258SOL     OW16672   4.863   3.408   1.234
 5258SOL    HW116673   4.846   3.310   1.225
 5258SOL    HW216674   4.948   3.432   1.186
 5259SOL     OW16675   4.318   5.793   0.974
 5259SOL    HW116676   4.368   5.873   0.940
 5259SOL    HW216677   4.248   5.824   1.040
 5260SOL     OW16678   5.645   3.557   1.271
 5260SOL    HW116679   5.726   3.522   1.318
 5260SOL    HW216680   5.596   3.619   1.332
 5261SOL     OW16681   1.743   3.255   6.113
 5261SOL    HW116682   1.732   3.201   6.030
 5261SOL    HW216683   1.668   3.236   6.176
 5262SOL     OW16684   3.244   0.191   2.493
 5262SOL    HW116685   3.308   0.117   2.470
 5262SOL    HW216686   3.287   0.254   2.557
 5263SOL     OW16687   1.004   0.918   5.154
 5263SOL    HW116688   0.955   0.925   5.067
 5263SOL    HW216689   0.947   0.955   5.227
 5264SOL     OW16690   6.544   0.484   2.579
 5264SOL    HW116691   6.446   0.485   2.563
 5264SOL    HW216692   6.565   0.535   2.663
 5265SOL     OW16693   4.995   4.473   3.132
 5265SOL    HW116694   5.070   4.539   3.133
 5265SOL    HW216695   4.918   4.510   3.184
 5266SOL     OW16696   2.676   0.722   2.507
 5266SOL    HW116697   2.642   0.704   2.414
 5266SOL    HW216698   2.644   0.650   2.568
 5267SOL     OW16699   4.722   4.558   5.875
 5267SOL    HW116700   4.639   4.503   5.866
 5267SOL    HW216701   4.698   4.651   5.905
 5268SOL     OW16702   5.860   6.471   5.738
 5268SOL    HW116703   5.906   6.427   5.660
 5268SOL    HW216704   5.905   6.443   5.823
 5269SOL     OW16705   2.150   6.796   4.171
 5269SOL    HW116706   2.086   6.757   4.237
 5269SOL    HW216707   2.132   6.893   4.160
 5270SOL     OW16708   5.098   1.571   2.098
 5270SOL    HW116709   5.185   1.523   2.091
 5270SOL    HW216710   5.067   1.570   2.193
 5271SOL     OW16711   4.899   5.271   4.694
 5271SOL    HW116712   4.937   5.179   4.682
 5271SOL    HW216713   4.921   5.304   4.786
 5272SOL     OW16714   2.074   5.777   3.021
 5272SOL    HW116715   2.002   5.834   2.982
 5272SOL    HW216716   2.107   5.819   3.106
 5273SOL     OW16717   0.274   3.343   3.491
 5273SOL    HW116718   0.205   3.393   3.543
 5273SOL    HW216719   0.258   3.245   3.501
 5274SOL     OW16720   6.016   5.647   2.393
 5274SOL    HW116721   6.064   5.564   2.366
 5274SOL    HW216722   5.951   5.673   2.322
 5275SOL     OW16723   3.751   1.350   6.277
 5275SOL    HW116724   3.705   1.335   6.189
 5275SOL    HW216725   3.736   1.271   6.336
 5276SOL     OW16726   1.159   6.811   1.222
 5276SOL    HW116727   1.200   6.769   1.302
 5276SOL    HW216728   1.211   6.787   1.141
 5277SOL     OW16729   1.853   2.656   2.791
 5277SOL    HW116730   1.777   2.613   2.840
 5277SOL    HW216731   1.939   2.632   2.834
 5278SOL     OW16732   5.015   7.004   3.962
 5278SOL    HW116733   4.961   0.056   3.930
 5278SOL    HW216734   5.079   0.010   4.032
 5279SOL     OW16735   1.542   5.515   6.680
 5279SOL    HW116736   1.627   5.495   6.631
 5279SOL    HW216737   1.488   5.431   6.688
 5280SOL     OW16738   2.741   5.834   5.751
 5280SOL    HW116739   2.654   5.784   5.755
 5280SOL    HW216740   2.730   5.922   5.797
 5281SOL     OW16741   1.002   1.520   3.502
 5281SOL    HW116742   1.072   1.590   3.521
 5281SOL    HW216743   0.919   1.541   3.553
 5282SOL     OW16744   1.857   1.252   2.887
 5282SOL    HW116745   1.924   1.272   2.816
 5282SOL    HW216746   1.867   1.319   2.962
 5283SOL     OW16747   2.870   0.280   2.266
 5283SOL    HW116748   2.776   0.310   2.247
 5283SOL    HW216749   2.919   0.352   2.315
 5284SOL     OW16750   5.081   2.987   2.822
 5284SOL    HW116751   5.026   3.055   2.774
 5284SOL    HW216752   5.050   2.895   2.795
 5285SOL     OW16753   1.158   4.355   4.394
 5285SOL    HW116754   1.092   4.295   4.439
 5285SOL    HW216755   1.250   4.317   4.406
 5286SOL     OW16756   6.906   3.963   1.274
 5286SOL    HW116757   6.997   3.928   1.295
 5286SOL    HW216758   6.881   4.032   1.341
 5287SOL     OW16759   1.334   5.963   1.704
 5287SOL    HW116760   1.393   5.882   1.696
 5287SOL    HW216761   1.377   6.027   1.768
 5288SOL     OW16762   3.737   1.038   2.424
 5288SOL    HW116763   3.706   1.084   2.507
 5288SOL    HW216764   3.670   0.969   2.397
 5289SOL     OW16765   2.020   5.073   6.286
 5289SOL    HW116766   2.034   4.975   6.298
 5289SOL    HW216767   2.024   5.095   6.188
 5290SOL     OW16768   1.528   4.372   5.889
 5290SOL    HW116769   1.466   4.303   5.926
 5290SOL    HW216770   1.494   4.404   5.801
 5291SOL     OW16771   2.757   4.856   5.984
 5291SOL    HW116772   2.690   4.866   6.057
 5291SOL    HW216773   2.845   4.826   6.022
 5292SOL     OW16774   6.199   4.808   6.498
 5292SOL    HW116775   6.272   4.825   6.431
 5292SOL    HW216776   6.132   4.882   6.493
 5293SOL     OW16777   1.273   0.206   4.275
 5293SOL    HW116778   1.347   0.233   4.336
 5293SOL    HW216779   1.310   0.181   4.186
 5294SOL     OW16780   5.848   3.022   4.823
 5294SOL    HW116781   5.877   3.112   4.855
 5294SOL    HW216782   5.825   2.965   4.902
 5295SOL     OW16783   3.929   1.068   2.908
 5295SOL    HW116784   3.867   1.123   2.964
 5295SOL    HW216785   3.954   1.120   2.826
 5296SOL     OW16786   3.025   5.286   6.919
 5296SOL    HW116787   3.033   5.290   6.819
 5296SOL    HW216788   3.013   5.379   6.955
 5297SOL     OW16789   2.278   2.378   0.580
 5297SOL    HW116790   2.309   2.302   0.638
 5297SOL    HW216791   2.358   2.427   0.546
 5298SOL     OW16792   1.242   5.938   0.349
 5298SOL    HW116793   1.266   5.916   0.254
 5298SOL    HW216794   1.157   5.890   0.373
 5299SOL     OW16795   2.185   3.049   0.585
 5299SOL    HW116796   2.209   2.957   0.614
 5299SOL    HW216797   2.137   3.046   0.498
 5300SOL     OW16798   0.765   5.840   1.336
 5300SOL    HW116799   0.768   5.899   1.417
 5300SOL    HW216800   0.821   5.880   1.264
 5301SOL     OW16801   3.425   2.252   6.635
 5301SOL    HW116802   3.339   2.213   6.667
 5301SOL    HW216803   3.425   2.255   6.535
 5302SOL     OW16804   5.927   5.684   4.136
 5302SOL    HW116805   5.942   5.680   4.037
 5302SOL    HW216806   5.839   5.642   4.158
 5303SOL     OW16807   6.605   5.718   3.509
 5303SOL    HW116808   6.639   5.811   3.523
 5303SOL    HW216809   6.548   5.715   3.427
 5304SOL     OW16810   5.321   1.328   0.065
 5304SOL    HW116811   5.240   1.350   0.010
 5304SOL    HW216812   5.310   1.237   0.105
 5305SOL     OW16813   0.789   5.085   2.820
 5305SOL    HW116814   0.788   5.077   2.920
 5305SOL    HW216815   0.881   5.108   2.790
 5306SOL     OW16816   0.924   4.136   4.783
 5306SOL    HW116817   0.980   4.202   4.833
 5306SOL    HW216818   0.918   4.051   4.836
 5307SOL     OW16819   4.708   1.813   0.333
 5307SOL    HW116820   4.780   1.882   0.322
 5307SOL    HW216821   4.623   1.857   0.363
 5308SOL     OW16822   0.710   5.882   3.717
 5308SOL    HW116823   0.788   5.855   3.774
 5308SOL    HW216824   0.655   5.801   3.696
 5309SOL     OW16825   4.581   4.320   1.258
 5309SOL    HW116826   4.511   4.389   1.238
 5309SOL    HW216827   4.608   4.327   1.354
 5310SOL     OW16828   6.460   3.749   2.244
 5310SOL    HW116829   6.505   3.808   2.178
 5310SOL    HW216830   6.497   3.656   2.237
 5311SOL     OW16831   6.271   5.912   6.881
 5311SOL    HW116832   6.173   5.900   6.899
 5311SOL    HW216833   6.317   5.823   6.887
 5312SOL     OW16834   6.995   5.344   1.848
 5312SOL    HW116835   6.916   5.389   1.804
 5312SOL    HW216836   0.047   5.344   1.785
 5313SOL     OW16837   1.454   3.909   6.744
 5313SOL    HW116838   1.425   4.004   6.735
 5313SOL    HW216839   1.537   3.905   6.800
 5314SOL     OW16840   3.380   6.387   0.658
 5314SOL    HW116841   3.353   6.448   0.584
 5314SOL    HW216842   3.337   6.418   0.743
 5315SOL     OW16843   4.822   3.806   1.452
 5315SOL    HW116844   4.902   3.748   1.437
 5315SOL    HW216845   4.803   3.814   1.549
 5316SOL     OW16846   0.876   3.944   5.011
 5316SOL    HW116847   0.792   3.988   5.043
 5316SOL    HW216848   0.886   3.854   5.053
 5317SOL     OW16849   6.529   6.898   4.592
 5317SOL    HW116850   6.577   6.811   4.577
 5317SOL    HW216851   6.546   6.959   4.515
 5318SOL     OW16852   0.256   2.821   6.506
 5318SOL    HW116853   0.295   2.901   6.460
 5318SOL    HW216854   0.302   2.808   6.594
 5319SOL     OW16855   3.521   6.722   0.122
 5319SOL    HW116856   3.459   6.645   0.110
 5319SOL    HW216857   3.471   6.808   0.112
 5320SOL     OW16858   5.886   5.188   0.158
 5320SOL    HW116859   5.943   5.169   0.078
 5320SOL    HW216860   5.907   5.122   0.230
 5321SOL     OW16861   1.315   4.991   4.009
 5321SOL    HW116862   1.366   5.000   4.095
 5321SOL    HW216863   1.289   4.895   3.997
 5322SOL     OW16864   5.030   6.457   6.576
 5322SOL    HW116865   4.993   6.478   6.486
 5322SOL    HW216866   4.971   6.498   6.646
 5323SOL     OW16867   3.951   1.531   6.711
 5323SOL    HW116868   3.869   1.576   6.677
 5323SOL    HW216869   4.011   1.598   6.755
 5324SOL     OW16870   4.280   2.402   0.738
 5324SOL    HW116871   4.323   2.345   0.807
 5324SOL    HW216872   4.219   2.345   0.682
 5325SOL     OW16873   4.746   0.590   4.377
 5325SOL    HW116874   4.799   0.674   4.387
 5325SOL    HW216875   4.655   0.603   4.416
 5326SOL     OW16876   0.459   5.024   3.342
 5326SOL    HW116877   0.557   5.009   3.353
 5326SOL    HW216878   0.413   5.011   3.429
 5327SOL     OW16879   5.909   3.126   5.609
 5327SOL    HW116880   5.938   3.169   5.695
 5327SOL    HW216881   5.810   3.114   5.611
 5328SOL     OW16882   4.676   2.785   4.979
 5328SOL    HW116883   4.712   2.850   4.912
 5328SOL    HW216884   4.745   2.715   4.998
 5329SOL     OW16885   0.118   4.865   6.638
 5329SOL    HW116886   0.145   4.958   6.617
 5329SOL    HW216887   0.026   4.848   6.603
 5330SOL     OW16888   3.677   4.433   5.648
 5330SOL    HW116889   3.764   4.388   5.625
 5330SOL    HW216890   3.627   4.376   5.713
 5331SOL     OW16891   5.205   1.069   0.663
 5331SOL    HW116892   5.249   1.076   0.573
 5331SOL    HW216893   5.265   1.109   0.732
 5332SOL     OW16894   0.467   3.718   1.630
 5332SOL    HW116895   0.518   3.804   1.632
 5332SOL    HW216896   0.523   3.646   1.589
 5333SOL     OW16897   1.017   0.738   3.715
 5333SOL    HW116898   1.071   0.726   3.798
 5333SOL    HW216899   0.998   0.648   3.675
 5334SOL     OW16900   4.170   0.204   4.421
 5334SOL    HW116901   4.179   0.298   4.390
 5334SOL    HW216902   4.229   0.145   4.365
 5335SOL     OW16903   5.749   5.779   2.496
 5335SOL    HW116904   5.712   5.759   2.587
 5335SOL    HW216905   5.744   5.878   2.480
 5336SOL     OW16906   2.838   1.784   3.495
 5336SOL    HW116907   2.853   1.877   3.462
 5336SOL    HW216908   2.923   1.732   3.488
 5337SOL     OW16909   5.151   3.653   1.706
 5337SOL    HW116910   5.176   3.743   1.672
 5337SOL    HW216911   5.065   3.623   1.663
 5338SOL     OW16912   5.525   1.666   5.973
 5338SOL    HW116913   5.612   1.680   5.926
 5338SOL    HW216914   5.540   1.672   6.072
 5339SOL     OW16915   6.860   2.198   3.674
 5339SOL    HW116916   6.767   2.210   3.639
 5339SOL    HW216917   6.897   2.111   3.640
 5340SOL     OW16918   5.548   2.838   0.901
 5340SOL    HW116919   5.485   2.764   0.878
 5340SOL    HW216920   5.641   2.812   0.875
 5341SOL     OW16921   3.167   4.296   6.529
 5341SOL    HW116922   3.248   4.256   6.573
 5341SOL    HW216923   3.171   4.278   6.431
 5342SOL     OW16924   3.693   0.133   3.734
 5342SOL    HW116925   3.601   0.097   3.724
 5342SOL    HW216926   3.759   0.059   3.720
 5343SOL     OW16927   3.775   3.614   4.701
 5343SOL    HW116928   3.742   3.707   4.717
 5343SOL    HW216929   3.736   3.579   4.616
 5344SOL     OW16930   2.482   2.146   2.025
 5344SOL    HW116931   2.495   2.077   2.096
 5344SOL    HW216932   2.555   2.139   1.958
 5345SOL     OW16933   3.840   6.641   1.214
 5345SOL    HW116934   3.816   6.729   1.173
 5345SOL    HW216935   3.777   6.621   1.289
 5346SOL     OW16936   3.407   5.670   4.204
 5346SOL    HW116937   3.470   5.699   4.131
 5346SOL    HW216938   3.357   5.750   4.237
 5347SOL     OW16939   6.837   2.512   1.603
 5347SOL    HW116940   6.772   2.569   1.553
 5347SOL    HW216941   6.911   2.485   1.542
 5348SOL     OW16942   6.718   2.148   0.950
 5348SOL    HW116943   6.655   2.124   0.877
 5348SOL    HW216944   6.731   2.247   0.953
 5349SOL     OW16945   2.035   2.520   0.198
 5349SOL    HW116946   2.009   2.557   0.109
 5349SOL    HW216947   1.995   2.429   0.209
 5350SOL     OW16948   2.059   6.791   5.554
 5350SOL    HW116949   2.004   6.724   5.505
 5350SOL    HW216950   2.122   6.744   5.616
 5351SOL     OW16951   6.899   5.152   2.390
 5351SOL    HW116952   6.895   5.209   2.307
 5351SOL    HW216953   6.907   5.210   2.470
 5352SOL     OW16954   2.586   5.051   3.361
 5352SOL    HW116955   2.522   4.990   3.313
 5352SOL    HW216956   2.543   5.086   3.444
 5353SOL     OW16957   3.977   5.145   4.021
 5353SOL    HW116958   4.003   5.167   4.115
 5353SOL    HW216959   4.038   5.073   3.987
 5354SOL     OW16960   2.602   5.236   2.081
 5354SOL    HW116961   2.616   5.139   2.063
 5354SOL    HW216962   2.691   5.280   2.095
 5355SOL     OW16963   0.122   4.282   4.019
 5355SOL    HW116964   0.023   4.281   4.032
 5355SOL    HW216965   0.143   4.262   3.924
 5356SOL     OW16966   5.978   4.694   2.109
 5356SOL    HW116967   5.972   4.595   2.119
 5356SOL    HW216968   5.984   4.737   2.200
 5357SOL     OW16969   3.230   5.929   0.560
 5357SOL    HW116970   3.286   6.008   0.584
 5357SOL    HW216971   3.159   5.916   0.629
 5358SOL     OW16972   4.827   1.083   0.004
 5358SOL    HW116973   4.832   1.173   0.047
 5358SOL    HW216974   4.772   1.022   0.061
 5359SOL     OW16975   1.354   1.336   5.681
 5359SOL    HW116976   1.449   1.357   5.703
 5359SOL    HW216977   1.343   1.331   5.582
 5360SOL     OW16978   3.653   6.588   4.830
 5360SOL    HW116979   3.711   6.669   4.836
 5360SOL    HW216980   3.661   6.548   4.738
 5361SOL     OW16981   2.543   0.957   5.353
 5361SOL    HW116982   2.526   1.027   5.423
 5361SOL    HW216983   2.625   0.981   5.301
 5362SOL     OW16984   6.896   6.068   3.291
 5362SOL    HW116985   6.963   6.037   3.224
 5362SOL    HW216986   6.943   6.115   3.366
 5363SOL     OW16987   0.529   0.314   5.999
 5363SOL    HW116988   0.439   0.270   6.002
 5363SOL    HW216989   0.591   0.268   6.062
 5364SOL     OW16990   6.727   6.500   2.241
 5364SOL    HW116991   6.785   6.570   2.200
 5364SOL    HW216992   6.758   6.409   2.212
 5365SOL     OW16993   3.951   2.864   0.186
 5365SOL    HW116994   3.857   2.899   0.182
 5365SOL    HW216995   3.999   2.907   0.262
 5366SOL     OW16996   5.257   5.643   1.807
 5366SOL    HW116997   5.329   5.575   1.790
 5366SOL    HW216998   5.293   5.714   1.868
 5367SOL     OW16999   0.663   6.792   1.055
 5367SOL    HW117000   0.576   6.747   1.077
 5367SOL    HW217001   0.737   6.745   1.103
 5368SOL     OW17002   5.501   0.383   2.855
 5368SOL    HW117003   5.430   0.322   2.822
 5368SOL    HW217004   5.535   0.351   2.944
 5369SOL     OW17005   2.726   0.078   1.852
 5369SOL    HW117006   2.689   0.001   1.800
 5369SOL    HW217007   2.781   0.043   1.928
 5370SOL     OW17008   4.665   2.618   1.557
 5370SOL    HW117009   4.601   2.602   1.483
 5370SOL    HW217010   4.631   2.692   1.615
 5371SOL     OW17011   0.929   3.729   5.332
 5371SOL    HW117012   0.869   3.783   5.392
 5371SOL    HW217013   0.880   3.647   5.302
 5372SOL     OW17014   1.944   6.327   3.655
 5372SOL    HW117015   1.895   6.256   3.604
 5372SOL    HW217016   2.037   6.295   3.675
 5373SOL     OW17017   3.802   6.679   4.311
 5373SOL    HW117018   3.805   6.749   4.382
 5373SOL    HW217019   3.708   6.646   4.300
 5374SOL     OW17020   1.787   4.313   0.201
 5374SOL    HW117021   1.776   4.218   0.172
 5374SOL    HW217022   1.880   4.327   0.235
 5375SOL     OW17023   0.810   5.822   4.956
 5375SOL    HW117024   0.802   5.825   5.055
 5375SOL    HW217025   0.790   5.729   4.923
 5376SOL     OW17026   1.862   2.814   0.922
 5376SOL    HW117027   1.957   2.815   0.891
 5376SOL    HW217028   1.842   2.725   0.964
 5377SOL     OW17029   6.759   6.842   2.461
 5377SOL    HW117030   6.830   6.828   2.530
 5377SOL    HW217031   6.801   6.862   2.373
 5378SOL     OW17032   6.509   0.695   2.210
 5378SOL    HW117033   6.440   0.667   2.144
 5378SOL    HW217034   6.505   0.635   2.290
 5379SOL     OW17035   1.398   4.786   4.818
 5379SOL    HW117036   1.476   4.723   4.809
 5379SOL    HW217037   1.431   4.875   4.848
 5380SOL     OW17038   2.561   1.459   2.857
 5380SOL    HW117039   2.493   1.400   2.814
 5380SOL    HW217040   2.517   1.543   2.889
 5381SOL     OW17041   6.523   5.095   1.999
 5381SOL    HW117042   6.458   5.027   1.966
 5381SOL    HW217043   6.560   5.066   2.087
 5382SOL     OW17044   2.792   0.991   1.938
 5382SOL    HW117045   2.770   1.088   1.924
 5382SOL    HW217046   2.766   0.964   2.031
 5383SOL     OW17047   2.424   2.352   5.272
 5383SOL    HW117048   2.342   2.338   5.216
 5383SOL    HW217049   2.405   2.325   5.366
 5384SOL     OW17050   6.106   6.657   5.597
 5384SOL    HW117051   6.180   6.616   5.543
 5384SOL    HW217052   6.038   6.697   5.536
 5385SOL     OW17053   3.361   3.265   4.233
 5385SOL    HW117054   3.327   3.173   4.254
 5385SOL    HW217055   3.342   3.286   4.137
 5386SOL     OW17056   5.100   1.725   4.677
 5386SOL    HW117057   5.061   1.642   4.718
 5386SOL    HW217058   5.042   1.755   4.601
 5387SOL     OW17059   2.213   0.397   3.518
 5387SOL    HW117060   2.201   0.393   3.618
 5387SOL    HW217061   2.126   0.421   3.476
 5388SOL     OW17062   0.007   1.732   4.108
 5388SOL    HW117063   0.024   1.811   4.050
 5388SOL    HW217064   0.088   1.674   4.112
 5389SOL     OW17065   4.430   1.532   3.438
 5389SOL    HW117066   4.479   1.457   3.482
 5389SOL    HW217067   4.490   1.612   3.431
 5390SOL     OW17068   4.884   3.901   3.764
 5390SOL    HW117069   4.945   3.903   3.843
 5390SOL    HW217070   4.906   3.822   3.707
 5391SOL     OW17071   2.171   1.934   0.687
 5391SOL    HW117072   2.161   1.859   0.752
 5391SOL    HW217073   2.191   1.898   0.596
 5392SOL     OW17074   5.263   3.570   1.330
 5392SOL    HW117075   5.314   3.506   1.274
 5392SOL    HW217076   5.325   3.640   1.366
 5393SOL     OW17077   4.478   6.642   5.784
 5393SOL    HW117078   4.572   6.611   5.797
 5393SOL    HW217079   4.429   6.576   5.727
 5394SOL     OW17080   0.189   4.898   0.098
 5394SOL    HW117081   0.122   4.936   0.161
 5394SOL    HW217082   0.214   4.806   0.126
 5395SOL     OW17083   4.662   0.850   1.256
 5395SOL    HW117084   4.565   0.850   1.233
 5395SOL    HW217085   4.711   0.787   1.197
 5396SOL     OW17086   5.093   4.294   1.692
 5396SOL    HW117087   5.074   4.201   1.660
 5396SOL    HW217088   5.042   4.313   1.775
 5397SOL     OW17089   0.182   2.868   1.376
 5397SOL    HW117090   0.106   2.893   1.317
 5397SOL    HW217091   0.197   2.940   1.444
 5398SOL     OW17092   3.474   1.783   3.543
 5398SOL    HW117093   3.387   1.813   3.581
 5398SOL    HW217094   3.479   1.808   3.447
 5399SOL     OW17095   2.773   5.770   0.838
 5399SOL    HW117096   2.714   5.816   0.904
 5399SOL    HW217097   2.828   5.700   0.885
 5400SOL     OW17098   3.177   3.793   6.979
 5400SOL    HW117099   3.079   3.776   6.981
 5400SOL    HW217100   3.193   3.889   6.955
 5401SOL     OW17101   5.885   4.076   1.461
 5401SOL    HW117102   5.864   4.125   1.376
 5401SOL    HW217103   5.947   4.132   1.517
 5402SOL     OW17104   2.692   5.309   1.802
 5402SOL    HW117105   2.750   5.235   1.768
 5402SOL    HW217106   2.648   5.280   1.887
 5403SOL     OW17107   5.495   2.743   5.880
 5403SOL    HW117108   5.587   2.772   5.855
 5403SOL    HW217109   5.428   2.794   5.827
 5404SOL     OW17110   1.089   0.568   2.117
 5404SOL    HW117111   1.121   0.481   2.155
 5404SOL    HW217112   1.102   0.568   2.018
 5405SOL     OW17113   6.031   6.192   0.084
 5405SOL    HW117114   6.089   6.121   0.123
 5405SOL    HW217115   6.007   6.257   0.156
 5406SOL     OW17116   2.340   0.175   6.242
 5406SOL    HW117117   2.310   0.256   6.192
 5406SOL    HW217118   2.365   0.104   6.178
 5407SOL     OW17119   4.106   1.900   1.402
 5407SOL    HW117120   4.189   1.849   1.422
 5407SOL    HW217121   4.080   1.955   1.482
 5408SOL     OW17122   3.525   1.136   5.767
 5408SOL    HW117123   3.543   1.100   5.858
 5408SOL    HW217124   3.426   1.140   5.751
 5409SOL     OW17125   6.393   2.018   3.539
 5409SOL    HW117126   6.378   2.101   3.593
 5409SOL    HW217127   6.312   1.960   3.545
 5410SOL     OW17128   0.936   2.715   6.976
 5410SOL    HW117129   0.856   2.762   6.940
 5410SOL    HW217130   0.908   2.649   0.020
 5411SOL     OW17131   6.102   5.035   5.208
 5411SOL    HW117132   6.077   4.943   5.178
 5411SOL    HW217133   6.171   5.029   5.280
 5412SOL     OW17134   4.152   0.423   0.035
 5412SOL    HW117135   4.097   0.349   0.074
 5412SOL    HW217136   4.176   0.488   0.108
 5413SOL     OW17137   0.866   0.210   1.369
 5413SOL    HW117138   0.927   0.138   1.335
 5413SOL    HW217139   0.899   0.242   1.458
 5414SOL     OW17140   0.021   3.189   5.192
 5414SOL    HW117141   6.978   3.257   5.169
 5414SOL    HW217142   0.020   3.173   5.291
 5415SOL     OW17143   1.185   6.374   1.567
 5415SOL    HW117144   1.255   6.370   1.496
 5415SOL    HW217145   1.217   6.431   1.643
 5416SOL     OW17146   3.479   5.103   6.404
 5416SOL    HW117147   3.422   5.182   6.383
 5416SOL    HW217148   3.451   5.025   6.348
 5417SOL     OW17149   4.377   6.806   4.596
 5417SOL    HW117150   4.345   6.875   4.531
 5417SOL    HW217151   4.468   6.773   4.568
 5418SOL     OW17152   5.380   0.617   4.442
 5418SOL    HW117153   5.453   0.572   4.390
 5418SOL    HW217154   5.324   0.671   4.379
 5419SOL     OW17155   2.955   5.605   0.590
 5419SOL    HW117156   3.052   5.586   0.572
 5419SOL    HW217157   2.948   5.670   0.665
 5420SOL     OW17158   1.945   2.828   1.796
 5420SOL    HW117159   1.951   2.728   1.801
 5420SOL    HW217160   2.032   2.866   1.766
 5421SOL     OW17161   2.412   4.364   3.206
 5421SOL    HW117162   2.506   4.394   3.221
 5421SOL    HW217163   2.384   4.390   3.114
 5422SOL     OW17164   1.017   5.988   5.876
 5422SOL    HW117165   0.981   6.077   5.848
 5422SOL    HW217166   0.988   5.918   5.812
 5423SOL     OW17167   5.465   3.510   6.954
 5423SOL    HW117168   5.483   3.469   6.864
 5423SOL    HW217169   5.491   3.446   7.025
 5424SOL     OW17170   6.290   3.325   4.438
 5424SOL    HW117171   6.325   3.419   4.433
 5424SOL    HW217172   6.228   3.308   4.362
 5425SOL     OW17173   5.357   1.299   3.813
 5425SOL    HW117174   5.420   1.377   3.814
 5425SOL    HW217175   5.263   1.331   3.825
 5426SOL     OW17176   6.754   5.118   3.818
 5426SOL    HW117177   6.842   5.138   3.861
 5426SOL    HW217178   6.708   5.046   3.869
 5427SOL     OW17179   5.189   5.210   1.005
 5427SOL    HW117180   5.093   5.182   1.002
 5427SOL    HW217181   5.246   5.137   0.967
 5428SOL     OW17182   6.968   0.142   2.217
 5428SOL    HW117183   6.905   0.219   2.209
 5428SOL    HW217184   0.036   0.174   2.205
 5429SOL     OW17185   1.535   0.731   4.820
 5429SOL    HW117186   1.466   0.802   4.806
 5429SOL    HW217187   1.517   0.683   4.906
 5430SOL     OW17188   2.280   2.582   5.443
 5430SOL    HW117189   2.299   2.599   5.347
 5430SOL    HW217190   2.212   2.649   5.475
 5431SOL     OW17191   3.662   4.935   6.985
 5431SOL    HW117192   3.574   4.971   7.016
 5431SOL    HW217193   3.723   4.923   0.038
 5432SOL     OW17194   3.853   6.302   5.924
 5432SOL    HW117195   3.825   6.208   5.945
 5432SOL    HW217196   3.952   6.304   5.910
 5433SOL     OW17197   6.801   2.039   3.259
 5433SOL    HW117198   6.851   1.952   3.257
 5433SOL    HW217199   6.710   2.024   3.298
 5434SOL     OW17200   4.021   1.258   5.038
 5434SOL    HW117201   3.974   1.195   4.977
 5434SOL    HW217202   3.980   1.253   5.129
 5435SOL     OW17203   5.890   1.895   1.232
 5435SOL    HW117204   5.922   1.877   1.139
 5435SOL    HW217205   5.938   1.834   1.296
 5436SOL     OW17206   5.660   4.323   4.743
 5436SOL    HW117207   5.647   4.226   4.722
 5436SOL    HW217208   5.635   4.378   4.663
 5437SOL     OW17209   2.815   4.984   5.575
 5437SOL    HW117210   2.767   4.898   5.558
 5437SOL    HW217211   2.785   5.023   5.661
 5438SOL     OW17212   5.456   4.017   2.492
 5438SOL    HW117213   5.427   3.921   2.497
 5438SOL    HW217214   5.536   4.024   2.433
 5439SOL     OW17215   0.092   2.466   0.299
 5439SOL    HW117216   0.031   2.460   0.220
 5439SOL    HW217217   0.087   2.381   0.351
 5440SOL     OW17218   0.273   0.082   2.663
 5440SOL    HW117219   0.199   0.067   2.597
 5440SOL    HW217220   0.238   0.069   2.756
 5441SOL     OW17221   4.753   2.738   3.596
 5441SOL    HW117222   4.700   2.670   3.648
 5441SOL    HW217223   4.806   2.794   3.660
 5442SOL     OW17224   2.879   6.948   3.368
 5442SOL    HW117225   2.800   7.004   3.346
 5442SOL    HW217226   2.849   6.854   3.387
 5443SOL     OW17227   2.826   6.033   3.872
 5443SOL    HW117228   2.904   5.972   3.879
 5443SOL    HW217229   2.856   6.124   3.844
 5444SOL     OW17230   0.431   0.849   3.174
 5444SOL    HW117231   0.357   0.783   3.187
 5444SOL    HW217232   0.395   0.942   3.187
 5445SOL     OW17233   6.491   4.418   3.763
 5445SOL    HW117234   6.414   4.392   3.822
 5445SOL    HW217235   6.467   4.403   3.668
 5446SOL     OW17236   5.617   5.267   4.859
 5446SOL    HW117237   5.538   5.293   4.804
 5446SOL    HW217238   5.593   5.188   4.917
 5447SOL     OW17239   1.346   2.052   0.920
 5447SOL    HW117240   1.422   2.035   0.981
 5447SOL    HW217241   1.310   1.965   0.885
 5448SOL     OW17242   6.020   4.218   4.682
 5448SOL    HW117243   6.099   4.260   4.727
 5448SOL    HW217244   5.973   4.287   4.627
 5449SOL     OW17245   1.648   1.825   0.359
 5449SOL    HW117246   1.731   1.842   0.305
 5449SOL    HW217247   1.674   1.792   0.450
 5450SOL     OW17248   2.734   0.187   1.278
 5450SOL    HW117249   2.661   0.229   1.331
 5450SOL    HW217250   2.822   0.224   1.307
 5451SOL     OW17251   1.782   5.802   3.265
 5451SOL    HW117252   1.705   5.836   3.319
 5451SOL    HW217253   1.834   5.735   3.318
 5452SOL     OW17254   2.243   3.541   0.717
 5452SOL    HW117255   2.209   3.539   0.623
 5452SOL    HW217256   2.169   3.517   0.779
 5453SOL     OW17257   5.381   4.092   1.109
 5453SOL    HW117258   5.462   4.099   1.050
 5453SOL    HW217259   5.380   4.169   1.173
 5454SOL     OW17260   6.073   4.910   5.616
 5454SOL    HW117261   6.037   4.844   5.551
 5454SOL    HW217262   6.156   4.953   5.579
 5455SOL     OW17263   6.511   2.468   2.129
 5455SOL    HW117264   6.459   2.392   2.168
 5455SOL    HW217265   6.580   2.433   2.066
 5456SOL     OW17266   2.622   0.583   0.304
 5456SOL    HW117267   2.713   0.602   0.266
 5456SOL    HW217268   2.603   0.645   0.380
 5457SOL     OW17269   0.237   2.501   1.207
 5457SOL    HW117270   0.279   2.476   1.119
 5457SOL    HW217271   0.280   2.585   1.241
 5458SOL     OW17272   0.468   4.809   0.483
 5458SOL    HW117273   0.434   4.745   0.553
 5458SOL    HW217274   0.392   4.839   0.426
 5459SOL     OW17275   2.678   3.296   6.724
 5459SOL    HW117276   2.623   3.365   6.677
 5459SOL    HW217277   2.760   3.340   6.762
 5460SOL     OW17278   3.746   0.047   3.252
 5460SOL    HW117279   3.725   0.120   3.317
 5460SOL    HW217280   3.743   0.083   3.159
 5461SOL     OW17281   0.636   0.146   6.184
 5461SOL    HW117282   0.566   0.077   6.195
 5461SOL    HW217283   0.711   0.110   6.128
 5462SOL     OW17284   6.242   6.759   1.132
 5462SOL    HW117285   6.224   6.743   1.229
 5462SOL    HW217286   6.293   6.845   1.121
 5463SOL     OW17287   0.071   1.550   0.377
 5463SOL    HW117288   0.046   1.553   0.474
 5463SOL    HW217289   0.057   1.457   0.342
 5464SOL     OW17290   6.290   0.229   4.368
 5464SOL    HW117291   6.384   0.210   4.336
 5464SOL    HW217292   6.283   0.205   4.465
 5465SOL     OW17293   4.712   0.792   4.741
 5465SOL    HW117294   4.780   0.734   4.696
 5465SOL    HW217295   4.662   0.739   4.809
 5466SOL     OW17296   5.504   2.935   4.710
 5466SOL    HW117297   5.519   2.839   4.736
 5466SOL    HW217298   5.565   2.994   4.761
 5467SOL     OW17299   4.800   4.136   3.636
 5467SOL    HW117300   4.834   4.053   3.680
 5467SOL    HW217301   4.742   4.186   3.701
 5468SOL     OW17302   6.938   2.452   3.655
 5468SOL    HW117303   0.011   2.439   3.647
 5468SOL    HW217304   6.892   2.364   3.646
 5469SOL     OW17305   2.857   5.622   5.564
 5469SOL    HW117306   2.796   5.698   5.586
 5469SOL    HW217307   2.815   5.537   5.596
 5470SOL     OW17308   3.642   5.255   3.125
 5470SOL    HW117309   3.706   5.299   3.188
 5470SOL    HW217310   3.634   5.158   3.146
 5471SOL     OW17311   5.611   6.941   3.197
 5471SOL    HW117312   5.551   6.893   3.132
 5471SOL    HW217313   5.580   6.925   3.290
 5472SOL     OW17314   2.524   4.217   6.986
 5472SOL    HW117315   2.534   4.269   0.045
 5472SOL    HW217316   2.430   4.183   6.980
 5473SOL     OW17317   0.729   3.636   2.044
 5473SOL    HW117318   0.810   3.693   2.056
 5473SOL    HW217319   0.752   3.541   2.066
 5474SOL     OW17320   1.020   4.669   3.659
 5474SOL    HW117321   1.067   4.590   3.697
 5474SOL    HW217322   0.957   4.708   3.727
 5475SOL     OW17323   2.538   2.928   0.908
 5475SOL    HW117324   2.494   2.953   0.994
 5475SOL    HW217325   2.549   2.829   0.904
 5476SOL     OW17326   2.607   4.316   5.412
 5476SOL    HW117327   2.542   4.309   5.337
 5476SOL    HW217328   2.563   4.288   5.498
 5477SOL     OW17329   2.200   4.497   2.533
 5477SOL    HW117330   2.198   4.501   2.433
 5477SOL    HW217331   2.260   4.423   2.562
 5478SOL     OW17332   2.787   6.056   4.146
 5478SOL    HW117333   2.797   6.063   4.047
 5478SOL    HW217334   2.846   5.984   4.181
 5479SOL     OW17335   5.237   1.361   6.492
 5479SOL    HW117336   5.274   1.269   6.509
 5479SOL    HW217337   5.262   1.420   6.569
 5480SOL     OW17338   5.456   5.094   4.296
 5480SOL    HW117339   5.479   5.014   4.352
 5480SOL    HW217340   5.359   5.114   4.305
 5481SOL     OW17341   4.484   1.393   4.512
 5481SOL    HW117342   4.423   1.453   4.460
 5481SOL    HW217343   4.512   1.316   4.455
 5482SOL     OW17344   3.601   4.291   1.790
 5482SOL    HW117345   3.581   4.389   1.796
 5482SOL    HW217346   3.579   4.248   1.878
 5483SOL     OW17347   0.409   1.958   5.295
 5483SOL    HW117348   0.312   1.950   5.273
 5483SOL    HW217349   0.427   2.047   5.336
 5484SOL     OW17350   3.975   1.110   4.654
 5484SOL    HW117351   4.063   1.152   4.632
 5484SOL    HW217352   3.981   1.011   4.639
 5485SOL     OW17353   4.042   0.652   4.835
 5485SOL    HW117354   3.990   0.582   4.786
 5485SOL    HW217355   4.079   0.614   4.919
 5486SOL     OW17356   2.417   6.100   5.318
 5486SOL    HW117357   2.489   6.159   5.353
 5486SOL    HW217358   2.430   6.006   5.351
 5487SOL     OW17359   5.457   2.607   6.551
 5487SOL    HW117360   5.375   2.579   6.602
 5487SOL    HW217361   5.497   2.688   6.593
 5488SOL     OW17362   6.113   0.299   0.953
 5488SOL    HW117363   6.181   0.357   0.908
 5488SOL    HW217364   6.076   0.347   1.033
 5489SOL     OW17365   0.134   4.271   1.585
 5489SOL    HW117366   0.206   4.333   1.555
 5489SOL    HW217367   0.174   4.190   1.628
 5490SOL     OW17368   3.242   0.289   1.686
 5490SOL    HW117369   3.238   0.347   1.768
 5490SOL    HW217370   3.165   0.226   1.686
 5491SOL     OW17371   1.180   3.420   0.021
 5491SOL    HW117372   1.102   3.368   0.054
 5491SOL    HW217373   1.148   3.495   6.988
 5492SOL     OW17374   0.539   3.402   6.102
 5492SOL    HW117375   0.495   3.392   6.191
 5492SOL    HW217376   0.540   3.498   6.075
 5493SOL     OW17377   3.033   4.026   4.555
 5493SOL    HW117378   2.995   3.984   4.638
 5493SOL    HW217379   2.983   4.111   4.535
 5494SOL     OW17380   0.422   3.406   6.342
 5494SOL    HW117381   0.468   3.332   6.391
 5494SOL    HW217382   0.351   3.446   6.400
 5495SOL     OW17383   4.918   1.207   1.070
 5495SOL    HW117384   4.955   1.123   1.109
 5495SOL    HW217385   4.976   1.285   1.098
 5496SOL     OW17386   4.205   0.872   3.313
 5496SOL    HW117387   4.293   0.861   3.267
 5496SOL    HW217388   4.155   0.786   3.311
 5497SOL     OW17389   6.912   1.131   5.039
 5497SOL    HW117390   6.929   1.088   5.127
 5497SOL    HW217391   6.991   1.117   4.979
 5498SOL     OW17392   6.728   5.855   1.496
 5498SOL    HW117393   6.825   5.865   1.518
 5498SOL    HW217394   6.675   5.918   1.553
 5499SOL     OW17395   0.118   0.463   4.733
 5499SOL    HW117396   0.065   0.545   4.713
 5499SOL    HW217397   0.215   0.479   4.713
 5500SOL     OW17398   0.988   0.681   0.260
 5500SOL    HW117399   1.058   0.610   0.251
 5500SOL    HW217400   0.922   0.670   0.186
 5501SOL     OW17401   3.478   1.867   6.986
 5501SOL    HW117402   3.548   1.819   6.934
 5501SOL    HW217403   3.511   1.885   0.053
 5502SOL     OW17404   4.746   3.459   0.496
 5502SOL    HW117405   4.786   3.548   0.515
 5502SOL    HW217406   4.687   3.432   0.572
 5503SOL     OW17407   6.650   4.295   1.390
 5503SOL    HW117408   6.622   4.219   1.448
 5503SOL    HW217409   6.631   4.273   1.294
 5504SOL     OW17410   4.865   1.576   5.432
 5504SOL    HW117411   4.820   1.602   5.346
 5504SOL    HW217412   4.964   1.590   5.423
 5505SOL     OW17413   2.037   5.217   4.288
 5505SOL    HW117414   1.949   5.263   4.272
 5505SOL    HW217415   2.022   5.131   4.336
 5506SOL     OW17416   0.303   3.343   0.727
 5506SOL    HW117417   0.329   3.307   0.817
 5506SOL    HW217418   0.210   3.379   0.732
 5507SOL     OW17419   4.264   1.089   4.636
 5507SOL    HW117420   4.319   1.075   4.553
 5507SOL    HW217421   4.308   1.044   4.714
 5508SOL     OW17422   1.280   1.226   0.058
 5508SOL    HW117423   1.328   1.157   0.113
 5508SOL    HW217424   1.192   1.189   0.028
 5509SOL     OW17425   0.601   6.285   6.383
 5509SOL    HW117426   0.531   6.355   6.400
 5509SOL    HW217427   0.557   6.200   6.354
 5510SOL     OW17428   4.412   5.582   0.306
 5510SOL    HW117429   4.365   5.669   0.320
 5510SOL    HW217430   4.398   5.551   0.212
 5511SOL     OW17431   1.201   0.463   3.685
 5511SOL    HW117432   1.149   0.403   3.623
 5511SOL    HW217433   1.189   0.432   3.779
 5512SOL     OW17434   5.385   2.348   0.642
 5512SOL    HW117435   5.334   2.358   0.728
 5512SOL    HW217436   5.452   2.274   0.651
 5513SOL     OW17437   3.671   5.020   6.096
 5513SOL    HW117438   3.741   5.086   6.125
 5513SOL    HW217439   3.669   4.944   6.161
 5514SOL     OW17440   3.965   0.498   4.581
 5514SOL    HW117441   4.021   0.421   4.614
 5514SOL    HW217442   3.906   0.466   4.507
 5515SOL     OW17443   0.728   5.783   2.006
 5515SOL    HW117444   0.735   5.762   1.909
 5515SOL    HW217445   0.720   5.882   2.019
 5516SOL     OW17446   1.728   3.617   6.203
 5516SOL    HW117447   1.799   3.659   6.146
 5516SOL    HW217448   1.646   3.674   6.201
 5517SOL     OW17449   2.093   3.339   2.237
 5517SOL    HW117450   1.995   3.335   2.216
 5517SOL    HW217451   2.139   3.396   2.169
 5518SOL     OW17452   5.657   5.893   6.984
 5518SOL    HW117453   5.593   5.971   6.982
 5518SOL    HW217454   5.704   5.887   6.896
 5519SOL     OW17455   5.469   3.436   3.208
 5519SOL    HW117456   5.566   3.411   3.199
 5519SOL    HW217457   5.460   3.514   3.270
 5520SOL     OW17458   6.485   6.848   2.578
 5520SOL    HW117459   6.479   6.863   2.676
 5520SOL    HW217460   6.581   6.842   2.551
 5521SOL     OW17461   4.906   6.403   1.949
 5521SOL    HW117462   4.874   6.498   1.952
 5521SOL    HW217463   5.006   6.402   1.940
 5522SOL     OW17464   6.004   4.890   0.691
 5522SOL    HW117465   5.984   4.809   0.746
 5522SOL    HW217466   5.921   4.918   0.643
 5523SOL     OW17467   3.761   1.369   1.862
 5523SOL    HW117468   3.726   1.306   1.793
 5523SOL    HW217469   3.760   1.462   1.827
 5524SOL     OW17470   4.400   0.549   4.249
 5524SOL    HW117471   4.391   0.648   4.238
 5524SOL    HW217472   4.429   0.528   4.342
 5525SOL     OW17473   0.292   1.886   6.799
 5525SOL    HW117474   0.268   1.981   6.781
 5525SOL    HW217475   0.285   1.867   6.897
 5526SOL     OW17476   4.676   5.241   3.141
 5526SOL    HW117477   4.647   5.289   3.058
 5526SOL    HW217478   4.636   5.149   3.142
 5527SOL     OW17479   4.961   3.516   4.157
 5527SOL    HW117480   4.933   3.442   4.217
 5527SOL    HW217481   4.962   3.602   4.208
 5528SOL     OW17482   1.625   0.654   0.492
 5528SOL    HW117483   1.648   0.725   0.560
 5528SOL    HW217484   1.706   0.598   0.475
 5529SOL     OW17485   3.622   6.883   4.662
 5529SOL    HW117486   3.702   6.824   4.673
 5529SOL    HW217487   3.582   6.901   4.752
 5530SOL     OW17488   5.649   1.994   1.055
 5530SOL    HW117489   5.742   2.030   1.042
 5530SOL    HW217490   5.646   1.899   1.026
 5531SOL     OW17491   3.639   3.427   2.099
 5531SOL    HW117492   3.706   3.395   2.166
 5531SOL    HW217493   3.592   3.348   2.059
 5532SOL     OW17494   1.182   2.962   1.014
 5532SOL    HW117495   1.256   2.989   0.953
 5532SOL    HW217496   1.102   2.936   0.960
 5533SOL     OW17497   3.899   1.939   3.022
 5533SOL    HW117498   3.979   1.933   3.082
 5533SOL    HW217499   3.816   1.946   3.078
 5534SOL     OW17500   0.944   1.866   6.990
 5534SOL    HW117501   0.867   1.929   6.998
 5534SOL    HW217502   0.957   1.817   0.050
 5535SOL     OW17503   0.893   1.902   3.539
 5535SOL    HW117504   0.801   1.935   3.561
 5535SOL    HW217505   0.894   1.864   3.446
 5536SOL     OW17506   3.795   1.241   4.046
 5536SOL    HW117507   3.763   1.247   4.141
 5536SOL    HW217508   3.877   1.185   4.043
 5537SOL     OW17509   2.810   0.861   2.215
 5537SOL    HW117510   2.899   0.847   2.172
 5537SOL    HW217511   2.806   0.952   2.257
 5538SOL     OW17512   3.167   5.446   5.597
 5538SOL    HW117513   3.256   5.470   5.635
 5538SOL    HW217514   3.097   5.508   5.634
 5539SOL     OW17515   0.743   3.659   1.746
 5539SOL    HW117516   0.797   3.617   1.673
 5539SOL    HW217517   0.736   3.595   1.823
 5540SOL     OW17518   4.721   4.374   4.343
 5540SOL    HW117519   4.626   4.396   4.321
 5540SOL    HW217520   4.744   4.410   4.433
 5541SOL     OW17521   5.373   7.008   6.738
 5541SOL    HW117522   5.428   6.927   6.755
 5541SOL    HW217523   5.338   7.006   6.644
 5542SOL     OW17524   4.774   3.452   6.150
 5542SOL    HW117525   4.791   3.400   6.234
 5542SOL    HW217526   4.772   3.389   6.072
 5543SOL     OW17527   3.766   4.046   6.442
 5543SOL    HW117528   3.704   3.974   6.410
 5543SOL    HW217529   3.714   4.130   6.457
 5544SOL     OW17530   5.031   5.330   6.726
 5544SOL    HW117531   5.006   5.426   6.710
 5544SOL    HW217532   5.058   5.288   6.640
 5545SOL     OW17533   4.369   1.052   2.450
 5545SOL    HW117534   4.437   0.979   2.458
 5545SOL    HW217535   4.396   1.128   2.509
 5546SOL     OW17536   0.549   4.478   4.786
 5546SOL    HW117537   0.625   4.541   4.801
 5546SOL    HW217538   0.583   4.387   4.766
 5547SOL     OW17539   3.052   6.818   5.237
 5547SOL    HW117540   3.023   6.777   5.151
 5547SOL    HW217541   3.039   6.917   5.232
 5548SOL     OW17542   6.169   2.453   5.389
 5548SOL    HW117543   6.155   2.358   5.361
 5548SOL    HW217544   6.267   2.473   5.392
 5549SOL     OW17545   4.601   4.987   6.488
 5549SOL    HW117546   4.677   5.036   6.444
 5549SOL    HW217547   4.632   4.951   6.576
 5550SOL     OW17548   2.818   5.315   2.605
 5550SOL    HW117549   2.744   5.304   2.539
 5550SOL    HW217550   2.904   5.283   2.563
 5551SOL     OW17551   2.443   0.903   2.781
 5551SOL    HW117552   2.466   0.817   2.827
 5551SOL    HW217553   2.526   0.943   2.742
 5552SOL     OW17554   6.989   1.048   0.069
 5552SOL    HW117555   0.052   1.003   0.081
 5552SOL    HW217556   6.935   1.038   0.153
 5553SOL     OW17557   3.754   6.705   0.424
 5553SOL    HW117558   3.754   6.674   0.329
 5553SOL    HW217559   3.718   6.798   0.430
 5554SOL     OW17560   3.337   1.689   5.246
 5554SOL    HW117561   3.339   1.592   5.224
 5554SOL    HW217562   3.383   1.741   5.174
 5555SOL     OW17563   0.658   4.599   3.888
 5555SOL    HW117564   0.689   4.551   3.806
 5555SOL    HW217565   0.681   4.696   3.881
 5556SOL     OW17566   0.345   2.618   4.475
 5556SOL    HW117567   0.316   2.580   4.563
 5556SOL    HW217568   0.339   2.546   4.405
 5557SOL     OW17569   3.710   4.937   3.087
 5557SOL    HW117570   3.709   4.942   3.187
 5557SOL    HW217571   3.624   4.896   3.055
 5558SOL     OW17572   5.310   3.380   5.706
 5558SOL    HW117573   5.253   3.423   5.776
 5558SOL    HW217574   5.294   3.281   5.706
 5559SOL     OW17575   2.641   6.849   2.015
 5559SOL    HW117576   2.690   6.778   2.065
 5559SOL    HW217577   2.595   6.909   2.080
 5560SOL     OW17578   0.338   6.775   3.183
 5560SOL    HW117579   0.346   6.684   3.224
 5560SOL    HW217580   0.271   6.773   3.109
 5561SOL     OW17581   2.068   1.929   4.177
 5561SOL    HW117582   2.110   1.952   4.090
 5561SOL    HW217583   2.123   1.965   4.252
 5562SOL     OW17584   2.303   2.358   6.636
 5562SOL    HW117585   2.360   2.285   6.674
 5562SOL    HW217586   2.350   2.446   6.648
 5563SOL     OW17587   4.563   6.504   2.786
 5563SOL    HW117588   4.566   6.547   2.696
 5563SOL    HW217589   4.640   6.536   2.841
 5564SOL     OW17590   5.151   2.095   1.586
 5564SOL    HW117591   5.225   2.161   1.573
 5564SOL    HW217592   5.104   2.081   1.498
 5565SOL     OW17593   4.372   1.879   5.945
 5565SOL    HW117594   4.405   1.924   6.028
 5565SOL    HW217595   4.314   1.942   5.894
 5566SOL     OW17596   1.675   5.450   1.501
 5566SOL    HW117597   1.590   5.400   1.513
 5566SOL    HW217598   1.721   5.420   1.417
 5567SOL     OW17599   0.739   4.920   0.978
 5567SOL    HW117600   0.686   4.929   1.063
 5567SOL    HW217601   0.676   4.921   0.900
 5568SOL     OW17602   4.789   2.274   2.122
 5568SOL    HW117603   4.742   2.189   2.099
 5568SOL    HW217604   4.832   2.312   2.041
 5569SOL     OW17605   3.801   1.840   1.890
 5569SOL    HW117606   3.779   1.922   1.837
 5569SOL    HW217607   3.850   1.867   1.973
 5570SOL     OW17608   6.180   4.798   4.598
 5570SOL    HW117609   6.172   4.897   4.614
 5570SOL    HW217610   6.097   4.752   4.630
 5571SOL     OW17611   0.160   6.470   0.181
 5571SOL    HW117612   0.077   6.426   0.215
 5571SOL    HW217613   0.233   6.402   0.173
 5572SOL     OW17614   2.612   2.686   6.233
 5572SOL    HW117615   2.561   2.725   6.309
 5572SOL    HW217616   2.698   2.735   6.221
 5573SOL     OW17617   1.233   2.713   0.405
 5573SOL    HW117618   1.246   2.638   0.470
 5573SOL    HW217619   1.319   2.763   0.394
 5574SOL     OW17620   6.964   1.400   4.335
 5574SOL    HW117621   0.023   1.388   4.386
 5574SOL    HW217622   6.888   1.413   4.400
 5575SOL     OW17623   1.373   0.764   1.826
 5575SOL    HW117624   1.284   0.767   1.781
 5575SOL    HW217625   1.442   0.808   1.767
 5576SOL     OW17626   6.113   5.405   1.877
 5576SOL    HW117627   6.081   5.450   1.793
 5576SOL    HW217628   6.042   5.344   1.911
 5577SOL     OW17629   2.508   3.126   5.824
 5577SOL    HW117630   2.499   3.042   5.878
 5577SOL    HW217631   2.459   3.201   5.869
 5578SOL     OW17632   3.907   2.851   0.862
 5578SOL    HW117633   3.901   2.772   0.801
 5578SOL    HW217634   3.963   2.829   0.941
 5579SOL     OW17635   6.296   3.758   6.189
 5579SOL    HW117636   6.345   3.689   6.136
 5579SOL    HW217637   6.228   3.713   6.247
 5580SOL     OW17638   4.942   1.998   0.365
 5580SOL    HW117639   5.030   2.044   0.355
 5580SOL    HW217640   4.939   1.951   0.453
 5581SOL     OW17641   2.674   0.030   1.065
 5581SOL    HW117642   2.696   0.107   1.126
 5581SOL    HW217643   2.744   6.985   1.074
 5582SOL     OW17644   3.315   3.328   3.954
 5582SOL    HW117645   3.227   3.284   3.934
 5582SOL    HW217646   3.301   3.426   3.966
 5583SOL     OW17647   4.258   0.110   2.449
 5583SOL    HW117648   4.283   0.033   2.391
 5583SOL    HW217649   4.160   0.106   2.470
 5584SOL     OW17650   5.443   4.082   3.736
 5584SOL    HW117651   5.402   3.995   3.708
 5584SOL    HW217652   5.386   4.158   3.703
 5585SOL     OW17653   5.669   0.529   4.167
 5585SOL    HW117654   5.697   0.517   4.072
 5585SOL    HW217655   5.593   0.467   4.187
 5586SOL     OW17656   1.483   2.559   6.657
 5586SOL    HW117657   1.407   2.506   6.620
 5586SOL    HW217658   1.453   2.604   6.742
 5587SOL     OW17659   4.020   6.710   2.347
 5587SOL    HW117660   3.960   6.773   2.297
 5587SOL    HW217661   3.995   6.710   2.444
 5588SOL     OW17662   1.386   6.823   4.247
 5588SOL    HW117663   1.425   6.855   4.161
 5588SOL    HW217664   1.438   6.861   4.323
 5589SOL     OW17665   5.129   2.983   5.700
 5589SOL    HW117666   5.163   2.930   5.622
 5589SOL    HW217667   5.052   3.039   5.670
 5590SOL     OW17668   6.710   5.396   3.077
 5590SOL    HW117669   6.774   5.469   3.052
 5590SOL    HW217670   6.640   5.432   3.139
 5591SOL     OW17671   5.828   0.497   6.876
 5591SOL    HW117672   5.854   0.517   6.781
 5591SOL    HW217673   5.889   0.547   6.938
 5592SOL     OW17674   2.004   3.826   3.441
 5592SOL    HW117675   1.994   3.735   3.480
 5592SOL    HW217676   2.023   3.818   3.343
 5593SOL     OW17677   6.968   2.844   5.897
 5593SOL    HW117678   7.020   2.916   5.944
 5593SOL    HW217679   0.005   2.772   5.867
 5594SOL     OW17680   2.390   1.453   6.733
 5594SOL    HW117681   2.407   1.538   6.783
 5594SOL    HW217682   2.431   1.376   6.783
 5595SOL     OW17683   6.697   0.702   5.177
 5595SOL    HW117684   6.790   0.715   5.211
 5595SOL    HW217685   6.632   0.723   5.250
 5596SOL     OW17686   5.497   0.058   2.938
 5596SOL    HW117687   5.499   7.001   2.994
 5596SOL    HW217688   5.450   0.039   2.852
 5597SOL     OW17689   5.362   2.866   5.091
 5597SOL    HW117690   5.273   2.878   5.047
 5597SOL    HW217691   5.352   2.880   5.189
 5598SOL     OW17692   5.510   2.303   3.569
 5598SOL    HW117693   5.590   2.244   3.561
 5598SOL    HW217694   5.427   2.248   3.560
 5599SOL     OW17695   5.645   4.158   1.751
 5599SOL    HW117696   5.592   4.211   1.684
 5599SOL    HW217697   5.593   4.151   1.836
 5600SOL     OW17698   2.907   6.929   2.847
 5600SOL    HW117699   2.851   6.947   2.928
 5600SOL    HW217700   2.900   7.005   2.783
 5601SOL     OW17701   5.114   2.717   5.297
 5601SOL    HW117702   5.098   2.639   5.357
 5601SOL    HW217703   5.034   2.733   5.239
 5602SOL     OW17704   0.091   1.623   3.409
 5602SOL    HW117705   0.063   1.613   3.505
 5602SOL    HW217706   0.024   1.679   3.360
 5603SOL     OW17707   4.480   2.575   5.036
 5603SOL    HW117708   4.527   2.663   5.028
 5603SOL    HW217709   4.406   2.570   4.970
 5604SOL     OW17710   0.662   1.117   4.182
 5604SOL    HW117711   0.643   1.053   4.107
 5604SOL    HW217712   0.576   1.162   4.210
 5605SOL     OW17713   0.863   0.206   5.054
 5605SOL    HW117714   0.777   0.255   5.039
 5605SOL    HW217715   0.865   0.171   5.148
 5606SOL     OW17716   4.627   1.398   0.414
 5606SOL    HW117717   4.532   1.418   0.438
 5606SOL    HW217718   4.673   1.483   0.388
 5607SOL     OW17719   6.026   2.218   3.096
 5607SOL    HW117720   5.966   2.229   3.017
 5607SOL    HW217721   6.014   2.127   3.134
 5608SOL     OW17722   6.173   0.773   3.293
 5608SOL    HW117723   6.113   0.697   3.269
 5608SOL    HW217724   6.128   0.860   3.271
 5609SOL     OW17725   4.618   6.708   0.425
 5609SOL    HW117726   4.534   6.703   0.372
 5609SOL    HW217727   4.595   6.711   0.523
 5610SOL     OW17728   5.351   3.896   0.215
 5610SOL    HW117729   5.426   3.889   0.150
 5610SOL    HW217730   5.294   3.813   0.210
 5611SOL     OW17731   0.243   4.609   2.304
 5611SOL    HW117732   0.163   4.577   2.354
 5611SOL    HW217733   0.279   4.690   2.349
 5612SOL     OW17734   3.068   3.018   0.619
 5612SOL    HW117735   3.135   3.084   0.652
 5612SOL    HW217736   3.072   2.935   0.675
 5613SOL     OW17737   6.846   5.001   4.288
 5613SOL    HW117738   6.835   4.950   4.373
 5613SOL    HW217739   6.813   4.945   4.211
 5614SOL     OW17740   6.481   2.052   4.416
 5614SOL    HW117741   6.413   2.121   4.391
 5614SOL    HW217742   6.445   1.961   4.399
 5615SOL     OW17743   6.892   1.958   2.203
 5615SOL    HW117744   6.872   2.008   2.119
 5615SOL    HW217745   6.988   1.974   2.229
 5616SOL     OW17746   2.320   1.506   4.828
 5616SOL    HW117747   2.386   1.548   4.765
 5616SOL    HW217748   2.231   1.551   4.818
 5617SOL     OW17749   1.845   5.202   4.797
 5617SOL    HW117750   1.766   5.263   4.804
 5617SOL    HW217751   1.918   5.248   4.746
 5618SOL     OW17752   6.102   5.570   3.682
 5618SOL    HW117753   6.064   5.661   3.697
 5618SOL    HW217754   6.202   5.575   3.681
 5619SOL     OW17755   3.333   2.943   3.961
 5619SOL    HW117756   3.344   2.900   3.871
 5619SOL    HW217757   3.419   2.986   3.988
 5620SOL     OW17758   4.520   4.109   6.040
 5620SOL    HW117759   4.554   4.040   5.975
 5620SOL    HW217760   4.421   4.102   6.047
 5621SOL     OW17761   1.734   2.919   6.451
 5621SOL    HW117762   1.738   2.940   6.353
 5621SOL    HW217763   1.781   2.833   6.469
 5622SOL     OW17764   4.174   5.911   5.091
 5622SOL    HW117765   4.090   5.946   5.132
 5622SOL    HW217766   4.240   5.985   5.079
 5623SOL     OW17767   5.007   6.792   4.928
 5623SOL    HW117768   5.084   6.855   4.912
 5623SOL    HW217769   5.034   6.700   4.901
 5624SOL     OW17770   0.913   5.225   3.291
 5624SOL    HW117771   0.932   5.320   3.266
 5624SOL    HW217772   0.889   5.173   3.210
 5625SOL     OW17773   1.040   5.689   4.361
 5625SOL    HW117774   1.038   5.700   4.461
 5625SOL    HW217775   1.134   5.701   4.328
 5626SOL     OW17776   1.967   4.392   4.471
 5626SOL    HW117777   1.949   4.477   4.421
 5626SOL    HW217778   2.022   4.332   4.413
 5627SOL     OW17779   0.456   5.553   5.976
 5627SOL    HW117780   0.443   5.543   6.074
 5627SOL    HW217781   0.400   5.630   5.943
 5628SOL     OW17782   2.887   2.974   0.413
 5628SOL    HW117783   2.821   2.912   0.456
 5628SOL    HW217784   2.972   2.974   0.465
 5629SOL     OW17785   3.655   3.224   1.086
 5629SOL    HW117786   3.661   3.128   1.061
 5629SOL    HW217787   3.718   3.243   1.161
 5630SOL     OW17788   1.322   3.931   6.351
 5630SOL    HW117789   1.384   3.998   6.394
 5630SOL    HW217790   1.230   3.970   6.346
 5631SOL     OW17791   4.770   1.126   2.179
 5631SOL    HW117792   4.793   1.205   2.123
 5631SOL    HW217793   4.830   1.124   2.259
 5632SOL     OW17794   5.138   1.045   5.878
 5632SOL    HW117795   5.190   1.055   5.794
 5632SOL    HW217796   5.132   1.134   5.925
 5633SOL     OW17797   0.375   4.995   4.427
 5633SOL    HW117798   0.366   4.995   4.527
 5633SOL    HW217799   0.285   5.011   4.386
 5634SOL     OW17800   2.325   5.447   4.899
 5634SOL    HW117801   2.385   5.486   4.829
 5634SOL    HW217802   2.380   5.401   4.969
 5635SOL     OW17803   2.913   6.773   6.632
 5635SOL    HW117804   2.880   6.680   6.646
 5635SOL    HW217805   3.005   6.770   6.592
 5636SOL     OW17806   6.196   1.387   5.729
 5636SOL    HW117807   6.189   1.459   5.798
 5636SOL    HW217808   6.257   1.417   5.655
 5637SOL     OW17809   5.528   6.748   4.238
 5637SOL    HW117810   5.436   6.747   4.198
 5637SOL    HW217811   5.596   6.760   4.166
 5638SOL     OW17812   5.317   5.812   1.601
 5638SOL    HW117813   5.273   5.750   1.666
 5638SOL    HW217814   5.331   5.765   1.514
 5639SOL     OW17815   1.272   0.869   1.402
 5639SOL    HW117816   1.341   0.834   1.339
 5639SOL    HW217817   1.300   0.959   1.437
 5640SOL     OW17818   2.663   6.918   2.517
 5640SOL    HW117819   2.684   6.840   2.576
 5640SOL    HW217820   2.676   6.892   2.421
 5641SOL     OW17821   0.970   4.480   5.829
 5641SOL    HW117822   1.032   4.540   5.879
 5641SOL    HW217823   0.880   4.524   5.821
 5642SOL     OW17824   1.009   5.292   5.970
 5642SOL    HW117825   1.036   5.210   6.021
 5642SOL    HW217826   0.941   5.267   5.901
 5643SOL     OW17827   3.448   1.228   4.639
 5643SOL    HW117828   3.395   1.246   4.722
 5643SOL    HW217829   3.511   1.152   4.656
 5644SOL     OW17830   5.219   0.978   3.903
 5644SOL    HW117831   5.159   1.057   3.885
 5644SOL    HW217832   5.172   0.894   3.877
 5645SOL     OW17833   6.157   4.442   2.683
 5645SOL    HW117834   6.233   4.382   2.660
 5645SOL    HW217835   6.181   4.496   2.764
 5646SOL     OW17836   1.659   5.636   3.650
 5646SOL    HW117837   1.571   5.600   3.680
 5646SOL    HW217838   1.676   5.724   3.694
 5647SOL     OW17839   6.610   6.474   6.737
 5647SOL    HW117840   6.594   6.376   6.744
 5647SOL    HW217841   6.686   6.491   6.674
 5648SOL     OW17842   2.010   1.057   3.022
 5648SOL    HW117843   2.083   1.036   2.957
 5648SOL    HW217844   1.942   1.115   2.978
 5649SOL     OW17845   1.433   6.431   5.475
 5649SOL    HW117846   1.475   6.470   5.393
 5649SOL    HW217847   1.489   6.453   5.555
 5650SOL     OW17848   0.351   5.104   1.218
 5650SOL    HW117849   0.431   5.134   1.270
 5650SOL    HW217850   0.364   5.010   1.188
 5651SOL     OW17851   0.120   1.788   1.679
 5651SOL    HW117852   0.052   1.771   1.750
 5651SOL    HW217853   0.127   1.708   1.619
 5652SOL     OW17854   5.057   5.961   2.107
 5652SOL    HW117855   5.090   5.982   2.015
 5652SOL    HW217856   4.990   5.887   2.102
 5653SOL     OW17857   0.389   6.498   6.375
 5653SOL    HW117858   0.291   6.498   6.354
 5653SOL    HW217859   0.407   6.561   6.450
 5654SOL     OW17860   0.111   6.759   6.095
 5654SOL    HW117861   0.076   6.798   6.010
 5654SOL    HW217862   0.057   6.795   6.172
 5655SOL     OW17863   0.857   3.379   4.480
 5655SOL    HW117864   0.816   3.292   4.507
 5655SOL    HW217865   0.913   3.366   4.398
 5656SOL     OW17866   2.849   4.482   0.486
 5656SOL    HW117867   2.798   4.439   0.560
 5656SOL    HW217868   2.921   4.539   0.524
 5657SOL     OW17869   4.808   6.786   1.284
 5657SOL    HW117870   4.710   6.769   1.272
 5657SOL    HW217871   4.827   6.882   1.268
 5658SOL     OW17872   3.005   6.694   5.802
 5658SOL    HW117873   2.943   6.699   5.724
 5658SOL    HW217874   3.100   6.691   5.770
 5659SOL     OW17875   2.960   3.751   2.971
 5659SOL    HW117876   3.030   3.819   2.953
 5659SOL    HW217877   2.917   3.724   2.885
 5660SOL     OW17878   5.223   0.495   5.967
 5660SOL    HW117879   5.246   0.426   5.898
 5660SOL    HW217880   5.306   0.521   6.017
 5661SOL     OW17881   0.131   4.928   6.310
 5661SOL    HW117882   0.150   4.979   6.394
 5661SOL    HW217883   0.033   4.934   6.290
 5662SOL     OW17884   2.646   4.936   4.522
 5662SOL    HW117885   2.613   5.022   4.561
 5662SOL    HW217886   2.740   4.920   4.550
 5663SOL     OW17887   1.091   4.147   6.639
 5663SOL    HW117888   1.168   4.190   6.592
 5663SOL    HW217889   1.109   4.147   6.738
 5664SOL     OW17890   6.965   3.890   4.307
 5664SOL    HW117891   6.945   3.804   4.261
 5664SOL    HW217892   6.914   3.964   4.263
 5665SOL     OW17893   1.770   1.326   6.580
 5665SOL    HW117894   1.755   1.358   6.487
 5665SOL    HW217895   1.685   1.334   6.632
 5666SOL     OW17896   4.950   6.060   0.933
 5666SOL    HW117897   4.977   5.996   0.862
 5666SOL    HW217898   5.022   6.128   0.946
 5667SOL     OW17899   0.743   5.239   3.808
 5667SOL    HW117900   0.646   5.217   3.818
 5667SOL    HW217901   0.767   5.241   3.711
 5668SOL     OW17902   5.132   2.420   6.207
 5668SOL    HW117903   5.072   2.421   6.128
 5668SOL    HW217904   5.194   2.341   6.201
 5669SOL     OW17905   6.947   3.567   6.397
 5669SOL    HW117906   6.973   3.574   6.301
 5669SOL    HW217907   6.959   3.472   6.428
 5670SOL     OW17908   0.556   3.243   2.975
 5670SOL    HW117909   0.489   3.228   2.902
 5670SOL    HW217910   0.509   3.247   3.063
 5671SOL     OW17911   1.032   6.504   6.442
 5671SOL    HW117912   0.949   6.474   6.490
 5671SOL    HW217913   1.042   6.603   6.452
 5672SOL     OW17914   4.190   5.132   6.479
 5672SOL    HW117915   4.279   5.151   6.521
 5672SOL    HW217916   4.186   5.174   6.389
 5673SOL     OW17917   0.991   6.948   1.883
 5673SOL    HW117918   1.002   6.849   1.873
 5673SOL    HW217919   0.946   6.968   1.970
 5674SOL     OW17920   6.875   3.604   2.800
 5674SOL    HW117921   6.847   3.700   2.792
 5674SOL    HW217922   6.794   3.545   2.794
 5675SOL     OW17923   4.244   2.246   6.165
 5675SOL    HW117924   4.164   2.275   6.218
 5675SOL    HW217925   4.260   2.311   6.091
 5676SOL     OW17926   1.852   1.658   1.514
 5676SOL    HW117927   1.757   1.631   1.495
 5676SOL    HW217928   1.898   1.679   1.428
 5677SOL     OW17929   0.360   1.937   2.690
 5677SOL    HW117930   0.447   1.891   2.671
 5677SOL    HW217931   0.376   2.034   2.706
 5678SOL     OW17932   3.073   6.678   3.201
 5678SOL    HW117933   2.997   6.705   3.260
 5678SOL    HW217934   3.079   6.740   3.123
 5679SOL     OW17935   1.468   0.204   3.718
 5679SOL    HW117936   1.421   0.288   3.690
 5679SOL    HW217937   1.437   0.129   3.660
 5680SOL     OW17938   1.491   5.170   0.942
 5680SOL    HW117939   1.494   5.160   0.842
 5680SOL    HW217940   1.511   5.082   0.984
 5681SOL     OW17941   0.525   3.609   6.918
 5681SOL    HW117942   0.514   3.652   6.828
 5681SOL    HW217943   0.553   3.679   6.984
 5682SOL     OW17944   2.036   4.794   5.515
 5682SOL    HW117945   2.014   4.809   5.418
 5682SOL    HW217946   2.078   4.876   5.553
 5683SOL     OW17947   4.705   2.108   6.405
 5683SOL    HW117948   4.679   2.200   6.433
 5683SOL    HW217949   4.706   2.102   6.305
 5684SOL     OW17950   4.056   3.570   4.679
 5684SOL    HW117951   4.093   3.659   4.705
 5684SOL    HW217952   3.959   3.565   4.705
 5685SOL     OW17953   0.653   4.466   2.125
 5685SOL    HW117954   0.679   4.530   2.053
 5685SOL    HW217955   0.735   4.420   2.159
 5686SOL     OW17956   3.369   0.741   0.101
 5686SOL    HW117957   3.384   0.776   0.009
 5686SOL    HW217958   3.360   0.642   0.098
 5687SOL     OW17959   6.874   3.941   4.712
 5687SOL    HW117960   6.955   3.949   4.654
 5687SOL    HW217961   6.830   3.854   4.696
 5688SOL     OW17962   6.771   1.291   0.238
 5688SOL    HW117963   6.741   1.384   0.259
 5688SOL    HW217964   6.704   1.247   0.177
 5689SOL     OW17965   4.458   1.090   0.071
 5689SOL    HW117966   4.367   1.080   0.112
 5689SOL    HW217967   4.450   1.097   6.998
 5690SOL     OW17968   2.601   6.423   0.924
 5690SOL    HW117969   2.604   6.422   1.024
 5690SOL    HW217970   2.692   6.444   0.888
 5691SOL     OW17971   3.044   6.423   1.932
 5691SOL    HW117972   3.080   6.500   1.984
 5691SOL    HW217973   3.091   6.339   1.960
 5692SOL     OW17974   6.635   3.209   5.882
 5692SOL    HW117975   6.729   3.186   5.904
 5692SOL    HW217976   6.577   3.194   5.962
 5693SOL     OW17977   5.515   2.946   2.130
 5693SOL    HW117978   5.474   2.866   2.173
 5693SOL    HW217979   5.450   3.022   2.131
 5694SOL     OW17980   0.167   1.188   4.000
 5694SOL    HW117981   0.201   1.171   4.092
 5694SOL    HW217982   0.100   1.118   3.976
 5695SOL     OW17983   0.644   2.601   2.807
 5695SOL    HW117984   0.627   2.541   2.885
 5695SOL    HW217985   0.714   2.668   2.831
 5696SOL     OW17986   1.846   0.306   2.808
 5696SOL    HW117987   1.792   0.339   2.886
 5696SOL    HW217988   1.840   0.206   2.804
 5697SOL     OW17989   5.972   1.919   0.837
 5697SOL    HW117990   5.968   2.019   0.841
 5697SOL    HW217991   6.060   1.887   0.870
 5698SOL     OW17992   0.425   3.012   1.708
 5698SOL    HW117993   0.346   3.025   1.648
 5698SOL    HW217994   0.409   3.058   1.795
 5699SOL     OW17995   6.240   2.418   3.176
 5699SOL    HW117996   6.165   2.353   3.181
 5699SOL    HW217997   6.327   2.372   3.196
 5700SOL     OW17998   6.684   6.493   4.599
 5700SOL    HW117999   6.745   6.534   4.531
 5700SOL    HW218000   6.705   6.530   4.690
 5701SOL     OW18001   1.015   5.903   3.195
 5701SOL    HW118002   1.003   5.850   3.279
 5701SOL    HW218003   1.070   5.984   3.214
 5702SOL     OW18004   1.932   0.220   5.689
 5702SOL    HW118005   2.006   0.285   5.671
 5702SOL    HW218006   1.924   0.156   5.612
 5703SOL     OW18007   5.063   4.494   0.525
 5703SOL    HW118008   5.153   4.458   0.550
 5703SOL    HW218009   5.039   4.570   0.585
 5704SOL     OW18010   4.161   5.311   2.363
 5704SOL    HW118011   4.202   5.345   2.279
 5704SOL    HW218012   4.139   5.214   2.353
 5705SOL     OW18013   5.541   0.797   0.515
 5705SOL    HW118014   5.547   0.720   0.578
 5705SOL    HW218015   5.617   0.859   0.532
 5706SOL     OW18016   1.109   1.871   0.755
 5706SOL    HW118017   1.179   1.906   0.693
 5706SOL    HW218018   1.019   1.880   0.712
 5707SOL     OW18019   0.539   6.557   0.478
 5707SOL    HW118020   0.611   6.619   0.511
 5707SOL    HW218021   0.492   6.598   0.401
 5708SOL     OW18022   5.437   6.147   1.219
 5708SOL    HW118023   5.456   6.205   1.140
 5708SOL    HW218024   5.513   6.083   1.233
 5709SOL     OW18025   1.083   6.830   3.467
 5709SOL    HW118026   1.085   6.910   3.527
 5709SOL    HW218027   1.040   6.754   3.514
 5710SOL     OW18028   2.622   3.489   5.995
 5710SOL    HW118029   2.612   3.499   5.896
 5710SOL    HW218030   2.546   3.535   6.041
 5711SOL     OW18031   4.991   0.541   2.943
 5711SOL    HW118032   4.978   0.522   2.846
 5711SOL    HW218033   5.053   0.619   2.954
 5712SOL     OW18034   0.544   6.091   5.952
 5712SOL    HW118035   0.584   6.028   6.018
 5712SOL    HW218036   0.520   6.042   5.869
 5713SOL     OW18037   0.996   1.861   1.407
 5713SOL    HW118038   0.900   1.835   1.413
 5713SOL    HW218039   1.029   1.848   1.313
 5714SOL     OW18040   1.205   6.250   0.112
 5714SOL    HW118041   1.237   6.179   0.049
 5714SOL    HW218042   1.252   6.239   0.200
 5715SOL     OW18043   1.206   6.084   3.225
 5715SOL    HW118044   1.284   6.107   3.283
 5715SOL    HW218045   1.223   6.116   3.131
 5716SOL     OW18046   1.179   3.805   5.883
 5716SOL    HW118047   1.169   3.869   5.807
 5716SOL    HW218048   1.107   3.820   5.950
 5717SOL     OW18049   1.729   5.435   0.456
 5717SOL    HW118050   1.697   5.459   0.364
 5717SOL    HW218051   1.659   5.381   0.503
 5718SOL     OW18052   1.038   3.947   6.263
 5718SOL    HW118053   1.015   4.044   6.266
 5718SOL    HW218054   0.988   3.898   6.335
 5719SOL     OW18055   2.475   1.252   6.101
 5719SOL    HW118056   2.397   1.304   6.136
 5719SOL    HW218057   2.464   1.156   6.127
 5720SOL     OW18058   1.050   4.848   4.219
 5720SOL    HW118059   1.043   4.761   4.268
 5720SOL    HW218060   1.134   4.895   4.246
 5721SOL     OW18061   0.092   3.802   1.004
 5721SOL    HW118062   0.105   3.891   1.048
 5721SOL    HW218063   0.166   3.785   0.939
 5722SOL     OW18064   5.720   1.918   5.115
 5722SOL    HW118065   5.708   1.821   5.097
 5722SOL    HW218066   5.811   1.947   5.086
 5723SOL     OW18067   4.121   3.840   0.003
 5723SOL    HW118068   4.031   3.797   7.025
 5723SOL    HW218069   4.147   3.857   0.098
 5724SOL     OW18070   3.989   2.500   5.350
 5724SOL    HW118071   3.966   2.596   5.364
 5724SOL    HW218072   4.073   2.493   5.295
 5725SOL     OW18073   5.374   5.766   3.433
 5725SOL    HW118074   5.406   5.750   3.340
 5725SOL    HW218075   5.418   5.699   3.495
 5726SOL     OW18076   6.323   3.264   3.516
 5726SOL    HW118077   6.277   3.224   3.596
 5726SOL    HW218078   6.283   3.225   3.433
 5727SOL     OW18079   0.602   2.822   3.873
 5727SOL    HW118080   0.689   2.867   3.851
 5727SOL    HW218081   0.526   2.884   3.854
 5728SOL     OW18082   4.662   1.455   5.984
 5728SOL    HW118083   4.696   1.382   5.925
 5728SOL    HW218084   4.735   1.486   6.045
 5729SOL     OW18085   1.020   1.329   0.693
 5729SOL    HW118086   0.993   1.335   0.597
 5729SOL    HW218087   1.072   1.411   0.718
 5730SOL     OW18088   4.052   5.232   5.936
 5730SOL    HW118089   4.120   5.158   5.938
 5730SOL    HW218090   4.005   5.232   5.847
 5731SOL     OW18091   1.920   6.600   3.747
 5731SOL    HW118092   1.987   6.634   3.813
 5731SOL    HW218093   1.944   6.507   3.720
 5732SOL     OW18094   6.452   4.418   4.860
 5732SOL    HW118095   6.517   4.482   4.820
 5732SOL    HW218096   6.467   4.327   4.822
 5733SOL     OW18097   3.248   0.237   5.762
 5733SOL    HW118098   3.270   0.233   5.859
 5733SOL    HW218099   3.263   0.147   5.721
 5734SOL     OW18100   1.418   6.329   6.370
 5734SOL    HW118101   1.486   6.263   6.400
 5734SOL    HW218102   1.377   6.373   6.450
 5735SOL     OW18103   4.038   1.392   3.054
 5735SOL    HW118104   4.032   1.356   3.147
 5735SOL    HW218105   4.064   1.318   2.992
 5736SOL     OW18106   5.465   4.728   0.368
 5736SOL    HW118107   5.368   4.704   0.363
 5736SOL    HW218108   5.515   4.655   0.415
 5737SOL     OW18109   5.563   5.962   0.487
 5737SOL    HW118110   5.657   5.932   0.499
 5737SOL    HW218111   5.559   6.036   0.420
 5738SOL     OW18112   3.637   1.705   6.852
 5738SOL    HW118113   3.633   1.641   6.929
 5738SOL    HW218114   3.614   1.656   6.768
 5739SOL     OW18115   1.165   6.438   5.495
 5739SOL    HW118116   1.142   6.445   5.592
 5739SOL    HW218117   1.264   6.439   5.484
 5740SOL     OW18118   4.500   3.691   0.999
 5740SOL    HW118119   4.510   3.763   1.068
 5740SOL    HW218120   4.590   3.654   0.977
 5741SOL     OW18121   0.275   3.762   4.265
 5741SOL    HW118122   0.176   3.777   4.270
 5741SOL    HW218123   0.305   3.714   4.348
 5742SOL     OW18124   4.434   6.084   3.100
 5742SOL    HW118125   4.416   6.004   3.043
 5742SOL    HW218126   4.448   6.164   3.041
 5743SOL     OW18127   2.688   5.948   4.986
 5743SOL    HW118128   2.644   6.033   5.013
 5743SOL    HW218129   2.637   5.870   5.023
 5744SOL     OW18130   5.240   1.185   2.260
 5744SOL    HW118131   5.252   1.253   2.332
 5744SOL    HW218132   5.191   1.106   2.296
 5745SOL     OW18133   2.537   0.777   4.185
 5745SOL    HW118134   2.570   0.867   4.215
 5745SOL    HW218135   2.438   0.771   4.199
 5746SOL     OW18136   4.943   6.649   1.508
 5746SOL    HW118137   4.872   6.621   1.574
 5746SOL    HW218138   4.901   6.704   1.436
 5747SOL     OW18139   0.623   5.163   1.757
 5747SOL    HW118140   0.717   5.195   1.766
 5747SOL    HW218141   0.561   5.229   1.800
 5748SOL     OW18142   1.488   6.730   1.190
 5748SOL    HW118143   1.494   6.789   1.270
 5748SOL    HW218144   1.550   6.762   1.119
 5749SOL     OW18145   1.531   6.760   4.958
 5749SOL    HW118146   1.614   6.722   4.998
 5749SOL    HW218147   1.487   6.692   4.900
 5750SOL     OW18148   5.964   6.549   5.232
 5750SOL    HW118149   6.002   6.478   5.173
 5750SOL    HW218150   5.979   6.639   5.191
 5751SOL     OW18151   2.503   2.624   4.792
 5751SOL    HW118152   2.454   2.693   4.738
 5751SOL    HW218153   2.550   2.669   4.868
 5752SOL     OW18154   5.633   0.322   0.393
 5752SOL    HW118155   5.571   0.344   0.468
 5752SOL    HW218156   5.717   0.281   0.429
 5753SOL     OW18157   3.532   4.144   5.096
 5753SOL    HW118158   3.441   4.162   5.132
 5753SOL    HW218159   3.528   4.134   4.996
 5754SOL     OW18160   0.832   5.291   1.592
 5754SOL    HW118161   0.866   5.369   1.539
 5754SOL    HW218162   0.826   5.210   1.533
 5755SOL     OW18163   1.547   2.143   6.192
 5755SOL    HW118164   1.475   2.086   6.151
 5755SOL    HW218165   1.520   2.239   6.186
 5756SOL     OW18166   0.521   1.003   2.583
 5756SOL    HW118167   0.434   0.970   2.546
 5756SOL    HW218168   0.574   0.925   2.617
 5757SOL     OW18169   0.689   5.425   4.021
 5757SOL    HW118170   0.687   5.380   3.932
 5757SOL    HW218171   0.611   5.393   4.076
 5758SOL     OW18172   2.367   1.298   2.706
 5758SOL    HW118173   2.402   1.231   2.640
 5758SOL    HW218174   2.349   1.384   2.659
 5759SOL     OW18175   4.893   0.508   0.204
 5759SOL    HW118176   4.915   0.578   0.136
 5759SOL    HW218177   4.934   0.532   0.292
 5760SOL     OW18178   5.974   2.327   0.817
 5760SOL    HW118179   6.017   2.404   0.864
 5760SOL    HW218180   5.881   2.353   0.790
 5761SOL     OW18181   6.155   4.925   5.876
 5761SOL    HW118182   6.142   4.849   5.939
 5761SOL    HW218183   6.114   4.903   5.788
 5762SOL     OW18184   5.232   4.311   0.912
 5762SOL    HW118185   5.268   4.266   0.993
 5762SOL    HW218186   5.308   4.333   0.850
 5763SOL     OW18187   5.749   5.788   0.890
 5763SOL    HW118188   5.826   5.792   0.826
 5763SOL    HW218189   5.734   5.693   0.917
 5764SOL     OW18190   4.619   4.558   4.687
 5764SOL    HW118191   4.658   4.468   4.704
 5764SOL    HW218192   4.598   4.602   4.775
 5765SOL     OW18193   6.131   3.328   0.284
 5765SOL    HW118194   6.060   3.386   0.243
 5765SOL    HW218195   6.221   3.364   0.260
 5766SOL     OW18196   1.478   1.692   5.252
 5766SOL    HW118197   1.403   1.662   5.193
 5766SOL    HW218198   1.564   1.687   5.201
 5767SOL     OW18199   2.398   0.265   0.907
 5767SOL    HW118200   2.441   0.272   0.997
 5767SOL    HW218201   2.414   0.174   0.869
 5768SOL     OW18202   0.630   6.948   4.008
 5768SOL    HW118203   0.626   7.016   4.081
 5768SOL    HW218204   0.602   6.991   3.922
 5769SOL     OW18205   2.584   5.301   4.077
 5769SOL    HW118206   2.648   5.346   4.139
 5769SOL    HW218207   2.490   5.322   4.105
 5770SOL     OW18208   6.912   6.213   6.080
 5770SOL    HW118209   6.928   6.131   6.024
 5770SOL    HW218210   6.814   6.220   6.100
 5771SOL     OW18211   1.038   0.104   4.232
 5771SOL    HW118212   1.031   0.005   4.249
 5771SOL    HW218213   1.121   0.139   4.274
 5772SOL     OW18214   5.185   1.317   1.255
 5772SOL    HW118215   5.243   1.245   1.218
 5772SOL    HW218216   5.133   1.281   1.333
 5773SOL     OW18217   4.294   1.158   3.248
 5773SOL    HW118218   4.264   1.068   3.280
 5773SOL    HW218219   4.256   1.174   3.157
 5774SOL     OW18220   3.167   7.001   3.837
 5774SOL    HW118221   3.126   0.018   3.917
 5774SOL    HW218222   3.177   6.903   3.853
 5775SOL     OW18223   1.548   0.259   2.185
 5775SOL    HW118224   1.552   0.182   2.247
 5775SOL    HW218225   1.616   0.328   2.211
 5776SOL     OW18226   0.658   0.495   3.855
 5776SOL    HW118227   0.694   0.569   3.799
 5776SOL    HW218228   0.701   0.497   3.945
 5777SOL     OW18229   6.618   0.168   5.009
 5777SOL    HW118230   6.525   0.134   5.025
 5777SOL    HW218231   6.618   0.268   5.018
 5778SOL     OW18232   1.395   0.307   0.182
 5778SOL    HW118233   1.490   0.321   0.154
 5778SOL    HW218234   1.393   0.285   0.280
 5779SOL     OW18235   4.708   2.370   1.108
 5779SOL    HW118236   4.642   2.445   1.111
 5779SOL    HW218237   4.767   2.375   1.188
 5780SOL     OW18238   6.177   6.228   3.972
 5780SOL    HW118239   6.222   6.306   3.928
 5780SOL    HW218240   6.239   6.150   3.973
 5781SOL     OW18241   0.066   5.086   4.381
 5781SOL    HW118242   0.081   5.064   4.477
 5781SOL    HW218243   6.997   5.068   4.357
 5782SOL     OW18244   1.885   1.557   0.977
 5782SOL    HW118245   1.831   1.641   0.974
 5782SOL    HW218246   1.969   1.569   0.924
 5783SOL     OW18247   0.986   0.834   1.348
 5783SOL    HW118248   1.070   0.858   1.395
 5783SOL    HW218249   0.948   0.751   1.388
 5784SOL     OW18250   6.990   6.131   5.526
 5784SOL    HW118251   0.013   6.191   5.463
 5784SOL    HW218252   6.958   6.183   5.605
 5785SOL     OW18253   2.282   2.160   6.946
 5785SOL    HW118254   2.375   2.131   6.922
 5785SOL    HW218255   2.263   2.137   0.015
 5786SOL     OW18256   0.538   4.524   0.201
 5786SOL    HW118257   0.449   4.514   0.244
 5786SOL    HW218258   0.547   4.617   0.165
 5787SOL     OW18259   2.945   1.857   4.628
 5787SOL    HW118260   2.865   1.917   4.633
 5787SOL    HW218261   2.981   1.843   4.720
 5788SOL     OW18262   3.040   1.630   1.357
 5788SOL    HW118263   3.089   1.689   1.293
 5788SOL    HW218264   2.993   1.558   1.307
 5789SOL     OW18265   3.178   4.519   0.165
 5789SOL    HW118266   3.239   4.533   0.087
 5789SOL    HW218267   3.169   4.421   0.184
 5790SOL     OW18268   1.420   4.164   5.231
 5790SOL    HW118269   1.380   4.167   5.139
 5790SOL    HW218270   1.395   4.078   5.275
 5791SOL     OW18271   3.925   1.869   2.441
 5791SOL    HW118272   3.872   1.916   2.370
 5791SOL    HW218273   4.022   1.888   2.428
 5792SOL     OW18274   5.824   3.415   2.251
 5792SOL    HW118275   5.900   3.352   2.264
 5792SOL    HW218276   5.827   3.486   2.321
 5793SOL     OW18277   5.051   1.376   3.781
 5793SOL    HW118278   5.033   1.278   3.774
 5793SOL    HW218279   4.972   1.422   3.821
 5794SOL     OW18280   2.650   1.494   0.287
 5794SOL    HW118281   2.588   1.567   0.316
 5794SOL    HW218282   2.740   1.508   0.329
 5795SOL     OW18283   6.543   0.275   0.019
 5795SOL    HW118284   6.446   0.291   0.005
 5795SOL    HW218285   6.586   0.251   6.957
 5796SOL     OW18286   4.716   1.319   6.588
 5796SOL    HW118287   4.684   1.392   6.527
 5796SOL    HW218288   4.716   1.352   6.683
 5797SOL     OW18289   4.746   2.968   6.083
 5797SOL    HW118290   4.752   2.884   6.028
 5797SOL    HW218291   4.825   3.026   6.064
 5798SOL     OW18292   0.879   4.629   5.439
 5798SOL    HW118293   0.944   4.688   5.488
 5798SOL    HW218294   0.798   4.613   5.495
 5799SOL     OW18295   0.503   0.570   3.051
 5799SOL    HW118296   0.464   0.563   3.142
 5799SOL    HW218297   0.591   0.617   3.056
 5800SOL     OW18298   6.161   6.454   2.035
 5800SOL    HW118299   6.238   6.506   2.073
 5800SOL    HW218300   6.079   6.511   2.037
 5801SOL     OW18301   1.968   2.228   3.427
 5801SOL    HW118302   1.977   2.178   3.514
 5801SOL    HW218303   1.919   2.314   3.443
 5802SOL     OW18304   0.886   4.192   2.470
 5802SOL    HW118305   0.932   4.110   2.435
 5802SOL    HW218306   0.937   4.228   2.549
 5803SOL     OW18307   2.322   4.756   2.535
 5803SOL    HW118308   2.341   4.749   2.633
 5803SOL    HW218309   2.406   4.745   2.483
 5804SOL     OW18310   0.460   5.384   4.142
 5804SOL    HW118311   0.457   5.475   4.185
 5804SOL    HW218312   0.397   5.323   4.189
 5805SOL     OW18313   2.878   3.452   6.814
 5805SOL    HW118314   2.884   3.430   6.911
 5805SOL    HW218315   2.970   3.463   6.776
 5806SOL     OW18316   0.213   5.841   4.859
 5806SOL    HW118317   0.313   5.844   4.853
 5806SOL    HW218318   0.179   5.771   4.796
 5807SOL     OW18319   0.659   3.966   2.304
 5807SOL    HW118320   0.614   3.880   2.280
 5807SOL    HW218321   0.637   4.036   2.236
 5808SOL     OW18322   5.641   5.905   4.840
 5808SOL    HW118323   5.623   5.872   4.932
 5808SOL    HW218324   5.700   5.840   4.792
 5809SOL     OW18325   5.161   1.560   4.260
 5809SOL    HW118326   5.233   1.517   4.315
 5809SOL    HW218327   5.124   1.638   4.310
 5810SOL     OW18328   3.724   1.845   4.886
 5810SOL    HW118329   3.724   1.920   4.820
 5810SOL    HW218330   3.635   1.842   4.932
 5811SOL     OW18331   2.930   0.666   5.303
 5811SOL    HW118332   2.857   0.597   5.307
 5811SOL    HW218333   3.012   0.625   5.264
 5812SOL     OW18334   6.719   2.587   4.059
 5812SOL    HW118335   6.705   2.676   4.102
 5812SOL    HW218336   6.692   2.514   4.122
 5813SOL     OW18337   2.010   2.169   0.681
 5813SOL    HW118338   2.065   2.085   0.684
 5813SOL    HW218339   1.992   2.200   0.774
 5814SOL     OW18340   6.584   4.639   1.145
 5814SOL    HW118341   6.566   4.617   1.240
 5814SOL    HW218342   6.556   4.733   1.126
 5815SOL     OW18343   3.952   2.183   4.258
 5815SOL    HW118344   3.890   2.153   4.186
 5815SOL    HW218345   4.035   2.221   4.218
 5816SOL     OW18346   4.292   5.641   0.019
 5816SOL    HW118347   4.317   5.732   7.012
 5816SOL    HW218348   4.302   5.575   6.970
 5817SOL     OW18349   5.646   3.365   6.095
 5817SOL    HW118350   5.677   3.272   6.117
 5817SOL    HW218351   5.598   3.364   6.008
 5818SOL     OW18352   6.357   6.447   5.010
 5818SOL    HW118353   6.308   6.436   4.924
 5818SOL    HW218354   6.455   6.429   4.995
 5819SOL     OW18355   3.773   6.795   6.908
 5819SOL    HW118356   3.770   6.710   6.856
 5819SOL    HW218357   3.680   6.827   6.926
 5820SOL     OW18358   4.027   5.553   3.817
 5820SOL    HW118359   3.939   5.595   3.795
 5820SOL    HW218360   4.087   5.558   3.737
 5821SOL     OW18361   0.225   6.959   1.402
 5821SOL    HW118362   0.169   6.901   1.342
 5821SOL    HW218363   0.187   0.025   1.404
 5822SOL     OW18364   1.324   2.198   1.800
 5822SOL    HW118365   1.227   2.217   1.817
 5822SOL    HW218366   1.369   2.281   1.768
 5823SOL     OW18367   1.732   0.999   5.594
 5823SOL    HW118368   1.813   1.057   5.583
 5823SOL    HW218369   1.674   1.037   5.666
 5824SOL     OW18370   6.426   5.514   2.387
 5824SOL    HW118371   6.408   5.576   2.463
 5824SOL    HW218372   6.519   5.530   2.353
 5825SOL     OW18373   1.542   1.492   5.787
 5825SOL    HW118374   1.507   1.564   5.727
 5825SOL    HW218375   1.586   1.534   5.867
 5826SOL     OW18376   6.988   4.776   5.437
 5826SOL    HW118377   6.925   4.799   5.363
 5826SOL    HW218378   6.940   4.720   5.505
 5827SOL     OW18379   1.962   4.427   4.802
 5827SOL    HW118380   1.909   4.437   4.886
 5827SOL    HW218381   2.021   4.347   4.809
 5828SOL     OW18382   6.416   1.895   1.245
 5828SOL    HW118383   6.508   1.909   1.208
 5828SOL    HW218384   6.348   1.922   1.177
 5829SOL     OW18385   1.502   1.055   3.433
 5829SOL    HW118386   1.543   1.145   3.420
 5829SOL    HW218387   1.453   1.028   3.350
 5830SOL     OW18388   5.103   6.535   5.365
 5830SOL    HW118389   5.193   6.559   5.329
 5830SOL    HW218390   5.103   6.546   5.464
 5831SOL     OW18391   0.702   0.777   5.511
 5831SOL    HW118392   0.796   0.774   5.477
 5831SOL    HW218393   0.697   0.834   5.593
 5832SOL     OW18394   3.148   4.525   6.702
 5832SOL    HW118395   3.075   4.585   6.670
 5832SOL    HW218396   3.163   4.452   6.636
 5833SOL     OW18397   3.485   3.576   4.792
 5833SOL    HW118398   3.392   3.611   4.800
 5833SOL    HW218399   3.483   3.487   4.747
 5834SOL     OW18400   0.168   3.187   6.995
 5834SOL    HW118401   0.175   3.270   0.026
 5834SOL    HW218402   0.072   3.170   6.973
 5835SOL     OW18403   5.112   3.170   4.073
 5835SOL    HW118404   5.194   3.151   4.018
 5835SOL    HW218405   5.030   3.149   4.020
 5836SOL     OW18406   2.742   6.703   2.319
 5836SOL    HW118407   2.772   6.625   2.374
 5836SOL    HW218408   2.812   6.774   2.320
 5837SOL     OW18409   4.060   4.523   6.125
 5837SOL    HW118410   4.025   4.512   6.218
 5837SOL    HW218411   3.987   4.558   6.066
 5838SOL     OW18412   3.170   2.379   0.118
 5838SOL    HW118413   3.206   2.441   0.187
 5838SOL    HW218414   3.166   2.426   0.030
 5839SOL     OW18415   0.793   1.690   2.308
 5839SOL    HW118416   0.840   1.754   2.369
 5839SOL    HW218417   0.860   1.641   2.252
 5840SOL     OW18418   0.623   5.371   6.400
 5840SOL    HW118419   0.631   5.435   6.476
 5840SOL    HW218420   0.699   5.384   6.337
 5841SOL     OW18421   5.244   2.064   2.523
 5841SOL    HW118422   5.302   2.104   2.452
 5841SOL    HW218423   5.297   1.997   2.576
 5842SOL     OW18424   4.513   3.148   1.414
 5842SOL    HW118425   4.577   3.071   1.413
 5842SOL    HW218426   4.564   3.234   1.409
 5843SOL     OW18427   1.717   4.158   3.308
 5843SOL    HW118428   1.808   4.197   3.291
 5843SOL    HW218429   1.714   4.064   3.277
 5844SOL     OW18430   1.926   6.433   6.229
 5844SOL    HW118431   1.876   6.399   6.309
 5844SOL    HW218432   1.992   6.502   6.258
 5845SOL     OW18433   0.286   0.987   2.200
 5845SOL    HW118434   0.353   0.979   2.125
 5845SOL    HW218435   0.204   0.935   2.176
 5846SOL     OW18436   0.427   2.438   4.263
 5846SOL    HW118437   0.430   2.440   4.163
 5846SOL    HW218438   0.509   2.392   4.298
 5847SOL     OW18439   2.573   2.318   1.777
 5847SOL    HW118440   2.617   2.408   1.779
 5847SOL    HW218441   2.622   2.259   1.712
 5848SOL     OW18442   2.296   5.366   3.404
 5848SOL    HW118443   2.198   5.348   3.390
 5848SOL    HW218444   2.339   5.389   3.317
 5849SOL     OW18445   0.072   0.062   6.501
 5849SOL    HW118446   0.015   7.007   6.516
 5849SOL    HW218447   0.014   0.140   6.477
 5850SOL     OW18448   6.732   2.467   1.837
 5850SOL    HW118449   6.783   2.488   1.754
 5850SOL    HW218450   6.701   2.552   1.879
 5851SOL     OW18451   5.084   3.885   3.311
 5851SOL    HW118452   5.009   3.914   3.251
 5851SOL    HW218453   5.048   3.830   3.386
 5852SOL     OW18454   6.513   5.963   3.168
 5852SOL    HW118455   6.541   5.962   3.072
 5852SOL    HW218456   6.550   6.045   3.213
 5853SOL     OW18457   3.704   6.095   4.195
 5853SOL    HW118458   3.789   6.100   4.248
 5853SOL    HW218459   3.716   6.029   4.121
 5854SOL     OW18460   5.514   5.048   5.690
 5854SOL    HW118461   5.501   5.100   5.775
 5854SOL    HW218462   5.583   4.977   5.705
 5855SOL     OW18463   0.245   1.328   4.866
 5855SOL    HW118464   0.229   1.232   4.888
 5855SOL    HW218465   0.191   1.386   4.927
 5856SOL     OW18466   1.798   5.890   3.716
 5856SOL    HW118467   1.719   5.897   3.777
 5856SOL    HW218468   1.876   5.853   3.767
 5857SOL     OW18469   6.533   2.161   5.959
 5857SOL    HW118470   6.591   2.166   5.878
 5857SOL    HW218471   6.463   2.233   5.953
 5858SOL     OW18472   2.459   2.223   2.363
 5858SOL    HW118473   2.531   2.293   2.362
 5858SOL    HW218474   2.369   2.267   2.359
 5859SOL     OW18475   5.785   6.393   1.595
 5859SOL    HW118476   5.744   6.427   1.680
 5859SOL    HW218477   5.716   6.392   1.523
 5860SOL     OW18478   1.386   4.062   1.961
 5860SOL    HW118479   1.439   4.058   2.045
 5860SOL    HW218480   1.338   4.149   1.955
 5861SOL     OW18481   4.576   1.691   4.747
 5861SOL    HW118482   4.609   1.628   4.817
 5861SOL    HW218483   4.494   1.654   4.704
 5862SOL     OW18484   5.361   5.100   1.625
 5862SOL    HW118485   5.261   5.101   1.638
 5862SOL    HW218486   5.381   5.099   1.527
 5863SOL     OW18487   3.099   1.510   4.912
 5863SOL    HW118488   3.053   1.532   4.998
 5863SOL    HW218489   3.144   1.592   4.877
 5864SOL     OW18490   3.982   3.714   1.660
 5864SOL    HW118491   4.067   3.718   1.713
 5864SOL    HW218492   3.914   3.659   1.709
 5865SOL     OW18493   5.854   0.800   5.144
 5865SOL    HW118494   5.870   0.867   5.072
 5865SOL    HW218495   5.853   0.847   5.233
 5866SOL     OW18496   3.935   4.292   0.744
 5866SOL    HW118497   3.842   4.277   0.710
 5866SOL    HW218498   3.977   4.369   0.696
 5867SOL     OW18499   1.119   3.879   0.782
 5867SOL    HW118500   1.218   3.863   0.783
 5867SOL    HW218501   1.075   3.821   0.851
 5868SOL     OW18502   0.606   1.576   5.411
 5868SOL    HW118503   0.521   1.600   5.363
 5868SOL    HW218504   0.603   1.479   5.437
 5869SOL     OW18505   1.923   6.307   4.116
 5869SOL    HW118506   1.831   6.311   4.075
 5869SOL    HW218507   1.937   6.386   4.175
 5870SOL     OW18508   5.141   6.024   4.732
 5870SOL    HW118509   5.066   5.959   4.740
 5870SOL    HW218510   5.108   6.108   4.688
 5871SOL     OW18511   3.849   2.581   1.119
 5871SOL    HW118512   3.836   2.568   1.021
 5871SOL    HW218513   3.778   2.643   1.154
 5872SOL     OW18514   4.034   6.089   1.573
 5872SOL    HW118515   3.938   6.060   1.579
 5872SOL    HW218516   4.063   6.126   1.662
 5873SOL     OW18517   2.875   1.892   1.238
 5873SOL    HW118518   2.918   1.804   1.256
 5873SOL    HW218519   2.819   1.918   1.317
 5874SOL     OW18520   2.875   4.245   0.059
 5874SOL    HW118521   2.903   4.295   7.003
 5874SOL    HW218522   2.834   4.308   0.125
 5875SOL     OW18523   4.574   0.887   6.178
 5875SOL    HW118524   4.580   0.960   6.246
 5875SOL    HW218525   4.582   0.798   6.223
 5876SOL     OW18526   3.361   3.486   0.721
 5876SOL    HW118527   3.302   3.549   0.670
 5876SOL    HW218528   3.306   3.410   0.756
 5877SOL     OW18529   0.389   0.380   0.862
 5877SOL    HW118530   0.344   0.459   0.905
 5877SOL    HW218531   0.376   0.385   0.763
 5878SOL     OW18532   5.863   5.056   4.092
 5878SOL    HW118533   5.810   5.087   4.172
 5878SOL    HW218534   5.949   5.016   4.124
 5879SOL     OW18535   1.402   3.504   6.900
 5879SOL    HW118536   1.313   3.474   6.933
 5879SOL    HW218537   1.473   3.483   6.967
 5880SOL     OW18538   5.183   4.392   6.667
 5880SOL    HW118539   5.263   4.438   6.705
 5880SOL    HW218540   5.212   4.324   6.599
 5881SOL     OW18541   1.314   0.064   1.474
 5881SOL    HW118542   1.304   6.997   1.510
 5881SOL    HW218543   1.286   0.066   1.378
 5882SOL     OW18544   0.996   6.187   6.135
 5882SOL    HW118545   1.011   6.095   6.101
 5882SOL    HW218546   1.060   6.207   6.210
 5883SOL     OW18547   0.743   1.273   6.969
 5883SOL    HW118548   0.771   1.199   6.908
 5883SOL    HW218549   0.689   1.340   6.918
 5884SOL     OW18550   4.480   0.701   4.543
 5884SOL    HW118551   4.491   0.605   4.567
 5884SOL    HW218552   4.536   0.757   4.603
 5885SOL     OW18553   0.431   5.780   2.746
 5885SOL    HW118554   0.459   5.688   2.773
 5885SOL    HW218555   0.433   5.789   2.647
 5886SOL     OW18556   1.090   1.918   3.987
 5886SOL    HW118557   1.007   1.967   3.960
 5886SOL    HW218558   1.158   1.984   4.020
 5887SOL     OW18559   2.411   1.985   1.410
 5887SOL    HW118560   2.429   2.058   1.344
 5887SOL    HW218561   2.378   1.903   1.362
 5888SOL     OW18562   2.286   6.867   1.203
 5888SOL    HW118563   2.237   6.917   1.132
 5888SOL    HW218564   2.291   6.923   1.286
 5889SOL     OW18565   6.755   1.819   6.306
 5889SOL    HW118566   6.677   1.791   6.250
 5889SOL    HW218567   6.798   1.738   6.346
 5890SOL     OW18568   2.810   0.218   2.757
 5890SOL    HW118569   2.812   0.187   2.852
 5890SOL    HW218570   2.886   0.177   2.707
 5891SOL     OW18571   2.516   3.802   0.424
 5891SOL    HW118572   2.521   3.703   0.407
 5891SOL    HW218573   2.575   3.825   0.501
 5892SOL     OW18574   0.674   5.364   2.139
 5892SOL    HW118575   0.772   5.375   2.127
 5892SOL    HW218576   0.632   5.454   2.156
 5893SOL     OW18577   2.071   3.996   2.100
 5893SOL    HW118578   2.161   3.981   2.141
 5893SOL    HW218579   2.066   3.947   2.013
 5894SOL     OW18580   0.777   6.091   4.873
 5894SOL    HW118581   0.689   6.138   4.887
 5894SOL    HW218582   0.786   6.018   4.940
 5895SOL     OW18583   5.837   3.807   3.719
 5895SOL    HW118584   5.793   3.867   3.653
 5895SOL    HW218585   5.840   3.714   3.683
 5896SOL     OW18586   5.025   1.751   1.422
 5896SOL    HW118587   5.024   1.699   1.507
 5896SOL    HW218588   5.072   1.699   1.351
 5897SOL     OW18589   3.804   1.099   1.285
 5897SOL    HW118590   3.880   1.154   1.321
 5897SOL    HW218591   3.718   1.128   1.327
 5898SOL     OW18592   2.689   0.452   5.045
 5898SOL    HW118593   2.604   0.504   5.046
 5898SOL    HW218594   2.670   0.356   5.065
 5899SOL     OW18595   6.112   6.308   6.869
 5899SOL    HW118596   6.093   6.253   6.951
 5899SOL    HW218597   6.127   6.403   6.896
 5900SOL     OW18598   6.744   4.535   3.001
 5900SOL    HW118599   6.824   4.539   2.941
 5900SOL    HW218600   6.711   4.628   3.018
 5901SOL     OW18601   3.338   0.598   1.222
 5901SOL    HW118602   3.388   0.680   1.193
 5901SOL    HW218603   3.393   0.517   1.201
 5902SOL     OW18604   5.985   3.292   5.845
 5902SOL    HW118605   6.054   3.359   5.819
 5902SOL    HW218606   6.010   3.250   5.932
 5903SOL     OW18607   4.612   4.012   6.354
 5903SOL    HW118608   4.623   3.970   6.264
 5903SOL    HW218609   4.522   3.990   6.390
 5904SOL     OW18610   0.721   4.337   1.151
 5904SOL    HW118611   0.631   4.370   1.123
 5904SOL    HW218612   0.787   4.412   1.150
 5905SOL     OW18613   6.757   0.481   3.356
 5905SOL    HW118614   6.775   0.563   3.301
 5905SOL    HW218615   6.797   0.492   3.447
 5906SOL     OW18616   4.733   1.672   4.296
 5906SOL    HW118617   4.728   1.705   4.202
 5906SOL    HW218618   4.704   1.745   4.359
 5907SOL     OW18619   1.007   6.684   0.651
 5907SOL    HW118620   1.071   6.708   0.578
 5907SOL    HW218621   1.023   6.590   0.680
 5908SOL     OW18622   6.663   4.213   0.109
 5908SOL    HW118623   6.716   4.292   0.079
 5908SOL    HW218624   6.716   4.159   0.175
 5909SOL     OW18625   6.303   5.090   6.226
 5909SOL    HW118626   6.357   5.115   6.146
 5909SOL    HW218627   6.222   5.150   6.231
 5910SOL     OW18628   0.466   4.339   1.364
 5910SOL    HW118629   0.410   4.378   1.437
 5910SOL    HW218630   0.551   4.303   1.402
 5911SOL     OW18631   6.567   5.252   6.398
 5911SOL    HW118632   6.616   5.231   6.483
 5911SOL    HW218633   6.469   5.259   6.417
 5912SOL     OW18634   6.016   3.025   6.789
 5912SOL    HW118635   6.002   3.119   6.820
 5912SOL    HW218636   5.941   2.968   6.821
 5913SOL     OW18637   3.392   3.044   6.484
 5913SOL    HW118638   3.384   3.131   6.436
 5913SOL    HW218639   3.388   2.969   6.418
 5914SOL     OW18640   2.974   5.799   6.100
 5914SOL    HW118641   2.952   5.759   6.012
 5914SOL    HW218642   3.010   5.728   6.161
 5915SOL     OW18643   5.877   4.344   1.788
 5915SOL    HW118644   5.816   4.266   1.775
 5915SOL    HW218645   5.836   4.425   1.746
 5916SOL     OW18646   4.409   6.021   5.645
 5916SOL    HW118647   4.377   6.040   5.552
 5916SOL    HW218648   4.389   6.099   5.703
 5917SOL     OW18649   3.780   3.640   4.074
 5917SOL    HW118650   3.868   3.592   4.073
 5917SOL    HW218651   3.781   3.711   4.144
 5918SOL     OW18652   2.070   3.647   5.452
 5918SOL    HW118653   2.139   3.577   5.433
 5918SOL    HW218654   2.081   3.723   5.387
 5919SOL     OW18655   3.803   2.530   0.863
 5919SOL    HW118656   3.856   2.565   0.786
 5919SOL    HW218657   3.794   2.431   0.855
 5920SOL     OW18658   3.420   0.075   0.521
 5920SOL    HW118659   3.365   0.029   0.451
 5920SOL    HW218660   3.412   0.174   0.509
 5921SOL     OW18661   3.453   5.377   5.909
 5921SOL    HW118662   3.541   5.419   5.930
 5921SOL    HW218663   3.459   5.278   5.925
 5922SOL     OW18664   6.858   5.449   3.368
 5922SOL    HW118665   6.804   5.366   3.357
 5922SOL    HW218666   6.797   5.526   3.390
 5923SOL     OW18667   5.279   0.148   0.858
 5923SOL    HW118668   5.187   0.149   0.896
 5923SOL    HW218669   5.315   0.242   0.856
 5924SOL     OW18670   6.598   1.891   4.755
 5924SOL    HW118671   6.683   1.897   4.704
 5924SOL    HW218672   6.616   1.854   4.846
 5925SOL     OW18673   4.537   5.359   2.946
 5925SOL    HW118674   4.444   5.324   2.957
 5925SOL    HW218675   4.533   5.452   2.909
 5926SOL     OW18676   4.113   5.047   2.022
 5926SOL    HW118677   4.112   5.010   1.929
 5926SOL    HW218678   4.135   4.974   2.086
 5927SOL     OW18679   1.409   4.315   3.400
 5927SOL    HW118680   1.348   4.301   3.322
 5927SOL    HW218681   1.488   4.254   3.391
 5928SOL     OW18682   3.171   0.360   1.403
 5928SOL    HW118683   3.202   0.390   1.493
 5928SOL    HW218684   3.173   0.437   1.339
 5929SOL     OW18685   0.643   6.369   5.963
 5929SOL    HW118686   0.622   6.436   6.034
 5929SOL    HW218687   0.594   6.284   5.982
 5930SOL     OW18688   0.057   2.101   3.357
 5930SOL    HW118689   0.102   2.174   3.306
 5930SOL    HW218690   6.984   2.111   3.352
 5931SOL     OW18691   6.143   5.506   3.368
 5931SOL    HW118692   6.214   5.438   3.349
 5931SOL    HW218693   6.139   5.524   3.466
 5932SOL     OW18694   2.089   6.683   1.125
 5932SOL    HW118695   2.094   6.610   1.193
 5932SOL    HW218696   2.163   6.749   1.141
 5933SOL     OW18697   0.532   5.707   3.176
 5933SOL    HW118698   0.531   5.710   3.276
 5933SOL    HW218699   0.514   5.798   3.140
 5934SOL     OW18700   3.788   3.825   4.275
 5934SOL    HW118701   3.797   3.913   4.228
 5934SOL    HW218702   3.851   3.823   4.353
 5935SOL     OW18703   4.173   3.412   5.616
 5935SOL    HW118704   4.082   3.391   5.651
 5935SOL    HW218705   4.168   3.492   5.556
 5936SOL     OW18706   4.268   3.773   0.545
 5936SOL    HW118707   4.306   3.817   0.627
 5936SOL    HW218708   4.172   3.750   0.561
 5937SOL     OW18709   0.777   4.539   2.667
 5937SOL    HW118710   0.779   4.628   2.711
 5937SOL    HW218711   0.719   4.543   2.585
 5938SOL     OW18712   1.202   5.582   3.950
 5938SOL    HW118713   1.242   5.509   4.005
 5938SOL    HW218714   1.109   5.555   3.924
 5939SOL     OW18715   3.370   0.015   3.100
 5939SOL    HW118716   3.360   6.952   3.054
 5939SOL    HW218717   3.408   0.001   3.191
 5940SOL     OW18718   4.503   5.451   1.373
 5940SOL    HW118719   4.526   5.449   1.470
 5940SOL    HW218720   4.438   5.526   1.355
 5941SOL     OW18721   6.382   3.302   1.666
 5941SOL    HW118722   6.335   3.339   1.746
 5941SOL    HW218723   6.470   3.263   1.693
 5942SOL     OW18724   4.580   3.106   6.991
 5942SOL    HW118725   4.642   3.092   6.915
 5942SOL    HW218726   4.574   3.022   0.020
 5943SOL     OW18727   3.082   5.385   0.763
 5943SOL    HW118728   3.146   5.351   0.832
 5943SOL    HW218729   3.133   5.422   0.685
 5944SOL     OW18730   5.928   2.314   1.290
 5944SOL    HW118731   5.971   2.399   1.321
 5944SOL    HW218732   5.975   2.236   1.332
 5945SOL     OW18733   6.446   5.474   5.246
 5945SOL    HW118734   6.394   5.428   5.174
 5945SOL    HW218735   6.530   5.513   5.207
 5946SOL     OW18736   3.262   3.386   6.031
 5946SOL    HW118737   3.164   3.373   6.038
 5946SOL    HW218738   3.294   3.354   5.942
 5947SOL     OW18739   4.067   3.290   2.296
 5947SOL    HW118740   4.101   3.365   2.352
 5947SOL    HW218741   4.135   3.267   2.226
 5948SOL     OW18742   4.242   5.027   3.661
 5948SOL    HW118743   4.258   5.121   3.632
 5948SOL    HW218744   4.298   4.965   3.607
 5949SOL     OW18745   3.811   3.264   1.711
 5949SOL    HW118746   3.794   3.334   1.781
 5949SOL    HW218747   3.901   3.280   1.671
 5950SOL     OW18748   5.254   2.881   5.467
 5950SOL    HW118749   5.191   2.833   5.406
 5950SOL    HW218750   5.330   2.821   5.491
 5951SOL     OW18751   0.112   5.604   4.750
 5951SOL    HW118752   0.130   5.523   4.695
 5951SOL    HW218753   0.063   5.579   4.833
 5952SOL     OW18754   5.532   5.238   3.954
 5952SOL    HW118755   5.549   5.326   3.999
 5952SOL    HW218756   5.611   5.179   3.966
 5953SOL     OW18757   6.547   2.813   5.386
 5953SOL    HW118758   6.502   2.836   5.472
 5953SOL    HW218759   6.481   2.768   5.325
 5954SOL     OW18760   0.052   4.374   5.993
 5954SOL    HW118761   0.050   4.388   5.894
 5954SOL    HW218762   0.104   4.447   6.036
 5955SOL     OW18763   4.935   5.622   2.636
 5955SOL    HW118764   5.020   5.644   2.589
 5955SOL    HW218765   4.859   5.666   2.589
 5956SOL     OW18766   3.653   1.292   6.003
 5956SOL    HW118767   3.747   1.258   6.000
 5956SOL    HW218768   3.598   1.231   6.060
 5957SOL     OW18769   4.310   0.645   5.937
 5957SOL    HW118770   4.236   0.584   5.909
 5957SOL    HW218771   4.347   0.613   6.025
 5958SOL     OW18772   6.254   6.034   2.581
 5958SOL    HW118773   6.234   6.014   2.485
 5958SOL    HW218774   6.302   5.956   2.621
 5959SOL     OW18775   3.705   2.079   5.697
 5959SOL    HW118776   3.697   1.982   5.722
 5959SOL    HW218777   3.770   2.124   5.758
 5960SOL     OW18778   4.327   6.123   4.976
 5960SOL    HW118779   4.408   6.067   4.996
 5960SOL    HW218780   4.325   6.144   4.879
 5961SOL     OW18781   4.993   1.504   3.408
 5961SOL    HW118782   4.972   1.407   3.424
 5961SOL    HW218783   5.092   1.518   3.416
 5962SOL     OW18784   4.671   5.573   1.174
 5962SOL    HW118785   4.604   5.533   1.237
 5962SOL    HW218786   4.625   5.606   1.092
 5963SOL     OW18787   3.300   2.998   4.924
 5963SOL    HW118788   3.348   3.004   4.836
 5963SOL    HW218789   3.214   3.050   4.918
 5964SOL     OW18790   0.269   5.228   5.374
 5964SOL    HW118791   0.351   5.281   5.355
 5964SOL    HW218792   0.294   5.139   5.413
 5965SOL     OW18793   1.370   2.439   6.974
 5965SOL    HW118794   1.426   2.466   0.026
 5965SOL    HW218795   1.320   2.519   6.940
 5966SOL     OW18796   2.304   5.964   4.844
 5966SOL    HW118797   2.213   5.947   4.880
 5966SOL    HW218798   2.349   6.037   4.897
 5967SOL     OW18799   4.211   6.133   0.556
 5967SOL    HW118800   4.232   6.116   0.653
 5967SOL    HW218801   4.158   6.056   0.521
 5968SOL     OW18802   4.764   0.990   1.939
 5968SOL    HW118803   4.753   1.062   2.008
 5968SOL    HW218804   4.693   1.000   1.870
 5969SOL     OW18805   6.606   0.580   6.492
 5969SOL    HW118806   6.577   0.672   6.466
 5969SOL    HW218807   6.625   0.526   6.410
 5970SOL     OW18808   0.900   3.917   2.440
 5970SOL    HW118809   0.903   3.923   2.540
 5970SOL    HW218810   0.807   3.939   2.408
 5971SOL     OW18811   1.835   1.529   3.313
 5971SOL    HW118812   1.895   1.450   3.323
 5971SOL    HW218813   1.764   1.509   3.245
 5972SOL     OW18814   5.654   6.764   6.987
 5972SOL    HW118815   5.574   6.717   7.024
 5972SOL    HW218816   5.728   6.698   6.973
 5973SOL     OW18817   1.705   3.891   2.457
 5973SOL    HW118818   1.740   3.935   2.374
 5973SOL    HW218819   1.678   3.797   2.437
 5974SOL     OW18820   5.413   4.526   6.686
 5974SOL    HW118821   5.486   4.467   6.651
 5974SOL    HW218822   5.429   4.620   6.656
 5975SOL     OW18823   3.365   2.018   0.832
 5975SOL    HW118824   3.419   1.982   0.756
 5975SOL    HW218825   3.313   2.098   0.801
 5976SOL     OW18826   3.354   3.736   5.167
 5976SOL    HW118827   3.454   3.741   5.168
 5976SOL    HW218828   3.324   3.647   5.201
 5977SOL     OW18829   1.960   4.772   1.126
 5977SOL    HW118830   1.967   4.709   1.048
 5977SOL    HW218831   1.993   4.726   1.208
 5978SOL     OW18832   4.849   5.931   3.375
 5978SOL    HW118833   4.930   5.887   3.336
 5978SOL    HW218834   4.822   6.008   3.318
 5979SOL     OW18835   6.357   0.012   2.826
 5979SOL    HW118836   6.278   0.022   2.765
 5979SOL    HW218837   6.332   0.039   2.919
 5980SOL     OW18838   3.926   3.501   0.378
 5980SOL    HW118839   4.026   3.504   0.389
 5980SOL    HW218840   3.903   3.503   0.281
 5981SOL     OW18841   6.249   0.906   2.424
 5981SOL    HW118842   6.292   0.863   2.503
 5981SOL    HW218843   6.199   0.988   2.454
 5982SOL     OW18844   6.490   2.800   0.873
 5982SOL    HW118845   6.514   2.888   0.915
 5982SOL    HW218846   6.540   2.790   0.787
 5983SOL     OW18847   1.196   0.986   4.496
 5983SOL    HW118848   1.255   1.052   4.542
 5983SOL    HW218849   1.169   0.915   4.561
 5984SOL     OW18850   6.539   6.795   5.054
 5984SOL    HW118851   6.495   6.731   5.117
 5984SOL    HW218852   6.619   6.835   5.098
 5985SOL     OW18853   6.375   3.444   4.080
 5985SOL    HW118854   6.419   3.534   4.085
 5985SOL    HW218855   6.438   3.374   4.113
 5986SOL     OW18856   3.328   3.422   4.454
 5986SOL    HW118857   3.324   3.348   4.386
 5986SOL    HW218858   3.373   3.389   4.537
 5987SOL     OW18859   4.887   0.683   5.222
 5987SOL    HW118860   4.830   0.756   5.184
 5987SOL    HW218861   4.924   0.628   5.148
 5988SOL     OW18862   4.654   6.739   5.366
 5988SOL    HW118863   4.557   6.733   5.341
 5988SOL    HW218864   4.704   6.664   5.323
 5989SOL     OW18865   2.859   5.721   0.364
 5989SOL    HW118866   2.916   5.679   0.435
 5989SOL    HW218867   2.916   5.777   0.304
 5990SOL     OW18868   4.020   4.539   0.639
 5990SOL    HW118869   3.980   4.601   0.707
 5990SOL    HW218870   4.033   4.588   0.552
 5991SOL     OW18871   3.839   5.339   5.751
 5991SOL    HW118872   3.921   5.393   5.768
 5991SOL    HW218873   3.760   5.384   5.793
 5992SOL     OW18874   3.297   0.699   3.429
 5992SOL    HW118875   3.227   0.629   3.447
 5992SOL    HW218876   3.253   0.788   3.416
 5993SOL     OW18877   3.424   6.231   5.612
 5993SOL    HW118878   3.428   6.290   5.693
 5993SOL    HW218879   3.515   6.195   5.593
 5994SOL     OW18880   6.422   2.258   1.883
 5994SOL    HW118881   6.477   2.289   1.960
 5994SOL    HW218882   6.476   2.196   1.826
 5995SOL     OW18883   5.808   5.088   2.524
 5995SOL    HW118884   5.895   5.061   2.564
 5995SOL    HW218885   5.764   5.008   2.482
 5996SOL     OW18886   1.072   6.211   0.951
 5996SOL    HW118887   1.148   6.187   1.012
 5996SOL    HW218888   1.034   6.127   0.911
 5997SOL     OW18889   0.940   6.118   2.778
 5997SOL    HW118890   0.849   6.125   2.737
 5997SOL    HW218891   0.932   6.128   2.877
 5998SOL     OW18892   6.189   2.011   1.629
 5998SOL    HW118893   6.199   2.008   1.729
 5998SOL    HW218894   6.274   1.982   1.586
 5999SOL     OW18895   1.896   1.488   2.499
 5999SOL    HW118896   1.932   1.460   2.588
 5999SOL    HW218897   1.888   1.408   2.440
 6000SOL     OW18898   4.057   6.656   1.969
 6000SOL    HW118899   4.151   6.684   1.948
 6000SOL    HW218900   3.994   6.730   1.944
 6001SOL     OW18901   0.402   4.085   6.266
 6001SOL    HW118902   0.356   4.073   6.178
 6001SOL    HW218903   0.493   4.043   6.261
 6002SOL     OW18904   6.640   0.440   0.754
 6002SOL    HW118905   6.603   0.499   0.826
 6002SOL    HW218906   6.737   0.426   0.769
 6003SOL     OW18907   0.248   1.885   4.306
 6003SOL    HW118908   0.259   1.952   4.380
 6003SOL    HW218909   0.152   1.860   4.298
 6004SOL     OW18910   0.091   4.464   3.006
 6004SOL    HW118911   0.035   4.409   3.067
 6004SOL    HW218912   0.157   4.517   3.060
 6005SOL     OW18913   5.068   5.395   4.965
 6005SOL    HW118914   4.981   5.439   4.986
 6005SOL    HW218915   5.096   5.338   5.042
 6006SOL     OW18916   2.547   0.614   6.737
 6006SOL    HW118917   2.563   0.701   6.784
 6006SOL    HW218918   2.594   0.540   6.786
 6007SOL     OW18919   4.874   3.874   4.853
 6007SOL    HW118920   4.905   3.933   4.928
 6007SOL    HW218921   4.831   3.792   4.890
 6008SOL     OW18922   2.347   5.170   5.797
 6008SOL    HW118923   2.412   5.180   5.873
 6008SOL    HW218924   2.364   5.243   5.730
 6009SOL     OW18925   4.338   0.911   4.840
 6009SOL    HW118926   4.323   0.823   4.796
 6009SOL    HW218927   4.336   0.900   4.939
 6010SOL     OW18928   1.203   4.014   3.383
 6010SOL    HW118929   1.271   4.007   3.457
 6010SOL    HW218930   1.151   3.929   3.379
 6011SOL     OW18931   4.677   2.717   3.024
 6011SOL    HW118932   4.667   2.814   3.048
 6011SOL    HW218933   4.772   2.689   3.041
 6012SOL     OW18934   5.714   1.162   0.254
 6012SOL    HW118935   5.752   1.087   0.307
 6012SOL    HW218936   5.653   1.126   0.183
 6013SOL     OW18937   5.960   2.413   2.751
 6013SOL    HW118938   5.915   2.474   2.685
 6013SOL    HW218939   6.041   2.373   2.709
 6014SOL     OW18940   4.369   2.612   0.607
 6014SOL    HW118941   4.383   2.696   0.660
 6014SOL    HW218942   4.333   2.541   0.667
 6015SOL     OW18943   5.546   2.124   5.031
 6015SOL    HW118944   5.614   2.053   5.044
 6015SOL    HW218945   5.466   2.086   4.984
 6016SOL     OW18946   0.167   1.503   6.552
 6016SOL    HW118947   0.145   1.437   6.623
 6016SOL    HW218948   0.247   1.471   6.501
 6017SOL     OW18949   6.859   4.612   2.739
 6017SOL    HW118950   6.958   4.600   2.735
 6017SOL    HW218951   6.832   4.684   2.676
 6018SOL     OW18952   3.396   1.125   6.975
 6018SOL    HW118953   3.403   1.051   6.909
 6018SOL    HW218954   3.315   1.181   6.954
 6019SOL     OW18955   6.637   1.851   4.142
 6019SOL    HW118956   6.558   1.821   4.196
 6019SOL    HW218957   6.718   1.801   4.170
 6020SOL     OW18958   2.329   5.145   1.774
 6020SOL    HW118959   2.334   5.205   1.853
 6020SOL    HW218960   2.296   5.196   1.695
 6021SOL     OW18961   3.979   0.942   2.533
 6021SOL    HW118962   3.896   0.985   2.497
 6021SOL    HW218963   4.030   0.900   2.457
 6022SOL     OW18964   4.633   1.513   4.968
 6022SOL    HW118965   4.582   1.429   4.984
 6022SOL    HW218966   4.708   1.495   4.904
 6023SOL     OW18967   5.757   1.147   2.153
 6023SOL    HW118968   5.736   1.142   2.056
 6023SOL    HW218969   5.846   1.191   2.165
 6024SOL     OW18970   0.483   4.446   3.428
 6024SOL    HW118971   0.493   4.417   3.333
 6024SOL    HW218972   0.552   4.515   3.449
 6025SOL     OW18973   3.476   1.299   2.498
 6025SOL    HW118974   3.506   1.392   2.519
 6025SOL    HW218975   3.532   1.233   2.548
 6026SOL     OW18976   0.205   4.366   4.454
 6026SOL    HW118977   0.257   4.421   4.519
 6026SOL    HW218978   0.184   4.421   4.373
 6027SOL     OW18979   1.316   3.633   6.021
 6027SOL    HW118980   1.261   3.707   5.981
 6027SOL    HW218981   1.258   3.576   6.080
 6028SOL     OW18982   0.811   4.210   0.075
 6028SOL    HW118983   0.713   4.231   0.073
 6028SOL    HW218984   0.826   4.125   0.125
 6029SOL     OW18985   1.724   6.560   5.033
 6029SOL    HW118986   1.686   6.468   5.027
 6029SOL    HW218987   1.818   6.559   4.997
 6030SOL     OW18988   4.034   6.505   3.219
 6030SOL    HW118989   3.959   6.570   3.210
 6030SOL    HW218990   4.069   6.482   3.129
 6031SOL     OW18991   3.657   4.950   3.350
 6031SOL    HW118992   3.731   4.941   3.417
 6031SOL    HW218993   3.574   4.907   3.387
 6032SOL     OW18994   2.126   4.048   3.308
 6032SOL    HW118995   2.081   4.129   3.270
 6032SOL    HW218996   2.071   4.011   3.383
 6033SOL     OW18997   3.114   1.595   2.103
 6033SOL    HW118998   3.167   1.554   2.029
 6033SOL    HW218999   3.136   1.548   2.189
 6034SOL     OW19000   1.591   5.886   4.662
 6034SOL    HW119001   1.582   5.964   4.723
 6034SOL    HW219002   1.550   5.908   4.573
 6035SOL     OW19003   0.099   0.709   2.639
 6035SOL    HW119004   0.159   0.701   2.560
 6035SOL    HW219005   0.004   0.704   2.610
 6036SOL     OW19006   6.499   6.458   4.143
 6036SOL    HW119007   6.419   6.518   4.150
 6036SOL    HW219008   6.511   6.408   4.229
 6037SOL     OW19009   4.223   4.919   5.739
 6037SOL    HW119010   4.257   5.005   5.775
 6037SOL    HW219011   4.156   4.937   5.666
 6038SOL     OW19012   1.414   2.789   6.334
 6038SOL    HW119013   1.315   2.796   6.346
 6038SOL    HW219014   1.452   2.733   6.408
 6039SOL     OW19015   3.253   3.084   2.571
 6039SOL    HW119016   3.259   3.014   2.499
 6039SOL    HW219017   3.304   3.053   2.651
 6040SOL     OW19018   0.547   2.249   6.546
 6040SOL    HW119019   0.449   2.268   6.539
 6040SOL    HW219020   0.560   2.155   6.578
 6041SOL     OW19021   2.249   0.319   5.097
 6041SOL    HW119022   2.292   0.355   5.180
 6041SOL    HW219023   2.292   0.232   5.073
 6042SOL     OW19024   5.231   5.814   2.231
 6042SOL    HW119025   5.305   5.858   2.281
 6042SOL    HW219026   5.201   5.874   2.156
 6043SOL     OW19027   0.990   4.361   5.459
 6043SOL    HW119028   0.926   4.285   5.445
 6043SOL    HW219029   0.939   4.447   5.458
 6044SOL     OW19030   1.719   2.278   1.314
 6044SOL    HW119031   1.764   2.324   1.238
 6044SOL    HW219032   1.787   2.253   1.383
 6045SOL     OW19033   6.206   5.041   1.192
 6045SOL    HW119034   6.260   4.960   1.169
 6045SOL    HW219035   6.264   5.110   1.234
 6046SOL     OW19036   3.122   1.857   0.232
 6046SOL    HW119037   3.072   1.887   0.151
 6046SOL    HW219038   3.186   1.784   0.207
 6047SOL     OW19039   6.109   2.157   2.208
 6047SOL    HW119040   6.016   2.193   2.213
 6047SOL    HW219041   6.163   2.213   2.145
 6048SOL     OW19042   4.532   6.415   3.708
 6048SOL    HW119043   4.512   6.496   3.763
 6048SOL    HW219044   4.561   6.444   3.617
 6049SOL     OW19045   6.138   3.514   5.804
 6049SOL    HW119046   6.156   3.596   5.860
 6049SOL    HW219047   6.108   3.543   5.713
 6050SOL     OW19048   3.093   4.861   5.245
 6050SOL    HW119049   3.120   4.956   5.227
 6050SOL    HW219050   2.993   4.853   5.236
 6051SOL     OW19051   1.836   1.678   4.233
 6051SOL    HW119052   1.934   1.697   4.239
 6051SOL    HW219053   1.797   1.726   4.155
 6052SOL     OW19054   6.373   6.243   0.524
 6052SOL    HW119055   6.419   6.270   0.439
 6052SOL    HW219056   6.287   6.293   0.533
 6053SOL     OW19057   2.869   0.815   6.074
 6053SOL    HW119058   2.860   0.741   6.007
 6053SOL    HW219059   2.895   0.899   6.027
 6054SOL     OW19060   2.688   3.653   0.652
 6054SOL    HW119061   2.664   3.748   0.674
 6054SOL    HW219062   2.628   3.591   0.702
 6055SOL     OW19063   5.344   1.463   6.033
 6055SOL    HW119064   5.429   1.487   5.985
 6055SOL    HW219065   5.276   1.433   5.967
 6056SOL     OW19066   5.224   2.995   4.702
 6056SOL    HW119067   5.323   2.985   4.698
 6056SOL    HW219068   5.190   2.968   4.792
 6057SOL     OW19069   5.219   2.870   4.460
 6057SOL    HW119070   5.269   2.784   4.459
 6057SOL    HW219071   5.223   2.911   4.551
 6058SOL     OW19072   5.130   2.740   2.023
 6058SOL    HW119073   5.175   2.732   1.934
 6058SOL    HW219074   5.186   2.695   2.093
 6059SOL     OW19075   4.627   5.537   4.970
 6059SOL    HW119076   4.688   5.461   4.947
 6059SOL    HW219077   4.579   5.516   5.055
 6060SOL     OW19078   2.931   4.153   6.584
 6060SOL    HW119079   3.000   4.223   6.565
 6060SOL    HW219080   2.841   4.187   6.558
 6061SOL     OW19081   4.323   1.745   1.233
 6061SOL    HW119082   4.403   1.712   1.182
 6061SOL    HW219083   4.347   1.751   1.330
 6062SOL     OW19084   1.580   1.327   4.881
 6062SOL    HW119085   1.615   1.246   4.927
 6062SOL    HW219086   1.650   1.361   4.817
 6063SOL     OW19087   3.469   1.495   6.560
 6063SOL    HW119088   3.383   1.450   6.536
 6063SOL    HW219089   3.484   1.489   6.658
 6064SOL     OW19090   2.572   5.949   2.014
 6064SOL    HW119091   2.504   5.910   1.952
 6064SOL    HW219092   2.618   6.026   1.969
 6065SOL     OW19093   5.738   7.010   1.769
 6065SOL    HW119094   5.697   6.923   1.741
 6065SOL    HW219095   5.828   7.020   1.727
 6066SOL     OW19096   4.644   1.725   6.777
 6066SOL    HW119097   4.635   1.714   6.678
 6066SOL    HW219098   4.604   1.813   6.804
 6067SOL     OW19099   5.440   1.723   6.408
 6067SOL    HW119100   5.498   1.717   6.327
 6067SOL    HW219101   5.496   1.705   6.489
 6068SOL     OW19102   5.907   2.745   4.340
 6068SOL    HW119103   5.872   2.736   4.433
 6068SOL    HW219104   5.876   2.668   4.285
 6069SOL     OW19105   0.009   3.436   4.937
 6069SOL    HW119106   0.085   3.374   4.923
 6069SOL    HW219107   0.038   3.511   4.997
 6070SOL     OW19108   2.625   1.735   6.188
 6070SOL    HW119109   2.647   1.833   6.189
 6070SOL    HW219110   2.648   1.697   6.098
 6071SOL     OW19111   5.484   4.854   4.478
 6071SOL    HW119112   5.556   4.787   4.495
 6071SOL    HW219113   5.404   4.806   4.440
 6072SOL     OW19114   0.078   0.348   2.546
 6072SOL    HW119115   0.025   0.265   2.563
 6072SOL    HW219116   0.158   0.325   2.490
 6073SOL     OW19117   6.219   4.196   0.204
 6073SOL    HW119118   6.318   4.181   0.216
 6073SOL    HW219119   6.195   4.288   0.235
 6074SOL     OW19120   0.739   6.532   4.427
 6074SOL    HW119121   0.795   6.585   4.490
 6074SOL    HW219122   0.704   6.592   4.355
 6075SOL     OW19123   6.800   2.002   6.967
 6075SOL    HW119124   6.811   1.905   6.990
 6075SOL    HW219125   6.775   2.010   6.871
 6076SOL     OW19126   2.628   5.860   4.436
 6076SOL    HW119127   2.625   5.950   4.394
 6076SOL    HW219128   2.591   5.864   4.529
 6077SOL     OW19129   4.514   5.952   2.140
 6077SOL    HW119130   4.531   6.046   2.171
 6077SOL    HW219131   4.520   5.948   2.041
 6078SOL     OW19132   3.947   4.729   1.648
 6078SOL    HW119133   3.979   4.634   1.643
 6078SOL    HW219134   3.852   4.734   1.620
 6079SOL     OW19135   3.342   2.855   6.307
 6079SOL    HW119136   3.269   2.903   6.259
 6079SOL    HW219137   3.318   2.758   6.317
 6080SOL     OW19138   6.674   0.974   1.569
 6080SOL    HW119139   6.581   0.968   1.533
 6080SOL    HW219140   6.672   1.016   1.660
 6081SOL     OW19141   6.215   3.222   4.937
 6081SOL    HW119142   6.195   3.125   4.920
 6081SOL    HW219143   6.205   3.273   4.851
 6082SOL     OW19144   2.628   1.763   3.173
 6082SOL    HW119145   2.642   1.837   3.239
 6082SOL    HW219146   2.710   1.752   3.117
 6083SOL     OW19147   0.469   5.161   6.330
 6083SOL    HW119148   0.517   5.220   6.395
 6083SOL    HW219149   0.529   5.143   6.252
 6084SOL     OW19150   0.021   5.446   3.745
 6084SOL    HW119151   6.966   5.504   3.738
 6084SOL    HW219152   7.026   5.354   3.711
 6085SOL     OW19153   0.550   4.239   0.175
 6085SOL    HW119154   0.455   4.212   0.190
 6085SOL    HW219155   0.561   4.335   0.199
 6086SOL     OW19156   2.748   1.384   5.208
 6086SOL    HW119157   2.829   1.324   5.211
 6086SOL    HW219158   2.690   1.357   5.131
 6087SOL     OW19159   4.048   5.555   0.103
 6087SOL    HW119160   4.139   5.590   0.078
 6087SOL    HW219161   3.986   5.566   0.026
 6088SOL     OW19162   5.874   6.528   4.815
 6088SOL    HW119163   5.930   6.472   4.876
 6088SOL    HW219164   5.881   6.493   4.722
 6089SOL     OW19165   7.017   3.253   1.274
 6089SOL    HW119166   6.941   3.300   1.229
 6089SOL    HW219167   0.035   3.315   1.339
 6090SOL     OW19168   2.032   6.591   5.755
 6090SOL    HW119169   1.992   6.673   5.713
 6090SOL    HW219170   1.996   6.581   5.848
 6091SOL     OW19171   2.265   1.725   1.914
 6091SOL    HW119172   2.230   1.818   1.918
 6091SOL    HW219173   2.365   1.726   1.917
 6092SOL     OW19174   2.847   0.678   3.175
 6092SOL    HW119175   2.844   0.765   3.223
 6092SOL    HW219176   2.759   0.631   3.184
 6093SOL     OW19177   0.820   2.917   2.691
 6093SOL    HW119178   0.871   2.999   2.664
 6093SOL    HW219179   0.821   2.851   2.616
 6094SOL     OW19180   4.017   0.764   1.079
 6094SOL    HW119181   4.032   0.774   0.981
 6094SOL    HW219182   4.081   0.698   1.116
 6095SOL     OW19183   4.302   3.624   6.965
 6095SOL    HW119184   4.240   3.702   6.953
 6095SOL    HW219185   4.367   3.644   0.013
 6096SOL     OW19186   5.965   0.248   3.849
 6096SOL    HW119187   6.032   0.297   3.793
 6096SOL    HW219188   6.011   0.178   3.903
 6097SOL     OW19189   1.857   0.394   2.165
 6097SOL    HW119190   1.799   0.473   2.145
 6097SOL    HW219191   1.924   0.383   2.092
 6098SOL     OW19192   1.633   2.086   6.777
 6098SOL    HW119193   1.691   2.162   6.747
 6098SOL    HW219194   1.558   2.120   6.833
 6099SOL     OW19195   0.060   5.958   0.609
 6099SOL    HW119196   0.048   5.948   0.511
 6099SOL    HW219197   0.151   5.926   0.636
 6100SOL     OW19198   4.743   3.651   0.063
 6100SOL    HW119199   4.644   3.639   0.069
 6100SOL    HW219200   4.788   3.563   0.071
 6101SOL     OW19201   6.385   1.951   5.275
 6101SOL    HW119202   6.453   1.884   5.304
 6101SOL    HW219203   6.424   2.043   5.282
 6102SOL     OW19204   3.573   0.741   4.056
 6102SOL    HW119205   3.607   0.741   3.962
 6102SOL    HW219206   3.648   0.765   4.118
 6103SOL     OW19207   0.445   2.189   2.603
 6103SOL    HW119208   0.538   2.221   2.585
 6103SOL    HW219209   0.393   2.191   2.518
 6104SOL     OW19210   6.170   2.148   5.783
 6104SOL    HW119211   6.070   2.136   5.787
 6104SOL    HW219212   6.193   2.243   5.805
 6105SOL     OW19213   2.028   0.620   5.804
 6105SOL    HW119214   2.121   0.611   5.839
 6105SOL    HW219215   2.030   0.666   5.715
 6106SOL     OW19216   1.413   4.010   5.896
 6106SOL    HW119217   1.372   3.922   5.923
 6106SOL    HW219218   1.383   4.081   5.959
 6107SOL     OW19219   2.522   4.549   4.458
 6107SOL    HW119220   2.431   4.519   4.431
 6107SOL    HW219221   2.562   4.604   4.385
 6108SOL     OW19222   0.456   2.856   2.410
 6108SOL    HW119223   0.501   2.846   2.499
 6108SOL    HW219224   0.513   2.817   2.339
 6109SOL     OW19225   5.028   3.098   6.139
 6109SOL    HW119226   5.107   3.130   6.191
 6109SOL    HW219227   4.986   3.175   6.091
 6110SOL     OW19228   3.732   2.461   0.136
 6110SOL    HW119229   3.659   2.505   0.084
 6110SOL    HW219230   3.816   2.515   0.128
 6111SOL     OW19231   1.793   4.334   2.497
 6111SOL    HW119232   1.847   4.262   2.453
 6111SOL    HW219233   1.824   4.424   2.465
 6112SOL     OW19234   3.428   0.574   3.791
 6112SOL    HW119235   3.405   0.492   3.737
 6112SOL    HW219236   3.367   0.581   3.870
 6113SOL     OW19237   0.797   1.045   5.968
 6113SOL    HW119238   0.817   0.953   6.001
 6113SOL    HW219239   0.704   1.070   5.993
 6114SOL     OW19240   5.085   4.891   0.902
 6114SOL    HW119241   5.185   4.882   0.901
 6114SOL    HW219242   5.058   4.961   0.836
 6115SOL     OW19243   5.572   6.524   3.301
 6115SOL    HW119244   5.623   6.490   3.222
 6115SOL    HW219245   5.598   6.472   3.383
 6116SOL     OW19246   2.759   1.379   0.704
 6116SOL    HW119247   2.825   1.446   0.738
 6116SOL    HW219248   2.806   1.314   0.644
 6117SOL     OW19249   6.450   0.660   6.103
 6117SOL    HW119250   6.385   0.603   6.153
 6117SOL    HW219251   6.475   0.614   6.017
 6118SOL     OW19252   6.733   0.485   1.269
 6118SOL    HW119253   6.765   0.390   1.274
 6118SOL    HW219254   6.766   0.535   1.348
 6119SOL     OW19255   0.619   3.739   4.739
 6119SOL    HW119256   0.631   3.675   4.663
 6119SOL    HW219257   0.637   3.832   4.707
 6120SOL     OW19258   4.473   0.098   3.696
 6120SOL    HW119259   4.419   0.088   3.779
 6120SOL    HW219260   4.413   0.114   3.618
 6121SOL     OW19261   0.185   3.254   4.549
 6121SOL    HW119262   0.104   3.201   4.575
 6121SOL    HW219263   0.267   3.198   4.563
 6122SOL     OW19264   3.823   6.710   1.754
 6122SOL    HW119265   3.760   6.778   1.715
 6122SOL    HW219266   3.890   6.684   1.685
 6123SOL     OW19267   6.673   0.302   6.583
 6123SOL    HW119268   6.702   0.394   6.610
 6123SOL    HW219269   6.641   0.252   6.663
 6124SOL     OW19270   2.293   0.922   6.449
 6124SOL    HW119271   2.305   0.966   6.538
 6124SOL    HW219272   2.336   0.832   6.450
 6125SOL     OW19273   3.118   5.588   0.203
 6125SOL    HW119274   3.132   5.686   0.221
 6125SOL    HW219275   3.200   5.538   0.231
 6126SOL     OW19276   6.770   6.832   4.035
 6126SOL    HW119277   6.768   6.732   4.024
 6126SOL    HW219278   6.678   6.869   4.019
 6127SOL     OW19279   2.975   0.151   2.511
 6127SOL    HW119280   2.931   0.196   2.434
 6127SOL    HW219281   3.073   0.170   2.511
 6128SOL     OW19282   6.123   3.755   0.559
 6128SOL    HW119283   6.139   3.682   0.625
 6128SOL    HW219284   6.049   3.728   0.497
 6129SOL     OW19285   6.146   4.086   3.321
 6129SOL    HW119286   6.073   4.145   3.354
 6129SOL    HW219287   6.231   4.139   3.311
 6130SOL     OW19288   6.285   1.997   4.055
 6130SOL    HW119289   6.269   1.958   4.146
 6130SOL    HW219290   6.294   1.923   3.988
 6131SOL     OW19291   6.523   1.486   5.289
 6131SOL    HW119292   6.565   1.399   5.261
 6131SOL    HW219293   6.451   1.510   5.224
 6132SOL     OW19294   5.027   1.410   0.367
 6132SOL    HW119295   5.114   1.363   0.351
 6132SOL    HW219296   5.038   1.508   0.348
 6133SOL     OW19297   1.161   2.453   2.525
 6133SOL    HW119298   1.162   2.356   2.551
 6133SOL    HW219299   1.196   2.508   2.601
 6134SOL     OW19300   3.832   4.487   6.811
 6134SOL    HW119301   3.876   4.409   6.856
 6134SOL    HW219302   3.898   4.536   6.755
 6135SOL     OW19303   0.500   6.955   1.716
 6135SOL    HW119304   0.421   6.960   1.777
 6135SOL    HW219305   0.488   7.021   1.642
 6136SOL     OW19306   1.082   2.776   1.683
 6136SOL    HW119307   1.128   2.688   1.692
 6136SOL    HW219308   1.145   2.849   1.709
 6137SOL     OW19309   5.505   1.867   4.240
 6137SOL    HW119310   5.583   1.919   4.274
 6137SOL    HW219311   5.516   1.770   4.262
 6138SOL     OW19312   4.232   6.158   2.337
 6138SOL    HW119313   4.311   6.098   2.351
 6138SOL    HW219314   4.261   6.241   2.291
 6139SOL     OW19315   1.913   2.629   5.151
 6139SOL    HW119316   1.942   2.694   5.221
 6139SOL    HW219317   1.856   2.558   5.194
 6140SOL     OW19318   0.204   6.133   1.977
 6140SOL    HW119319   0.127   6.077   1.947
 6140SOL    HW219320   0.271   6.075   2.023
 6141SOL     OW19321   5.784   5.843   5.974
 6141SOL    HW119322   5.713   5.908   6.000
 6141SOL    HW219323   5.743   5.765   5.926
 6142SOL     OW19324   6.836   5.239   0.882
 6142SOL    HW119325   6.845   5.337   0.897
 6142SOL    HW219326   6.750   5.220   0.836
 6143SOL     OW19327   6.326   5.070   0.298
 6143SOL    HW119328   6.312   5.154   0.246
 6143SOL    HW219329   6.386   5.088   0.376
 6144SOL     OW19330   5.943   4.786   2.361
 6144SOL    HW119331   6.008   4.861   2.369
 6144SOL    HW219332   5.850   4.822   2.359
 6145SOL     OW19333   4.799   5.613   4.250
 6145SOL    HW119334   4.891   5.620   4.211
 6145SOL    HW219335   4.804   5.633   4.348
 6146SOL     OW19336   3.730   1.132   3.587
 6146SOL    HW119337   3.718   1.206   3.522
 6146SOL    HW219338   3.828   1.116   3.600
 6147SOL     OW19339   1.319   3.917   4.130
 6147SOL    HW119340   1.272   3.977   4.065
 6147SOL    HW219341   1.412   3.952   4.146
 6148SOL     OW19342   0.048   0.156   4.819
 6148SOL    HW119343   0.022   0.205   4.735
 6148SOL    HW219344   6.991   0.125   4.866
 6149SOL     OW19345   3.754   5.249   2.502
 6149SOL    HW119346   3.744   5.313   2.579
 6149SOL    HW219347   3.754   5.300   2.416
 6150SOL     OW19348   3.534   4.744   6.802
 6150SOL    HW119349   3.463   4.813   6.788
 6150SOL    HW219350   3.606   4.782   6.859
 6151SOL     OW19351   6.363   3.778   5.268
 6151SOL    HW119352   6.410   3.779   5.357
 6151SOL    HW219353   6.424   3.814   5.198
 6152SOL     OW19354   5.933   5.795   5.395
 6152SOL    HW119355   5.924   5.791   5.296
 6152SOL    HW219356   6.016   5.746   5.423
 6153SOL     OW19357   4.801   3.587   1.776
 6153SOL    HW119358   4.727   3.530   1.740
 6153SOL    HW219359   4.786   3.682   1.750
 6154SOL     OW19360   6.041   1.524   3.015
 6154SOL    HW119361   6.054   1.620   2.993
 6154SOL    HW219362   5.961   1.513   3.074
 6155SOL     OW19363   1.765   1.996   4.561
 6155SOL    HW119364   1.727   2.088   4.575
 6155SOL    HW219365   1.708   1.947   4.494
 6156SOL     OW19366   4.672   4.822   2.447
 6156SOL    HW119367   4.710   4.813   2.539
 6156SOL    HW219368   4.573   4.811   2.451
 6157SOL     OW19369   1.328   1.459   4.474
 6157SOL    HW119370   1.366   1.552   4.481
 6157SOL    HW219371   1.282   1.448   4.386
 6158SOL     OW19372   4.369   0.721   5.688
 6158SOL    HW119373   4.466   0.704   5.672
 6158SOL    HW219374   4.344   0.686   5.779
 6159SOL     OW19375   4.818   2.318   1.404
 6159SOL    HW119376   4.763   2.237   1.423
 6159SOL    HW219377   4.798   2.389   1.472
 6160SOL     OW19378   4.852   6.781   6.674
 6160SOL    HW119379   4.900   6.801   6.589
 6160SOL    HW219380   4.877   6.849   6.743
 6161SOL     OW19381   6.179   1.979   5.477
 6161SOL    HW119382   6.258   1.944   5.427
 6161SOL    HW219383   6.096   1.936   5.442
 6162SOL     OW19384   1.253   6.070   3.710
 6162SOL    HW119385   1.304   5.994   3.749
 6162SOL    HW219386   1.159   6.040   3.690
 6163SOL     OW19387   5.428   6.050   1.497
 6163SOL    HW119388   5.405   6.085   1.406
 6163SOL    HW219389   5.382   5.962   1.511
 6164SOL     OW19390   2.808   2.954   1.787
 6164SOL    HW119391   2.717   2.941   1.747
 6164SOL    HW219392   2.876   2.959   1.713
 6165SOL     OW19393   4.873   0.192   6.420
 6165SOL    HW119394   4.964   0.164   6.391
 6165SOL    HW219395   4.854   0.158   6.512
 6166SOL     OW19396   3.920   1.181   6.014
 6166SOL    HW119397   3.886   1.094   6.050
 6166SOL    HW219398   4.015   1.170   5.984
 6167SOL     OW19399   0.964   4.364   2.753
 6167SOL    HW119400   1.034   4.418   2.800
 6167SOL    HW219401   0.892   4.424   2.719
 6168SOL     OW19402   0.984   3.427   1.163
 6168SOL    HW119403   0.919   3.365   1.120
 6168SOL    HW219404   1.001   3.505   1.103
 6169SOL     OW19405   1.330   2.954   1.674
 6169SOL    HW119406   1.424   2.928   1.692
 6169SOL    HW219407   1.310   2.941   1.577
 6170SOL     OW19408   0.792   3.875   5.790
 6170SOL    HW119409   0.887   3.886   5.760
 6170SOL    HW219410   0.777   3.925   5.875
 6171SOL     OW19411   0.728   2.035   0.475
 6171SOL    HW119412   0.638   2.000   0.450
 6171SOL    HW219413   0.775   2.069   0.393
 6172SOL     OW19414   1.355   3.296   2.356
 6172SOL    HW119415   1.376   3.393   2.369
 6172SOL    HW219416   1.438   3.248   2.327
 6173SOL     OW19417   6.678   5.018   2.725
 6173SOL    HW119418   6.699   5.072   2.806
 6173SOL    HW219419   6.657   5.080   2.649
 6174SOL     OW19420   5.050   5.630   4.155
 6174SOL    HW119421   5.107   5.608   4.075
 6174SOL    HW219422   5.062   5.727   4.178
 6175SOL     OW19423   4.070   0.401   4.040
 6175SOL    HW119424   4.087   0.439   4.131
 6175SOL    HW219425   4.156   0.372   3.999
 6176SOL     OW19426   5.487   3.838   5.962
 6176SOL    HW119427   5.395   3.873   5.977
 6176SOL    HW219428   5.519   3.793   6.045
 6177SOL     OW19429   5.873   1.855   1.657
 6177SOL    HW119430   5.858   1.952   1.674
 6177SOL    HW219431   5.785   1.809   1.643
 6178SOL     OW19432   5.138   4.488   2.453
 6178SOL    HW119433   5.149   4.584   2.428
 6178SOL    HW219434   5.130   4.480   2.552
 6179SOL     OW19435   6.433   4.554   2.715
 6179SOL    HW119436   6.428   4.547   2.814
 6179SOL    HW219437   6.417   4.464   2.674
 6180SOL     OW19438   2.815   4.760   1.199
 6180SOL    HW119439   2.891   4.745   1.137
 6180SOL    HW219440   2.812   4.687   1.267
 6181SOL     OW19441   4.927   6.779   5.898
 6181SOL    HW119442   4.872   6.705   5.862
 6181SOL    HW219443   5.009   6.790   5.842
 6182SOL     OW19444   4.397   3.278   6.121
 6182SOL    HW119445   4.319   3.248   6.065
 6182SOL    HW219446   4.441   3.356   6.078
 6183SOL     OW19447   1.893   2.344   1.931
 6183SOL    HW119448   1.830   2.343   2.008
 6183SOL    HW219449   1.937   2.255   1.922
 6184SOL     OW19450   3.030   6.842   6.270
 6184SOL    HW119451   2.973   6.913   6.311
 6184SOL    HW219452   3.095   6.807   6.338
 6185SOL     OW19453   0.922   4.349   6.062
 6185SOL    HW119454   0.951   4.392   5.976
 6185SOL    HW219455   0.874   4.417   6.118
 6186SOL     OW19456   5.884   0.898   1.157
 6186SOL    HW119457   5.818   0.853   1.218
 6186SOL    HW219458   5.836   0.967   1.103
 6187SOL     OW19459   4.836   2.893   4.384
 6187SOL    HW119460   4.915   2.913   4.327
 6187SOL    HW219461   4.836   2.952   4.465
 6188SOL     OW19462   1.320   1.653   6.049
 6188SOL    HW119463   1.248   1.628   5.984
 6188SOL    HW219464   1.409   1.636   6.009
 6189SOL     OW19465   4.227   4.878   3.194
 6189SOL    HW119466   4.207   4.856   3.099
 6189SOL    HW219467   4.149   4.926   3.234
 6190SOL     OW19468   0.117   3.685   5.388
 6190SOL    HW119469   0.020   3.678   5.365
 6190SOL    HW219470   0.171   3.683   5.304
 6191SOL     OW19471   3.016   3.250   6.464
 6191SOL    HW119472   2.979   3.292   6.382
 6191SOL    HW219473   3.033   3.321   6.533
 6192SOL     OW19474   2.729   1.960   6.753
 6192SOL    HW119475   2.743   1.874   6.802
 6192SOL    HW219476   2.744   1.944   6.655
 6193SOL     OW19477   4.743   5.966   1.461
 6193SOL    HW119478   4.744   6.040   1.394
 6193SOL    HW219479   4.757   5.878   1.415
 6194SOL     OW19480   6.503   0.211   6.348
 6194SOL    HW119481   6.544   0.282   6.291
 6194SOL    HW219482   6.559   0.197   6.430
 6195SOL     OW19483   5.073   5.921   4.160
 6195SOL    HW119484   5.173   5.910   4.162
 6195SOL    HW219485   5.046   5.993   4.223
 6196SOL     OW19486   4.846   3.945   2.361
 6196SOL    HW119487   4.926   3.918   2.414
 6196SOL    HW219488   4.820   3.871   2.299
 6197SOL     OW19489   2.346   5.271   2.023
 6197SOL    HW119490   2.442   5.248   2.039
 6197SOL    HW219491   2.292   5.253   2.105
 6198SOL     OW19492   4.336   6.739   1.061
 6198SOL    HW119493   4.338   6.683   0.977
 6198SOL    HW219494   4.259   6.711   1.117
 6199SOL     OW19495   0.831   1.059   0.642
 6199SOL    HW119496   0.815   1.088   0.737
 6199SOL    HW219497   0.928   1.042   0.628
 6200SOL     OW19498   1.014   1.942   4.805
 6200SOL    HW119499   0.957   1.920   4.884
 6200SOL    HW219500   1.094   1.882   4.803
 6201SOL     OW19501   0.705   3.657   4.987
 6201SOL    HW119502   0.681   3.690   4.896
 6201SOL    HW219503   0.785   3.598   4.982
 6202SOL     OW19504   5.676   0.852   2.271
 6202SOL    HW119505   5.765   0.812   2.293
 6202SOL    HW219506   5.689   0.930   2.210
 6203SOL     OW19507   5.370   5.827   1.970
 6203SOL    HW119508   5.373   5.755   2.038
 6203SOL    HW219509   5.455   5.880   1.974
 6204SOL     OW19510   1.088   5.826   4.921
 6204SOL    HW119511   0.991   5.802   4.917
 6204SOL    HW219512   1.098   5.925   4.920
 6205SOL     OW19513   5.894   4.506   1.060
 6205SOL    HW119514   5.911   4.578   1.128
 6205SOL    HW219515   5.942   4.423   1.088
 6206SOL     OW19516   5.868   1.355   2.447
 6206SOL    HW119517   5.835   1.372   2.354
 6206SOL    HW219518   5.857   1.258   2.469
 6207SOL     OW19519   2.027   6.612   5.309
 6207SOL    HW119520   2.106   6.550   5.307
 6207SOL    HW219521   2.036   6.679   5.235
 6208SOL     OW19522   3.439   2.345   5.618
 6208SOL    HW119523   3.523   2.304   5.584
 6208SOL    HW219524   3.396   2.398   5.545
 6209SOL     OW19525   3.433   5.632   0.147
 6209SOL    HW119526   3.512   5.685   0.114
 6209SOL    HW219527   3.356   5.645   0.085
 6210SOL     OW19528   4.890   4.009   3.087
 6210SOL    HW119529   4.851   3.928   3.044
 6210SOL    HW219530   4.940   4.063   3.019
 6211SOL     OW19531   3.201   6.740   5.431
 6211SOL    HW119532   3.134   6.773   5.365
 6211SOL    HW219533   3.290   6.730   5.386
 6212SOL     OW19534   2.291   4.634   4.183
 6212SOL    HW119535   2.278   4.588   4.271
 6212SOL    HW219536   2.380   4.680   4.183
 6213SOL     OW19537   4.087   6.745   0.035
 6213SOL    HW119538   4.116   6.752   0.130
 6213SOL    HW219539   4.075   6.837   7.023
 6214SOL     OW19540   5.852   6.064   5.505
 6214SOL    HW119541   5.880   5.978   5.462
 6214SOL    HW219542   5.823   6.047   5.599
 6215SOL     OW19543   3.640   2.803   6.785
 6215SOL    HW119544   3.545   2.796   6.817
 6215SOL    HW219545   3.672   2.714   6.755
 6216SOL     OW19546   6.243   1.922   2.246
 6216SOL    HW119547   6.186   1.858   2.297
 6216SOL    HW219548   6.187   2.000   2.217
 6217SOL     OW19549   0.810   4.146   2.761
 6217SOL    HW119550   0.887   4.210   2.767
 6217SOL    HW219551   0.730   4.193   2.725
 6218SOL     OW19552   3.822   7.003   0.090
 6218SOL    HW119553   3.782   6.942   0.022
 6218SOL    HW219554   3.772   0.064   0.090
 6219SOL     OW19555   1.061   0.824   4.680
 6219SOL    HW119556   0.967   0.855   4.691
 6219SOL    HW219557   1.068   0.727   4.705
 6220SOL     OW19558   3.285   1.374   5.679
 6220SOL    HW119559   3.337   1.375   5.764
 6220SOL    HW219560   3.284   1.466   5.639
 6221SOL     OW19561   6.315   6.609   0.265
 6221SOL    HW119562   6.305   6.695   0.217
 6221SOL    HW219563   6.232   6.589   0.317
 6222SOL     OW19564   0.515   0.628   2.406
 6222SOL    HW119565   0.592   0.615   2.468
 6222SOL    HW219566   0.550   0.635   2.312
 6223SOL     OW19567   1.415   5.677   3.333
 6223SOL    HW119568   1.476   5.756   3.336
 6223SOL    HW219569   1.469   5.593   3.328
 6224SOL     OW19570   3.736   1.536   5.950
 6224SOL    HW119571   3.704   1.443   5.966
 6224SOL    HW219572   3.741   1.553   5.852
 6225SOL     OW19573   3.882   2.414   6.130
 6225SOL    HW119574   3.853   2.494   6.078
 6225SOL    HW219575   3.964   2.436   6.182
 6226SOL     OW19576   1.120   1.257   3.965
 6226SOL    HW119577   1.153   1.200   4.040
 6226SOL    HW219578   1.142   1.214   3.878
 6227SOL     OW19579   3.315   5.119   5.360
 6227SOL    HW119580   3.374   5.134   5.440
 6227SOL    HW219581   3.219   5.118   5.389
 6228SOL     OW19582   0.667   2.283   2.507
 6228SOL    HW119583   0.674   2.283   2.407
 6228SOL    HW219584   0.741   2.338   2.545
 6229SOL     OW19585   0.683   3.144   5.046
 6229SOL    HW119586   0.776   3.152   5.083
 6229SOL    HW219587   0.661   3.225   4.991
 6230SOL     OW19588   0.955   2.371   3.223
 6230SOL    HW119589   1.003   2.296   3.178
 6230SOL    HW219590   0.950   2.449   3.160
 6231SOL     OW19591   5.389   5.379   0.393
 6231SOL    HW119592   5.329   5.359   0.316
 6231SOL    HW219593   5.463   5.440   0.363
 6232SOL     OW19594   6.233   1.248   0.487
 6232SOL    HW119595   6.295   1.172   0.469
 6232SOL    HW219596   6.254   1.324   0.426
 6233SOL     OW19597   6.767   2.917   1.595
 6233SOL    HW119598   6.674   2.937   1.565
 6233SOL    HW219599   6.816   2.870   1.522
 6234SOL     OW19600   7.018   0.062   5.239
 6234SOL    HW119601   6.949   0.134   5.234
 6234SOL    HW219602   0.046   0.073   5.322
 6235SOL     OW19603   0.260   0.594   1.726
 6235SOL    HW119604   0.325   0.662   1.691
 6235SOL    HW219605   0.271   0.585   1.825
 6236SOL     OW19606   6.882   4.988   0.655
 6236SOL    HW119607   6.831   5.054   0.599
 6236SOL    HW219608   6.943   5.037   0.717
 6237SOL     OW19609   3.397   0.286   6.714
 6237SOL    HW119610   3.357   0.370   6.678
 6237SOL    HW219611   3.497   0.293   6.712
 6238SOL     OW19612   4.662   6.602   3.501
 6238SOL    HW119613   4.748   6.584   3.548
 6238SOL    HW219614   4.609   6.668   3.554
 6239SOL     OW19615   3.864   1.010   1.036
 6239SOL    HW119616   3.923   0.932   1.057
 6239SOL    HW219617   3.826   1.047   1.121
 6240SOL     OW19618   3.340   3.652   5.659
 6240SOL    HW119619   3.425   3.615   5.623
 6240SOL    HW219620   3.294   3.706   5.588
 6241SOL     OW19621   4.327   0.476   3.666
 6241SOL    HW119622   4.312   0.436   3.756
 6241SOL    HW219623   4.253   0.540   3.645
 6242SOL     OW19624   3.065   0.569   3.062
 6242SOL    HW119625   2.982   0.597   3.110
 6242SOL    HW219626   3.040   0.531   2.973
 6243SOL     OW19627   6.822   0.291   6.073
 6243SOL    HW119628   6.765   0.228   6.020
 6243SOL    HW219629   6.898   0.240   6.113
 6244SOL     OW19630   4.980   3.739   3.504
 6244SOL    HW119631   5.066   3.696   3.532
 6244SOL    HW219632   4.916   3.669   3.473
 6245SOL     OW19633   0.383   4.459   2.081
 6245SOL    HW119634   0.325   4.480   2.159
 6245SOL    HW219635   0.471   4.425   2.114
 6246SOL     OW19636   0.499   1.199   4.696
 6246SOL    HW119637   0.589   1.218   4.736
 6246SOL    HW219638   0.451   1.132   4.752
 6247SOL     OW19639   1.648   6.260   3.350
 6247SOL    HW119640   1.718   6.316   3.307
 6247SOL    HW219641   1.558   6.299   3.331
 6248SOL     OW19642   3.583   4.024   0.094
 6248SOL    HW119643   3.569   4.119   0.068
 6248SOL    HW219644   3.679   4.010   0.121
 6249SOL     OW19645   7.001   2.814   0.742
 6249SOL    HW119646   0.061   2.774   0.710
 6249SOL    HW219647   6.987   2.902   0.698
 6250SOL     OW19648   6.673   6.410   0.822
 6250SOL    HW119649   6.712   6.319   0.806
 6250SOL    HW219650   6.712   6.449   0.905
 6251SOL     OW19651   3.543   5.933   4.611
 6251SOL    HW119652   3.594   5.873   4.549
 6251SOL    HW219653   3.536   5.889   4.701
 6252SOL     OW19654   2.692   4.509   0.169
 6252SOL    HW119655   2.650   4.519   0.079
 6252SOL    HW219656   2.781   4.554   0.169
 6253SOL     OW19657   2.395   5.234   4.347
 6253SOL    HW119658   2.455   5.249   4.425
 6253SOL    HW219659   2.314   5.183   4.376
 6254SOL     OW19660   7.016   0.096   0.966
 6254SOL    HW119661   0.048   0.014   0.972
 6254SOL    HW219662   0.040   0.167   0.916
 6255SOL     OW19663   2.344   2.153   0.699
 6255SOL    HW119664   2.281   2.077   0.716
 6255SOL    HW219665   2.400   2.133   0.619
 6256SOL     OW19666   4.063   4.820   2.176
 6256SOL    HW119667   3.974   4.783   2.149
 6256SOL    HW219668   4.134   4.752   2.156
 6257SOL     OW19669   3.814   3.032   0.393
 6257SOL    HW119670   3.903   2.993   0.419
 6257SOL    HW219671   3.826   3.091   0.313
 6258SOL     OW19672   3.376   6.970   4.752
 6258SOL    HW119673   3.351   7.000   4.844
 6258SOL    HW219674   3.437   0.012   4.711
 6259SOL     OW19675   2.049   0.969   6.306
 6259SOL    HW119676   2.127   0.952   6.367
 6259SOL    HW219677   2.082   0.992   6.215
 6260SOL     OW19678   2.948   0.512   0.591
 6260SOL    HW119679   2.865   0.482   0.637
 6260SOL    HW219680   3.021   0.445   0.608
 6261SOL     OW19681   4.128   6.778   0.852
 6261SOL    HW119682   4.068   6.730   0.916
 6261SOL    HW219683   4.111   6.746   0.759
 6262SOL     OW19684   1.589   5.947   2.201
 6262SOL    HW119685   1.535   6.027   2.227
 6262SOL    HW219686   1.529   5.867   2.192
 6263SOL     OW19687   0.682   6.410   5.333
 6263SOL    HW119688   0.725   6.338   5.389
 6263SOL    HW219689   0.727   6.414   5.244
 6264SOL     OW19690   1.625   6.951   1.541
 6264SOL    HW119691   1.531   6.942   1.573
 6264SOL    HW219692   1.682   6.990   1.614
 6265SOL     OW19693   4.095   2.820   1.092
 6265SOL    HW119694   4.114   2.851   1.185
 6265SOL    HW219695   4.086   2.721   1.091
 6266SOL     OW19696   4.367   6.805   3.245
 6266SOL    HW119697   4.418   6.719   3.239
 6266SOL    HW219698   4.339   6.834   3.154
 6267SOL     OW19699   1.384   6.963   4.678
 6267SOL    HW119700   1.315   0.006   4.700
 6267SOL    HW219701   1.444   6.950   4.757
 6268SOL     OW19702   3.038   0.540   2.108
 6268SOL    HW119703   3.050   0.640   2.109
 6268SOL    HW219704   3.039   0.505   2.201
 6269SOL     OW19705   5.939   6.571   1.370
 6269SOL    HW119706   5.881   6.652   1.370
 6269SOL    HW219707   5.910   6.510   1.444
 6270SOL     OW19708   0.628   6.693   0.156
 6270SOL    HW119709   0.579   6.773   0.189
 6270SOL    HW219710   0.564   6.618   0.142
 6271SOL     OW19711   6.024   2.263   6.633
 6271SOL    HW119712   5.999   2.308   6.548
 6271SOL    HW219713   6.088   2.189   6.615
 6272SOL     OW19714   1.068   1.072   0.809
 6272SOL    HW119715   1.068   1.168   0.780
 6272SOL    HW219716   1.030   1.065   0.901
 6273SOL     OW19717   0.258   5.183   2.796
 6273SOL    HW119718   0.235   5.107   2.857
 6273SOL    HW219719   0.196   5.259   2.814
 6274SOL     OW19720   3.240   6.957   5.006
 6274SOL    HW119721   3.328   6.930   5.046
 6274SOL    HW219722   3.184   6.875   4.990
 6275SOL     OW19723   2.385   5.634   0.683
 6275SOL    HW119724   2.306   5.688   0.712
 6275SOL    HW219725   2.358   5.570   0.611
 6276SOL     OW19726   3.316   5.551   3.494
 6276SOL    HW119727   3.310   5.611   3.574
 6276SOL    HW219728   3.258   5.471   3.508
 6277SOL     OW19729   5.134   2.179   1.136
 6277SOL    HW119730   5.075   2.135   1.069
 6277SOL    HW219731   5.228   2.145   1.127
 6278SOL     OW19732   4.243   0.581   5.496
 6278SOL    HW119733   4.244   0.623   5.587
 6278SOL    HW219734   4.224   0.484   5.505
 6279SOL     OW19735   4.130   5.848   0.734
 6279SOL    HW119736   4.147   5.751   0.750
 6279SOL    HW219737   4.113   5.863   0.636
 6280SOL     OW19738   0.226   1.115   6.846
 6280SOL    HW119739   0.191   1.040   6.901
 6280SOL    HW219740   0.312   1.148   6.884
 6281SOL     OW19741   6.544   4.630   3.954
 6281SOL    HW119742   6.634   4.656   3.919
 6281SOL    HW219743   6.505   4.559   3.895
 6282SOL     OW19744   5.977   3.024   5.157
 6282SOL    HW119745   5.903   3.086   5.184
 6282SOL    HW219746   6.065   3.072   5.162
 6283SOL     OW19747   0.969   3.894   3.987
 6283SOL    HW119748   1.022   3.976   3.965
 6283SOL    HW219749   0.922   3.907   4.075
 6284SOL     OW19750   1.302   5.612   6.824
 6284SOL    HW119751   1.387   5.597   6.776
 6284SOL    HW219752   1.321   5.653   6.914
 6285SOL     OW19753   1.185   3.567   3.561
 6285SOL    HW119754   1.112   3.503   3.537
 6285SOL    HW219755   1.248   3.522   3.625
 6286SOL     OW19756   6.902   3.639   4.224
 6286SOL    HW119757   6.934   3.563   4.282
 6286SOL    HW219758   6.840   3.603   4.155
 6287SOL     OW19759   3.886   5.250   5.240
 6287SOL    HW119760   3.858   5.157   5.217
 6287SOL    HW219761   3.966   5.276   5.186
 6288SOL     OW19762   5.141   4.522   1.516
 6288SOL    HW119763   5.118   4.457   1.588
 6288SOL    HW219764   5.107   4.488   1.428
 6289SOL     OW19765   2.726   4.479   6.642
 6289SOL    HW119766   2.650   4.510   6.584
 6289SOL    HW219767   2.697   4.399   6.696
 6290SOL     OW19768   5.879   5.290   6.713
 6290SOL    HW119769   5.869   5.227   6.636
 6290SOL    HW219770   5.795   5.290   6.767
 6291SOL     OW19771   3.646   3.586   3.530
 6291SOL    HW119772   3.718   3.572   3.598
 6291SOL    HW219773   3.671   3.540   3.445
 6292SOL     OW19774   2.487   2.099   4.880
 6292SOL    HW119775   2.475   2.182   4.825
 6292SOL    HW219776   2.521   2.124   4.970
 6293SOL     OW19777   4.686   1.667   0.836
 6293SOL    HW119778   4.712   1.600   0.906
 6293SOL    HW219779   4.626   1.624   0.769
 6294SOL     OW19780   4.286   0.305   3.169
 6294SOL    HW119781   4.210   0.370   3.162
 6294SOL    HW219782   4.261   0.232   3.233
 6295SOL     OW19783   5.278   4.964   4.882
 6295SOL    HW119784   5.203   4.905   4.849
 6295SOL    HW219785   5.276   4.968   4.982
 6296SOL     OW19786   0.643   4.304   5.565
 6296SOL    HW119787   0.544   4.311   5.552
 6296SOL    HW219788   0.665   4.224   5.621
 6297SOL     OW19789   6.141   0.345   5.871
 6297SOL    HW119790   6.163   0.291   5.952
 6297SOL    HW219791   6.215   0.334   5.804
 6298SOL     OW19792   6.145   4.400   6.557
 6298SOL    HW119793   6.206   4.447   6.494
 6298SOL    HW219794   6.172   4.303   6.563
 6299SOL     OW19795   6.274   2.804   1.834
 6299SOL    HW119796   6.326   2.782   1.917
 6299SOL    HW219797   6.338   2.817   1.758
 6300SOL     OW19798   5.471   0.424   6.385
 6300SOL    HW119799   5.484   0.523   6.394
 6300SOL    HW219800   5.524   0.390   6.307
 6301SOL     OW19801   3.172   6.730   6.488
 6301SOL    HW119802   3.189   6.635   6.461
 6301SOL    HW219803   3.249   6.763   6.543
 6302SOL     OW19804   2.496   1.195   5.536
 6302SOL    HW119805   2.400   1.216   5.556
 6302SOL    HW219806   2.540   1.276   5.497
 6303SOL     OW19807   0.253   6.224   5.776
 6303SOL    HW119808   0.253   6.126   5.755
 6303SOL    HW219809   0.259   6.236   5.875
 6304SOL     OW19810   3.979   1.929   3.805
 6304SOL    HW119811   3.963   1.910   3.902
 6304SOL    HW219812   3.945   2.020   3.782
 6305SOL     OW19813   6.083   5.825   0.397
 6305SOL    HW119814   6.067   5.849   0.301
 6305SOL    HW219815   6.150   5.888   0.437
 6306SOL     OW19816   0.154   3.483   4.176
 6306SOL    HW119817   0.070   3.538   4.177
 6306SOL    HW219818   0.212   3.509   4.254
 6307SOL     OW19819   3.315   2.992   4.268
 6307SOL    HW119820   3.389   2.933   4.300
 6307SOL    HW219821   3.311   2.990   4.169
 6308SOL     OW19822   0.736   2.406   5.638
 6308SOL    HW119823   0.746   2.349   5.557
 6308SOL    HW219824   0.815   2.466   5.647
 6309SOL     OW19825   0.196   0.396   4.333
 6309SOL    HW119826   0.235   0.331   4.267
 6309SOL    HW219827   0.201   0.489   4.295
 6310SOL     OW19828   2.023   6.406   2.685
 6310SOL    HW119829   1.991   6.313   2.667
 6310SOL    HW219830   2.007   6.463   2.604
 6311SOL     OW19831   4.964   1.770   6.518
 6311SOL    HW119832   5.000   1.863   6.533
 6311SOL    HW219833   5.030   1.718   6.464
 6312SOL     OW19834   1.450   6.923   6.477
 6312SOL    HW119835   1.425   7.020   6.477
 6312SOL    HW219836   1.413   6.880   6.560
 6313SOL     OW19837   5.749   6.512   3.075
 6313SOL    HW119838   5.746   6.579   3.000
 6313SOL    HW219839   5.819   6.443   3.055
 6314SOL     OW19840   3.618   0.601   1.957
 6314SOL    HW119841   3.577   0.545   1.886
 6314SOL    HW219842   3.628   0.695   1.924
 6315SOL     OW19843   2.200   1.749   4.542
 6315SOL    HW119844   2.153   1.683   4.600
 6315SOL    HW219845   2.227   1.828   4.598
 6316SOL     OW19846   4.953   2.015   5.480
 6316SOL    HW119847   4.873   2.001   5.538
 6316SOL    HW219848   4.937   2.091   5.417
 6317SOL     OW19849   4.912   3.608   2.356
 6317SOL    HW119850   4.864   3.676   2.300
 6317SOL    HW219851   4.966   3.549   2.297
 6318SOL     OW19852   4.833   0.102   6.674
 6318SOL    HW119853   4.770   0.072   6.745
 6318SOL    HW219854   4.892   0.174   6.710
 6319SOL     OW19855   6.701   1.895   5.006
 6319SOL    HW119856   6.719   1.882   5.104
 6319SOL    HW219857   6.771   1.955   4.967
 6320SOL     OW19858   6.973   0.128   4.290
 6320SOL    HW119859   6.920   0.205   4.255
 6320SOL    HW219860   6.912   0.051   4.309
 6321SOL     OW19861   4.872   3.286   0.348
 6321SOL    HW119862   4.919   3.335   0.275
 6321SOL    HW219863   4.826   3.352   0.408
 6322SOL     OW19864   3.568   1.888   0.228
 6322SOL    HW119865   3.662   1.918   0.244
 6322SOL    HW219866   3.505   1.952   0.273
 6323SOL     OW19867   1.559   1.856   1.275
 6323SOL    HW119868   1.495   1.922   1.314
 6323SOL    HW219869   1.573   1.781   1.339
 6324SOL     OW19870   4.392   1.677   0.924
 6324SOL    HW119871   4.444   1.762   0.933
 6324SOL    HW219872   4.435   1.620   0.854
 6325SOL     OW19873   2.228   2.884   2.932
 6325SOL    HW119874   2.168   2.960   2.910
 6325SOL    HW219875   2.273   2.900   3.020
 6326SOL     OW19876   5.239   5.559   6.023
 6326SOL    HW119877   5.190   5.521   5.944
 6326SOL    HW219878   5.235   5.658   6.020
 6327SOL     OW19879   6.844   1.562   4.153
 6327SOL    HW119880   6.918   1.621   4.124
 6327SOL    HW219881   6.875   1.504   4.229
 6328SOL     OW19882   4.457   3.732   6.679
 6328SOL    HW119883   4.443   3.783   6.764
 6328SOL    HW219884   4.430   3.788   6.601
 6329SOL     OW19885   0.917   2.944   5.230
 6329SOL    HW119886   0.979   2.970   5.304
 6329SOL    HW219887   0.830   2.993   5.240
 6330SOL     OW19888   5.714   6.549   1.820
 6330SOL    HW119889   5.812   6.535   1.832
 6330SOL    HW219890   5.698   6.633   1.769
 6331SOL     OW19891   6.590   3.158   4.844
 6331SOL    HW119892   6.540   3.103   4.911
 6331SOL    HW219893   6.538   3.241   4.824
 6332SOL     OW19894   0.860   2.787   1.134
 6332SOL    HW119895   0.855   2.853   1.209
 6332SOL    HW219896   0.907   2.705   1.165
 6333SOL     OW19897   4.740   7.007   6.178
 6333SOL    HW119898   4.833   0.015   6.192
 6333SOL    HW219899   4.675   0.050   6.209
 6334SOL     OW19900   2.760   1.246   2.014
 6334SOL    HW119901   2.684   1.217   2.073
 6334SOL    HW219902   2.814   1.315   2.062
 6335SOL     OW19903   5.096   0.834   0.258
 6335SOL    HW119904   5.060   0.894   0.330
 6335SOL    HW219905   5.078   0.738   0.283
 6336SOL     OW19906   0.313   3.626   6.519
 6336SOL    HW119907   0.255   3.696   6.559
 6336SOL    HW219908   0.330   3.554   6.586
 6337SOL     OW19909   4.041   5.596   4.713
 6337SOL    HW119910   4.130   5.583   4.756
 6337SOL    HW219911   4.015   5.693   4.717
 6338SOL     OW19912   3.271   2.142   4.639
 6338SOL    HW119913   3.196   2.143   4.705
 6338SOL    HW219914   3.358   2.130   4.687
 6339SOL     OW19915   0.892   3.903   3.715
 6339SOL    HW119916   0.989   3.883   3.700
 6339SOL    HW219917   0.878   3.932   3.809
 6340SOL     OW19918   2.250   3.695   1.165
 6340SOL    HW119919   2.260   3.750   1.248
 6340SOL    HW219920   2.173   3.728   1.111
 6341SOL     OW19921   0.520   3.909   3.419
 6341SOL    HW119922   0.546   3.950   3.332
 6341SOL    HW219923   0.498   3.812   3.406
 6342SOL     OW19924   3.381   1.353   0.952
 6342SOL    HW119925   3.457   1.399   0.905
 6342SOL    HW219926   3.362   1.266   0.907
 6343SOL     OW19927   3.916   6.727   6.422
 6343SOL    HW119928   3.850   6.720   6.348
 6343SOL    HW219929   3.966   6.813   6.414
 6344SOL     OW19930   5.776   2.108   3.956
 6344SOL    HW119931   5.791   2.010   3.944
 6344SOL    HW219932   5.700   2.138   3.898
 6345SOL     OW19933   4.596   2.795   1.744
 6345SOL    HW119934   4.610   2.740   1.826
 6345SOL    HW219935   4.578   2.890   1.770
 6346SOL     OW19936   6.774   4.641   4.935
 6346SOL    HW119937   6.756   4.597   5.023
 6346SOL    HW219938   6.873   4.648   4.921
 6347SOL     OW19939   2.194   1.694   1.119
 6347SOL    HW119940   2.275   1.735   1.162
 6347SOL    HW219941   2.185   1.599   1.149
 6348SOL     OW19942   0.852   2.589   5.892
 6348SOL    HW119943   0.798   2.513   5.928
 6348SOL    HW219944   0.947   2.560   5.881
 6349SOL     OW19945   1.867   0.684   0.638
 6349SOL    HW119946   1.866   0.671   0.737
 6349SOL    HW219947   1.827   0.772   0.615
 6350SOL     OW19948   0.818   5.062   3.101
 6350SOL    HW119949   0.889   4.997   3.129
 6350SOL    HW219950   0.731   5.037   3.145
 6351SOL     OW19951   6.467   3.857   3.477
 6351SOL    HW119952   6.503   3.768   3.448
 6351SOL    HW219953   6.368   3.851   3.487
 6352SOL     OW19954   2.518   0.312   4.153
 6352SOL    HW119955   2.508   0.214   4.170
 6352SOL    HW219956   2.472   0.335   4.067
 6353SOL     OW19957   2.218   5.741   0.090
 6353SOL    HW119958   2.152   5.785   0.151
 6353SOL    HW219959   2.171   5.671   0.035
 6354SOL     OW19960   3.698   5.990   3.229
 6354SOL    HW119961   3.771   6.056   3.218
 6354SOL    HW219962   3.728   5.901   3.195
 6355SOL     OW19963   2.666   5.928   0.188
 6355SOL    HW119964   2.680   5.834   0.217
 6355SOL    HW219965   2.588   5.932   0.125
 6356SOL     OW19966   5.231   5.244   0.225
 6356SOL    HW119967   5.310   5.183   0.217
 6356SOL    HW219968   5.188   5.254   0.135
 6357SOL     OW19969   5.956   2.941   2.070
 6357SOL    HW119970   6.009   2.979   1.994
 6357SOL    HW219971   5.907   3.015   2.116
 6358SOL     OW19972   0.534   1.943   6.706
 6358SOL    HW119973   0.593   1.869   6.739
 6358SOL    HW219974   0.440   1.909   6.700
 6359SOL     OW19975   6.066   6.154   0.749
 6359SOL    HW119976   6.039   6.174   0.655
 6359SOL    HW219977   6.127   6.226   0.783
 6360SOL     OW19978   0.643   3.305   4.100
 6360SOL    HW119979   0.584   3.299   4.020
 6360SOL    HW219980   0.606   3.247   4.173
 6361SOL     OW19981   1.160   0.461   0.782
 6361SOL    HW119982   1.243   0.410   0.757
 6361SOL    HW219983   1.116   0.417   0.860
 6362SOL     OW19984   1.764   6.049   6.804
 6362SOL    HW119985   1.841   6.113   6.810
 6362SOL    HW219986   1.795   5.964   6.762
 6363SOL     OW19987   2.984   5.300   4.027
 6363SOL    HW119988   3.000   5.238   3.950
 6363SOL    HW219989   2.959   5.246   4.108
 6364SOL     OW19990   2.517   2.659   5.545
 6364SOL    HW119991   2.426   2.620   5.530
 6364SOL    HW219992   2.512   2.758   5.538
 6365SOL     OW19993   5.789   6.216   5.042
 6365SOL    HW119994   5.732   6.233   5.122
 6365SOL    HW219995   5.737   6.164   4.974
 6366SOL     OW19996   0.337   6.289   4.801
 6366SOL    HW119997   0.363   6.264   4.708
 6366SOL    HW219998   0.382   6.375   4.826
 6367SOL     OW19999   3.128   1.878   2.815
 6367SOL    HW120000   3.036   1.914   2.833
 6367SOL    HW220001   3.184   1.886   2.897
 6368SOL     OW20002   4.288   4.794   4.479
 6368SOL    HW120003   4.302   4.762   4.573
 6368SOL    HW220004   4.190   4.809   4.464
 6369SOL     OW20005   1.743   0.284   4.436
 6369SOL    HW120006   1.771   0.227   4.513
 6369SOL    HW220007   1.644   0.298   4.439
 6370SOL     OW20008   5.415   4.063   3.424
 6370SOL    HW120009   5.461   4.125   3.487
 6370SOL    HW220010   5.411   3.971   3.464
 6371SOL     OW20011   5.530   3.931   2.147
 6371SOL    HW120012   5.577   3.929   2.236
 6371SOL    HW220013   5.514   3.837   2.116
 6372SOL     OW20014   1.198   1.645   1.875
 6372SOL    HW120015   1.251   1.621   1.956
 6372SOL    HW220016   1.227   1.588   1.798
 6373SOL     OW20017   5.823   4.301   2.481
 6373SOL    HW120018   5.807   4.259   2.392
 6373SOL    HW220019   5.759   4.377   2.493
 6374SOL     OW20020   4.635   3.100   0.666
 6374SOL    HW120021   4.654   3.114   0.569
 6374SOL    HW220022   4.570   3.169   0.698
 6375SOL     OW20023   0.963   2.290   1.603
 6375SOL    HW120024   1.041   2.345   1.633
 6375SOL    HW220025   0.943   2.311   1.507
 6376SOL     OW20026   3.800   1.541   5.691
 6376SOL    HW120027   3.772   1.626   5.646
 6376SOL    HW220028   3.900   1.537   5.696
 6377SOL     OW20029   6.821   1.235   5.381
 6377SOL    HW120030   6.844   1.318   5.432
 6377SOL    HW220031   6.746   1.254   5.318
 6378SOL     OW20032   5.127   5.500   3.251
 6378SOL    HW120033   5.224   5.507   3.226
 6378SOL    HW220034   5.071   5.533   3.175
 6379SOL     OW20035   0.944   4.964   5.631
 6379SOL    HW120036   1.018   5.031   5.641
 6379SOL    HW220037   0.856   5.009   5.647
 6380SOL     OW20038   7.011   2.588   4.376
 6380SOL    HW120039   0.055   2.653   4.404
 6380SOL    HW220040   0.013   2.495   4.401
 6381SOL     OW20041   4.132   2.703   0.447
 6381SOL    HW120042   4.213   2.676   0.499
 6381SOL    HW220043   4.145   2.680   0.351
 6382SOL     OW20044   3.409   1.670   1.147
 6382SOL    HW120045   3.369   1.591   1.193
 6382SOL    HW220046   3.350   1.697   1.071
 6383SOL     OW20047   2.048   2.499   1.748
 6383SOL    HW120048   1.965   2.468   1.795
 6383SOL    HW220049   2.128   2.464   1.797
 6384SOL     OW20050   5.769   3.092   2.189
 6384SOL    HW120051   5.737   3.183   2.164
 6384SOL    HW220052   5.691   3.029   2.193
 6385SOL     OW20053   6.588   3.902   2.044
 6385SOL    HW120054   6.637   3.815   2.042
 6385SOL    HW220055   6.622   3.961   1.970
 6386SOL     OW20056   1.789   3.791   0.317
 6386SOL    HW120057   1.864   3.740   0.274
 6386SOL    HW220058   1.753   3.858   0.253
 6387SOL     OW20059   6.046   1.072   0.484
 6387SOL    HW120060   6.107   1.151   0.488
 6387SOL    HW220061   6.076   1.011   0.411
 6388SOL     OW20062   5.935   5.180   1.912
 6388SOL    HW120063   5.874   5.180   1.992
 6388SOL    HW220064   5.991   5.097   1.914
 6389SOL     OW20065   1.368   6.863   1.613
 6389SOL    HW120066   1.286   6.811   1.588
 6389SOL    HW220067   1.438   6.802   1.649
 6390SOL     OW20068   6.651   0.116   5.934
 6390SOL    HW120069   6.633   0.152   5.842
 6390SOL    HW220070   6.618   0.022   5.940
 6391SOL     OW20071   1.371   0.996   5.934
 6391SOL    HW120072   1.331   1.063   5.996
 6391SOL    HW220073   1.300   0.933   5.902
 6392SOL     OW20074   2.914   6.216   3.601
 6392SOL    HW120075   2.975   6.265   3.663
 6392SOL    HW220076   2.962   6.136   3.564
 6393SOL     OW20077   5.697   5.929   1.547
 6393SOL    HW120078   5.617   5.985   1.527
 6393SOL    HW220079   5.767   5.943   1.477
 6394SOL     OW20080   1.771   4.979   1.078
 6394SOL    HW120081   1.808   5.038   1.005
 6394SOL    HW220082   1.832   4.901   1.092
 6395SOL     OW20083   7.021   2.996   1.742
 6395SOL    HW120084   7.022   3.011   1.840
 6395SOL    HW220085   6.931   2.960   1.715
 6396SOL     OW20086   6.453   4.217   5.715
 6396SOL    HW120087   6.364   4.206   5.760
 6396SOL    HW220088   6.520   4.248   5.782
 6397SOL     OW20089   6.261   1.339   2.386
 6397SOL    HW120090   6.299   1.281   2.314
 6397SOL    HW220091   6.235   1.427   2.347
 6398SOL     OW20092   1.642   6.812   1.869
 6398SOL    HW120093   1.626   6.799   1.966
 6398SOL    HW220094   1.721   6.757   1.840
 6399SOL     OW20095   1.587   0.159   6.818
 6399SOL    HW120096   1.533   0.174   6.735
 6399SOL    HW220097   1.598   0.061   6.833
 6400SOL     OW20098   2.058   4.940   2.598
 6400SOL    HW120099   2.137   4.986   2.638
 6400SOL    HW220100   1.974   4.980   2.634
 6401SOL     OW20101   5.456   5.042   3.066
 6401SOL    HW120102   5.440   5.037   2.967
 6401SOL    HW220103   5.548   5.009   3.087
 6402SOL     OW20104   1.804   3.159   3.894
 6402SOL    HW120105   1.824   3.071   3.851
 6402SOL    HW220106   1.739   3.209   3.837
 6403SOL     OW20107   5.871   6.144   6.218
 6403SOL    HW120108   5.807   6.157   6.142
 6403SOL    HW220109   5.926   6.227   6.230
 6404SOL     OW20110   4.007   1.624   2.594
 6404SOL    HW120111   3.982   1.646   2.688
 6404SOL    HW220112   3.957   1.682   2.530
 6405SOL     OW20113   4.400   1.455   4.155
 6405SOL    HW120114   4.459   1.528   4.122
 6405SOL    HW220115   4.453   1.371   4.167
 6406SOL     OW20116   1.603   3.342   2.118
 6406SOL    HW120117   1.629   3.414   2.054
 6406SOL    HW220118   1.508   3.314   2.100
 6407SOL     OW20119   2.431   0.109   3.332
 6407SOL    HW120120   2.399   0.203   3.317
 6407SOL    HW220121   2.375   0.046   3.279
 6408SOL     OW20122   5.922   0.488   0.538
 6408SOL    HW120123   5.933   0.492   0.439
 6408SOL    HW220124   5.965   0.404   0.573
 6409SOL     OW20125   0.107   4.896   2.732
 6409SOL    HW120126   0.064   4.962   2.794
 6409SOL    HW220127   0.059   4.897   2.644
 6410SOL     OW20128   2.215   1.281   6.634
 6410SOL    HW120129   2.128   1.260   6.680
 6410SOL    HW220130   2.269   1.342   6.692
 6411SOL     OW20131   1.421   3.047   2.162
 6411SOL    HW120132   1.467   2.982   2.101
 6411SOL    HW220133   1.386   3.123   2.108
 6412SOL     OW20134   2.587   0.813   6.919
 6412SOL    HW120135   2.564   0.908   6.941
 6412SOL    HW220136   2.564   0.754   6.997
 6413SOL     OW20137   3.927   5.010   4.738
 6413SOL    HW120138   3.836   4.982   4.770
 6413SOL    HW220139   3.929   5.109   4.725
 6414SOL     OW20140   6.171   6.773   6.749
 6414SOL    HW120141   6.180   6.873   6.744
 6414SOL    HW220142   6.211   6.732   6.667
 6415SOL     OW20143   1.640   3.445   4.085
 6415SOL    HW120144   1.727   3.419   4.127
 6415SOL    HW220145   1.606   3.528   4.129
 6416SOL     OW20146   2.856   7.015   6.384
 6416SOL    HW120147   2.795   0.050   6.334
 6416SOL    HW220148   2.802   6.950   6.438
 6417SOL     OW20149   5.191   2.684   0.545
 6417SOL    HW120150   5.186   2.638   0.634
 6417SOL    HW220151   5.277   2.734   0.539
 6418SOL     OW20152   5.296   4.354   2.813
 6418SOL    HW120153   5.387   4.391   2.832
 6418SOL    HW220154   5.261   4.309   2.895
 6419SOL     OW20155   0.599   5.282   4.632
 6419SOL    HW120156   0.639   5.239   4.551
 6419SOL    HW220157   0.613   5.223   4.711
 6420SOL     OW20158   1.913   1.542   3.935
 6420SOL    HW120159   1.952   1.495   3.856
 6420SOL    HW220160   1.841   1.605   3.905
 6421SOL     OW20161   4.563   0.522   1.263
 6421SOL    HW120162   4.494   0.516   1.336
 6421SOL    HW220163   4.521   0.561   1.181
 6422SOL     OW20164   6.818   1.598   5.139
 6422SOL    HW120165   6.885   1.589   5.213
 6422SOL    HW220166   6.727   1.615   5.178
 6423SOL     OW20167   4.560   5.782   4.854
 6423SOL    HW120168   4.597   5.703   4.902
 6423SOL    HW220169   4.570   5.769   4.755
 6424SOL     OW20170   1.494   3.647   5.082
 6424SOL    HW120171   1.484   3.575   5.013
 6424SOL    HW220172   1.489   3.737   5.037
 6425SOL     OW20173   0.190   5.468   2.847
 6425SOL    HW120174   0.279   5.513   2.844
 6425SOL    HW220175   0.119   5.532   2.819
 6426SOL     OW20176   5.454   5.415   3.731
 6426SOL    HW120177   5.439   5.350   3.657
 6426SOL    HW220178   5.468   5.365   3.817
 6427SOL     OW20179   2.974   3.753   3.393
 6427SOL    HW120180   2.960   3.756   3.492
 6427SOL    HW220181   2.989   3.845   3.358
 6428SOL     OW20182   5.349   3.412   0.485
 6428SOL    HW120183   5.268   3.417   0.543
 6428SOL    HW220184   5.397   3.325   0.501
 6429SOL     OW20185   1.277   0.597   5.689
 6429SOL    HW120186   1.274   0.640   5.599
 6429SOL    HW220187   1.254   0.500   5.681
 6430SOL     OW20188   6.447   0.825   5.043
 6430SOL    HW120189   6.350   0.805   5.027
 6430SOL    HW220190   6.482   0.761   5.111
 6431SOL     OW20191   4.665   5.609   2.896
 6431SOL    HW120192   4.664   5.597   2.995
 6431SOL    HW220193   4.702   5.526   2.853
 6432SOL     OW20194   3.407   4.430   6.297
 6432SOL    HW120195   3.366   4.340   6.307
 6432SOL    HW220196   3.341   4.494   6.259
 6433SOL     OW20197   3.340   5.007   0.224
 6433SOL    HW120198   3.340   4.989   0.125
 6433SOL    HW220199   3.256   5.054   0.249
 6434SOL     OW20200   2.602   6.815   6.003
 6434SOL    HW120201   2.614   6.720   5.973
 6434SOL    HW220202   2.692   6.856   6.019
 6435SOL     OW20203   6.287   0.083   0.855
 6435SOL    HW120204   6.218   0.143   0.895
 6435SOL    HW220205   6.357   0.139   0.810
 6436SOL     OW20206   1.072   3.782   3.288
 6436SOL    HW120207   1.068   3.682   3.288
 6436SOL    HW220208   0.985   3.818   3.255
 6437SOL     OW20209   1.629   2.534   6.406
 6437SOL    HW120210   1.716   2.494   6.435
 6437SOL    HW220211   1.570   2.546   6.486
 6438SOL     OW20212   1.020   4.962   6.344
 6438SOL    HW120213   1.118   4.941   6.349
 6438SOL    HW220214   0.981   4.964   6.436
 6439SOL     OW20215   5.624   1.080   2.801
 6439SOL    HW120216   5.538   1.076   2.752
 6439SOL    HW220217   5.629   1.005   2.867
 6440SOL     OW20218   2.804   0.360   6.204
 6440SOL    HW120219   2.864   0.377   6.282
 6440SOL    HW220220   2.858   0.332   6.125
 6441SOL     OW20221   0.793   1.086   1.439
 6441SOL    HW120222   0.701   1.121   1.420
 6441SOL    HW220223   0.834   1.051   1.355
 6442SOL     OW20224   2.494   1.649   4.694
 6442SOL    HW120225   2.474   1.665   4.597
 6442SOL    HW220226   2.536   1.731   4.733
 6443SOL     OW20227   3.570   2.388   5.873
 6443SOL    HW120228   3.532   2.307   5.917
 6443SOL    HW220229   3.568   2.377   5.774
 6444SOL     OW20230   6.280   2.567   4.636
 6444SOL    HW120231   6.220   2.620   4.696
 6444SOL    HW220232   6.327   2.629   4.572
 6445SOL     OW20233   3.895   3.368   3.337
 6445SOL    HW120234   3.813   3.314   3.320
 6445SOL    HW220235   3.918   3.364   3.434
 6446SOL     OW20236   0.187   2.201   0.307
 6446SOL    HW120237   0.196   2.220   0.405
 6446SOL    HW220238   0.094   2.170   0.288
 6447SOL     OW20239   6.365   4.377   1.852
 6447SOL    HW120240   6.427   4.391   1.929
 6447SOL    HW220241   6.272   4.398   1.880
 6448SOL     OW20242   5.033   4.796   1.429
 6448SOL    HW120243   5.049   4.809   1.331
 6448SOL    HW220244   5.074   4.709   1.458
 6449SOL     OW20245   2.790   5.043   1.712
 6449SOL    HW120246   2.706   5.017   1.662
 6449SOL    HW220247   2.787   5.003   1.804
 6450SOL     OW20248   0.998   3.950   6.909
 6450SOL    HW120249   0.902   3.928   6.890
 6450SOL    HW220250   1.032   3.888   6.981
 6451SOL     OW20251   2.683   1.285   5.926
 6451SOL    HW120252   2.594   1.281   5.971
 6451SOL    HW220253   2.722   1.192   5.920
 6452SOL     OW20254   5.119   3.899   2.844
 6452SOL    HW120255   5.044   3.839   2.871
 6452SOL    HW220256   5.142   3.884   2.748
 6453SOL     OW20257   2.607   6.972   1.341
 6453SOL    HW120258   2.612   0.034   1.293
 6453SOL    HW220259   2.624   6.897   1.277
 6454SOL     OW20260   0.788   1.311   2.543
 6454SOL    HW120261   0.842   1.259   2.609
 6454SOL    HW220262   0.848   1.350   2.474
 6455SOL     OW20263   6.591   3.231   3.503
 6455SOL    HW120264   6.638   3.187   3.579
 6455SOL    HW220265   6.493   3.240   3.525
 6456SOL     OW20266   1.437   0.947   2.782
 6456SOL    HW120267   1.466   0.854   2.804
 6456SOL    HW220268   1.495   1.012   2.831
 6457SOL     OW20269   4.805   6.477   1.280
 6457SOL    HW120270   4.771   6.562   1.320
 6457SOL    HW220271   4.827   6.413   1.354
 6458SOL     OW20272   1.690   5.032   5.069
 6458SOL    HW120273   1.732   5.084   5.144
 6458SOL    HW220274   1.761   4.994   5.010
 6459SOL     OW20275   6.307   2.567   2.702
 6459SOL    HW120276   6.285   2.600   2.794
 6459SOL    HW220277   6.273   2.474   2.691
 6460SOL     OW20278   6.008   6.112   5.884
 6460SOL    HW120279   5.998   6.022   5.842
 6460SOL    HW220280   5.955   6.116   5.969
 6461SOL     OW20281   2.540   4.308   0.318
 6461SOL    HW120282   2.599   4.376   0.274
 6461SOL    HW220283   2.450   4.309   0.276
 6462SOL     OW20284   0.391   3.111   4.666
 6462SOL    HW120285   0.384   3.089   4.763
 6462SOL    HW220286   0.406   3.028   4.613
 6463SOL     OW20287   5.112   6.756   0.699
 6463SOL    HW120288   5.093   6.665   0.662
 6463SOL    HW220289   5.186   6.751   0.765
 6464SOL     OW20290   1.849   5.862   5.134
 6464SOL    HW120291   1.844   5.962   5.123
 6464SOL    HW220292   1.763   5.829   5.173
 6465SOL     OW20293   6.726   2.843   2.543
 6465SOL    HW120294   6.715   2.769   2.609
 6465SOL    HW220295   6.794   2.818   2.474
 6466SOL     OW20296   6.743   1.708   6.924
 6466SOL    HW120297   6.837   1.674   6.915
 6466SOL    HW220298   6.692   1.650   6.987
 6467SOL     OW20299   3.912   0.154   1.043
 6467SOL    HW120300   3.933   0.080   0.979
 6467SOL    HW220301   3.958   0.238   1.012
 6468SOL     OW20302   3.394   6.326   1.736
 6468SOL    HW120303   3.405   6.400   1.802
 6468SOL    HW220304   3.386   6.239   1.785
 6469SOL     OW20305   3.628   2.124   3.839
 6469SOL    HW120306   3.543   2.137   3.891
 6469SOL    HW220307   3.641   2.027   3.819
 6470SOL     OW20308   6.091   2.599   0.408
 6470SOL    HW120309   6.046   2.528   0.354
 6470SOL    HW220310   6.121   2.561   0.496
 6471SOL     OW20311   0.678   6.231   5.688
 6471SOL    HW120312   0.623   6.148   5.696
 6471SOL    HW220313   0.725   6.249   5.775
 6472SOL     OW20314   6.349   5.601   2.931
 6472SOL    HW120315   6.372   5.695   2.906
 6472SOL    HW220316   6.289   5.601   3.011
 6473SOL     OW20317   1.977   1.746   5.354
 6473SOL    HW120318   2.015   1.821   5.408
 6473SOL    HW220319   2.014   1.750   5.261
 6474SOL     OW20320   3.670   5.521   5.900
 6474SOL    HW120321   3.691   5.541   5.995
 6474SOL    HW220322   3.672   5.606   5.847
 6475SOL     OW20323   5.888   4.523   3.728
 6475SOL    HW120324   5.807   4.472   3.701
 6475SOL    HW220325   5.909   4.593   3.660
 6476SOL     OW20326   4.703   2.978   6.520
 6476SOL    HW120327   4.632   3.006   6.456
 6476SOL    HW220328   4.792   2.980   6.474
 6477SOL     OW20329   5.994   5.196   1.103
 6477SOL    HW120330   6.066   5.133   1.131
 6477SOL    HW220331   6.028   5.257   1.031
 6478SOL     OW20332   3.611   6.611   2.364
 6478SOL    HW120333   3.637   6.612   2.267
 6478SOL    HW220334   3.647   6.693   2.409
 6479SOL     OW20335   3.598   5.163   4.268
 6479SOL    HW120336   3.641   5.242   4.311
 6479SOL    HW220337   3.510   5.189   4.229
 6480SOL     OW20338   2.044   1.410   6.980
 6480SOL    HW120339   2.023   1.497   6.935
 6480SOL    HW220340   2.055   1.339   6.910
 6481SOL     OW20341   3.347   2.623   1.701
 6481SOL    HW120342   3.391   2.542   1.660
 6481SOL    HW220343   3.414   2.697   1.706
 6482SOL     OW20344   6.277   2.495   6.548
 6482SOL    HW120345   6.301   2.403   6.580
 6482SOL    HW220346   6.202   2.488   6.482
 6483SOL     OW20347   0.074   6.493   3.687
 6483SOL    HW120348   0.123   6.580   3.681
 6483SOL    HW220349   0.088   6.441   3.604
 6484SOL     OW20350   3.108   1.182   2.620
 6484SOL    HW120351   3.012   1.161   2.639
 6484SOL    HW220352   3.116   1.276   2.586
 6485SOL     OW20353   2.056   5.919   3.510
 6485SOL    HW120354   2.073   5.891   3.604
 6485SOL    HW220355   1.998   6.001   3.509
 6486SOL     OW20356   0.533   5.341   2.452
 6486SOL    HW120357   0.511   5.284   2.532
 6486SOL    HW220358   0.450   5.353   2.397
 6487SOL     OW20359   0.743   6.525   5.629
 6487SOL    HW120360   0.825   6.566   5.590
 6487SOL    HW220361   0.731   6.433   5.593
 6488SOL     OW20362   4.268   5.830   4.597
 6488SOL    HW120363   4.322   5.912   4.617
 6488SOL    HW220364   4.188   5.827   4.658
 6489SOL     OW20365   3.610   3.447   6.365
 6489SOL    HW120366   3.528   3.405   6.404
 6489SOL    HW220367   3.584   3.501   6.285
 6490SOL     OW20368   2.997   1.353   5.936
 6490SOL    HW120369   3.017   1.292   5.859
 6490SOL    HW220370   2.900   1.379   5.932
 6491SOL     OW20371   2.857   0.485   1.915
 6491SOL    HW120372   2.909   0.512   1.996
 6491SOL    HW220373   2.774   0.541   1.908
 6492SOL     OW20374   3.946   3.210   4.965
 6492SOL    HW120375   3.967   3.136   4.901
 6492SOL    HW220376   3.933   3.295   4.914
 6493SOL     OW20377   0.836   4.498   6.273
 6493SOL    HW120378   0.922   4.548   6.263
 6493SOL    HW220379   0.832   4.458   6.365
 6494SOL     OW20380   6.780   6.523   2.736
 6494SOL    HW120381   6.824   6.606   2.702
 6494SOL    HW220382   6.702   6.547   2.794
 6495SOL     OW20383   6.338   0.557   4.498
 6495SOL    HW120384   6.406   0.601   4.440
 6495SOL    HW220385   6.330   0.607   4.585
 6496SOL     OW20386   5.997   6.977   1.622
 6496SOL    HW120387   6.015   0.027   1.559
 6496SOL    HW220388   6.038   6.997   1.711
 6497SOL     OW20389   1.508   0.300   1.138
 6497SOL    HW120390   1.539   0.216   1.184
 6497SOL    HW220391   1.459   0.357   1.204
 6498SOL     OW20392   0.577   4.033   4.638
 6498SOL    HW120393   0.602   4.109   4.697
 6498SOL    HW220394   0.643   4.025   4.564
 6499SOL     OW20395   5.831   4.054   4.819
 6499SOL    HW120396   5.895   4.116   4.773
 6499SOL    HW220397   5.750   4.042   4.762
 6500SOL     OW20398   0.016   4.062   2.785
 6500SOL    HW120399   0.099   4.006   2.793
 6500SOL    HW220400   0.038   4.157   2.805
 6501SOL     OW20401   0.111   1.195   1.135
 6501SOL    HW120402   0.047   1.119   1.136
 6501SOL    HW220403   0.205   1.160   1.134
 6502SOL     OW20404   0.027   3.757   1.517
 6502SOL    HW120405   0.099   3.777   1.584
 6502SOL    HW220406   0.050   3.798   1.429
 6503SOL     OW20407   5.722   0.840   3.732
 6503SOL    HW120408   5.809   0.862   3.777
 6503SOL    HW220409   5.659   0.917   3.742
 6504SOL     OW20410   3.324   6.518   6.710
 6504SOL    HW120411   3.380   6.600   6.702
 6504SOL    HW220412   3.369   6.442   6.662
 6505SOL     OW20413   4.335   6.393   6.029
 6505SOL    HW120414   4.328   6.492   6.022
 6505SOL    HW220415   4.382   6.369   6.114
 6506SOL     OW20416   0.222   2.394   3.523
 6506SOL    HW120417   0.256   2.342   3.601
 6506SOL    HW220418   0.239   2.343   3.438
 6507SOL     OW20419   2.854   5.617   5.897
 6507SOL    HW120420   2.839   5.637   5.800
 6507SOL    HW220421   2.766   5.609   5.944
 6508SOL     OW20422   1.586   0.501   2.643
 6508SOL    HW120423   1.637   0.449   2.712
 6508SOL    HW220424   1.644   0.517   2.563
 6509SOL     OW20425   5.037   1.522   5.030
 6509SOL    HW120426   5.083   1.601   5.069
 6509SOL    HW220427   4.951   1.505   5.078
 6510SOL     OW20428   5.126   5.250   6.500
 6510SOL    HW120429   5.203   5.210   6.550
 6510SOL    HW220430   5.144   5.246   6.402
 6511SOL     OW20431   4.500   1.287   4.983
 6511SOL    HW120432   4.508   1.188   4.994
 6511SOL    HW220433   4.415   1.319   5.026
 6512SOL     OW20434   3.322   6.623   2.364
 6512SOL    HW120435   3.280   6.560   2.429
 6512SOL    HW220436   3.421   6.612   2.367
 6513SOL     OW20437   1.683   6.329   3.990
 6513SOL    HW120438   1.667   6.231   3.984
 6513SOL    HW220439   1.601   6.378   3.960
 6514SOL     OW20440   5.998   1.131   4.365
 6514SOL    HW120441   6.029   1.038   4.383
 6514SOL    HW220442   6.015   1.154   4.269
 6515SOL     OW20443   1.499   3.706   2.793
 6515SOL    HW120444   1.591   3.669   2.777
 6515SOL    HW220445   1.431   3.641   2.758
 6516SOL     OW20446   7.006   2.952   1.210
 6516SOL    HW120447   0.014   3.046   1.216
 6516SOL    HW220448   6.964   2.936   1.121
 6517SOL     OW20449   0.215   1.983   1.389
 6517SOL    HW120450   0.168   1.932   1.317
 6517SOL    HW220451   0.151   2.001   1.464
 6518SOL     OW20452   0.338   0.578   2.012
 6518SOL    HW120453   0.255   0.579   2.068
 6518SOL    HW220454   0.417   0.597   2.070
 6519SOL     OW20455   6.966   2.079   2.827
 6519SOL    HW120456   6.875   2.045   2.849
 6519SOL    HW220457   6.985   2.063   2.730
 6520SOL     OW20458   6.891   5.704   6.816
 6520SOL    HW120459   6.902   5.801   6.835
 6520SOL    HW220460   6.857   5.692   6.723
 6521SOL     OW20461   2.332   2.763   3.823
 6521SOL    HW120462   2.366   2.778   3.915
 6521SOL    HW220463   2.323   2.664   3.806
 6522SOL     OW20464   2.234   4.525   4.793
 6522SOL    HW120465   2.173   4.604   4.793
 6522SOL    HW220466   2.181   4.441   4.800
 6523SOL     OW20467   3.714   0.703   6.596
 6523SOL    HW120468   3.680   0.761   6.670
 6523SOL    HW220469   3.693   0.607   6.617
 6524SOL     OW20470   2.995   2.654   1.290
 6524SOL    HW120471   2.912   2.708   1.301
 6524SOL    HW220472   3.061   2.680   1.360
 6525SOL     OW20473   2.076   5.128   3.039
 6525SOL    HW120474   2.086   5.098   3.134
 6525SOL    HW220475   1.980   5.129   3.014
 6526SOL     OW20476   0.563   0.575   1.243
 6526SOL    HW120477   0.547   0.480   1.215
 6526SOL    HW220478   0.620   0.621   1.174
 6527SOL     OW20479   6.708   2.241   0.060
 6527SOL    HW120480   6.753   2.163   0.017
 6527SOL    HW220481   6.620   2.212   0.099
 6528SOL     OW20482   6.542   1.747   5.391
 6528SOL    HW120483   6.534   1.652   5.361
 6528SOL    HW220484   6.605   1.753   5.468
 6529SOL     OW20485   1.285   0.530   2.654
 6529SOL    HW120486   1.305   0.499   2.747
 6529SOL    HW220487   1.340   0.611   2.633
 6530SOL     OW20488   0.277   1.852   0.922
 6530SOL    HW120489   0.253   1.949   0.929
 6530SOL    HW220490   0.336   1.826   0.998
 6531SOL     OW20491   5.118   3.442   5.087
 6531SOL    HW120492   5.074   3.459   4.999
 6531SOL    HW220493   5.145   3.529   5.128
 6532SOL     OW20494   1.840   1.278   0.967
 6532SOL    HW120495   1.884   1.223   1.038
 6532SOL    HW220496   1.847   1.375   0.991
 6533SOL     OW20497   4.141   5.874   0.465
 6533SOL    HW120498   4.069   5.817   0.425
 6533SOL    HW220499   4.229   5.846   0.427
 6534SOL     OW20500   5.069   5.099   1.717
 6534SOL    HW120501   5.013   5.048   1.652
 6534SOL    HW220502   5.040   5.077   1.810
 6535SOL     OW20503   6.246   4.727   4.341
 6535SOL    HW120504   6.225   4.729   4.439
 6535SOL    HW220505   6.306   4.803   4.318
 6536SOL     OW20506   0.424   1.784   4.985
 6536SOL    HW120507   0.332   1.781   4.947
 6536SOL    HW220508   0.451   1.879   5.000
 6537SOL     OW20509   6.754   4.795   5.265
 6537SOL    HW120510   6.732   4.711   5.215
 6537SOL    HW220511   6.687   4.866   5.242
 6538SOL     OW20512   1.483   3.427   5.933
 6538SOL    HW120513   1.411   3.373   5.889
 6538SOL    HW220514   1.459   3.524   5.928
 6539SOL     OW20515   5.078   0.282   6.610
 6539SOL    HW120516   5.021   0.330   6.675
 6539SOL    HW220517   5.174   0.301   6.629
 6540SOL     OW20518   3.643   2.838   6.219
 6540SOL    HW120519   3.666   2.773   6.291
 6540SOL    HW220520   3.544   2.852   6.217
 6541SOL     OW20521   5.459   2.104   5.976
 6541SOL    HW120522   5.449   2.148   5.887
 6541SOL    HW220523   5.377   2.051   5.996
 6542SOL     OW20524   1.288   3.467   4.033
 6542SOL    HW120525   1.262   3.561   4.011
 6542SOL    HW220526   1.315   3.461   4.130
 6543SOL     OW20527   4.294   2.660   5.638
 6543SOL    HW120528   4.362   2.632   5.706
 6543SOL    HW220529   4.328   2.738   5.586
 6544SOL     OW20530   1.153   6.594   3.231
 6544SOL    HW120531   1.233   6.534   3.240
 6544SOL    HW220532   1.184   6.689   3.224
 6545SOL     OW20533   4.144   0.779   0.109
 6545SOL    HW120534   4.238   0.751   0.093
 6545SOL    HW220535   4.093   0.779   0.023
 6546SOL     OW20536   3.152   4.246   6.271
 6546SOL    HW120537   3.068   4.192   6.264
 6546SOL    HW220538   3.150   4.320   6.204
 6547SOL     OW20539   4.800   0.446   6.523
 6547SOL    HW120540   4.737   0.426   6.597
 6547SOL    HW220541   4.864   0.370   6.511
 6548SOL     OW20542   1.330   2.841   0.744
 6548SOL    HW120543   1.394   2.781   0.695
 6548SOL    HW220544   1.382   2.903   0.804
 6549SOL     OW20545   4.620   0.358   2.254
 6549SOL    HW120546   4.607   0.449   2.295
 6549SOL    HW220547   4.531   0.316   2.239
 6550SOL     OW20548   0.453   6.744   4.087
 6550SOL    HW120549   0.502   6.821   4.045
 6550SOL    HW220550   0.391   6.705   4.019
 6551SOL     OW20551   2.182   3.488   1.664
 6551SOL    HW120552   2.174   3.397   1.623
 6551SOL    HW220553   2.229   3.482   1.752
 6552SOL     OW20554   2.418   6.768   0.388
 6552SOL    HW120555   2.337   6.822   0.365
 6552SOL    HW220556   2.392   6.672   0.401
 6553SOL     OW20557   0.669   2.293   2.893
 6553SOL    HW120558   0.649   2.198   2.917
 6553SOL    HW220559   0.600   2.326   2.828
 6554SOL     OW20560   1.738   0.583   4.432
 6554SOL    HW120561   1.771   0.492   4.405
 6554SOL    HW220562   1.691   0.576   4.520
 6555SOL     OW20563   5.912   1.843   3.391
 6555SOL    HW120564   5.851   1.765   3.374
 6555SOL    HW220565   5.910   1.866   3.488
 6556SOL     OW20566   6.050   3.710   2.971
 6556SOL    HW120567   6.115   3.634   2.974
 6556SOL    HW220568   6.100   3.796   2.962
 6557SOL     OW20569   2.494   0.645   3.542
 6557SOL    HW120570   2.462   0.728   3.587
 6557SOL    HW220571   2.417   0.582   3.529
 6558SOL     OW20572   5.905   5.602   6.935
 6558SOL    HW120573   5.865   5.530   6.878
 6558SOL    HW220574   5.847   5.617   7.015
 6559SOL     OW20575   0.042   4.271   6.724
 6559SOL    HW120576   7.006   4.266   6.645
 6559SOL    HW220577   0.018   4.198   6.788
 6560SOL     OW20578   3.742   4.501   1.412
 6560SOL    HW120579   3.681   4.436   1.367
 6560SOL    HW220580   3.707   4.522   1.503
 6561SOL     OW20581   3.330   4.254   1.352
 6561SOL    HW120582   3.322   4.172   1.408
 6561SOL    HW220583   3.423   4.259   1.315
 6562SOL     OW20584   5.413   2.106   1.118
 6562SOL    HW120585   5.506   2.071   1.112
 6562SOL    HW220586   5.403   2.162   1.201
 6563SOL     OW20587   5.364   6.354   6.299
 6563SOL    HW120588   5.268   6.384   6.289
 6563SOL    HW220589   5.419   6.397   6.227
 6564SOL     OW20590   6.691   3.654   2.002
 6564SOL    HW120591   6.635   3.573   1.982
 6564SOL    HW220592   6.782   3.641   1.964
 6565SOL     OW20593   6.325   0.104   3.105
 6565SOL    HW120594   6.333   0.086   3.203
 6565SOL    HW220595   6.333   0.202   3.088
 6566SOL     OW20596   3.629   6.118   2.852
 6566SOL    HW120597   3.625   6.186   2.926
 6566SOL    HW220598   3.590   6.032   2.884
 6567SOL     OW20599   5.108   0.944   2.272
 6567SOL    HW120600   5.195   0.895   2.260
 6567SOL    HW220601   5.044   0.916   2.200
 6568SOL     OW20602   3.650   1.831   3.754
 6568SOL    HW120603   3.609   1.820   3.664
 6568SOL    HW220604   3.726   1.766   3.764
 6569SOL     OW20605   2.443   2.600   6.660
 6569SOL    HW120606   2.539   2.611   6.686
 6569SOL    HW220607   2.384   2.646   6.728
 6570SOL     OW20608   3.278   0.941   2.235
 6570SOL    HW120609   3.319   1.032   2.234
 6570SOL    HW220610   3.342   0.876   2.195
 6571SOL     OW20611   2.999   4.926   2.610
 6571SOL    HW120612   2.912   4.908   2.656
 6571SOL    HW220613   3.013   5.025   2.603
 6572SOL     OW20614   0.113   4.487   4.207
 6572SOL    HW120615   0.133   4.577   4.169
 6572SOL    HW220616   0.117   4.418   4.134
 6573SOL     OW20617   0.635   2.028   2.226
 6573SOL    HW120618   0.638   1.944   2.172
 6573SOL    HW220619   0.599   2.008   2.317
 6574SOL     OW20620   2.648   5.954   2.938
 6574SOL    HW120621   2.625   6.000   2.852
 6574SOL    HW220622   2.645   5.855   2.925
 6575SOL     OW20623   0.729   6.637   3.474
 6575SOL    HW120624   0.797   6.588   3.419
 6575SOL    HW220625   0.776   6.690   3.544
 6576SOL     OW20626   3.032   6.230   0.614
 6576SOL    HW120627   2.986   6.204   0.699
 6576SOL    HW220628   3.014   6.161   0.543
 6577SOL     OW20629   1.518   1.681   3.319
 6577SOL    HW120630   1.573   1.661   3.399
 6577SOL    HW220631   1.424   1.699   3.347
 6578SOL     OW20632   0.887   6.222   2.160
 6578SOL    HW120633   0.880   6.320   2.140
 6578SOL    HW220634   0.923   6.174   2.080
 6579SOL     OW20635   6.565   2.633   3.825
 6579SOL    HW120636   6.467   2.621   3.842
 6579SOL    HW220637   6.617   2.593   3.900
 6580SOL     OW20638   0.381   1.916   0.326
 6580SOL    HW120639   0.306   1.952   0.381
 6580SOL    HW220640   0.402   1.981   0.252
 6581SOL     OW20641   2.519   0.901   0.788
 6581SOL    HW120642   2.527   0.967   0.863
 6581SOL    HW220643   2.449   0.834   0.809
 6582SOL     OW20644   0.113   1.042   3.216
 6582SOL    HW120645   0.076   1.088   3.135
 6582SOL    HW220646   0.083   0.946   3.216
 6583SOL     OW20647   4.735   6.291   5.277
 6583SOL    HW120648   4.650   6.319   5.231
 6583SOL    HW220649   4.741   6.191   5.275
 6584SOL     OW20650   4.332   1.774   7.003
 6584SOL    HW120651   4.245   1.782   0.025
 6584SOL    HW220652   4.382   1.695   0.011
 6585SOL     OW20653   6.135   5.920   0.144
 6585SOL    HW120654   6.089   5.865   0.075
 6585SOL    HW220655   6.233   5.922   0.126
 6586SOL     OW20656   6.367   1.944   5.736
 6586SOL    HW120657   6.289   2.005   5.750
 6586SOL    HW220658   6.376   1.923   5.639
 6587SOL     OW20659   1.174   4.892   6.651
 6587SOL    HW120660   1.203   4.804   6.613
 6587SOL    HW220661   1.104   4.932   6.593
 6588SOL     OW20662   0.622   2.760   1.434
 6588SOL    HW120663   0.653   2.827   1.502
 6588SOL    HW220664   0.605   2.672   1.479
 6589SOL     OW20665   4.381   0.679   2.141
 6589SOL    HW120666   4.349   0.705   2.050
 6589SOL    HW220667   4.321   0.608   2.178
 6590SOL     OW20668   0.379   1.105   6.593
 6590SOL    HW120669   0.310   1.101   6.665
 6590SOL    HW220670   0.367   1.026   6.532
 6591SOL     OW20671   5.111   5.839   3.730
 6591SOL    HW120672   5.089   5.894   3.650
 6591SOL    HW220673   5.120   5.743   3.704
 6592SOL     OW20674   5.520   6.374   2.944
 6592SOL    HW120675   5.566   6.376   3.033
 6592SOL    HW220676   5.426   6.406   2.954
 6593SOL     OW20677   2.569   2.465   2.382
 6593SOL    HW120678   2.570   2.537   2.451
 6593SOL    HW220679   2.584   2.506   2.292
 6594SOL     OW20680   3.535   1.278   5.053
 6594SOL    HW120681   3.610   1.337   5.022
 6594SOL    HW220682   3.572   1.202   5.106
 6595SOL     OW20683   0.996   4.201   6.275
 6595SOL    HW120684   0.937   4.234   6.201
 6595SOL    HW220685   1.086   4.243   6.267
 6596SOL     OW20686   3.609   0.483   4.196
 6596SOL    HW120687   3.619   0.561   4.133
 6596SOL    HW220688   3.559   0.410   4.149
 6597SOL     OW20689   1.817   4.856   1.867
 6597SOL    HW120690   1.728   4.894   1.892
 6597SOL    HW220691   1.819   4.837   1.769
 6598SOL     OW20692   1.768   4.636   3.505
 6598SOL    HW120693   1.850   4.681   3.540
 6598SOL    HW220694   1.779   4.617   3.407
 6599SOL     OW20695   4.392   6.363   6.322
 6599SOL    HW120696   4.293   6.377   6.320
 6599SOL    HW220697   4.412   6.268   6.345
 6600SOL     OW20698   3.807   6.445   5.066
 6600SOL    HW120699   3.815   6.506   5.145
 6600SOL    HW220700   3.829   6.496   4.982
 6601SOL     OW20701   0.881   2.341   4.246
 6601SOL    HW120702   0.850   2.247   4.231
 6601SOL    HW220703   0.842   2.401   4.177
 6602SOL     OW20704   1.947   0.436   1.296
 6602SOL    HW120705   2.025   0.456   1.356
 6602SOL    HW220706   1.894   0.520   1.281
 6603SOL     OW20707   0.927   2.975   3.506
 6603SOL    HW120708   0.972   2.886   3.517
 6603SOL    HW220709   0.828   2.962   3.501
 6604SOL     OW20710   1.921   6.267   1.440
 6604SOL    HW120711   1.965   6.346   1.482
 6604SOL    HW220712   1.829   6.292   1.410
 6605SOL     OW20713   5.315   5.113   2.199
 6605SOL    HW120714   5.325   5.172   2.119
 6605SOL    HW220715   5.385   5.135   2.266
 6606SOL     OW20716   6.697   5.450   2.219
 6606SOL    HW120717   6.667   5.512   2.147
 6606SOL    HW220718   6.764   5.386   2.182
 6607SOL     OW20719   1.103   4.867   3.460
 6607SOL    HW120720   1.090   4.788   3.519
 6607SOL    HW220721   1.125   4.947   3.515
 6608SOL     OW20722   0.083   6.503   6.815
 6608SOL    HW120723   0.051   6.592   6.784
 6608SOL    HW220724   0.027   6.473   6.893
 6609SOL     OW20725   5.577   1.034   0.069
 6609SOL    HW120726   5.651   0.969   0.053
 6609SOL    HW220727   5.490   0.985   0.070
 6610SOL     OW20728   2.754   6.560   0.048
 6610SOL    HW120729   2.785   6.496   7.004
 6610SOL    HW220730   2.830   6.617   0.078
 6611SOL     OW20731   4.722   2.819   3.334
 6611SOL    HW120732   4.777   2.894   3.297
 6611SOL    HW220733   4.753   2.797   3.426
 6612SOL     OW20734   6.781   2.407   6.574
 6612SOL    HW120735   6.740   2.384   6.486
 6612SOL    HW220736   6.712   2.450   6.633
 6613SOL     OW20737   6.566   6.641   5.434
 6613SOL    HW120738   6.546   6.568   5.369
 6613SOL    HW220739   6.616   6.603   5.512
 6614SOL     OW20740   4.395   6.311   6.961
 6614SOL    HW120741   4.439   6.400   6.973
 6614SOL    HW220742   4.461   6.245   6.926
 6615SOL     OW20743   1.229   5.633   1.158
 6615SOL    HW120744   1.242   5.544   1.202
 6615SOL    HW220745   1.315   5.665   1.120
 6616SOL     OW20746   4.501   0.141   6.636
 6616SOL    HW120747   4.452   0.056   6.618
 6616SOL    HW220748   4.570   0.124   6.707
 6617SOL     OW20749   4.085   5.646   3.253
 6617SOL    HW120750   4.041   5.736   3.255
 6617SOL    HW220751   4.169   5.651   3.199
 6618SOL     OW20752   2.060   1.712   2.555
 6618SOL    HW120753   2.099   1.734   2.466
 6618SOL    HW220754   1.989   1.642   2.544
 6619SOL     OW20755   5.257   0.031   4.119
 6619SOL    HW120756   5.319   7.023   4.048
 6619SOL    HW220757   5.310   0.070   4.194
 6620SOL     OW20758   2.309   3.469   5.242
 6620SOL    HW120759   2.403   3.501   5.247
 6620SOL    HW220760   2.298   3.388   5.301
 6621SOL     OW20761   3.796   3.236   5.590
 6621SOL    HW120762   3.826   3.279   5.504
 6621SOL    HW220763   3.836   3.285   5.667
 6622SOL     OW20764   5.637   6.240   2.245
 6622SOL    HW120765   5.558   6.270   2.299
 6622SOL    HW220766   5.606   6.190   2.164
 6623SOL     OW20767   4.084   3.396   5.178
 6623SOL    HW120768   4.060   3.361   5.088
 6623SOL    HW220769   4.116   3.491   5.170
 6624SOL     OW20770   0.640   4.613   5.248
 6624SOL    HW120771   0.712   4.583   5.311
 6624SOL    HW220772   0.614   4.537   5.189
 6625SOL     OW20773   5.608   1.707   4.757
 6625SOL    HW120774   5.518   1.680   4.722
 6625SOL    HW220775   5.623   1.804   4.738
 6626SOL     OW20776   3.207   0.007   5.523
 6626SOL    HW120777   3.251   6.945   5.543
 6626SOL    HW220778   3.277   0.075   5.499
 6627SOL     OW20779   1.762   6.614   3.475
 6627SOL    HW120780   1.808   6.597   3.562
 6627SOL    HW220781   1.769   6.532   3.417
 6628SOL     OW20782   5.730   5.404   4.459
 6628SOL    HW120783   5.650   5.464   4.472
 6628SOL    HW220784   5.809   5.460   4.434
 6629SOL     OW20785   4.616   5.950   6.412
 6629SOL    HW120786   4.639   5.899   6.330
 6629SOL    HW220787   4.523   5.985   6.405
 6630SOL     OW20788   3.672   1.822   1.565
 6630SOL    HW120789   3.573   1.832   1.573
 6630SOL    HW220790   3.717   1.887   1.627
 6631SOL     OW20791   2.157   6.268   3.965
 6631SOL    HW120792   2.160   6.187   3.908
 6631SOL    HW220793   2.066   6.277   4.006
 6632SOL     OW20794   0.878   0.760   0.785
 6632SOL    HW120795   0.960   0.726   0.740
 6632SOL    HW220796   0.871   0.859   0.772
 6633SOL     OW20797   1.997   5.076   6.027
 6633SOL    HW120798   2.062   5.102   5.957
 6633SOL    HW220799   1.908   5.056   5.985
 6634SOL     OW20800   5.468   1.703   5.504
 6634SOL    HW120801   5.449   1.793   5.544
 6634SOL    HW220802   5.554   1.668   5.539
 6635SOL     OW20803   5.096   4.643   3.928
 6635SOL    HW120804   5.043   4.567   3.891
 6635SOL    HW220805   5.049   4.729   3.909
 6636SOL     OW20806   4.737   1.654   0.552
 6636SOL    HW120807   4.746   1.719   0.476
 6636SOL    HW220808   4.743   1.703   0.639
 6637SOL     OW20809   1.607   6.928   6.902
 6637SOL    HW120810   1.630   6.948   6.997
 6637SOL    HW220811   1.665   6.853   6.869
 6638SOL     OW20812   2.893   3.607   3.194
 6638SOL    HW120813   2.915   3.646   3.104
 6638SOL    HW220814   2.865   3.681   3.255
 6639SOL     OW20815   4.184   4.530   7.012
 6639SOL    HW120816   4.273   4.495   0.015
 6639SOL    HW220817   4.175   4.626   0.014
 6640SOL     OW20818   6.901   1.963   5.353
 6640SOL    HW120819   6.901   1.934   5.448
 6640SOL    HW220820   6.840   2.041   5.341
 6641SOL     OW20821   3.472   1.441   6.832
 6641SOL    HW120822   3.377   1.472   6.831
 6641SOL    HW220823   3.484   1.369   6.900
 6642SOL     OW20824   2.806   6.004   6.062
 6642SOL    HW120825   2.875   5.936   6.084
 6642SOL    HW220826   2.715   5.964   6.070
 6643SOL     OW20827   5.571   6.157   0.257
 6643SOL    HW120828   5.653   6.185   0.207
 6643SOL    HW220829   5.510   6.106   0.196
 6644SOL     OW20830   2.239   5.756   1.492
 6644SOL    HW120831   2.226   5.847   1.532
 6644SOL    HW220832   2.170   5.741   1.421
 6645SOL     OW20833   5.207   3.698   0.887
 6645SOL    HW120834   5.292   3.673   0.934
 6645SOL    HW220835   5.221   3.784   0.838
 6646SOL     OW20836   5.114   1.627   5.322
 6646SOL    HW120837   5.142   1.686   5.246
 6646SOL    HW220838   5.190   1.568   5.349
 6647SOL     OW20839   4.351   0.006   0.124
 6647SOL    HW120840   4.266   0.003   0.072
 6647SOL    HW220841   4.418   0.061   0.073
 6648SOL     OW20842   3.146   6.836   4.630
 6648SOL    HW120843   3.117   6.746   4.661
 6648SOL    HW220844   3.220   6.869   4.688
 6649SOL     OW20845   6.010   1.755   5.869
 6649SOL    HW120846   6.098   1.710   5.878
 6649SOL    HW220847   6.023   1.854   5.862
 6650SOL     OW20848   3.979   1.647   5.336
 6650SOL    HW120849   4.010   1.700   5.258
 6650SOL    HW220850   4.017   1.685   5.420
 6651SOL     OW20851   1.591   1.126   5.796
 6651SOL    HW120852   1.641   1.146   5.879
 6651SOL    HW220853   1.501   1.088   5.819
 6652SOL     OW20854   0.104   4.656   6.822
 6652SOL    HW120855   0.112   4.730   6.756
 6652SOL    HW220856   0.141   4.571   6.783
 6653SOL     OW20857   4.208   3.130   1.378
 6653SOL    HW120858   4.216   3.197   1.304
 6653SOL    HW220859   4.290   3.072   1.380
 6654SOL     OW20860   1.452   5.304   1.577
 6654SOL    HW120861   1.472   5.327   1.672
 6654SOL    HW220862   1.376   5.239   1.573
 6655SOL     OW20863   6.649   6.400   3.082
 6655SOL    HW120864   6.549   6.409   3.079
 6655SOL    HW220865   6.680   6.351   3.000
 6656SOL     OW20866   5.954   1.726   2.679
 6656SOL    HW120867   6.010   1.746   2.760
 6656SOL    HW220868   5.979   1.636   2.643
 6657SOL     OW20869   6.252   3.743   4.889
 6657SOL    HW120870   6.266   3.648   4.918
 6657SOL    HW220871   6.154   3.762   4.884
 6658SOL     OW20872   5.310   0.551   5.239
 6658SOL    HW120873   5.255   0.484   5.190
 6658SOL    HW220874   5.282   0.555   5.335
 6659SOL     OW20875   2.310   2.941   1.406
 6659SOL    HW120876   2.292   2.916   1.501
 6659SOL    HW220877   2.234   2.994   1.370
 6660SOL     OW20878   1.409   4.830   1.615
 6660SOL    HW120879   1.409   4.733   1.591
 6660SOL    HW220880   1.440   4.884   1.536
 6661SOL     OW20881   2.477   0.229   5.283
 6661SOL    HW120882   2.499   0.233   5.185
 6661SOL    HW220883   2.561   0.226   5.336
 6662SOL     OW20884   1.572   1.198   0.335
 6662SOL    HW120885   1.507   1.122   0.326
 6662SOL    HW220886   1.608   1.201   0.428
 6663SOL     OW20887   6.762   6.648   4.824
 6663SOL    HW120888   6.705   6.707   4.880
 6663SOL    HW220889   6.859   6.670   4.839
 6664SOL     OW20890   1.860   6.738   0.655
 6664SOL    HW120891   1.945   6.690   0.678
 6664SOL    HW220892   1.882   6.823   0.608
 6665SOL     OW20893   1.630   6.542   4.580
 6665SOL    HW120894   1.576   6.577   4.656
 6665SOL    HW220895   1.698   6.610   4.553
 6666SOL     OW20896   6.549   6.023   5.630
 6666SOL    HW120897   6.453   5.997   5.621
 6666SOL    HW220898   6.605   5.962   5.573
 6667SOL     OW20899   0.003   6.679   5.563
 6667SOL    HW120900   7.017   6.652   5.467
 6667SOL    HW220901   0.050   6.606   5.613
 6668SOL     OW20902   6.259   6.033   0.975
 6668SOL    HW120903   6.188   6.082   1.026
 6668SOL    HW220904   6.287   6.087   0.896
 6669SOL     OW20905   2.751   2.121   1.912
 6669SOL    HW120906   2.797   2.208   1.930
 6669SOL    HW220907   2.725   2.116   1.816
 6670SOL     OW20908   3.222   1.254   5.390
 6670SOL    HW120909   3.242   1.160   5.418
 6670SOL    HW220910   3.236   1.316   5.468
 6671SOL     OW20911   4.650   6.975   0.308
 6671SOL    HW120912   4.613   6.911   0.375
 6671SOL    HW220913   4.699   6.925   0.237
 6672SOL     OW20914   6.534   1.712   0.589
 6672SOL    HW120915   6.515   1.644   0.519
 6672SOL    HW220916   6.480   1.691   0.671
 6673SOL     OW20917   4.855   4.509   4.065
 6673SOL    HW120918   4.823   4.415   4.078
 6673SOL    HW220919   4.866   4.527   3.968
 6674SOL     OW20920   6.886   4.231   0.302
 6674SOL    HW120921   6.964   4.264   0.355
 6674SOL    HW220922   6.801   4.266   0.343
 6675SOL     OW20923   6.020   3.082   0.301
 6675SOL    HW120924   5.931   3.100   0.260
 6675SOL    HW220925   6.083   3.157   0.281
 6676SOL     OW20926   0.552   3.822   5.141
 6676SOL    HW120927   0.607   3.757   5.089
 6676SOL    HW220928   0.550   3.793   5.237
 6677SOL     OW20929   0.681   1.476   6.332
 6677SOL    HW120930   0.743   1.448   6.258
 6677SOL    HW220931   0.587   1.451   6.308
 6678SOL     OW20932   3.020   3.926   0.673
 6678SOL    HW120933   3.003   3.930   0.575
 6678SOL    HW220934   3.016   4.018   0.712
 6679SOL     OW20935   3.842   0.229   4.047
 6679SOL    HW120936   3.785   0.292   3.995
 6679SOL    HW220937   3.930   0.272   4.066
 6680SOL     OW20938   4.642   6.815   6.514
 6680SOL    HW120939   4.701   6.797   6.593
 6680SOL    HW220940   4.639   6.913   6.497
 6681SOL     OW20941   4.593   5.769   0.619
 6681SOL    HW120942   4.603   5.695   0.553
 6681SOL    HW220943   4.537   5.841   0.579
 6682SOL     OW20944   2.090   5.000   0.206
 6682SOL    HW120945   2.025   5.048   0.266
 6682SOL    HW220946   2.155   5.066   0.169
 6683SOL     OW20947   6.000   3.342   5.436
 6683SOL    HW120948   5.978   3.305   5.346
 6683SOL    HW220949   5.958   3.285   5.507
 6684SOL     OW20950   3.970   6.385   2.698
 6684SOL    HW120951   4.036   6.317   2.665
 6684SOL    HW220952   3.887   6.380   2.643
 6685SOL     OW20953   4.268   3.242   6.377
 6685SOL    HW120954   4.285   3.332   6.418
 6685SOL    HW220955   4.352   3.209   6.334
 6686SOL     OW20956   5.286   5.534   4.402
 6686SOL    HW120957   5.343   5.452   4.410
 6686SOL    HW220958   5.195   5.516   4.440
 6687SOL     OW20959   0.898   3.396   1.998
 6687SOL    HW120960   0.955   3.376   2.077
 6687SOL    HW220961   0.848   3.314   1.971
 6688SOL     OW20962   4.365   4.751   1.338
 6688SOL    HW120963   4.433   4.762   1.411
 6688SOL    HW220964   4.290   4.815   1.354
 6689SOL     OW20965   5.109   4.112   5.621
 6689SOL    HW120966   5.069   4.154   5.540
 6689SOL    HW220967   5.036   4.084   5.683
 6690SOL     OW20968   0.495   0.176   0.514
 6690SOL    HW120969   0.419   0.110   0.519
 6690SOL    HW220970   0.568   0.148   0.576
 6691SOL     OW20971   2.062   0.345   2.432
 6691SOL    HW120972   2.023   0.392   2.511
 6691SOL    HW220973   2.118   0.269   2.463
 6692SOL     OW20974   3.954   3.858   3.442
 6692SOL    HW120975   3.889   3.852   3.518
 6692SOL    HW220976   4.045   3.829   3.473
 6693SOL     OW20977   4.343   2.229   5.183
 6693SOL    HW120978   4.389   2.157   5.132
 6693SOL    HW220979   4.270   2.268   5.126
 6694SOL     OW20980   4.218   5.921   1.422
 6694SOL    HW120981   4.311   5.939   1.455
 6694SOL    HW220982   4.151   5.964   1.482
 6695SOL     OW20983   2.870   2.438   6.025
 6695SOL    HW120984   2.895   2.476   6.114
 6695SOL    HW220985   2.804   2.364   6.038
 6696SOL     OW20986   3.791   3.011   4.338
 6696SOL    HW120987   3.749   3.096   4.304
 6696SOL    HW220988   3.861   3.033   4.405
 6697SOL     OW20989   4.931   1.859   3.123
 6697SOL    HW120990   4.963   1.920   3.050
 6697SOL    HW220991   4.972   1.885   3.210
 6698SOL     OW20992   3.038   2.523   0.878
 6698SOL    HW120993   3.123   2.533   0.930
 6698SOL    HW220994   3.004   2.429   0.888
 6699SOL     OW20995   2.167   6.157   5.441
 6699SOL    HW120996   2.143   6.115   5.528
 6699SOL    HW220997   2.254   6.120   5.409
 6700SOL     OW20998   0.090   1.791   1.217
 6700SOL    HW120999   0.010   1.850   1.205
 6700SOL    HW221000   0.102   1.735   1.135
 6701SOL     OW21001   5.646   5.175   1.638
 6701SOL    HW121002   5.564   5.119   1.645
 6701SOL    HW221003   5.642   5.229   1.554
 6702SOL     OW21004   1.858   2.306   1.041
 6702SOL    HW121005   1.851   2.223   0.986
 6702SOL    HW221006   1.953   2.321   1.068
 6703SOL     OW21007   6.732   0.034   0.906
 6703SOL    HW121008   6.716   7.013   0.993
 6703SOL    HW221009   6.823   0.076   0.907
 6704SOL     OW21010   4.065   2.234   3.053
 6704SOL    HW121011   4.019   2.146   3.068
 6704SOL    HW221012   4.085   2.244   2.956
 6705SOL     OW21013   6.122   2.966   0.542
 6705SOL    HW121014   6.217   2.998   0.545
 6705SOL    HW221015   6.084   2.984   0.452
 6706SOL     OW21016   0.530   5.702   1.292
 6706SOL    HW121017   0.497   5.764   1.220
 6706SOL    HW221018   0.624   5.726   1.315
 6707SOL     OW21019   5.842   6.711   3.417
 6707SOL    HW121020   5.901   6.631   3.420
 6707SOL    HW221021   5.763   6.691   3.359
 6708SOL     OW21022   5.317   5.479   0.976
 6708SOL    HW121023   5.387   5.465   1.046
 6708SOL    HW221024   5.249   5.405   0.980
 6709SOL     OW21025   1.311   6.006   2.884
 6709SOL    HW121026   1.288   6.101   2.862
 6709SOL    HW221027   1.369   6.004   2.966
 6710SOL     OW21028   3.319   0.951   6.260
 6710SOL    HW121029   3.268   1.007   6.195
 6710SOL    HW221030   3.355   1.009   6.333
 6711SOL     OW21031   5.459   6.535   5.334
 6711SOL    HW121032   5.484   6.514   5.428
 6711SOL    HW221033   5.495   6.625   5.309
 6712SOL     OW21034   5.408   3.418   1.172
 6712SOL    HW121035   5.498   3.454   1.195
 6712SOL    HW221036   5.404   3.397   1.075
 6713SOL     OW21037   1.257   1.057   3.187
 6713SOL    HW121038   1.170   1.057   3.237
 6713SOL    HW221039   1.306   1.142   3.207
 6714SOL     OW21040   6.775   1.462   6.611
 6714SOL    HW121041   6.849   1.439   6.675
 6714SOL    HW221042   6.751   1.558   6.622
 6715SOL     OW21043   1.919   0.588   0.913
 6715SOL    HW121044   2.005   0.544   0.887
 6715SOL    HW221045   1.866   0.526   0.972
 6716SOL     OW21046   0.148   5.774   1.748
 6716SOL    HW121047   0.140   5.684   1.791
 6716SOL    HW221048   0.244   5.798   1.738
 6717SOL     OW21049   3.104   2.978   6.468
 6717SOL    HW121050   3.191   2.982   6.419
 6717SOL    HW221051   3.057   3.066   6.458
 6718SOL     OW21052   4.625   6.891   0.873
 6718SOL    HW121053   4.706   6.848   0.913
 6718SOL    HW221054   4.570   6.932   0.947
 6719SOL     OW21055   2.913   6.853   0.428
 6719SOL    HW121056   2.911   6.949   0.399
 6719SOL    HW221057   2.821   6.826   0.458
 6720SOL     OW21058   2.012   0.723   3.455
 6720SOL    HW121059   2.105   0.761   3.458
 6720SOL    HW221060   2.004   0.662   3.376
 6721SOL     OW21061   6.902   6.386   0.266
 6721SOL    HW121062   6.957   6.360   0.345
 6721SOL    HW221063   6.830   6.449   0.295
 6722SOL     OW21064   6.425   2.584   0.505
 6722SOL    HW121065   6.326   2.588   0.506
 6722SOL    HW221066   6.456   2.515   0.571
 6723SOL     OW21067   1.293   0.191   4.734
 6723SOL    HW121068   1.267   0.238   4.818
 6723SOL    HW221069   1.377   0.230   4.698
 6724SOL     OW21070   2.071   3.470   6.368
 6724SOL    HW121071   2.127   3.388   6.382
 6724SOL    HW221072   2.105   3.544   6.425
 6725SOL     OW21073   6.437   1.999   1.479
 6725SOL    HW121074   6.433   1.951   1.392
 6725SOL    HW221075   6.462   2.094   1.463
 6726SOL     OW21076   0.852   2.919   4.070
 6726SOL    HW121077   0.811   2.939   4.159
 6726SOL    HW221078   0.894   2.828   4.072
 6727SOL     OW21079   0.461   4.809   5.577
 6727SOL    HW121080   0.406   4.791   5.659
 6727SOL    HW221081   0.536   4.743   5.572
 6728SOL     OW21082   4.107   2.246   2.791
 6728SOL    HW121083   4.136   2.296   2.709
 6728SOL    HW221084   4.165   2.165   2.802
 6729SOL     OW21085   6.870   0.664   0.361
 6729SOL    HW121086   6.910   0.651   0.452
 6729SOL    HW221087   6.914   0.601   0.296
 6730SOL     OW21088   1.750   6.590   1.508
 6730SOL    HW121089   1.833   6.554   1.551
 6730SOL    HW221090   1.769   6.607   1.411
 6731SOL     OW21091   1.282   6.439   1.299
 6731SOL    HW121092   1.348   6.494   1.248
 6731SOL    HW221093   1.261   6.356   1.248
 6732SOL     OW21094   6.077   4.280   4.333
 6732SOL    HW121095   6.119   4.360   4.290
 6732SOL    HW221096   6.082   4.202   4.270
 6733SOL     OW21097   3.706   5.619   6.731
 6733SOL    HW121098   3.635   5.680   6.697
 6733SOL    HW221099   3.742   5.564   6.656
 6734SOL     OW21100   6.308   2.191   4.757
 6734SOL    HW121101   6.406   2.199   4.736
 6734SOL    HW221102   6.255   2.229   4.681
 6735SOL     OW21103   6.577   3.482   4.528
 6735SOL    HW121104   6.521   3.539   4.468
 6735SOL    HW221105   6.625   3.413   4.474
 6736SOL     OW21106   2.819   3.046   6.689
 6736SOL    HW121107   2.806   3.040   6.788
 6736SOL    HW221108   2.817   3.141   6.660
 6737SOL     OW21109   1.760   3.217   1.183
 6737SOL    HW121110   1.778   3.142   1.246
 6737SOL    HW221111   1.834   3.284   1.188
 6738SOL     OW21112   1.564   5.921   3.336
 6738SOL    HW121113   1.540   5.950   3.244
 6738SOL    HW221114   1.531   5.988   3.402
 6739SOL     OW21115   4.939   6.506   4.128
 6739SOL    HW121116   4.968   6.443   4.057
 6739SOL    HW221117   4.957   6.600   4.099
 6740SOL     OW21118   6.868   6.957   5.716
 6740SOL    HW121119   6.875   0.031   5.716
 6740SOL    HW221120   6.957   6.917   5.734
 6741SOL     OW21121   3.443   2.781   5.554
 6741SOL    HW121122   3.345   2.760   5.562
 6741SOL    HW221123   3.485   2.774   5.645
 6742SOL     OW21124   5.758   5.606   3.130
 6742SOL    HW121125   5.819   5.602   3.050
 6742SOL    HW221126   5.789   5.677   3.193
 6743SOL     OW21127   3.660   4.814   6.260
 6743SOL    HW121128   3.664   4.812   6.360
 6743SOL    HW221129   3.668   4.721   6.224
 6744SOL     OW21130   6.644   4.932   5.517
 6744SOL    HW121131   6.706   4.896   5.447
 6744SOL    HW221132   6.692   4.999   5.573
 6745SOL     OW21133   0.154   6.767   3.495
 6745SOL    HW121134   0.250   6.795   3.487
 6745SOL    HW221135   0.120   6.795   3.585
 6746SOL     OW21136   0.677   0.753   3.704
 6746SOL    HW121137   0.651   0.849   3.695
 6746SOL    HW221138   0.776   0.743   3.691
 6747SOL     OW21139   5.615   1.600   6.229
 6747SOL    HW121140   5.711   1.622   6.244
 6747SOL    HW221141   5.592   1.515   6.276
 6748SOL     OW21142   3.676   1.606   3.241
 6748SOL    HW121143   3.735   1.620   3.321
 6748SOL    HW221144   3.732   1.579   3.163
 6749SOL     OW21145   3.686   4.232   0.688
 6749SOL    HW121146   3.641   4.304   0.741
 6749SOL    HW221147   3.650   4.143   0.716
 6750SOL     OW21148   3.574   2.114   4.334
 6750SOL    HW121149   3.543   2.209   4.329
 6750SOL    HW221150   3.641   2.104   4.408
 6751SOL     OW21151   5.193   0.102   3.491
 6751SOL    HW121152   5.278   0.135   3.531
 6751SOL    HW221153   5.210   0.016   3.442
 6752SOL     OW21154   2.264   7.011   3.172
 6752SOL    HW121155   2.168   6.985   3.182
 6752SOL    HW221156   2.302   6.967   3.091
 6753SOL     OW21157   3.274   1.061   5.917
 6753SOL    HW121158   3.191   1.045   5.863
 6753SOL    HW221159   3.256   1.135   5.982
 6754SOL     OW21160   0.198   0.681   0.658
 6754SOL    HW121161   0.252   0.740   0.718
 6754SOL    HW221162   0.242   0.591   0.652
 6755SOL     OW21163   4.306   2.012   2.054
 6755SOL    HW121164   4.391   2.053   2.021
 6755SOL    HW221165   4.250   1.984   1.975
 6756SOL     OW21166   3.684   6.198   4.664
 6756SOL    HW121167   3.640   6.253   4.735
 6756SOL    HW221168   3.650   6.104   4.669
 6757SOL     OW21169   2.800   2.600   0.372
 6757SOL    HW121170   2.781   2.687   0.325
 6757SOL    HW221171   2.809   2.617   0.470
 6758SOL     OW21172   5.931   2.098   2.000
 6758SOL    HW121173   5.972   2.186   1.977
 6758SOL    HW221174   6.001   2.026   1.994
 6759SOL     OW21175   1.314   3.825   3.171
 6759SOL    HW121176   1.217   3.804   3.179
 6759SOL    HW221177   1.367   3.742   3.185
 6760SOL     OW21178   6.971   3.381   2.584
 6760SOL    HW121179   6.936   3.466   2.543
 6760SOL    HW221180   6.905   3.348   2.651
 6761SOL     OW21181   6.866   2.458   5.495
 6761SOL    HW121182   6.808   2.534   5.525
 6761SOL    HW221183   6.810   2.377   5.480
 6762SOL     OW21184   1.017   4.378   4.917
 6762SOL    HW121185   1.104   4.381   4.965
 6762SOL    HW221186   1.008   4.460   4.860
 6763SOL     OW21187   6.398   5.744   3.910
 6763SOL    HW121188   6.486   5.698   3.907
 6763SOL    HW221189   6.396   5.809   3.986
 6764SOL     OW21190   1.812   5.332   1.264
 6764SOL    HW121191   1.771   5.271   1.195
 6764SOL    HW221192   1.849   5.413   1.219
 6765SOL     OW21193   5.709   5.039   3.892
 6765SOL    HW121194   5.790   5.042   3.951
 6765SOL    HW221195   5.698   4.947   3.854
 6766SOL     OW21196   4.736   6.752   5.617
 6766SOL    HW121197   4.704   6.748   5.522
 6766SOL    HW221198   4.799   6.829   5.627
 6767SOL     OW21199   1.981   1.220   0.730
 6767SOL    HW121200   1.932   1.227   0.817
 6767SOL    HW221201   2.006   1.124   0.713
 6768SOL     OW21202   1.560   0.320   4.699
 6768SOL    HW121203   1.608   0.407   4.712
 6768SOL    HW221204   1.586   0.256   4.771
 6769SOL     OW21205   2.690   1.081   6.368
 6769SOL    HW121206   2.750   1.005   6.343
 6769SOL    HW221207   2.597   1.063   6.335
 6770SOL     OW21208   6.748   1.074   3.264
 6770SOL    HW121209   6.752   1.021   3.180
 6770SOL    HW221210   6.660   1.122   3.269
 6771SOL     OW21211   4.645   1.901   3.583
 6771SOL    HW121212   4.554   1.943   3.588
 6771SOL    HW221213   4.692   1.934   3.501
 6772SOL     OW21214   4.314   2.323   2.570
 6772SOL    HW121215   4.367   2.396   2.527
 6772SOL    HW221216   4.363   2.236   2.562
 6773SOL     OW21217   6.351   5.247   2.354
 6773SOL    HW121218   6.323   5.235   2.259
 6773SOL    HW221219   6.381   5.341   2.368
 6774SOL     OW21220   1.153   3.673   5.130
 6774SOL    HW121221   1.220   3.636   5.194
 6774SOL    HW221222   1.066   3.686   5.177
 6775SOL     OW21223   2.650   2.406   2.100
 6775SOL    HW121224   2.737   2.397   2.052
 6775SOL    HW221225   2.604   2.317   2.100
 6776SOL     OW21226   5.054   4.060   6.793
 6776SOL    HW121227   5.016   4.133   6.736
 6776SOL    HW221228   5.099   3.992   6.735
 6777SOL     OW21229   4.934   4.699   0.714
 6777SOL    HW121230   4.852   4.747   0.685
 6777SOL    HW221231   5.004   4.764   0.742
 6778SOL     OW21232   5.855   5.438   2.042
 6778SOL    HW121233   5.766   5.393   2.039
 6778SOL    HW221234   5.905   5.407   2.123
 6779SOL     OW21235   5.668   5.121   0.033
 6779SOL    HW121236   5.751   5.157   0.077
 6779SOL    HW221237   5.589   5.139   0.092
 6780SOL     OW21238   1.364   2.619   2.114
 6780SOL    HW121239   1.313   2.690   2.065
 6780SOL    HW221240   1.337   2.618   2.210
 6781SOL     OW21241   6.740   2.085   4.349
 6781SOL    HW121242   6.746   2.070   4.250
 6781SOL    HW221243   6.645   2.075   4.378
 6782SOL     OW21244   0.156   0.630   2.904
 6782SOL    HW121245   0.151   0.530   2.892
 6782SOL    HW221246   0.116   0.675   2.825
 6783SOL     OW21247   6.181   1.386   5.296
 6783SOL    HW121248   6.106   1.331   5.258
 6783SOL    HW221249   6.250   1.403   5.226
 6784SOL     OW21250   1.687   3.193   0.645
 6784SOL    HW121251   1.612   3.247   0.608
 6784SOL    HW221252   1.668   3.095   0.633
 6785SOL     OW21253   5.704   5.708   4.341
 6785SOL    HW121254   5.799   5.734   4.360
 6785SOL    HW221255   5.703   5.623   4.287
 6786SOL     OW21256   1.922   2.239   0.039
 6786SOL    HW121257   1.891   2.310   7.001
 6786SOL    HW221258   1.951   2.159   7.013
 6787SOL     OW21259   2.167   2.788   0.100
 6787SOL    HW121260   2.222   2.810   0.180
 6787SOL    HW221261   2.073   2.767   0.128
 6788SOL     OW21262   0.987   4.215   1.550
 6788SOL    HW121263   0.893   4.185   1.533
 6788SOL    HW221264   1.010   4.201   1.646
 6789SOL     OW21265   0.131   5.203   2.541
 6789SOL    HW121266   0.040   5.228   2.573
 6789SOL    HW221267   0.184   5.164   2.617
 6790SOL     OW21268   0.186   3.593   1.152
 6790SOL    HW121269   0.141   3.660   1.093
 6790SOL    HW221270   0.248   3.639   1.215
 6791SOL     OW21271   3.964   1.951   2.082
 6791SOL    HW121272   4.011   2.037   2.067
 6791SOL    HW221273   3.886   1.966   2.144
 6792SOL     OW21274   6.106   6.845   4.835
 6792SOL    HW121275   6.058   6.880   4.755
 6792SOL    HW221276   6.205   6.852   4.821
 6793SOL     OW21277   1.872   1.883   0.620
 6793SOL    HW121278   1.966   1.878   0.652
 6793SOL    HW221279   1.834   1.974   0.641
 6794SOL     OW21280   4.331   1.225   5.786
 6794SOL    HW121281   4.330   1.277   5.700
 6794SOL    HW221282   4.376   1.279   5.857
 6795SOL     OW21283   2.600   6.502   0.598
 6795SOL    HW121284   2.503   6.502   0.623
 6795SOL    HW221285   2.623   6.416   0.553
 6796SOL     OW21286   6.610   0.209   2.569
 6796SOL    HW121287   6.583   0.304   2.553
 6796SOL    HW221288   6.602   0.157   2.484
 6797SOL     OW21289   6.718   1.899   1.772
 6797SOL    HW121290   6.747   1.850   1.690
 6797SOL    HW221291   6.668   1.981   1.747
 6798SOL     OW21292   5.374   7.009   2.348
 6798SOL    HW121293   5.442   6.935   2.352
 6798SOL    HW221294   5.296   6.979   2.293
 6799SOL     OW21295   6.696   6.780   2.102
 6799SOL    HW121296   6.717   6.718   2.026
 6799SOL    HW221297   6.621   6.742   2.156
 6800SOL     OW21298   2.060   3.645   2.212
 6800SOL    HW121299   2.121   3.584   2.162
 6800SOL    HW221300   2.063   3.623   2.309
 6801SOL     OW21301   0.939   0.218   2.770
 6801SOL    HW121302   1.033   0.206   2.800
 6801SOL    HW221303   0.877   0.199   2.846
 6802SOL     OW21304   3.000   5.963   1.289
 6802SOL    HW121305   2.916   5.950   1.236
 6802SOL    HW221306   3.020   5.880   1.341
 6803SOL     OW21307   4.712   3.127   5.376
 6803SOL    HW121308   4.763   3.183   5.309
 6803SOL    HW221309   4.627   3.096   5.335
 6804SOL     OW21310   3.589   5.179   3.540
 6804SOL    HW121311   3.570   5.276   3.524
 6804SOL    HW221312   3.688   5.163   3.532
 6805SOL     OW21313   0.391   4.922   6.489
 6805SOL    HW121314   0.402   4.994   6.421
 6805SOL    HW221315   0.324   4.856   6.457
 6806SOL     OW21316   6.028   0.776   3.578
 6806SOL    HW121317   6.104   0.713   3.588
 6806SOL    HW221318   5.960   0.736   3.516
 6807SOL     OW21319   3.215   3.471   1.367
 6807SOL    HW121320   3.276   3.392   1.365
 6807SOL    HW221321   3.269   3.555   1.370
 6808SOL     OW21322   0.046   2.382   5.660
 6808SOL    HW121323   6.996   2.418   5.605
 6808SOL    HW221324   0.012   2.360   5.751
 6809SOL     OW21325   0.874   3.088   1.206
 6809SOL    HW121326   0.838   3.165   1.154
 6809SOL    HW221327   0.969   3.104   1.229
 6810SOL     OW21328   1.599   1.129   2.931
 6810SOL    HW121329   1.676   1.190   2.912
 6810SOL    HW221330   1.615   1.080   3.016
 6811SOL     OW21331   5.839   3.387   1.365
 6811SOL    HW121332   5.881   3.322   1.429
 6811SOL    HW221333   5.793   3.336   1.292
 6812SOL     OW21334   2.981   3.607   4.647
 6812SOL    HW121335   2.959   3.671   4.720
 6812SOL    HW221336   2.959   3.514   4.677
 6813SOL     OW21337   5.051   2.553   2.441
 6813SOL    HW121338   5.059   2.628   2.507
 6813SOL    HW221339   5.073   2.466   2.486
 6814SOL     OW21340   3.515   1.645   6.120
 6814SOL    HW121341   3.611   1.616   6.121
 6814SOL    HW221342   3.484   1.660   6.214
 6815SOL     OW21343   3.575   6.469   1.272
 6815SOL    HW121344   3.561   6.427   1.361
 6815SOL    HW221345   3.533   6.560   1.271
 6816SOL     OW21346   6.660   6.948   6.354
 6816SOL    HW121347   6.712   0.007   6.351
 6816SOL    HW221348   6.675   6.903   6.442
 6817SOL     OW21349   2.561   2.474   3.317
 6817SOL    HW121350   2.569   2.504   3.222
 6817SOL    HW221351   2.648   2.436   3.347
 6818SOL     OW21352   2.581   6.224   1.913
 6818SOL    HW121353   2.498   6.225   1.857
 6818SOL    HW221354   2.649   6.285   1.873
 6819SOL     OW21355   5.085   1.981   3.435
 6819SOL    HW121356   5.033   1.976   3.520
 6819SOL    HW221357   5.150   1.905   3.431
 6820SOL     OW21358   2.287   5.777   2.442
 6820SOL    HW121359   2.341   5.771   2.526
 6820SOL    HW221360   2.259   5.686   2.413
 6821SOL     OW21361   3.746   2.093   4.758
 6821SOL    HW121362   3.831   2.102   4.809
 6821SOL    HW221363   3.746   2.156   4.680
 6822SOL     OW21364   5.190   2.697   6.161
 6822SOL    HW121365   5.140   2.773   6.120
 6822SOL    HW221366   5.143   2.611   6.141
 6823SOL     OW21367   4.386   3.317   5.413
 6823SOL    HW121368   4.367   3.237   5.356
 6823SOL    HW221369   4.300   3.358   5.442
 6824SOL     OW21370   1.204   2.058   0.565
 6824SOL    HW121371   1.185   2.064   0.467
 6824SOL    HW221372   1.290   2.009   0.579
 6825SOL     OW21373   5.003   6.572   1.111
 6825SOL    HW121374   4.966   6.651   1.063
 6825SOL    HW221375   4.933   6.534   1.172
 6826SOL     OW21376   1.706   3.384   3.095
 6826SOL    HW121377   1.695   3.308   3.031
 6826SOL    HW221378   1.666   3.359   3.184
 6827SOL     OW21379   4.535   5.585   6.415
 6827SOL    HW121380   4.628   5.588   6.452
 6827SOL    HW221381   4.475   5.538   6.480
 6828SOL     OW21382   3.213   1.725   1.766
 6828SOL    HW121383   3.175   1.776   1.843
 6828SOL    HW221384   3.226   1.630   1.792
 6829SOL     OW21385   4.810   6.012   5.677
 6829SOL    HW121386   4.745   5.963   5.735
 6829SOL    HW221387   4.760   6.064   5.607
 6830SOL     OW21388   5.000   1.044   3.547
 6830SOL    HW121389   5.095   1.012   3.552
 6830SOL    HW221390   4.964   1.053   3.640
 6831SOL     OW21391   1.374   0.493   6.777
 6831SOL    HW121392   1.414   0.514   6.688
 6831SOL    HW221393   1.332   0.402   6.773
 6832SOL     OW21394   2.493   3.515   0.797
 6832SOL    HW121395   2.404   3.527   0.753
 6832SOL    HW221396   2.497   3.570   0.880
 6833SOL     OW21397   3.095   4.666   6.223
 6833SOL    HW121398   3.028   4.633   6.289
 6833SOL    HW221399   3.080   4.763   6.206
 6834SOL     OW21400   4.444   6.389   0.979
 6834SOL    HW121401   4.502   6.309   0.963
 6834SOL    HW221402   4.421   6.431   0.892
 6835SOL     OW21403   3.744   0.918   4.388
 6835SOL    HW121404   3.662   0.895   4.440
 6835SOL    HW221405   3.755   1.018   4.386
 6836SOL     OW21406   2.437   4.674   0.465
 6836SOL    HW121407   2.489   4.715   0.539
 6836SOL    HW221408   2.411   4.581   0.490
 6837SOL     OW21409   0.635   1.836   2.046
 6837SOL    HW121410   0.640   1.764   2.115
 6837SOL    HW221411   0.626   1.795   1.955
 6838SOL     OW21412   3.350   6.227   0.160
 6838SOL    HW121413   3.399   6.163   0.101
 6838SOL    HW221414   3.381   6.217   0.254
 6839SOL     OW21415   5.805   1.000   6.684
 6839SOL    HW121416   5.875   0.984   6.754
 6839SOL    HW221417   5.745   0.920   6.678
 6840SOL     OW21418   3.566   1.003   4.867
 6840SOL    HW121419   3.511   1.011   4.950
 6840SOL    HW221420   3.524   0.937   4.805
 6841SOL     OW21421   4.188   4.543   6.751
 6841SOL    HW121422   4.277   4.532   6.708
 6841SOL    HW221423   4.195   4.527   6.849
 6842SOL     OW21424   2.869   4.138   0.902
 6842SOL    HW121425   2.807   4.061   0.920
 6842SOL    HW221426   2.962   4.113   0.931
 6843SOL     OW21427   6.329   6.404   1.407
 6843SOL    HW121428   6.290   6.316   1.436
 6843SOL    HW221429   6.391   6.389   1.330
 6844SOL     OW21430   5.146   0.771   3.726
 6844SOL    HW121431   5.053   0.735   3.736
 6844SOL    HW221432   5.188   0.732   3.644
 6845SOL     OW21433   6.429   4.005   2.753
 6845SOL    HW121434   6.349   4.022   2.695
 6845SOL    HW221435   6.513   4.022   2.700
 6846SOL     OW21436   3.691   2.920   0.015
 6846SOL    HW121437   3.685   2.884   6.948
 6846SOL    HW221438   3.600   2.926   0.055
 6847SOL     OW21439   0.371   3.079   4.207
 6847SOL    HW121440   0.305   3.119   4.144
 6847SOL    HW221441   0.360   2.980   4.208
 6848SOL     OW21442   4.919   5.856   3.953
 6848SOL    HW121443   4.982   5.873   4.029
 6848SOL    HW221444   4.971   5.839   3.870
 6849SOL     OW21445   4.195   5.088   5.354
 6849SOL    HW121446   4.154   5.046   5.273
 6849SOL    HW221447   4.218   5.183   5.335
 6850SOL     OW21448   5.762   4.197   2.199
 6850SOL    HW121449   5.847   4.165   2.156
 6850SOL    HW221450   5.689   4.196   2.131
 6851SOL     OW21451   0.425   1.714   2.916
 6851SOL    HW121452   0.351   1.702   2.982
 6851SOL    HW221453   0.397   1.779   2.846
 6852SOL     OW21454   2.476   4.264   1.264
 6852SOL    HW121455   2.575   4.253   1.254
 6852SOL    HW221456   2.435   4.281   1.175
 6853SOL     OW21457   5.600   4.880   6.960
 6853SOL    HW121458   5.614   4.967   7.009
 6853SOL    HW221459   5.552   4.816   7.019
 6854SOL     OW21460   4.819   0.992   6.099
 6854SOL    HW121461   4.800   1.013   6.003
 6854SOL    HW221462   4.741   0.943   6.138
 6855SOL     OW21463   4.181   6.381   3.911
 6855SOL    HW121464   4.252   6.350   3.848
 6855SOL    HW221465   4.133   6.459   3.871
 6856SOL     OW21466   6.796   2.799   4.878
 6856SOL    HW121467   6.775   2.871   4.944
 6856SOL    HW221468   6.853   2.729   4.920
 6857SOL     OW21469   3.019   2.121   6.460
 6857SOL    HW121470   3.080   2.044   6.475
 6857SOL    HW221471   3.028   2.153   6.366
 6858SOL     OW21472   4.156   3.650   3.068
 6858SOL    HW121473   4.236   3.709   3.084
 6858SOL    HW221474   4.095   3.656   3.147
 6859SOL     OW21475   1.063   1.592   0.863
 6859SOL    HW121476   1.088   1.666   0.800
 6859SOL    HW221477   0.982   1.619   0.915
 6860SOL     OW21478   6.612   5.022   1.192
 6860SOL    HW121479   6.594   5.103   1.137
 6860SOL    HW221480   6.711   5.006   1.197
 6861SOL     OW21481   4.042   5.021   0.237
 6861SOL    HW121482   4.024   5.113   0.201
 6861SOL    HW221483   3.959   4.966   0.232
 6862SOL     OW21484   1.587   5.195   5.878
 6862SOL    HW121485   1.493   5.191   5.910
 6862SOL    HW221486   1.590   5.186   5.779
 6863SOL     OW21487   5.156   6.565   5.984
 6863SOL    HW121488   5.071   6.610   5.959
 6863SOL    HW221489   5.220   6.632   6.021
 6864SOL     OW21490   2.508   4.592   4.737
 6864SOL    HW121491   2.418   4.556   4.762
 6864SOL    HW221492   2.534   4.558   4.647
 6865SOL     OW21493   0.842   6.227   4.484
 6865SOL    HW121494   0.941   6.211   4.487
 6865SOL    HW221495   0.815   6.287   4.558
 6866SOL     OW21496   5.902   5.201   3.484
 6866SOL    HW121497   5.992   5.157   3.487
 6866SOL    HW221498   5.861   5.189   3.394
 6867SOL     OW21499   2.302   4.198   2.446
 6867SOL    HW121500   2.382   4.174   2.501
 6867SOL    HW221501   2.219   4.175   2.496
 6868SOL     OW21502   1.573   5.899   6.586
 6868SOL    HW121503   1.558   5.835   6.510
 6868SOL    HW221504   1.645   5.863   6.646
 6869SOL     OW21505   5.325   1.099   6.563
 6869SOL    HW121506   5.296   1.037   6.490
 6869SOL    HW221507   5.298   1.061   6.652
 6870SOL     OW21508   0.331   4.479   1.555
 6870SOL    HW121509   0.256   4.540   1.581
 6870SOL    HW221510   0.412   4.501   1.609
 6871SOL     OW21511   6.385   4.261   3.236
 6871SOL    HW121512   6.308   4.280   3.175
 6871SOL    HW221513   6.432   4.179   3.205
 6872SOL     OW21514   0.613   2.197   1.196
 6872SOL    HW121515   0.602   2.204   1.097
 6872SOL    HW221516   0.574   2.277   1.240
 6873SOL     OW21517   6.670   3.716   3.861
 6873SOL    HW121518   6.584   3.720   3.809
 6873SOL    HW221519   6.747   3.730   3.799
 6874SOL     OW21520   6.671   5.378   2.646
 6874SOL    HW121521   6.583   5.381   2.695
 6874SOL    HW221522   6.677   5.455   2.583
 6875SOL     OW21523   2.249   2.798   2.575
 6875SOL    HW121524   2.239   2.805   2.476
 6875SOL    HW221525   2.244   2.890   2.615
 6876SOL     OW21526   3.947   0.550   3.833
 6876SOL    HW121527   3.994   0.499   3.905
 6876SOL    HW221528   3.925   0.642   3.867
 6877SOL     OW21529   3.040   3.582   1.198
 6877SOL    HW121530   3.089   3.548   1.279
 6877SOL    HW221531   3.080   3.543   1.116
 6878SOL     OW21532   3.908   0.808   3.925
 6878SOL    HW121533   3.867   0.769   4.008
 6878SOL    HW221534   3.851   0.884   3.893
 6879SOL     OW21535   0.953   2.844   0.894
 6879SOL    HW121536   0.976   2.762   0.843
 6879SOL    HW221537   0.941   2.822   0.991
 6880SOL     OW21538   2.440   5.359   5.144
 6880SOL    HW121539   2.383   5.292   5.096
 6880SOL    HW221540   2.456   5.329   5.238
 6881SOL     OW21541   1.899   4.305   0.916
 6881SOL    HW121542   1.826   4.247   0.953
 6881SOL    HW221543   1.952   4.253   0.849
 6882SOL     OW21544   2.864   0.651   0.183
 6882SOL    HW121545   2.859   0.564   0.134
 6882SOL    HW221546   2.944   0.702   0.153
 6883SOL     OW21547   5.104   1.666   6.872
 6883SOL    HW121548   5.143   1.740   6.817
 6883SOL    HW221549   5.058   1.600   6.812
 6884SOL     OW21550   0.970   4.146   3.539
 6884SOL    HW121551   0.971   4.047   3.528
 6884SOL    HW221552   0.899   4.172   3.605
 6885SOL     OW21553   4.544   4.702   4.450
 6885SOL    HW121554   4.585   4.650   4.524
 6885SOL    HW221555   4.457   4.741   4.480
 6886SOL     OW21556   6.790   1.011   4.382
 6886SOL    HW121557   6.882   1.007   4.421
 6886SOL    HW221558   6.752   0.919   4.379
 6887SOL     OW21559   5.237   5.677   6.341
 6887SOL    HW121560   5.315   5.616   6.328
 6887SOL    HW221561   5.260   5.767   6.306
 6888SOL     OW21562   5.438   5.506   6.327
 6888SOL    HW121563   5.430   5.415   6.287
 6888SOL    HW221564   5.532   5.521   6.357
 6889SOL     OW21565   1.395   3.003   5.983
 6889SOL    HW121566   1.437   2.913   5.972
 6889SOL    HW221567   1.411   3.036   6.077
 6890SOL     OW21568   3.970   6.261   2.280
 6890SOL    HW121569   3.967   6.347   2.228
 6890SOL    HW221570   4.063   6.225   2.278
 6891SOL     OW21571   2.288   4.146   2.853
 6891SOL    HW121572   2.298   4.237   2.894
 6891SOL    HW221573   2.284   4.078   2.926
 6892SOL     OW21574   3.845   2.150   3.408
 6892SOL    HW121575   3.866   2.120   3.501
 6892SOL    HW221576   3.929   2.184   3.365
 6893SOL     OW21577   4.574   4.863   6.937
 6893SOL    HW121578   4.578   4.776   6.987
 6893SOL    HW221579   4.480   4.880   6.907
 6894SOL     OW21580   5.859   5.259   0.535
 6894SOL    HW121581   5.833   5.179   0.588
 6894SOL    HW221582   5.877   5.336   0.596
 6895SOL     OW21583   2.789   5.027   1.267
 6895SOL    HW121584   2.730   5.046   1.346
 6895SOL    HW221585   2.772   4.934   1.234
 6896SOL     OW21586   2.492   0.746   3.910
 6896SOL    HW121587   2.564   0.699   3.859
 6896SOL    HW221588   2.518   0.752   4.006
 6897SOL     OW21589   5.100   3.721   5.028
 6897SOL    HW121590   5.005   3.721   5.000
 6897SOL    HW221591   5.143   3.807   5.001
 6898SOL     OW21592   4.239   1.367   1.431
 6898SOL    HW121593   4.191   1.431   1.370
 6898SOL    HW221594   4.252   1.410   1.520
 6899SOL     OW21595   4.540   6.223   1.736
 6899SOL    HW121596   4.493   6.179   1.660
 6899SOL    HW221597   4.637   6.230   1.716
 6900SOL     OW21598   5.989   5.968   4.972
 6900SOL    HW121599   5.992   5.883   5.025
 6900SOL    HW221600   6.015   5.950   4.877
 6901SOL     OW21601   6.204   5.946   6.040
 6901SOL    HW121602   6.162   6.009   5.975
 6901SOL    HW221603   6.211   5.855   5.998
 6902SOL     OW21604   6.861   6.149   0.061
 6902SOL    HW121605   6.838   6.170   0.156
 6902SOL    HW221606   6.781   6.163   0.003
 6903SOL     OW21607   3.413   5.247   5.616
 6903SOL    HW121608   3.377   5.306   5.689
 6903SOL    HW221609   3.492   5.197   5.650
 6904SOL     OW21610   6.362   0.475   4.929
 6904SOL    HW121611   6.345   0.377   4.924
 6904SOL    HW221612   6.317   0.513   5.010
 6905SOL     OW21613   5.852   5.986   6.782
 6905SOL    HW121614   5.818   5.929   6.708
 6905SOL    HW221615   5.885   6.073   6.745
 6906SOL     OW21616   3.937   1.477   4.232
 6906SOL    HW121617   3.846   1.438   4.248
 6906SOL    HW221618   3.956   1.475   4.134
 6907SOL     OW21619   5.513   2.735   1.855
 6907SOL    HW121620   5.515   2.669   1.930
 6907SOL    HW221621   5.606   2.768   1.837
 6908SOL     OW21622   1.408   5.385   0.050
 6908SOL    HW121623   1.467   5.354   7.002
 6908SOL    HW221624   1.313   5.387   0.018
 6909SOL     OW21625   5.015   4.289   1.372
 6909SOL    HW121626   4.954   4.217   1.406
 6909SOL    HW221627   5.014   4.289   1.272
 6910SOL     OW21628   0.763   2.688   3.135
 6910SOL    HW121629   0.808   2.704   3.047
 6910SOL    HW221630   0.828   2.704   3.209
 6911SOL     OW21631   4.192   6.865   3.978
 6911SOL    HW121632   4.124   6.808   3.933
 6911SOL    HW221633   4.259   6.807   4.024
 6912SOL     OW21634   3.348   3.772   6.252
 6912SOL    HW121635   3.255   3.808   6.248
 6912SOL    HW221636   3.349   3.679   6.216
 6913SOL     OW21637   5.660   6.127   3.741
 6913SOL    HW121638   5.656   6.126   3.841
 6913SOL    HW221639   5.578   6.171   3.705
 6914SOL     OW21640   6.211   4.207   3.673
 6914SOL    HW121641   6.290   4.156   3.708
 6914SOL    HW221642   6.241   4.269   3.601
 6915SOL     OW21643   6.039   2.650   1.863
 6915SOL    HW121644   6.046   2.601   1.951
 6915SOL    HW221645   6.129   2.687   1.839
 6916SOL     OW21646   5.417   1.813   0.093
 6916SOL    HW121647   5.436   1.740   0.159
 6916SOL    HW221648   5.346   1.782   0.030
 6917SOL     OW21649   3.319   6.683   1.414
 6917SOL    HW121650   3.261   6.717   1.340
 6917SOL    HW221651   3.396   6.745   1.428
 6918SOL     OW21652   0.754   2.535   4.679
 6918SOL    HW121653   0.757   2.519   4.581
 6918SOL    HW221654   0.663   2.571   4.704
 6919SOL     OW21655   5.261   5.703   3.976
 6919SOL    HW121656   5.288   5.747   3.890
 6919SOL    HW221657   5.277   5.765   4.052
 6920SOL     OW21658   4.131   6.395   6.273
 6920SOL    HW121659   4.101   6.308   6.313
 6920SOL    HW221660   4.052   6.455   6.260
 6921SOL     OW21661   4.531   5.845   4.314
 6921SOL    HW121662   4.448   5.874   4.265
 6921SOL    HW221663   4.609   5.900   4.282
 6922SOL     OW21664   1.434   6.565   4.809
 6922SOL    HW121665   1.434   6.465   4.820
 6922SOL    HW221666   1.355   6.592   4.754
 6923SOL     OW21667   5.005   5.651   3.051
 6923SOL    HW121668   4.996   5.723   2.983
 6923SOL    HW221669   4.995   5.562   3.006
 6924SOL     OW21670   1.772   4.567   6.546
 6924SOL    HW121671   1.820   4.504   6.485
 6924SOL    HW221672   1.698   4.612   6.496
 6925SOL     OW21673   5.024   6.080   3.564
 6925SOL    HW121674   4.966   6.140   3.620
 6925SOL    HW221675   4.969   6.036   3.493
 6926SOL     OW21676   2.865   2.688   0.626
 6926SOL    HW121677   2.960   2.681   0.656
 6926SOL    HW221678   2.804   2.661   0.700
 6927SOL     OW21679   3.883   2.992   5.576
 6927SOL    HW121680   3.977   2.962   5.590
 6927SOL    HW221681   3.881   3.091   5.563
 6928SOL     OW21682   5.849   5.913   1.104
 6928SOL    HW121683   5.801   5.846   1.047
 6928SOL    HW221684   5.853   6.001   1.057
 6929SOL     OW21685   5.038   5.662   1.516
 6929SOL    HW121686   4.941   5.677   1.499
 6929SOL    HW221687   5.084   5.643   1.429
 6930SOL     OW21688   1.173   0.841   1.651
 6930SOL    HW121689   1.209   0.861   1.560
 6930SOL    HW221690   1.092   0.898   1.668
 6931SOL     OW21691   2.137   1.168   2.465
 6931SOL    HW121692   2.070   1.143   2.395
 6931SOL    HW221693   2.184   1.085   2.498
 6932SOL     OW21694   4.010   6.884   6.749
 6932SOL    HW121695   4.076   6.813   6.725
 6932SOL    HW221696   3.926   6.842   6.783
 6933SOL     OW21697   3.577   5.627   5.450
 6933SOL    HW121698   3.644   5.580   5.391
 6933SOL    HW221699   3.513   5.678   5.393
 6934SOL     OW21700   4.455   3.673   6.261
 6934SOL    HW121701   4.401   3.640   6.339
 6934SOL    HW221702   4.438   3.615   6.182
 6935SOL     OW21703   4.693   5.649   2.465
 6935SOL    HW121704   4.669   5.706   2.543
 6935SOL    HW221705   4.667   5.696   2.380
 6936SOL     OW21706   6.041   2.166   3.477
 6936SOL    HW121707   6.073   2.245   3.424
 6936SOL    HW221708   5.952   2.137   3.441
 6937SOL     OW21709   6.207   6.556   6.998
 6937SOL    HW121710   6.249   6.508   0.049
 6937SOL    HW221711   6.278   6.591   6.937
 6938SOL     OW21712   6.367   2.746   5.219
 6938SOL    HW121713   6.447   2.693   5.190
 6938SOL    HW221714   6.289   2.723   5.161
 6939SOL     OW21715   0.807   5.330   2.515
 6939SOL    HW121716   0.854   5.366   2.435
 6939SOL    HW221717   0.711   5.310   2.492
 6940SOL     OW21718   3.573   0.418   5.890
 6940SOL    HW121719   3.599   0.504   5.847
 6940SOL    HW221720   3.558   0.433   5.988
 6941SOL     OW21721   3.230   4.047   1.860
 6941SOL    HW121722   3.171   3.967   1.874
 6941SOL    HW221723   3.274   4.072   1.946
 6942SOL     OW21724   5.966   6.715   1.741
 6942SOL    HW121725   5.870   6.721   1.712
 6942SOL    HW221726   6.023   6.770   1.681
 6943SOL     OW21727   3.191   5.509   0.529
 6943SOL    HW121728   3.220   5.437   0.467
 6943SOL    HW221729   3.258   5.584   0.527
 6944SOL     OW21730   0.507   4.599   6.292
 6944SOL    HW121731   0.412   4.627   6.279
 6944SOL    HW221732   0.522   4.574   6.388
 6945SOL     OW21733   6.386   1.528   0.309
 6945SOL    HW121734   6.380   1.500   0.214
 6945SOL    HW221735   6.295   1.555   0.342
 6946SOL     OW21736   4.135   6.637   1.232
 6946SOL    HW121737   4.161   6.549   1.273
 6946SOL    HW221738   4.035   6.641   1.223
 6947SOL     OW21739   3.508   5.775   6.588
 6947SOL    HW121740   3.570   5.770   6.509
 6947SOL    HW221741   3.512   5.867   6.628
 6948SOL     OW21742   0.737   6.702   0.596
 6948SOL    HW121743   0.682   6.753   0.663
 6948SOL    HW221744   0.833   6.710   0.620
 6949SOL     OW21745   3.798   0.615   3.484
 6949SOL    HW121746   3.801   0.523   3.524
 6949SOL    HW221747   3.706   0.634   3.450
 6950SOL     OW21748   1.200   1.530   5.213
 6950SOL    HW121749   1.121   1.483   5.254
 6950SOL    HW221750   1.177   1.558   5.120
 6951SOL     OW21751   6.534   5.346   5.490
 6951SOL    HW121752   6.486   5.381   5.410
 6951SOL    HW221753   6.618   5.299   5.460
 6952SOL     OW21754   0.626   6.295   3.117
 6952SOL    HW121755   0.641   6.364   3.188
 6952SOL    HW221756   0.713   6.271   3.075
 6953SOL     OW21757   4.171   6.481   1.518
 6953SOL    HW121758   4.233   6.486   1.596
 6953SOL    HW221759   4.102   6.553   1.526
 6954SOL     OW21760   6.882   3.617   2.443
 6954SOL    HW121761   6.900   3.714   2.433
 6954SOL    HW221762   6.924   3.566   2.367
 6955SOL     OW21763   5.637   0.321   2.034
 6955SOL    HW121764   5.568   0.361   2.094
 6955SOL    HW221765   5.608   0.228   2.008
 6956SOL     OW21766   5.417   6.069   3.477
 6956SOL    HW121767   5.370   6.112   3.555
 6956SOL    HW221768   5.416   5.970   3.488
 6957SOL     OW21769   6.345   5.816   1.138
 6957SOL    HW121770   6.343   5.898   1.081
 6957SOL    HW221771   6.253   5.779   1.146
 6958SOL     OW21772   3.704   3.487   4.459
 6958SOL    HW121773   3.632   3.542   4.419
 6958SOL    HW221774   3.788   3.497   4.406
 6959SOL     OW21775   2.034   3.286   3.538
 6959SOL    HW121776   2.098   3.286   3.615
 6959SOL    HW221777   1.942   3.269   3.571
 6960SOL     OW21778   1.082   4.333   1.032
 6960SOL    HW121779   1.093   4.252   0.974
 6960SOL    HW221780   1.077   4.304   1.128
 6961SOL     OW21781   5.751   1.066   4.083
 6961SOL    HW121782   5.719   1.050   3.990
 6961SOL    HW221783   5.716   0.994   4.143
 6962SOL     OW21784   4.767   5.978   1.734
 6962SOL    HW121785   4.743   5.955   1.640
 6962SOL    HW221786   4.799   6.073   1.737
 6963SOL     OW21787   4.947   5.958   1.191
 6963SOL    HW121788   5.034   5.946   1.143
 6963SOL    HW221789   4.881   6.001   1.130
 6964SOL     OW21790   3.860   1.220   5.755
 6964SOL    HW121791   3.880   1.235   5.851
 6964SOL    HW221792   3.913   1.285   5.700
 6965SOL     OW21793   1.946   1.050   0.002
 6965SOL    HW121794   1.896   1.038   6.942
 6965SOL    HW221795   1.883   1.043   0.079
 6966SOL     OW21796   1.435   1.989   2.467
 6966SOL    HW121797   1.514   1.982   2.407
 6966SOL    HW221798   1.436   1.914   2.533
 6967SOL     OW21799   2.807   1.080   5.408
 6967SOL    HW121800   2.889   1.122   5.369
 6967SOL    HW221801   2.742   1.151   5.435
 6968SOL     OW21802   3.484   0.464   3.267
 6968SOL    HW121803   3.548   0.537   3.290
 6968SOL    HW221804   3.399   0.477   3.318
 6969SOL     OW21805   2.984   2.263   1.712
 6969SOL    HW121806   2.965   2.345   1.767
 6969SOL    HW221807   3.053   2.207   1.759
 6970SOL     OW21808   4.138   4.293   5.799
 6970SOL    HW121809   4.182   4.249   5.720
 6970SOL    HW221810   4.207   4.309   5.870
 6971SOL     OW21811   6.490   4.606   0.621
 6971SOL    HW121812   6.535   4.659   0.550
 6971SOL    HW221813   6.556   4.581   0.691
 6972SOL     OW21814   5.481   4.602   2.862
 6972SOL    HW121815   5.520   4.511   2.875
 6972SOL    HW221816   5.546   4.671   2.893
 6973SOL     OW21817   1.276   3.265   3.312
 6973SOL    HW121818   1.295   3.229   3.220
 6973SOL    HW221819   1.192   3.224   3.347
 6974SOL     OW21820   2.969   3.778   2.688
 6974SOL    HW121821   2.950   3.792   2.591
 6974SOL    HW221822   3.032   3.702   2.699
 6975SOL     OW21823   1.429   6.361   5.804
 6975SOL    HW121824   1.451   6.264   5.809
 6975SOL    HW221825   1.506   6.412   5.766
 6976SOL     OW21826   5.865   5.357   5.813
 6976SOL    HW121827   5.853   5.260   5.793
 6976SOL    HW221828   5.946   5.370   5.869
 6977SOL     OW21829   3.597   2.779   1.445
 6977SOL    HW121830   3.694   2.796   1.462
 6977SOL    HW221831   3.573   2.687   1.476
 6978SOL     OW21832   5.869   1.500   2.181
 6978SOL    HW121833   5.797   1.546   2.130
 6978SOL    HW221834   5.908   1.563   2.248
 6979SOL     OW21835   1.024   4.194   1.824
 6979SOL    HW121836   1.112   4.228   1.857
 6979SOL    HW221837   1.012   4.099   1.854
 6980SOL     OW21838   1.688   1.388   3.756
 6980SOL    HW121839   1.683   1.390   3.856
 6980SOL    HW221840   1.784   1.384   3.727
 6981SOL     OW21841   3.991   3.319   5.788
 6981SOL    HW121842   4.053   3.382   5.835
 6981SOL    HW221843   3.954   3.253   5.854
 6982SOL     OW21844   0.810   0.924   4.969
 6982SOL    HW121845   0.814   0.913   4.870
 6982SOL    HW221846   0.727   0.881   5.004
 6983SOL     OW21847   3.909   2.191   3.691
 6983SOL    HW121848   3.848   2.268   3.713
 6983SOL    HW221849   4.000   2.210   3.729
 6984SOL     OW21850   1.599   1.525   3.549
 6984SOL    HW121851   1.659   1.605   3.545
 6984SOL    HW221852   1.624   1.468   3.627
 6985SOL     OW21853   5.919   4.992   1.481
 6985SOL    HW121854   5.923   5.090   1.460
 6985SOL    HW221855   5.995   4.945   1.437
 6986SOL     OW21856   2.436   6.948   6.384
 6986SOL    HW121857   2.443   0.016   6.351
 6986SOL    HW221858   2.352   6.906   6.349
 6987SOL     OW21859   5.919   0.997   6.422
 6987SOL    HW121860   5.859   1.035   6.492
 6987SOL    HW221861   6.014   1.014   6.447
 6988SOL     OW21862   1.273   6.538   7.019
 6988SOL    HW121863   1.278   6.440   0.013
 6988SOL    HW221864   1.191   6.556   6.966
 6989SOL     OW21865   1.164   4.102   3.013
 6989SOL    HW121866   1.204   4.056   2.934
 6989SOL    HW221867   1.224   4.177   3.042
 6990SOL     OW21868   4.634   2.892   1.430
 6990SOL    HW121869   4.699   2.907   1.504
 6990SOL    HW221870   4.680   2.845   1.354
 6991SOL     OW21871   4.637   4.348   3.776
 6991SOL    HW121872   4.569   4.410   3.816
 6991SOL    HW221873   4.655   4.272   3.838
 6992SOL     OW21874   5.666   6.881   6.274
 6992SOL    HW121875   5.721   6.798   6.278
 6992SOL    HW221876   5.570   6.860   6.293
 6993SOL     OW21877   6.365   0.398   3.117
 6993SOL    HW121878   6.336   0.411   3.023
 6993SOL    HW221879   6.411   0.482   3.149
 6994SOL     OW21880   0.698   2.471   4.089
 6994SOL    HW121881   0.744   2.430   4.011
 6994SOL    HW221882   0.599   2.464   4.076
 6995SOL     OW21883   0.644   4.722   6.092
 6995SOL    HW121884   0.611   4.668   6.169
 6995SOL    HW221885   0.582   4.799   6.077
 6996SOL     OW21886   1.727   0.420   6.932
 6996SOL    HW121887   1.665   0.345   6.912
 6996SOL    HW221888   1.683   0.507   6.909
 6997SOL     OW21889   0.497   5.283   5.905
 6997SOL    HW121890   0.535   5.225   5.977
 6997SOL    HW221891   0.473   5.372   5.943
 6998SOL     OW21892   1.792   0.561   1.612
 6998SOL    HW121893   1.828   0.601   1.528
 6998SOL    HW221894   1.709   0.508   1.590
 6999SOL     OW21895   2.613   2.251   6.440
 6999SOL    HW121896   2.550   2.295   6.377
 6999SOL    HW221897   2.564   2.219   6.521
 7000SOL     OW21898   5.393   6.583   1.503
 7000SOL    HW121899   5.459   6.518   1.466
 7000SOL    HW221900   5.307   6.577   1.452
 7001SOL     OW21901   1.990   3.411   6.099
 7001SOL    HW121902   1.900   3.368   6.108
 7001SOL    HW221903   2.017   3.449   6.187
 7002SOL     OW21904   1.477   5.547   4.036
 7002SOL    HW121905   1.435   5.548   3.945
 7002SOL    HW221906   1.426   5.484   4.096
 7003SOL     OW21907   4.163   5.562   0.758
 7003SOL    HW121908   4.147   5.491   0.826
 7003SOL    HW221909   4.092   5.558   0.688
 7004SOL     OW21910   0.696   5.524   1.694
 7004SOL    HW121911   0.747   5.440   1.673
 7004SOL    HW221912   0.608   5.522   1.647
 7005SOL     OW21913   0.948   0.059   0.395
 7005SOL    HW121914   0.933   0.042   0.493
 7005SOL    HW221915   0.963   0.156   0.380
 7006SOL     OW21916   5.132   5.303   3.876
 7006SOL    HW121917   5.176   5.224   3.919
 7006SOL    HW221918   5.051   5.328   3.929
 7007SOL     OW21919   4.352   0.427   4.507
 7007SOL    HW121920   4.342   0.456   4.602
 7007SOL    HW221921   4.428   0.363   4.499
 7008SOL     OW21922   0.411   4.220   4.153
 7008SOL    HW121923   0.313   4.218   4.129
 7008SOL    HW221924   0.443   4.126   4.166
 7009SOL     OW21925   4.467   6.296   2.930
 7009SOL    HW121926   4.502   6.379   2.886
 7009SOL    HW221927   4.375   6.277   2.896
 7010SOL     OW21928   5.655   4.181   3.617
 7010SOL    HW121929   5.668   4.276   3.647
 7010SOL    HW221930   5.584   4.138   3.674
 7011SOL     OW21931   3.222   6.452   6.382
 7011SOL    HW121932   3.169   6.389   6.325
 7011SOL    HW221933   3.268   6.518   6.323
 7012SOL     OW21934   0.734   1.774   1.428
 7012SOL    HW121935   0.698   1.866   1.418
 7012SOL    HW221936   0.670   1.708   1.388
 7013SOL     OW21937   0.832   6.575   0.294
 7013SOL    HW121938   0.772   6.637   0.243
 7013SOL    HW221939   0.830   6.599   0.391
 7014SOL     OW21940   4.501   3.297   0.901
 7014SOL    HW121941   4.423   3.358   0.892
 7014SOL    HW221942   4.471   3.202   0.893
 7015SOL     OW21943   6.093   4.107   0.920
 7015SOL    HW121944   6.177   4.072   0.879
 7015SOL    HW221945   6.028   4.032   0.934
 7016SOL     OW21946   3.530   5.129   1.515
 7016SOL    HW121947   3.456   5.169   1.570
 7016SOL    HW221948   3.513   5.031   1.504
 7017SOL     OW21949   2.856   5.091   3.445
 7017SOL    HW121950   2.908   5.049   3.519
 7017SOL    HW221951   2.779   5.031   3.421
 7018SOL     OW21952   5.562   3.697   4.157
 7018SOL    HW121953   5.504   3.632   4.109
 7018SOL    HW221954   5.578   3.665   4.250
 7019SOL     OW21955   3.521   4.651   0.328
 7019SOL    HW121956   3.442   4.670   0.387
 7019SOL    HW221957   3.599   4.622   0.384
 7020SOL     OW21958   6.641   4.251   5.883
 7020SOL    HW121959   6.633   4.299   5.970
 7020SOL    HW221960   6.729   4.204   5.878
 7021SOL     OW21961   2.079   2.176   5.378
 7021SOL    HW121962   2.102   2.088   5.422
 7021SOL    HW221963   2.002   2.218   5.426
 7022SOL     OW21964   4.643   0.076   6.875
 7022SOL    HW121965   4.617   0.135   6.952
 7022SOL    HW221966   4.694   7.023   6.909
 7023SOL     OW21967   1.554   2.693   3.135
 7023SOL    HW121968   1.570   2.782   3.178
 7023SOL    HW221969   1.638   2.638   3.141
 7024SOL     OW21970   3.252   3.844   5.465
 7024SOL    HW121971   3.295   3.842   5.374
 7024SOL    HW221972   3.158   3.876   5.457
 7025SOL     OW21973   3.294   0.565   0.512
 7025SOL    HW121974   3.233   0.582   0.434
 7025SOL    HW221975   3.254   0.605   0.594
 7026SOL     OW21976   3.410   2.036   1.985
 7026SOL    HW121977   3.489   2.095   1.996
 7026SOL    HW221978   3.440   1.942   1.968
 7027SOL     OW21979   1.846   5.472   3.795
 7027SOL    HW121980   1.811   5.466   3.889
 7027SOL    HW221981   1.780   5.523   3.739
 7028SOL     OW21982   3.573   1.380   3.088
 7028SOL    HW121983   3.491   1.387   3.032
 7028SOL    HW221984   3.592   1.469   3.131
 7029SOL     OW21985   4.273   4.739   5.336
 7029SOL    HW121986   4.195   4.786   5.295
 7029SOL    HW221987   4.274   4.756   5.434
 7030SOL     OW21988   0.582   0.811   5.042
 7030SOL    HW121989   0.579   0.841   5.138
 7030SOL    HW221990   0.589   0.711   5.038
 7031SOL     OW21991   3.649   5.915   6.381
 7031SOL    HW121992   3.575   5.970   6.342
 7031SOL    HW221993   3.688   5.963   6.460
 7032SOL     OW21994   4.422   1.988   3.893
 7032SOL    HW121995   4.334   1.947   3.915
 7032SOL    HW221996   4.430   1.996   3.793
 7033SOL     OW21997   1.779   2.490   3.163
 7033SOL    HW121998   1.849   2.493   3.092
 7033SOL    HW221999   1.729   2.404   3.157
 7034SOL     OW22000   7.026   1.126   2.979
 7034SOL    HW122001   0.035   1.075   2.901
 7034SOL    HW222002   6.938   1.087   3.008
 7035SOL     OW22003   1.623   0.158   0.690
 7035SOL    HW122004   1.571   0.110   0.620
 7035SOL    HW222005   1.647   0.095   0.764
 7036SOL     OW22006   6.772   0.987   2.755
 7036SOL    HW122007   6.870   1.002   2.740
 7036SOL    HW222008   6.730   0.955   2.671
 7037SOL     OW22009   1.293   1.690   6.559
 7037SOL    HW122010   1.276   1.755   6.633
 7037SOL    HW222011   1.277   1.735   6.471
 7038SOL     OW22012   2.144   3.855   4.907
 7038SOL    HW122013   2.136   3.782   4.975
 7038SOL    HW222014   2.217   3.918   4.934
 7039SOL     OW22015   1.041   5.504   2.972
 7039SOL    HW122016   0.991   5.477   2.890
 7039SOL    HW222017   1.029   5.602   2.988
 7040SOL     OW22018   5.484   2.760   5.487
 7040SOL    HW122019   5.575   2.766   5.527
 7040SOL    HW222020   5.484   2.695   5.411
 7041SOL     OW22021   6.723   1.227   1.940
 7041SOL    HW122022   6.646   1.166   1.955
 7041SOL    HW222023   6.692   1.309   1.890
 7042SOL     OW22024   4.053   5.884   4.801
 7042SOL    HW122025   4.011   5.964   4.759
 7042SOL    HW222026   4.108   5.912   4.879
 7043SOL     OW22027   2.389   4.945   3.177
 7043SOL    HW122028   2.315   4.879   3.194
 7043SOL    HW222029   2.382   4.979   3.084
 7044SOL     OW22030   5.845   5.456   4.955
 7044SOL    HW122031   5.773   5.404   4.909
 7044SOL    HW222032   5.888   5.399   5.024
 7045SOL     OW22033   5.054   5.059   2.805
 7045SOL    HW122034   5.087   5.091   2.894
 7045SOL    HW222035   5.128   5.061   2.738
 7046SOL     OW22036   3.199   1.728   3.706
 7046SOL    HW122037   3.109   1.736   3.748
 7046SOL    HW222038   3.209   1.799   3.636
 7047SOL     OW22039   6.285   0.582   2.424
 7047SOL    HW122040   6.204   0.533   2.391
 7047SOL    HW222041   6.290   0.671   2.378
 7048SOL     OW22042   5.721   6.802   4.047
 7048SOL    HW122043   5.786   6.729   4.068
 7048SOL    HW222044   5.728   6.827   3.951
 7049SOL     OW22045   3.847   1.757   1.074
 7049SOL    HW122046   3.911   1.680   1.072
 7049SOL    HW222047   3.774   1.737   1.139
 7050SOL     OW22048   4.030   3.294   1.552
 7050SOL    HW122049   3.961   3.356   1.515
 7050SOL    HW222050   4.070   3.239   1.478
 7051SOL     OW22051   6.898   0.090   1.250
 7051SOL    HW122052   6.805   0.081   1.216
 7051SOL    HW222053   6.962   0.083   1.173
 7052SOL     OW22054   6.765   1.453   3.477
 7052SOL    HW122055   6.845   1.466   3.535
 7052SOL    HW222056   6.724   1.364   3.495
 7053SOL     OW22057   1.786   3.368   4.736
 7053SOL    HW122058   1.778   3.268   4.730
 7053SOL    HW222059   1.769   3.408   4.646
 7054SOL     OW22060   6.998   6.814   0.762
 7054SOL    HW122061   6.900   6.832   0.769
 7054SOL    HW222062   7.017   6.721   0.794
 7055SOL     OW22063   2.788   0.196   6.608
 7055SOL    HW122064   2.796   0.096   6.611
 7055SOL    HW222065   2.795   0.233   6.700
 7056SOL     OW22066   6.751   5.155   1.647
 7056SOL    HW122067   6.815   5.100   1.701
 7056SOL    HW222068   6.694   5.094   1.591
 7057SOL     OW22069   2.924   4.869   3.925
 7057SOL    HW122070   2.892   4.955   3.886
 7057SOL    HW222071   2.860   4.837   3.994
 7058SOL     OW22072   5.393   3.009   5.806
 7058SOL    HW122073   5.297   2.985   5.791
 7058SOL    HW222074   5.432   3.045   5.722
 7059SOL     OW22075   0.495   1.528   4.084
 7059SOL    HW122076   0.554   1.469   4.029
 7059SOL    HW222077   0.542   1.613   4.106
 7060SOL     OW22078   3.526   0.380   1.768
 7060SOL    HW122079   3.472   0.296   1.758
 7060SOL    HW222080   3.614   0.358   1.810
 7061SOL     OW22081   0.495   3.397   3.631
 7061SOL    HW122082   0.568   3.337   3.599
 7061SOL    HW222083   0.407   3.363   3.599
 7062SOL     OW22084   3.239   2.165   5.307
 7062SOL    HW122085   3.180   2.173   5.387
 7062SOL    HW222086   3.220   2.239   5.243
 7063SOL     OW22087   1.273   6.552   1.765
 7063SOL    HW122088   1.288   6.529   1.861
 7063SOL    HW222089   1.359   6.581   1.723
 7064SOL     OW22090   4.099   1.763   0.133
 7064SOL    HW122091   4.060   1.671   0.122
 7064SOL    HW222092   4.028   1.832   0.117
 7065SOL     OW22093   3.966   3.586   5.485
 7065SOL    HW122094   3.914   3.604   5.568
 7065SOL    HW222095   3.926   3.508   5.436
 7066SOL     OW22096   3.641   0.152   5.824
 7066SOL    HW122097   3.638   0.248   5.799
 7066SOL    HW222098   3.711   0.139   5.895
 7067SOL     OW22099   1.461   3.225   5.539
 7067SOL    HW122100   1.518   3.307   5.553
 7067SOL    HW222101   1.445   3.180   5.627
 7068SOL     OW22102   6.182   4.360   4.832
 7068SOL    HW122103   6.190   4.280   4.891
 7068SOL    HW222104   6.268   4.411   4.832
 7069SOL     OW22105   5.620   1.982   4.678
 7069SOL    HW122106   5.572   2.067   4.655
 7069SOL    HW222107   5.671   1.995   4.763
 7070SOL     OW22108   0.939   0.014   4.814
 7070SOL    HW122109   0.977   0.066   4.737
 7070SOL    HW222110   0.965   0.058   4.900
 7071SOL     OW22111   3.732   6.265   6.411
 7071SOL    HW122112   3.750   6.334   6.342
 7071SOL    HW222113   3.634   6.247   6.417
 7072SOL     OW22114   2.029   5.571   0.372
 7072SOL    HW122115   2.008   5.633   0.296
 7072SOL    HW222116   1.971   5.593   0.450
 7073SOL     OW22117   5.099   6.888   3.748
 7073SOL    HW122118   5.033   6.906   3.675
 7073SOL    HW222119   5.063   6.919   3.836
 7074SOL     OW22120   6.115   3.016   1.879
 7074SOL    HW122121   6.080   3.039   1.789
 7074SOL    HW222122   6.171   2.933   1.873
 7075SOL     OW22123   1.748   4.316   4.630
 7075SOL    HW122124   1.831   4.361   4.600
 7075SOL    HW222125   1.707   4.368   4.706
 7076SOL     OW22126   5.470   3.174   0.493
 7076SOL    HW122127   5.562   3.143   0.514
 7076SOL    HW222128   5.418   3.099   0.451
 7077SOL     OW22129   1.988   4.235   3.766
 7077SOL    HW122130   1.931   4.287   3.829
 7077SOL    HW222131   2.081   4.227   3.804
 7078SOL     OW22132   6.709   6.273   1.599
 7078SOL    HW122133   6.651   6.191   1.603
 7078SOL    HW222134   6.781   6.259   1.531
 7079SOL     OW22135   0.882   6.900   3.930
 7079SOL    HW122136   0.914   6.995   3.926
 7079SOL    HW222137   0.784   6.898   3.948
 7080SOL     OW22138   3.256   1.589   4.309
 7080SOL    HW122139   3.304   1.677   4.302
 7080SOL    HW222140   3.160   1.602   4.286
 7081SOL     OW22141   2.067   5.854   0.483
 7081SOL    HW122142   2.134   5.858   0.558
 7081SOL    HW222143   1.979   5.822   0.518
 7082SOL     OW22144   6.237   4.788   0.142
 7082SOL    HW122145   6.320   4.839   0.118
 7082SOL    HW222146   6.192   4.834   0.218
 7083SOL     OW22147   1.357   1.323   1.860
 7083SOL    HW122148   1.314   1.286   1.777
 7083SOL    HW222149   1.418   1.397   1.835
 7084SOL     OW22150   1.119   5.428   5.531
 7084SOL    HW122151   1.164   5.517   5.520
 7084SOL    HW222152   1.033   5.441   5.580
 7085SOL     OW22153   0.298   1.738   2.331
 7085SOL    HW122154   0.292   1.663   2.265
 7085SOL    HW222155   0.393   1.746   2.363
 7086SOL     OW22156   5.569   1.265   5.889
 7086SOL    HW122157   5.651   1.316   5.916
 7086SOL    HW222158   5.544   1.202   5.962
 7087SOL     OW22159   5.810   4.440   3.051
 7087SOL    HW122160   5.836   4.394   2.966
 7087SOL    HW222161   5.749   4.380   3.103
 7088SOL     OW22162   5.209   2.309   4.581
 7088SOL    HW122163   5.210   2.336   4.485
 7088SOL    HW222164   5.152   2.372   4.633
 7089SOL     OW22165   2.366   2.726   4.120
 7089SOL    HW122166   2.296   2.792   4.149
 7089SOL    HW222167   2.431   2.711   4.195
 7090SOL     OW22168   2.476   1.232   0.246
 7090SOL    HW122169   2.504   1.256   0.339
 7090SOL    HW222170   2.445   1.314   0.199
 7091SOL     OW22171   0.791   1.085   0.938
 7091SOL    HW122172   0.829   1.177   0.932
 7091SOL    HW222173   0.804   1.049   1.031
 7092SOL     OW22174   4.722   2.930   5.548
 7092SOL    HW122175   4.715   3.004   5.481
 7092SOL    HW222176   4.734   2.969   5.639
 7093SOL     OW22177   3.736   4.077   2.463
 7093SOL    HW122178   3.829   4.112   2.475
 7093SOL    HW222179   3.680   4.105   2.541
 7094SOL     OW22180   0.333   6.237   5.416
 7094SOL    HW122181   0.301   6.205   5.505
 7094SOL    HW222182   0.254   6.252   5.356
 7095SOL     OW22183   2.472   4.460   6.131
 7095SOL    HW122184   2.470   4.451   6.032
 7095SOL    HW222185   2.386   4.424   6.170
 7096SOL     OW22186   6.294   0.027   1.984
 7096SOL    HW122187   6.219   6.988   1.975
 7096SOL    HW222188   6.341   0.038   1.897
 7097SOL     OW22189   4.542   0.604   1.829
 7097SOL    HW122190   4.550   0.535   1.756
 7097SOL    HW222191   4.614   0.588   1.897
 7098SOL     OW22192   1.790   5.524   5.618
 7098SOL    HW122193   1.784   5.619   5.588
 7098SOL    HW222194   1.732   5.510   5.698
 7099SOL     OW22195   3.908   1.825   5.084
 7099SOL    HW122196   3.852   1.817   5.002
 7099SOL    HW222197   3.854   1.866   5.158
 7100SOL     OW22198   6.449   3.530   0.365
 7100SOL    HW122199   6.439   3.431   0.377
 7100SOL    HW222200   6.375   3.564   0.307
 7101SOL     OW22201   2.387   1.738   5.307
 7101SOL    HW122202   2.388   1.706   5.213
 7101SOL    HW222203   2.449   1.816   5.316
 7102SOL     OW22204   5.846   0.213   0.569
 7102SOL    HW122205   5.869   0.143   0.501
 7102SOL    HW222206   5.870   0.180   0.660
 7103SOL     OW22207   5.899   5.792   2.172
 7103SOL    HW122208   5.893   5.740   2.087
 7103SOL    HW222209   5.852   5.879   2.162
 7104SOL     OW22210   6.437   3.726   2.932
 7104SOL    HW122211   6.396   3.818   2.934
 7104SOL    HW222212   6.374   3.661   2.974
 7105SOL     OW22213   2.969   3.206   5.247
 7105SOL    HW122214   2.999   3.238   5.336
 7105SOL    HW222215   2.875   3.173   5.253
 7106SOL     OW22216   3.400   2.941   2.041
 7106SOL    HW122217   3.419   2.904   1.950
 7106SOL    HW222218   3.405   3.041   2.038
 7107SOL     OW22219   4.616   0.064   0.672
 7107SOL    HW122220   4.602   7.000   0.713
 7107SOL    HW222221   4.536   0.122   0.691
 7108SOL     OW22222   3.162   5.462   2.602
 7108SOL    HW122223   3.155   5.510   2.689
 7108SOL    HW222224   3.129   5.521   2.528
 7109SOL     OW22225   1.983   0.397   6.168
 7109SOL    HW122226   1.934   0.382   6.254
 7109SOL    HW222227   2.077   0.426   6.189
 7110SOL     OW22228   3.076   6.170   4.242
 7110SOL    HW122229   3.109   6.085   4.200
 7110SOL    HW222230   2.984   6.156   4.278
 7111SOL     OW22231   1.221   2.593   4.749
 7111SOL    HW122232   1.142   2.652   4.731
 7111SOL    HW222233   1.277   2.633   4.822
 7112SOL     OW22234   1.994   4.936   4.373
 7112SOL    HW122235   2.032   4.923   4.465
 7112SOL    HW222236   2.067   4.922   4.306
 7113SOL     OW22237   3.797   4.125   5.040
 7113SOL    HW122238   3.714   4.121   5.096
 7113SOL    HW222239   3.876   4.142   5.099
 7114SOL     OW22240   5.158   5.612   0.815
 7114SOL    HW122241   5.078   5.617   0.874
 7114SOL    HW222242   5.225   5.549   0.853
 7115SOL     OW22243   4.356   3.018   0.406
 7115SOL    HW122244   4.399   2.928   0.396
 7115SOL    HW222245   4.399   3.082   0.342
 7116SOL     OW22246   5.421   4.521   3.183
 7116SOL    HW122247   5.478   4.458   3.129
 7116SOL    HW222248   5.379   4.472   3.259
 7117SOL     OW22249   0.019   6.693   4.846
 7117SOL    HW122250   0.103   6.677   4.896
 7117SOL    HW222251   0.034   6.764   4.777
 7118SOL     OW22252   3.398   4.880   6.219
 7118SOL    HW122253   3.330   4.864   6.147
 7118SOL    HW222254   3.488   4.850   6.187
 7119SOL     OW22255   5.021   0.944   4.645
 7119SOL    HW122256   4.977   0.984   4.725
 7119SOL    HW222257   5.104   0.996   4.623
 7120SOL     OW22258   3.690   2.056   1.736
 7120SOL    HW122259   3.660   2.111   1.658
 7120SOL    HW222260   3.675   2.107   1.820
 7121SOL     OW22261   0.816   6.787   3.677
 7121SOL    HW122262   0.828   6.882   3.705
 7121SOL    HW222263   0.845   6.726   3.750
 7122SOL     OW22264   1.551   0.781   5.566
 7122SOL    HW122265   1.477   0.800   5.502
 7122SOL    HW222266   1.596   0.867   5.592
 7123SOL     OW22267   0.954   5.302   4.034
 7123SOL    HW122268   0.942   5.381   4.093
 7123SOL    HW222269   0.867   5.277   3.992
 7124SOL     OW22270   0.447   2.452   1.516
 7124SOL    HW122271   0.510   2.463   1.593
 7124SOL    HW222272   0.356   2.429   1.551
 7125SOL     OW22273   1.344   0.751   0.786
 7125SOL    HW122274   1.348   0.664   0.834
 7125SOL    HW222275   1.258   0.756   0.734
 7126SOL     OW22276   3.483   4.767   0.620
 7126SOL    HW122277   3.436   4.833   0.562
 7126SOL    HW222278   3.417   4.721   0.680
 7127SOL     OW22279   2.811   5.727   6.875
 7127SOL    HW122280   2.840   5.708   6.781
 7127SOL    HW222281   2.817   5.826   6.892
 7128SOL     OW22282   3.316   3.773   6.713
 7128SOL    HW122283   3.239   3.781   6.649
 7128SOL    HW222284   3.288   3.809   6.803
 7129SOL     OW22285   2.345   1.124   0.647
 7129SOL    HW122286   2.396   1.061   0.589
 7129SOL    HW222287   2.251   1.092   0.657
 7130SOL     OW22288   3.448   6.341   4.392
 7130SOL    HW122289   3.443   6.252   4.437
 7130SOL    HW222290   3.534   6.349   4.342
 7131SOL     OW22291   3.167   1.193   1.700
 7131SOL    HW122292   3.124   1.131   1.766
 7131SOL    HW222293   3.108   1.273   1.687
 7132SOL     OW22294   4.263   4.120   0.344
 7132SOL    HW122295   4.264   4.054   0.268
 7132SOL    HW222296   4.169   4.144   0.367
 7133SOL     OW22297   4.006   4.844   5.210
 7133SOL    HW122298   3.953   4.760   5.202
 7133SOL    HW222299   3.944   4.923   5.209
 7134SOL     OW22300   4.540   0.126   1.908
 7134SOL    HW122301   4.601   0.180   1.850
 7134SOL    HW222302   4.574   0.032   1.913
 7135SOL     OW22303   1.976   2.454   2.995
 7135SOL    HW122304   1.977   2.369   3.048
 7135SOL    HW222305   2.048   2.451   2.926
 7136SOL     OW22306   3.566   1.617   0.242
 7136SOL    HW122307   3.643   1.566   0.203
 7136SOL    HW222308   3.579   1.715   0.225
 7137SOL     OW22309   3.184   1.990   0.461
 7137SOL    HW122310   3.156   1.941   0.377
 7137SOL    HW222311   3.104   2.032   0.503
 7138SOL     OW22312   2.146   1.704   0.836
 7138SOL    HW122313   2.092   1.632   0.793
 7138SOL    HW222314   2.168   1.678   0.930
 7139SOL     OW22315   4.743   4.998   2.221
 7139SOL    HW122316   4.733   4.963   2.313
 7139SOL    HW222317   4.716   5.095   2.219
 7140SOL     OW22318   6.009   3.997   0.650
 7140SOL    HW122319   6.048   3.915   0.609
 7140SOL    HW222320   6.082   4.050   0.694
 7141SOL     OW22321   3.474   6.737   1.162
 7141SOL    HW122322   3.459   6.827   1.202
 7141SOL    HW222323   3.541   6.744   1.088
 7142SOL     OW22324   4.185   0.015   3.590
 7142SOL    HW122325   4.203   0.092   3.531
 7142SOL    HW222326   4.198   6.955   3.540
 7143SOL     OW22327   2.315   3.499   0.049
 7143SOL    HW122328   2.340   3.595   0.057
 7143SOL    HW222329   2.388   3.448   0.003
 7144SOL     OW22330   1.173   0.918   3.502
 7144SOL    HW122331   1.195   0.999   3.555
 7144SOL    HW222332   1.111   0.859   3.555
 7145SOL     OW22333   3.987   0.761   6.625
 7145SOL    HW122334   3.890   0.736   6.613
 7145SOL    HW222335   4.036   0.685   6.668
 7146SOL     OW22336   1.581   0.798   6.106
 7146SOL    HW122337   1.575   0.894   6.133
 7146SOL    HW222338   1.618   0.792   6.013
 7147SOL     OW22339   6.989   6.264   2.926
 7147SOL    HW122340   6.994   6.361   2.951
 7147SOL    HW222341   6.902   6.246   2.881
 7148SOL     OW22342   6.014   5.776   1.764
 7148SOL    HW122343   5.981   5.840   1.694
 7148SOL    HW222344   5.942   5.759   1.831
 7149SOL     OW22345   0.444   5.298   3.897
 7149SOL    HW122346   0.439   5.330   3.992
 7149SOL    HW222347   0.399   5.363   3.837
 7150SOL     OW22348   3.493   3.304   0.377
 7150SOL    HW122349   3.555   3.226   0.390
 7150SOL    HW222350   3.416   3.275   0.321
 7151SOL     OW22351   2.913   6.677   1.294
 7151SOL    HW122352   2.844   6.639   1.232
 7151SOL    HW222353   2.997   6.696   1.243
 7152SOL     OW22354   6.889   0.552   6.080
 7152SOL    HW122355   6.887   0.602   5.993
 7152SOL    HW222356   6.874   0.455   6.063
 7153SOL     OW22357   3.824   5.024   1.785
 7153SOL    HW122358   3.870   4.936   1.778
 7153SOL    HW222359   3.726   5.010   1.800
 7154SOL     OW22360   4.607   6.156   3.347
 7154SOL    HW122361   4.535   6.225   3.355
 7154SOL    HW222362   4.601   6.111   3.258
 7155SOL     OW22363   3.200   3.719   1.761
 7155SOL    HW122364   3.104   3.702   1.738
 7155SOL    HW222365   3.258   3.652   1.713
 7156SOL     OW22366   5.711   4.006   2.390
 7156SOL    HW122367   5.720   4.077   2.321
 7156SOL    HW222368   5.795   4.002   2.444
 7157SOL     OW22369   6.944   5.079   1.888
 7157SOL    HW122370   6.967   5.174   1.910
 7157SOL    HW222371   6.928   5.028   1.973
 7158SOL     OW22372   1.051   0.305   3.492
 7158SOL    HW122373   0.987   0.382   3.496
 7158SOL    HW222374   1.002   0.221   3.469
 7159SOL     OW22375   1.467   5.035   4.222
 7159SOL    HW122376   1.566   5.044   4.217
 7159SOL    HW222377   1.432   5.091   4.297
 7160SOL     OW22378   6.364   6.804   3.088
 7160SOL    HW122379   6.350   6.886   3.032
 7160SOL    HW222380   6.462   6.792   3.105
 7161SOL     OW22381   3.269   3.826   3.060
 7161SOL    HW122382   3.281   3.746   3.118
 7161SOL    HW222383   3.223   3.800   2.975
 7162SOL     OW22384   1.513   5.329   6.162
 7162SOL    HW122385   1.608   5.345   6.136
 7162SOL    HW222386   1.465   5.282   6.087
 7163SOL     OW22387   3.004   0.465   2.376
 7163SOL    HW122388   3.082   0.447   2.435
 7163SOL    HW222389   2.982   0.563   2.378
 7164SOL     OW22390   2.599   0.173   5.037
 7164SOL    HW122391   2.666   0.161   4.963
 7164SOL    HW222392   2.512   0.131   5.010
 7165SOL     OW22393   5.492   6.402   1.741
 7165SOL    HW122394   5.562   6.461   1.782
 7165SOL    HW222395   5.413   6.459   1.714
 7166SOL     OW22396   5.581   2.082   0.406
 7166SOL    HW122397   5.500   2.024   0.397
 7166SOL    HW222398   5.603   2.123   0.317
 7167SOL     OW22399   5.008   3.479   4.840
 7167SOL    HW122400   4.952   3.438   4.768
 7167SOL    HW222401   4.959   3.557   4.880
 7168SOL     OW22402   2.763   2.201   3.176
 7168SOL    HW122403   2.686   2.151   3.136
 7168SOL    HW222404   2.827   2.228   3.104
 7169SOL     OW22405   0.004   4.500   5.360
 7169SOL    HW122406   0.006   4.598   5.381
 7169SOL    HW222407   6.945   4.460   5.395
 7170SOL     OW22408   4.904   0.152   2.504
 7170SOL    HW122409   4.847   0.151   2.587
 7170SOL    HW222410   4.961   0.070   2.502
 7171SOL     OW22411   5.704   3.856   0.439
 7171SOL    HW122412   5.651   3.777   0.468
 7171SOL    HW222413   5.643   3.932   0.416
 7172SOL     OW22414   2.010   0.230   4.975
 7172SOL    HW122415   2.106   0.247   4.997
 7172SOL    HW222416   1.959   0.215   5.059
 7173SOL     OW22417   6.485   4.948   6.741
 7173SOL    HW122418   6.399   4.946   6.792
 7173SOL    HW222419   6.472   4.994   6.653
 7174SOL     OW22420   0.107   4.366   0.411
 7174SOL    HW122421   0.146   4.448   0.369
 7174SOL    HW222422   0.093   4.382   0.509
 7175SOL     OW22423   6.430   3.212   5.287
 7175SOL    HW122424   6.526   3.209   5.316
 7175SOL    HW222425   6.376   3.256   5.358
 7176SOL     OW22426   0.098   1.821   3.768
 7176SOL    HW122427   0.119   1.726   3.790
 7176SOL    HW222428   0.172   1.859   3.711
 7177SOL     OW22429   1.731   4.581   5.303
 7177SOL    HW122430   1.721   4.506   5.237
 7177SOL    HW222431   1.754   4.665   5.254
 7178SOL     OW22432   0.080   1.814   6.057
 7178SOL    HW122433   0.143   1.783   5.985
 7178SOL    HW222434   0.070   1.741   6.125
 7179SOL     OW22435   1.334   3.626   4.686
 7179SOL    HW122436   1.323   3.527   4.681
 7179SOL    HW222437   1.280   3.669   4.614
 7180SOL     OW22438   2.257   3.844   0.549
 7180SOL    HW122439   2.344   3.821   0.505
 7180SOL    HW222440   2.213   3.917   0.498
 7181SOL     OW22441   2.396   0.326   0.384
 7181SOL    HW122442   2.477   0.363   0.340
 7181SOL    HW222443   2.322   0.394   0.380
 7182SOL     OW22444   0.326   4.089   3.514
 7182SOL    HW122445   0.321   4.025   3.590
 7182SOL    HW222446   0.393   4.058   3.447
 7183SOL     OW22447   1.769   5.460   1.929
 7183SOL    HW122448   1.778   5.425   2.022
 7183SOL    HW222449   1.818   5.401   1.865
 7184SOL     OW22450   6.777   1.594   3.890
 7184SOL    HW122451   6.811   1.574   3.982
 7184SOL    HW222452   6.756   1.692   3.884
 7185SOL     OW22453   5.662   1.486   5.549
 7185SOL    HW122454   5.738   1.432   5.587
 7185SOL    HW222455   5.587   1.489   5.615
 7186SOL     OW22456   6.622   1.550   1.457
 7186SOL    HW122457   6.524   1.562   1.444
 7186SOL    HW222458   6.671   1.588   1.379
 7187SOL     OW22459   2.986   3.927   5.396
 7187SOL    HW122460   2.955   3.873   5.318
 7187SOL    HW222461   2.953   4.021   5.388
 7188SOL     OW22462   4.366   5.861   0.323
 7188SOL    HW122463   4.324   5.918   0.252
 7188SOL    HW222464   4.446   5.908   0.360
 7189SOL     OW22465   6.393   2.389   6.034
 7189SOL    HW122466   6.299   2.403   6.065
 7189SOL    HW222467   6.414   2.454   5.960
 7190SOL     OW22468   6.373   5.648   1.572
 7190SOL    HW122469   6.348   5.665   1.668
 7190SOL    HW222470   6.468   5.618   1.567
 7191SOL     OW22471   1.409   4.643   3.110
 7191SOL    HW122472   1.377   4.668   3.201
 7191SOL    HW222473   1.451   4.553   3.112
 7192SOL     OW22474   1.730   4.243   6.445
 7192SOL    HW122475   1.746   4.149   6.416
 7192SOL    HW222476   1.793   4.304   6.396
 7193SOL     OW22477   2.173   1.983   1.937
 7193SOL    HW122478   2.074   1.979   1.946
 7193SOL    HW222479   2.205   2.076   1.957
 7194SOL     OW22480   1.792   3.139   6.578
 7194SOL    HW122481   1.864   3.201   6.548
 7194SOL    HW222482   1.793   3.056   6.522
 7195SOL     OW22483   6.672   4.406   0.418
 7195SOL    HW122484   6.717   4.487   0.381
 7195SOL    HW222485   6.686   4.403   0.517
 7196SOL     OW22486   2.112   3.766   1.664
 7196SOL    HW122487   2.110   3.667   1.676
 7196SOL    HW222488   2.078   3.811   1.746
 7197SOL     OW22489   1.140   3.478   6.174
 7197SOL    HW122490   1.198   3.397   6.169
 7197SOL    HW222491   1.085   3.485   6.091
 7198SOL     OW22492   0.387   1.050   0.480
 7198SOL    HW122493   0.371   0.981   0.550
 7198SOL    HW222494   0.316   1.044   0.410
 7199SOL     OW22495   0.511   0.208   2.689
 7199SOL    HW122496   0.526   0.281   2.756
 7199SOL    HW222497   0.419   0.171   2.699
 7200SOL     OW22498   2.475   3.010   6.576
 7200SOL    HW122499   2.459   2.928   6.522
 7200SOL    HW222500   2.496   2.985   6.670
 7201SOL     OW22501   0.878   5.783   3.924
 7201SOL    HW122502   0.934   5.831   3.991
 7201SOL    HW222503   0.796   5.746   3.968
 7202SOL     OW22504   4.433   6.786   6.831
 7202SOL    HW122505   4.474   6.704   6.871
 7202SOL    HW222506   4.462   6.867   6.882
 7203SOL     OW22507   6.851   1.063   1.190
 7203SOL    HW122508   6.764   1.112   1.199
 7203SOL    HW222509   6.874   1.021   1.278
 7204SOL     OW22510   6.994   1.047   6.171
 7204SOL    HW122511   6.924   1.114   6.194
 7204SOL    HW222512   6.960   0.955   6.189
 7205SOL     OW22513   1.710   4.316   5.675
 7205SOL    HW122514   1.675   4.354   5.761
 7205SOL    HW222515   1.675   4.223   5.663
 7206SOL     OW22516   1.364   1.157   2.159
 7206SOL    HW122517   1.363   1.061   2.188
 7206SOL    HW222518   1.278   1.178   2.112
 7207SOL     OW22519   4.111   0.482   4.318
 7207SOL    HW122520   4.203   0.491   4.353
 7207SOL    HW222521   4.045   0.502   4.390
 7208SOL     OW22522   4.549   0.225   3.304
 7208SOL    HW122523   4.630   0.202   3.358
 7208SOL    HW222524   4.471   0.237   3.365
 7209SOL     OW22525   2.462   3.124   1.555
 7209SOL    HW122526   2.397   3.081   1.492
 7209SOL    HW222527   2.435   3.219   1.570
 7210SOL     OW22528   3.881   1.666   3.714
 7210SOL    HW122529   3.944   1.738   3.746
 7210SOL    HW222530   3.863   1.679   3.617
 7211SOL     OW22531   1.809   6.153   5.114
 7211SOL    HW122532   1.858   6.175   5.030
 7211SOL    HW222533   1.836   6.217   5.186
 7212SOL     OW22534   0.475   6.482   5.525
 7212SOL    HW122535   0.549   6.484   5.457
 7212SOL    HW222536   0.444   6.387   5.537
 7213SOL     OW22537   3.469   6.748   6.707
 7213SOL    HW122538   3.554   6.738   6.655
 7213SOL    HW222539   3.444   6.844   6.713
 7214SOL     OW22540   6.553   0.767   5.388
 7214SOL    HW122541   6.540   0.669   5.403
 7214SOL    HW222542   6.494   0.818   5.451
 7215SOL     OW22543   6.463   3.003   4.072
 7215SOL    HW122544   6.455   2.980   3.975
 7215SOL    HW222545   6.372   3.024   4.109
 7216SOL     OW22546   3.004   0.140   1.705
 7216SOL    HW122547   2.919   0.145   1.758
 7216SOL    HW222548   3.017   0.046   1.671
 7217SOL     OW22549   1.953   3.559   3.444
 7217SOL    HW122550   1.998   3.493   3.504
 7217SOL    HW222551   1.987   3.547   3.350
 7218SOL     OW22552   6.608   2.931   4.446
 7218SOL    HW122553   6.552   3.013   4.457
 7218SOL    HW222554   6.669   2.921   4.526
 7219SOL     OW22555   3.560   0.944   2.835
 7219SOL    HW122556   3.522   0.869   2.781
 7219SOL    HW222557   3.639   0.911   2.886
 7220SOL     OW22558   6.531   4.124   4.120
 7220SOL    HW122559   6.533   4.195   4.191
 7220SOL    HW222560   6.440   4.082   4.118
 7221SOL     OW22561   3.701   5.973   5.029
 7221SOL    HW122562   3.636   5.991   5.103
 7221SOL    HW222563   3.763   6.050   5.020
 7222SOL     OW22564   6.400   6.560   3.712
 7222SOL    HW122565   6.423   6.478   3.764
 7222SOL    HW222566   6.394   6.536   3.614
 7223SOL     OW22567   3.269   1.618   0.917
 7223SOL    HW122568   3.284   1.520   0.912
 7223SOL    HW222569   3.324   1.664   0.847
 7224SOL     OW22570   5.405   2.719   3.953
 7224SOL    HW122571   5.475   2.753   4.017
 7224SOL    HW222572   5.393   2.620   3.967
 7225SOL     OW22573   1.319   6.387   0.627
 7225SOL    HW122574   1.224   6.411   0.646
 7225SOL    HW222575   1.332   6.379   0.529
 7226SOL     OW22576   5.446   0.057   1.074
 7226SOL    HW122577   5.372   0.107   1.027
 7226SOL    HW222578   5.406   7.013   1.134
 7227SOL     OW22579   2.647   1.745   1.006
 7227SOL    HW122580   2.663   1.666   0.947
 7227SOL    HW222581   2.658   1.829   0.953
 7228SOL     OW22582   1.357   1.691   2.537
 7228SOL    HW122583   1.353   1.744   2.453
 7228SOL    HW222584   1.276   1.633   2.544
 7229SOL     OW22585   1.284   5.879   5.903
 7229SOL    HW122586   1.375   5.921   5.903
 7229SOL    HW222587   1.214   5.950   5.907
 7230SOL     OW22588   3.708   5.808   4.418
 7230SOL    HW122589   3.647   5.732   4.438
 7230SOL    HW222590   3.745   5.798   4.326
 7231SOL     OW22591   3.617   0.459   6.593
 7231SOL    HW122592   3.525   0.494   6.610
 7231SOL    HW222593   3.618   0.410   6.506
 7232SOL     OW22594   4.962   5.881   2.925
 7232SOL    HW122595   4.902   5.861   3.002
 7232SOL    HW222596   4.907   5.909   2.847
 7233SOL     OW22597   1.541   1.606   4.272
 7233SOL    HW122598   1.640   1.620   4.278
 7233SOL    HW222599   1.497   1.690   4.241
 7234SOL     OW22600   6.254   3.103   2.978
 7234SOL    HW122601   6.162   3.132   2.953
 7234SOL    HW222602   6.314   3.108   2.898
 7235SOL     OW22603   0.009   4.550   2.431
 7235SOL    HW122604   6.938   4.524   2.432
 7235SOL    HW222605   0.028   4.607   2.511
 7236SOL     OW22606   2.938   1.938   2.209
 7236SOL    HW122607   2.870   1.902   2.144
 7236SOL    HW222608   2.989   2.012   2.165
 7237SOL     OW22609   4.119   0.152   4.979
 7237SOL    HW122610   4.104   0.071   4.922
 7237SOL    HW222611   4.198   0.202   4.944
 7238SOL     OW22612   4.293   2.262   6.596
 7238SOL    HW122613   4.218   2.226   6.652
 7238SOL    HW222614   4.284   2.229   6.503
 7239SOL     OW22615   0.409   1.987   1.738
 7239SOL    HW122616   0.427   1.893   1.767
 7239SOL    HW222617   0.462   2.007   1.656
 7240SOL     OW22618   0.468   1.081   5.706
 7240SOL    HW122619   0.475   1.142   5.784
 7240SOL    HW222620   0.546   1.018   5.705
 7241SOL     OW22621   2.535   0.443   1.127
 7241SOL    HW122622   2.521   0.541   1.138
 7241SOL    HW222623   2.627   0.427   1.092
 7242SOL     OW22624   6.344   5.931   6.624
 7242SOL    HW122625   6.335   5.907   6.721
 7242SOL    HW222626   6.371   5.850   6.572
 7243SOL     OW22627   6.289   4.213   6.852
 7243SOL    HW122628   6.281   4.313   6.857
 7243SOL    HW222629   6.198   4.173   6.859
 7244SOL     OW22630   6.932   0.755   1.742
 7244SOL    HW122631   6.953   0.714   1.654
 7244SOL    HW222632   6.972   0.846   1.748
 7245SOL     OW22633   1.836   2.871   4.883
 7245SOL    HW122634   1.793   2.785   4.856
 7245SOL    HW222635   1.910   2.852   4.948
 7246SOL     OW22636   0.858   0.533   3.558
 7246SOL    HW122637   0.770   0.495   3.587
 7246SOL    HW222638   0.847   0.581   3.471
 7247SOL     OW22639   2.037   1.833   5.064
 7247SOL    HW122640   1.971   1.766   5.028
 7247SOL    HW222641   2.119   1.833   5.005
 7248SOL     OW22642   3.198   1.526   3.075
 7248SOL    HW122643   3.265   1.586   3.031
 7248SOL    HW222644   3.126   1.502   3.010
 7249SOL     OW22645   4.949   5.084   1.973
 7249SOL    HW122646   4.871   5.144   1.954
 7249SOL    HW222647   5.019   5.136   2.022
 7250SOL     OW22648   5.719   6.204   5.989
 7250SOL    HW122649   5.703   6.281   5.928
 7250SOL    HW222650   5.632   6.161   6.013
 7251SOL     OW22651   0.324   6.964   5.778
 7251SOL    HW122652   0.297   6.942   5.684
 7251SOL    HW222653   0.421   6.988   5.780
 7252SOL     OW22654   3.737   3.136   2.070
 7252SOL    HW122655   3.746   3.036   2.066
 7252SOL    HW222656   3.641   3.160   2.071
 7253SOL     OW22657   2.125   6.136   0.036
 7253SOL    HW122658   2.155   6.171   0.124
 7253SOL    HW222659   2.038   6.180   0.011
 7254SOL     OW22660   5.394   5.070   4.646
 7254SOL    HW122661   5.373   5.025   4.733
 7254SOL    HW222662   5.414   5.000   4.577
 7255SOL     OW22663   4.167   3.862   0.267
 7255SOL    HW122664   4.198   3.821   0.353
 7255SOL    HW222665   4.074   3.898   0.280
 7256SOL     OW22666   2.923   6.121   4.563
 7256SOL    HW122667   2.934   6.022   4.573
 7256SOL    HW222668   3.013   6.164   4.561
 7257SOL     OW22669   6.574   1.843   3.118
 7257SOL    HW122670   6.530   1.914   3.173
 7257SOL    HW222671   6.637   1.791   3.175
 7258SOL     OW22672   4.862   1.642   3.016
 7258SOL    HW122673   4.889   1.727   3.062
 7258SOL    HW222674   4.944   1.591   2.990
 7259SOL     OW22675   1.739   3.697   1.325
 7259SOL    HW122676   1.730   3.603   1.357
 7259SOL    HW222677   1.831   3.731   1.349
 7260SOL     OW22678   5.034   1.610   1.641
 7260SOL    HW122679   5.089   1.528   1.657
 7260SOL    HW222680   4.978   1.630   1.722
 7261SOL     OW22681   1.506   3.843   1.827
 7261SOL    HW122682   1.553   3.764   1.866
 7261SOL    HW222683   1.450   3.887   1.897
 7262SOL     OW22684   5.409   2.741   6.316
 7262SOL    HW122685   5.423   2.673   6.388
 7262SOL    HW222686   5.317   2.730   6.278
 7263SOL     OW22687   0.891   6.446   0.045
 7263SOL    HW122688   0.906   6.355   0.086
 7263SOL    HW222689   0.870   6.512   0.118
 7264SOL     OW22690   4.982   1.924   6.905
 7264SOL    HW122691   4.902   1.977   6.876
 7264SOL    HW222692   4.986   1.839   6.852
 7265SOL     OW22693   5.673   5.510   5.702
 7265SOL    HW122694   5.623   5.548   5.780
 7265SOL    HW222695   5.747   5.451   5.736
 7266SOL     OW22696   5.608   0.199   2.496
 7266SOL    HW122697   5.601   0.280   2.554
 7266SOL    HW222698   5.550   0.211   2.415
 7267SOL     OW22699   6.279   6.634   5.201
 7267SOL    HW122700   6.264   6.591   5.112
 7267SOL    HW222701   6.294   6.563   5.270
 7268SOL     OW22702   6.642   5.458   4.115
 7268SOL    HW122703   6.574   5.458   4.188
 7268SOL    HW222704   6.729   5.492   4.151
 7269SOL     OW22705   0.828   6.173   6.345
 7269SOL    HW122706   0.887   6.208   6.272
 7269SOL    HW222707   0.749   6.234   6.355
 7270SOL     OW22708   0.948   3.529   4.961
 7270SOL    HW122709   1.017   3.600   4.954
 7270SOL    HW222710   0.991   3.442   4.986
 7271SOL     OW22711   0.788   5.477   4.605
 7271SOL    HW122712   0.713   5.412   4.599
 7271SOL    HW222713   0.861   5.439   4.661
 7272SOL     OW22714   6.319   4.914   2.210
 7272SOL    HW122715   6.247   4.976   2.183
 7272SOL    HW222716   6.407   4.962   2.211
 7273SOL     OW22717   6.283   4.312   1.266
 7273SOL    HW122718   6.312   4.372   1.341
 7273SOL    HW222719   6.349   4.318   1.192
 7274SOL     OW22720   0.203   5.477   6.601
 7274SOL    HW122721   0.231   5.385   6.629
 7274SOL    HW222722   0.283   5.527   6.566
 7275SOL     OW22723   0.601   6.545   2.742
 7275SOL    HW122724   0.693   6.521   2.771
 7275SOL    HW222725   0.569   6.479   2.673
 7276SOL     OW22726   4.914   1.035   3.115
 7276SOL    HW122727   4.929   1.016   3.018
 7276SOL    HW222728   4.817   1.050   3.131
 7277SOL     OW22729   4.855   0.863   4.416
 7277SOL    HW122730   4.837   0.953   4.456
 7277SOL    HW222731   4.953   0.853   4.398
 7278SOL     OW22732   3.970   2.283   1.757
 7278SOL    HW122733   4.018   2.246   1.836
 7278SOL    HW222734   3.871   2.284   1.775
 7279SOL     OW22735   3.978   4.698   5.637
 7279SOL    HW122736   3.974   4.784   5.587
 7279SOL    HW222737   3.935   4.709   5.727
 7280SOL     OW22738   0.409   1.675   3.837
 7280SOL    HW122739   0.421   1.630   3.926
 7280SOL    HW222740   0.439   1.614   3.764
 7281SOL     OW22741   2.409   1.689   6.879
 7281SOL    HW122742   2.468   1.666   6.957
 7281SOL    HW222743   2.322   1.726   6.912
 7282SOL     OW22744   6.051   4.982   2.572
 7282SOL    HW122745   6.127   5.038   2.605
 7282SOL    HW222746   6.071   4.886   2.589
 7283SOL     OW22747   5.083   0.736   2.547
 7283SOL    HW122748   5.113   0.830   2.531
 7283SOL    HW222749   5.148   0.690   2.607
 7284SOL     OW22750   0.107   2.404   6.105
 7284SOL    HW122751   0.197   2.416   6.148
 7284SOL    HW222752   0.042   2.467   6.148
 7285SOL     OW22753   5.816   3.038   2.474
 7285SOL    HW122754   5.805   3.108   2.545
 7285SOL    HW222755   5.820   3.082   2.384
 7286SOL     OW22756   2.429   0.960   0.444
 7286SOL    HW122757   2.488   0.884   0.416
 7286SOL    HW222758   2.377   0.992   0.365
 7287SOL     OW22759   0.471   2.817   5.831
 7287SOL    HW122760   0.432   2.756   5.762
 7287SOL    HW222761   0.559   2.852   5.799
 7288SOL     OW22762   1.992   1.141   1.160
 7288SOL    HW122763   1.987   1.161   1.257
 7288SOL    HW222764   2.062   1.072   1.143
 7289SOL     OW22765   5.472   2.245   4.061
 7289SOL    HW122766   5.401   2.303   4.020
 7289SOL    HW222767   5.491   2.168   4.000
 7290SOL     OW22768   3.753   1.409   4.931
 7290SOL    HW122769   3.812   1.328   4.920
 7290SOL    HW222770   3.787   1.482   4.871
 7291SOL     OW22771   1.861   6.456   0.432
 7291SOL    HW122772   1.779   6.498   0.472
 7291SOL    HW222773   1.881   6.371   0.480
 7292SOL     OW22774   3.670   1.405   3.749
 7292SOL    HW122775   3.649   1.364   3.838
 7292SOL    HW222776   3.715   1.337   3.691
 7293SOL     OW22777   1.336   2.163   4.622
 7293SOL    HW122778   1.269   2.149   4.695
 7293SOL    HW222779   1.296   2.221   4.551
 7294SOL     OW22780   3.079   4.958   6.843
 7294SOL    HW122781   3.038   4.902   6.915
 7294SOL    HW222782   3.029   5.045   6.836
 7295SOL     OW22783   5.953   3.081   1.683
 7295SOL    HW122784   5.902   3.070   1.598
 7295SOL    HW222785   5.890   3.111   1.755
 7296SOL     OW22786   3.379   5.750   2.463
 7296SOL    HW122787   3.330   5.760   2.550
 7296SOL    HW222788   3.471   5.786   2.472
 7297SOL     OW22789   4.239   0.241   1.407
 7297SOL    HW122790   4.284   0.240   1.318
 7297SOL    HW222791   4.304   0.272   1.477
 7298SOL     OW22792   5.096   5.452   5.830
 7298SOL    HW122793   5.121   5.461   5.734
 7298SOL    HW222794   5.021   5.385   5.839
 7299SOL     OW22795   1.209   2.285   0.918
 7299SOL    HW122796   1.248   2.196   0.892
 7299SOL    HW222797   1.140   2.270   0.989
 7300SOL     OW22798   0.709   6.772   2.660
 7300SOL    HW122799   0.655   6.846   2.619
 7300SOL    HW222800   0.648   6.705   2.702
 7301SOL     OW22801   5.898   1.497   4.305
 7301SOL    HW122802   5.816   1.477   4.359
 7301SOL    HW222803   5.970   1.531   4.365
 7302SOL     OW22804   1.107   2.325   5.254
 7302SOL    HW122805   1.121   2.238   5.302
 7302SOL    HW222806   1.026   2.371   5.290
 7303SOL     OW22807   3.935   0.754   6.950
 7303SOL    HW122808   3.908   0.706   6.867
 7303SOL    HW222809   3.865   0.740   7.020
 7304SOL     OW22810   3.303   5.350   2.066
 7304SOL    HW122811   3.297   5.331   2.164
 7304SOL    HW222812   3.396   5.333   2.034
 7305SOL     OW22813   4.667   0.408   0.590
 7305SOL    HW122814   4.736   0.361   0.646
 7305SOL    HW222815   4.679   0.507   0.599
 7306SOL     OW22816   5.084   1.404   0.826
 7306SOL    HW122817   5.060   1.324   0.881
 7306SOL    HW222818   5.017   1.418   0.754
 7307SOL     OW22819   2.692   6.693   2.691
 7307SOL    HW122820   2.725   6.671   2.783
 7307SOL    HW222821   2.689   6.610   2.636
 7308SOL     OW22822   6.900   3.111   5.477
 7308SOL    HW122823   6.830   3.182   5.470
 7308SOL    HW222824   6.877   3.035   5.417
 7309SOL     OW22825   3.992   4.886   1.117
 7309SOL    HW122826   4.051   4.824   1.066
 7309SOL    HW222827   3.922   4.834   1.167
 7310SOL     OW22828   2.406   3.956   1.010
 7310SOL    HW122829   2.334   4.000   1.064
 7310SOL    HW222830   2.365   3.907   0.933
 7311SOL     OW22831   2.096   1.946   1.366
 7311SOL    HW122832   2.102   2.012   1.442
 7311SOL    HW222833   2.155   1.976   1.291
 7312SOL     OW22834   1.130   3.719   4.872
 7312SOL    HW122835   1.206   3.680   4.821
 7312SOL    HW222836   1.152   3.719   4.969
 7313SOL     OW22837   1.989   0.977   0.340
 7313SOL    HW122838   1.999   1.000   0.437
 7313SOL    HW222839   2.076   0.991   0.293
 7314SOL     OW22840   0.267   5.123   6.165
 7314SOL    HW122841   0.198   5.060   6.201
 7314SOL    HW222842   0.331   5.147   6.238
 7315SOL     OW22843   6.356   6.751   2.380
 7315SOL    HW122844   6.389   6.808   2.455
 7315SOL    HW222845   6.294   6.681   2.415
 7316SOL     OW22846   3.687   3.715   6.936
 7316SOL    HW122847   3.783   3.688   6.941
 7316SOL    HW222848   3.658   3.751   7.025
 7317SOL     OW22849   5.127   1.345   3.159
 7317SOL    HW122850   5.066   1.293   3.219
 7317SOL    HW222851   5.212   1.294   3.146
 7318SOL     OW22852   2.112   0.529   2.247
 7318SOL    HW122853   2.083   0.459   2.313
 7318SOL    HW222854   2.178   0.590   2.290
 7319SOL     OW22855   0.092   3.249   6.670
 7319SOL    HW122856   0.071   3.158   6.633
 7319SOL    HW222857   0.016   3.281   6.726
 7320SOL     OW22858   0.537   3.716   2.976
 7320SOL    HW122859   0.474   3.790   2.998
 7320SOL    HW222860   0.570   3.675   3.061
 7321SOL     OW22861   2.058   0.973   5.942
 7321SOL    HW122862   2.050   0.873   5.952
 7321SOL    HW222863   2.152   0.997   5.922
 7322SOL     OW22864   6.696   2.579   3.602
 7322SOL    HW122865   6.633   2.608   3.675
 7322SOL    HW222866   6.785   2.556   3.643
 7323SOL     OW22867   1.904   2.521   1.515
 7323SOL    HW122868   1.973   2.523   1.588
 7323SOL    HW222869   1.907   2.607   1.464
 7324SOL     OW22870   4.535   5.917   1.879
 7324SOL    HW122871   4.458   5.951   1.826
 7324SOL    HW222872   4.621   5.946   1.836
 7325SOL     OW22873   2.952   0.297   6.856
 7325SOL    HW122874   3.044   0.260   6.869
 7325SOL    HW222875   2.885   0.225   6.875
 7326SOL     OW22876   2.567   5.797   6.227
 7326SOL    HW122877   2.479   5.828   6.191
 7326SOL    HW222878   2.606   5.729   6.165
 7327SOL     OW22879   6.509   1.795   6.186
 7327SOL    HW122880   6.474   1.775   6.094
 7327SOL    HW222881   6.513   1.893   6.200
 7328SOL     OW22882   3.290   0.499   5.816
 7328SOL    HW122883   3.386   0.525   5.805
 7328SOL    HW222884   3.278   0.406   5.783
 7329SOL     OW22885   6.700   4.143   1.107
 7329SOL    HW122886   6.608   4.125   1.074
 7329SOL    HW222887   6.726   4.074   1.175
 7330SOL     OW22888   2.431   2.786   6.455
 7330SOL    HW122889   2.390   2.711   6.507
 7330SOL    HW222890   2.369   2.813   6.381
 7331SOL     OW22891   4.882   6.281   1.438
 7331SOL    HW122892   4.835   6.227   1.368
 7331SOL    HW222893   4.981   6.265   1.430
 7332SOL     OW22894   3.120   5.858   0.278
 7332SOL    HW122895   3.164   5.913   0.348
 7332SOL    HW222896   3.069   5.918   0.216
 7333SOL     OW22897   6.967   3.077   2.010
 7333SOL    HW122898   6.870   3.061   2.028
 7333SOL    HW222899   6.978   3.154   1.948
 7334SOL     OW22900   2.581   5.777   6.507
 7334SOL    HW122901   2.578   5.771   6.407
 7334SOL    HW222902   2.519   5.848   6.539
 7335SOL     OW22903   1.588   2.552   3.534
 7335SOL    HW122904   1.518   2.490   3.497
 7335SOL    HW222905   1.625   2.513   3.618
 7336SOL     OW22906   1.484   6.402   2.893
 7336SOL    HW122907   1.455   6.491   2.929
 7336SOL    HW222908   1.478   6.334   2.966
 7337SOL     OW22909   1.128   3.193   1.220
 7337SOL    HW122910   1.112   3.277   1.168
 7337SOL    HW222911   1.171   3.125   1.161
 7338SOL     OW22912   5.556   1.884   1.732
 7338SOL    HW122913   5.614   1.848   1.805
 7338SOL    HW222914   5.554   1.984   1.736
 7339SOL     OW22915   6.177   0.370   3.744
 7339SOL    HW122916   6.263   0.325   3.720
 7339SOL    HW222917   6.196   0.453   3.796
 7340SOL     OW22918   3.322   1.685   0.162
 7340SOL    HW122919   3.407   1.666   0.211
 7340SOL    HW222920   3.342   1.734   0.077
 7341SOL     OW22921   1.113   4.220   5.888
 7341SOL    HW122922   1.030   4.238   5.940
 7341SOL    HW222923   1.097   4.142   5.827
 7342SOL     OW22924   0.299   1.672   0.240
 7342SOL    HW122925   0.245   1.613   0.300
 7342SOL    HW222926   0.352   1.736   0.294
 7343SOL     OW22927   6.273   4.029   1.318
 7343SOL    HW122928   6.252   4.036   1.415
 7343SOL    HW222929   6.264   4.119   1.276
 7344SOL     OW22930   1.051   1.276   6.059
 7344SOL    HW122931   1.053   1.191   6.006
 7344SOL    HW222932   1.141   1.320   6.055
 7345SOL     OW22933   4.587   4.794   5.227
 7345SOL    HW122934   4.610   4.823   5.320
 7345SOL    HW222935   4.550   4.871   5.175
 7346SOL     OW22936   4.338   4.724   1.713
 7346SOL    HW122937   4.375   4.631   1.721
 7346SOL    HW222938   4.389   4.774   1.644
 7347SOL     OW22939   0.394   2.391   0.164
 7347SOL    HW122940   0.489   2.373   0.188
 7347SOL    HW222941   0.335   2.370   0.242
 7348SOL     OW22942   1.640   3.800   4.394
 7348SOL    HW122943   1.601   3.747   4.469
 7348SOL    HW222944   1.628   3.750   4.308
 7349SOL     OW22945   4.717   1.682   1.758
 7349SOL    HW122946   4.673   1.592   1.755
 7349SOL    HW222947   4.802   1.676   1.810
 7350SOL     OW22948   2.273   3.152   5.665
 7350SOL    HW122949   2.363   3.123   5.698
 7350SOL    HW222950   2.216   3.072   5.647
 7351SOL     OW22951   5.644   6.192   5.294
 7351SOL    HW122952   5.652   6.114   5.357
 7351SOL    HW222953   5.552   6.229   5.299
 7352SOL     OW22954   2.243   0.883   3.363
 7352SOL    HW122955   2.292   0.822   3.301
 7352SOL    HW222956   2.308   0.924   3.427
 7353SOL     OW22957   0.913   0.154   6.377
 7353SOL    HW122958   0.934   0.183   6.471
 7353SOL    HW222959   0.833   0.204   6.344
 7354SOL     OW22960   0.616   2.461   5.071
 7354SOL    HW122961   0.608   2.369   5.033
 7354SOL    HW222962   0.525   2.502   5.078
 7355SOL     OW22963   1.509   0.487   0.864
 7355SOL    HW122964   1.605   0.464   0.879
 7355SOL    HW222965   1.463   0.495   0.953
 7356SOL     OW22966   3.896   3.959   6.053
 7356SOL    HW122967   3.885   3.863   6.028
 7356SOL    HW222968   3.943   3.966   6.141
 7357SOL     OW22969   3.754   6.827   1.447
 7357SOL    HW122970   3.756   6.915   1.399
 7357SOL    HW222971   3.702   6.836   1.531
 7358SOL     OW22972   5.937   3.460   2.901
 7358SOL    HW122973   5.927   3.552   2.863
 7358SOL    HW222974   6.033   3.443   2.924
 7359SOL     OW22975   3.509   1.959   6.191
 7359SOL    HW122976   3.587   1.902   6.216
 7359SOL    HW222977   3.446   1.965   6.268
 7360SOL     OW22978   3.062   3.599   5.793
 7360SOL    HW122979   3.160   3.583   5.782
 7360SOL    HW222980   3.028   3.650   5.714
 7361SOL     OW22981   4.271   0.211   2.011
 7361SOL    HW122982   4.349   0.185   1.954
 7361SOL    HW222983   4.304   0.246   2.098
 7362SOL     OW22984   1.668   4.617   5.588
 7362SOL    HW122985   1.690   4.621   5.490
 7362SOL    HW222986   1.649   4.522   5.613
 7363SOL     OW22987   4.606   1.833   1.570
 7363SOL    HW122988   4.649   1.778   1.641
 7363SOL    HW222989   4.553   1.907   1.611
 7364SOL     OW22990   4.730   0.743   1.538
 7364SOL    HW122991   4.699   0.733   1.444
 7364SOL    HW222992   4.652   0.770   1.596
 7365SOL     OW22993   0.020   5.952   1.944
 7365SOL    HW122994   0.047   5.885   1.874
 7365SOL    HW222995   6.986   5.908   2.011
 7366SOL     OW22996   2.893   6.004   6.854
 7366SOL    HW122997   2.877   6.085   6.911
 7366SOL    HW222998   2.892   6.031   6.758
 7367SOL     OW22999   5.498   2.740   1.155
 7367SOL    HW123000   5.517   2.642   1.153
 7367SOL    HW223001   5.505   2.776   1.062
 7368SOL     OW23002   3.437   2.964   2.749
 7368SOL    HW123003   3.502   3.022   2.699
 7368SOL    HW223004   3.477   2.935   2.835
 7369SOL     OW23005   3.831   1.976   0.202
 7369SOL    HW123006   3.846   1.956   0.105
 7369SOL    HW223007   3.801   2.071   0.212
 7370SOL     OW23008   2.368   0.652   4.417
 7370SOL    HW123009   2.454   0.621   4.458
 7370SOL    HW223010   2.311   0.694   4.488
 7371SOL     OW23011   2.491   6.362   3.263
 7371SOL    HW123012   2.590   6.367   3.250
 7371SOL    HW223013   2.471   6.325   3.354
 7372SOL     OW23014   4.550   1.239   4.227
 7372SOL    HW123015   4.490   1.159   4.237
 7372SOL    HW223016   4.618   1.219   4.157
 7373SOL     OW23017   6.174   1.392   3.600
 7373SOL    HW123018   6.227   1.468   3.636
 7373SOL    HW223019   6.139   1.336   3.675
 7374SOL     OW23020   2.618   1.744   5.066
 7374SOL    HW123021   2.608   1.786   5.157
 7374SOL    HW223022   2.610   1.815   4.996
 7375SOL     OW23023   2.753   2.326   2.831
 7375SOL    HW123024   2.772   2.310   2.734
 7375SOL    HW223025   2.807   2.263   2.886
 7376SOL     OW23026   2.677   2.343   0.588
 7376SOL    HW123027   2.712   2.266   0.535
 7376SOL    HW223028   2.678   2.320   0.685
 7377SOL     OW23029   5.471   4.559   0.862
 7377SOL    HW123030   5.567   4.535   0.849
 7377SOL    HW223031   5.453   4.574   0.959
 7378SOL     OW23032   0.560   0.645   5.953
 7378SOL    HW123033   0.542   0.547   5.945
 7378SOL    HW223034   0.477   0.696   5.932
 7379SOL     OW23035   3.175   1.619   2.722
 7379SOL    HW123036   3.242   1.553   2.756
 7379SOL    HW223037   3.190   1.708   2.766
 7380SOL     OW23038   6.976   4.565   3.938
 7380SOL    HW123039   6.994   4.479   3.890
 7380SOL    HW223040   6.912   4.548   4.013
 7381SOL     OW23041   3.961   3.200   0.626
 7381SOL    HW123042   3.999   3.139   0.556
 7381SOL    HW223043   4.032   3.264   0.655
 7382SOL     OW23044   0.451   6.738   5.540
 7382SOL    HW123045   0.490   6.758   5.630
 7382SOL    HW223046   0.450   6.639   5.526
 7383SOL     OW23047   2.385   6.445   0.753
 7383SOL    HW123048   2.358   6.353   0.726
 7383SOL    HW223049   2.455   6.440   0.825
 7384SOL     OW23050   6.130   6.632   3.021
 7384SOL    HW123051   6.207   6.685   3.058
 7384SOL    HW223052   6.161   6.583   2.939
 7385SOL     OW23053   3.639   5.846   2.459
 7385SOL    HW123054   3.701   5.861   2.382
 7385SOL    HW223055   3.687   5.794   2.530
 7386SOL     OW23056   0.251   2.437   6.991
 7386SOL    HW123057   0.314   2.434   0.044
 7386SOL    HW223058   0.298   2.404   6.910
 7387SOL     OW23059   6.236   6.467   5.420
 7387SOL    HW123060   6.310   6.412   5.457
 7387SOL    HW223061   6.151   6.445   5.467
 7388SOL     OW23062   1.207   5.690   2.150
 7388SOL    HW123063   1.215   5.789   2.137
 7388SOL    HW223064   1.182   5.670   2.245
 7389SOL     OW23065   6.056   3.778   6.671
 7389SOL    HW123066   6.069   3.877   6.671
 7389SOL    HW223067   6.055   3.745   6.576
 7390SOL     OW23068   1.446   1.793   1.028
 7390SOL    HW123069   1.462   1.814   1.125
 7390SOL    HW223070   1.390   1.711   1.020
 7391SOL     OW23071   4.109   3.655   3.903
 7391SOL    HW123072   4.066   3.736   3.943
 7391SOL    HW223073   4.138   3.593   3.976
 7392SOL     OW23074   2.783   6.577   6.375
 7392SOL    HW123075   2.750   6.664   6.412
 7392SOL    HW223076   2.811   6.589   6.280
 7393SOL     OW23077   6.048   4.682   2.625
 7393SOL    HW123078   6.079   4.591   2.651
 7393SOL    HW223079   6.035   4.687   2.526
 7394SOL     OW23080   2.478   2.897   5.991
 7394SOL    HW123081   2.452   2.899   6.087
 7394SOL    HW223082   2.506   2.805   5.965
 7395SOL     OW23083   1.876   3.060   1.420
 7395SOL    HW123084   1.828   3.071   1.507
 7395SOL    HW223085   1.880   2.963   1.396
 7396SOL     OW23086   1.461   6.289   1.492
 7396SOL    HW123087   1.508   6.297   1.580
 7396SOL    HW223088   1.504   6.349   1.426
 7397SOL     OW23089   4.323   5.313   4.256
 7397SOL    HW123090   4.373   5.381   4.310
 7397SOL    HW223091   4.318   5.344   4.161
 7398SOL     OW23092   1.751   4.938   4.037
 7398SOL    HW123093   1.725   4.899   3.948
 7398SOL    HW223094   1.730   4.872   4.109
 7399SOL     OW23095   0.799   3.102   4.663
 7399SOL    HW123096   0.744   3.115   4.746
 7399SOL    HW223097   0.820   3.005   4.653
 7400SOL     OW23098   4.345   2.946   6.105
 7400SOL    HW123099   4.289   2.912   6.181
 7400SOL    HW223100   4.337   3.045   6.100
 7401SOL     OW23101   1.240   2.566   4.203
 7401SOL    HW123102   1.273   2.641   4.144
 7401SOL    HW223103   1.248   2.593   4.298
 7402SOL     OW23104   3.129   5.673   6.357
 7402SOL    HW123105   3.190   5.741   6.399
 7402SOL    HW223106   3.181   5.589   6.340
 7403SOL     OW23107   2.137   3.474   2.471
 7403SOL    HW123108   2.175   3.434   2.387
 7403SOL    HW223109   2.155   3.412   2.547
 7404SOL     OW23110   2.513   4.942   1.677
 7404SOL    HW123111   2.515   4.874   1.750
 7404SOL    HW223112   2.460   5.021   1.707
 7405SOL     OW23113   3.643   5.351   4.751
 7405SOL    HW123114   3.563   5.332   4.694
 7405SOL    HW223115   3.615   5.401   4.833
 7406SOL     OW23116   0.239   2.793   3.440
 7406SOL    HW123117   0.258   2.734   3.519
 7406SOL    HW223118   0.319   2.796   3.380
 7407SOL     OW23119   0.986   0.036   5.493
 7407SOL    HW123120   1.042   7.007   5.431
 7407SOL    HW223121   0.933   7.002   5.552
 7408SOL     OW23122   3.259   4.033   6.889
 7408SOL    HW123123   3.193   4.047   6.816
 7408SOL    HW223124   3.312   4.117   6.903
 7409SOL     OW23125   5.332   3.147   0.188
 7409SOL    HW123126   5.345   3.087   0.267
 7409SOL    HW223127   5.354   3.097   0.105
 7410SOL     OW23128   0.272   0.141   0.292
 7410SOL    HW123129   0.341   0.114   0.225
 7410SOL    HW223130   0.235   0.059   0.336
 7411SOL     OW23131   1.866   0.681   6.611
 7411SOL    HW123132   1.946   0.719   6.659
 7411SOL    HW223133   1.798   0.652   6.678
 7412SOL     OW23134   5.208   0.545   1.812
 7412SOL    HW123135   5.231   0.639   1.787
 7412SOL    HW223136   5.179   0.543   1.908
 7413SOL     OW23137   4.831   5.358   4.071
 7413SOL    HW123138   4.813   5.443   4.122
 7413SOL    HW223139   4.749   5.331   4.022
 7414SOL     OW23140   1.018   1.129   3.325
 7414SOL    HW123141   0.965   1.084   3.253
 7414SOL    HW223142   1.018   1.072   3.407
 7415SOL     OW23143   1.339   4.788   4.290
 7415SOL    HW123144   1.340   4.722   4.215
 7415SOL    HW223145   1.389   4.870   4.263
 7416SOL     OW23146   2.022   1.340   2.676
 7416SOL    HW123147   2.078   1.273   2.626
 7416SOL    HW223148   2.082   1.409   2.717
 7417SOL     OW23149   2.238   1.966   1.136
 7417SOL    HW123150   2.318   1.986   1.080
 7417SOL    HW223151   2.200   1.877   1.109
 7418SOL     OW23152   2.425   5.740   0.362
 7418SOL    HW123153   2.501   5.679   0.385
 7418SOL    HW223154   2.343   5.712   0.412
 7419SOL     OW23155   0.163   2.969   3.922
 7419SOL    HW123156   0.166   3.063   3.956
 7419SOL    HW223157   0.152   2.906   4.000
 7420SOL     OW23158   0.678   6.491   1.577
 7420SOL    HW123159   0.634   6.486   1.488
 7420SOL    HW223160   0.608   6.493   1.649
 7421SOL     OW23161   3.853   3.928   1.273
 7421SOL    HW123162   3.797   3.989   1.216
 7421SOL    HW223163   3.904   3.866   1.214
 7422SOL     OW23164   0.063   4.189   2.398
 7422SOL    HW123165   7.021   4.172   2.469
 7422SOL    HW223166   0.060   4.116   2.329
 7423SOL     OW23167   6.355   2.694   5.658
 7423SOL    HW123168   6.317   2.785   5.676
 7423SOL    HW223169   6.324   2.662   5.569
 7424SOL     OW23170   6.795   0.392   5.710
 7424SOL    HW123171   6.847   0.477   5.706
 7424SOL    HW223172   6.857   0.316   5.731
 7425SOL     OW23173   4.072   6.628   0.350
 7425SOL    HW123174   3.998   6.683   0.388
 7425SOL    HW223175   4.038   6.573   0.275
 7426SOL     OW23176   3.032   2.088   5.599
 7426SOL    HW123177   3.089   2.161   5.639
 7426SOL    HW223178   2.998   2.029   5.672
 7427SOL     OW23179   5.019   0.786   3.331
 7427SOL    HW123180   4.992   0.876   3.297
 7427SOL    HW223181   4.982   0.773   3.423
 7428SOL     OW23182   4.781   1.818   5.261
 7428SOL    HW123183   4.832   1.844   5.179
 7428SOL    HW223184   4.829   1.852   5.342
 7429SOL     OW23185   0.140   6.607   4.251
 7429SOL    HW123186   0.123   6.548   4.330
 7429SOL    HW223187   0.104   6.564   4.168
 7430SOL     OW23188   1.170   3.548   0.900
 7430SOL    HW123189   1.264   3.533   0.931
 7430SOL    HW223190   1.149   3.483   0.827
 7431SOL     OW23191   1.501   2.685   2.736
 7431SOL    HW123192   1.539   2.606   2.785
 7431SOL    HW223193   1.428   2.727   2.791
 7432SOL     OW23194   0.834   1.035   3.121
 7432SOL    HW123195   0.898   1.023   3.045
 7432SOL    HW223196   0.763   1.101   3.095
 7433SOL     OW23197   4.433   5.530   6.164
 7433SOL    HW123198   4.507   5.556   6.226
 7433SOL    HW223199   4.431   5.430   6.155
 7434SOL     OW23200   4.814   5.101   5.088
 7434SOL    HW123201   4.821   5.032   5.160
 7434SOL    HW223202   4.879   5.175   5.106
 7435SOL     OW23203   4.336   5.635   1.319
 7435SOL    HW123204   4.305   5.612   1.227
 7435SOL    HW223205   4.266   5.691   1.365
 7436SOL     OW23206   4.117   4.353   6.460
 7436SOL    HW123207   4.034   4.407   6.447
 7436SOL    HW223208   4.179   4.402   6.521
 7437SOL     OW23209   1.924   5.681   0.156
 7437SOL    HW123210   1.924   5.610   0.085
 7437SOL    HW223211   1.833   5.720   0.165
 7438SOL     OW23212   0.977   6.046   0.638
 7438SOL    HW123213   0.985   5.975   0.568
 7438SOL    HW223214   0.885   6.045   0.677
 7439SOL     OW23215   1.778   6.791   5.738
 7439SOL    HW123216   1.704   6.730   5.769
 7439SOL    HW223217   1.786   6.868   5.802
 7440SOL     OW23218   0.350   2.792   4.196
 7440SOL    HW123219   0.433   2.767   4.145
 7440SOL    HW223220   0.353   2.750   4.287
 7441SOL     OW23221   5.182   6.629   4.374
 7441SOL    HW123222   5.268   6.581   4.393
 7441SOL    HW223223   5.182   6.659   4.279
 7442SOL     OW23224   6.179   1.505   6.176
 7442SOL    HW123225   6.168   1.406   6.187
 7442SOL    HW223226   6.264   1.535   6.220
 7443SOL     OW23227   6.284   6.424   1.762
 7443SOL    HW123228   6.217   6.399   1.692
 7443SOL    HW223229   6.270   6.368   1.843
 7444SOL     OW23230   5.530   2.190   6.626
 7444SOL    HW123231   5.438   2.203   6.662
 7444SOL    HW223232   5.549   2.262   6.559
 7445SOL     OW23233   3.779   0.604   1.342
 7445SOL    HW123234   3.789   0.684   1.401
 7445SOL    HW223235   3.839   0.612   1.263
 7446SOL     OW23236   5.724   3.030   0.419
 7446SOL    HW123237   5.688   2.943   0.453
 7446SOL    HW223238   5.823   3.024   0.410
 7447SOL     OW23239   6.339   3.830   0.133
 7447SOL    HW123240   6.377   3.853   0.223
 7447SOL    HW223241   6.390   3.880   0.062
 7448SOL     OW23242   6.816   6.847   5.114
 7448SOL    HW123243   6.824   6.866   5.211
 7448SOL    HW223244   6.842   6.928   5.062
 7449SOL     OW23245   0.225   4.220   1.942
 7449SOL    HW123246   0.291   4.154   1.977
 7449SOL    HW223247   0.265   4.312   1.947
 7450SOL     OW23248   5.753   2.679   5.302
 7450SOL    HW123249   5.783   2.729   5.382
 7450SOL    HW223250   5.668   2.630   5.323
 7451SOL     OW23251   6.609   5.939   2.877
 7451SOL    HW123252   6.707   5.918   2.872
 7451SOL    HW223253   6.558   5.873   2.822
 7452SOL     OW23254   6.105   5.896   4.189
 7452SOL    HW123255   6.052   5.969   4.147
 7452SOL    HW223256   6.058   5.808   4.173
 7453SOL     OW23257   5.505   5.659   4.988
 7453SOL    HW123258   5.568   5.658   5.065
 7453SOL    HW223259   5.433   5.726   5.004
 7454SOL     OW23260   1.365   2.028   1.402
 7454SOL    HW123261   1.271   2.064   1.397
 7454SOL    HW223262   1.384   2.000   1.496
 7455SOL     OW23263   6.641   2.652   1.486
 7455SOL    HW123264   6.600   2.576   1.435
 7455SOL    HW223265   6.698   2.706   1.423
 7456SOL     OW23266   1.281   0.905   4.851
 7456SOL    HW123267   1.187   0.875   4.836
 7456SOL    HW223268   1.281   0.993   4.900
 7457SOL     OW23269   3.469   0.937   5.155
 7457SOL    HW123270   3.373   0.910   5.158
 7457SOL    HW223271   3.520   0.872   5.098
 7458SOL     OW23272   2.027   6.643   6.012
 7458SOL    HW123273   2.091   6.667   6.086
 7458SOL    HW223274   1.934   6.664   6.041
 7459SOL     OW23275   5.135   0.428   2.317
 7459SOL    HW123276   5.133   0.461   2.223
 7459SOL    HW223277   5.042   0.431   2.356
 7460SOL     OW23278   0.760   4.806   0.438
 7460SOL    HW123279   0.664   4.831   0.430
 7460SOL    HW223280   0.774   4.753   0.522
 7461SOL     OW23281   6.175   0.010   6.817
 7461SOL    HW123282   6.177   0.044   6.910
 7461SOL    HW223283   6.262   0.032   6.771
 7462SOL     OW23284   1.565   4.237   2.328
 7462SOL    HW123285   1.581   4.297   2.407
 7462SOL    HW223286   1.615   4.272   2.249
 7463SOL     OW23287   2.785   4.813   0.732
 7463SOL    HW123288   2.704   4.774   0.774
 7463SOL    HW223289   2.780   4.913   0.736
 7464SOL     OW23290   5.800   6.655   6.275
 7464SOL    HW123291   5.891   6.653   6.315
 7464SOL    HW223292   5.733   6.624   6.342
 7465SOL     OW23293   2.844   5.480   6.403
 7465SOL    HW123294   2.822   5.496   6.500
 7465SOL    HW223295   2.890   5.560   6.366
 7466SOL     OW23296   0.342   0.298   4.821
 7466SOL    HW123297   0.271   0.325   4.886
 7466SOL    HW223298   0.300   0.258   4.740
 7467SOL     OW23299   0.576   1.435   0.317
 7467SOL    HW123300   0.574   1.475   0.225
 7467SOL    HW223301   0.651   1.476   0.369
 7468SOL     OW23302   5.879   2.699   3.751
 7468SOL    HW123303   5.803   2.679   3.688
 7468SOL    HW223304   5.843   2.746   3.832
 7469SOL     OW23305   6.726   0.839   0.055
 7469SOL    HW123306   6.695   0.868   6.990
 7469SOL    HW223307   6.744   0.920   0.111
 7470SOL     OW23308   5.995   3.878   3.421
 7470SOL    HW123309   6.049   3.949   3.375
 7470SOL    HW223310   5.907   3.917   3.450
 7471SOL     OW23311   5.372   0.047   5.781
 7471SOL    HW123312   5.426   0.116   5.733
 7471SOL    HW223313   5.410   6.982   5.763
 7472SOL     OW23314   5.902   0.889   6.189
 7472SOL    HW123315   5.900   0.934   6.278
 7472SOL    HW223316   5.932   0.954   6.119
 7473SOL     OW23317   5.698   5.222   4.232
 7473SOL    HW123318   5.610   5.175   4.244
 7473SOL    HW223319   5.712   5.286   4.308
 7474SOL     OW23320   0.203   1.842   5.782
 7474SOL    HW123321   0.158   1.915   5.833
 7474SOL    HW223322   0.295   1.828   5.819
 7475SOL     OW23323   4.779   2.479   2.640
 7475SOL    HW123324   4.816   2.468   2.548
 7475SOL    HW223325   4.776   2.389   2.685
 7476SOL     OW23326   3.571   0.984   3.418
 7476SOL    HW123327   3.621   0.975   3.332
 7476SOL    HW223328   3.631   1.021   3.489
 7477SOL     OW23329   6.953   1.845   5.595
 7477SOL    HW123330   6.985   1.821   5.687
 7477SOL    HW223331   7.012   1.802   5.527
 7478SOL     OW23332   6.056   3.749   5.342
 7478SOL    HW123333   6.151   3.775   5.326
 7478SOL    HW223334   5.996   3.803   5.283
 7479SOL     OW23335   4.112   2.281   2.350
 7479SOL    HW123336   4.063   2.365   2.328
 7479SOL    HW223337   4.196   2.304   2.399
 7480SOL     OW23338   1.633   4.389   2.717
 7480SOL    HW123339   1.703   4.371   2.648
 7480SOL    HW223340   1.565   4.316   2.716
 7481SOL     OW23341   5.410   5.793   0.981
 7481SOL    HW123342   5.431   5.835   0.892
 7481SOL    HW223343   5.324   5.743   0.973
 7482SOL     OW23344   4.401   2.374   2.914
 7482SOL    HW123345   4.379   2.390   2.818
 7482SOL    HW223346   4.475   2.435   2.941
 7483SOL     OW23347   4.886   3.400   4.605
 7483SOL    HW123348   4.937   3.369   4.525
 7483SOL    HW223349   4.864   3.497   4.595
 7484SOL     OW23350   1.239   6.284   3.897
 7484SOL    HW123351   1.242   6.195   3.852
 7484SOL    HW223352   1.171   6.342   3.852
 7485SOL     OW23353   3.842   0.384   4.372
 7485SOL    HW123354   3.836   0.285   4.374
 7485SOL    HW223355   3.774   0.421   4.309
 7486SOL     OW23356   1.863   5.699   0.582
 7486SOL    HW123357   1.874   5.606   0.616
 7486SOL    HW223358   1.834   5.759   0.657
 7487SOL     OW23359   2.578   0.340   2.923
 7487SOL    HW123360   2.543   0.405   2.991
 7487SOL    HW223361   2.659   0.294   2.960
 7488SOL     OW23362   2.771   5.606   4.484
 7488SOL    HW123363   2.709   5.682   4.466
 7488SOL    HW223364   2.801   5.609   4.579
 7489SOL     OW23365   6.090   2.399   6.356
 7489SOL    HW123366   6.096   2.412   6.257
 7489SOL    HW223367   6.071   2.303   6.376
 7490SOL     OW23368   1.333   0.466   2.930
 7490SOL    HW123369   1.248   0.510   2.961
 7490SOL    HW223370   1.391   0.447   3.009
 7491SOL     OW23371   4.187   3.471   6.768
 7491SOL    HW123372   4.244   3.394   6.741
 7491SOL    HW223373   4.234   3.525   6.838
 7492SOL     OW23374   1.564   0.554   3.431
 7492SOL    HW123375   1.629   0.543   3.507
 7492SOL    HW223376   1.479   0.593   3.466
 7493SOL     OW23377   0.597   3.172   6.470
 7493SOL    HW123378   0.672   3.109   6.448
 7493SOL    HW223379   0.518   3.120   6.501
 7494SOL     OW23380   5.778   1.791   3.039
 7494SOL    HW123381   5.874   1.819   3.035
 7494SOL    HW223382   5.722   1.858   2.991
 7495SOL     OW23383   1.790   2.418   6.893
 7495SOL    HW123384   1.861   2.428   6.824
 7495SOL    HW223385   1.737   2.503   6.899
 7496SOL     OW23386   6.714   3.048   3.679
 7496SOL    HW123387   6.627   3.017   3.716
 7496SOL    HW223388   6.789   2.995   3.719
 7497SOL     OW23389   2.355   4.656   1.165
 7497SOL    HW123390   2.288   4.652   1.090
 7497SOL    HW223391   2.422   4.728   1.146
 7498SOL     OW23392   3.183   0.890   5.221
 7498SOL    HW123393   3.137   0.820   5.168
 7498SOL    HW223394   3.168   0.979   5.178
 7499SOL     OW23395   4.331   1.785   3.231
 7499SOL    HW123396   4.375   1.748   3.150
 7499SOL    HW223397   4.381   1.756   3.312
 7500SOL     OW23398   3.235   5.875   3.234
 7500SOL    HW123399   3.221   5.778   3.217
 7500SOL    HW223400   3.259   5.889   3.331
 7501SOL     OW23401   5.239   3.960   4.956
 7501SOL    HW123402   5.253   3.983   5.052
 7501SOL    HW223403   5.199   4.038   4.908
 7502SOL     OW23404   3.032   1.173   4.230
 7502SOL    HW123405   3.040   1.074   4.238
 7502SOL    HW223406   3.122   1.215   4.242
 7503SOL     OW23407   1.874   6.844   1.208
 7503SOL    HW123408   1.927   6.773   1.161
 7503SOL    HW223409   1.889   6.837   1.306
 7504SOL     OW23410   0.538   6.179   3.456
 7504SOL    HW123411   0.541   6.221   3.547
 7504SOL    HW223412   0.548   6.249   3.386
 7505SOL     OW23413   1.753   3.063   5.922
 7505SOL    HW123414   1.723   2.994   5.857
 7505SOL    HW223415   1.795   3.140   5.874
 7506SOL     OW23416   5.654   1.756   3.502
 7506SOL    HW123417   5.617   1.815   3.430
 7506SOL    HW223418   5.684   1.670   3.463
 7507SOL     OW23419   6.956   1.666   2.196
 7507SOL    HW123420   6.872   1.638   2.244
 7507SOL    HW223421   6.940   1.754   2.150
 7508SOL     OW23422   1.336   6.070   1.447
 7508SOL    HW123423   1.389   6.155   1.453
 7508SOL    HW223424   1.340   6.022   1.534
 7509SOL     OW23425   5.931   3.739   0.347
 7509SOL    HW123426   5.847   3.793   0.354
 7509SOL    HW223427   5.985   3.770   0.269
 7510SOL     OW23428   2.971   3.568   5.250
 7510SOL    HW123429   3.059   3.522   5.264
 7510SOL    HW223430   2.923   3.575   5.338
 7511SOL     OW23431   2.658   6.092   3.643
 7511SOL    HW123432   2.751   6.125   3.627
 7511SOL    HW223433   2.662   5.996   3.672
 7512SOL     OW23434   2.756   0.642   6.507
 7512SOL    HW123435   2.684   0.620   6.573
 7512SOL    HW223436   2.797   0.557   6.472
 7513SOL     OW23437   1.564   1.144   1.643
 7513SOL    HW123438   1.600   1.207   1.574
 7513SOL    HW223439   1.472   1.174   1.670
 7514SOL     OW23440   2.232   5.137   2.691
 7514SOL    HW123441   2.250   5.185   2.777
 7514SOL    HW223442   2.294   5.171   2.620
 7515SOL     OW23443   6.669   5.513   4.516
 7515SOL    HW123444   6.736   5.587   4.512
 7515SOL    HW223445   6.699   5.438   4.457
 7516SOL     OW23446   6.758   5.587   5.971
 7516SOL    HW123447   6.743   5.531   6.052
 7516SOL    HW223448   6.772   5.528   5.891
 7517SOL     OW23449   6.804   1.692   0.543
 7517SOL    HW123450   6.839   1.785   0.529
 7517SOL    HW223451   6.717   1.697   0.592
 7518SOL     OW23452   4.814   3.896   4.405
 7518SOL    HW123453   4.805   3.841   4.321
 7518SOL    HW223454   4.861   3.842   4.475
 7519SOL     OW23455   0.543   6.426   4.564
 7519SOL    HW123456   0.492   6.503   4.603
 7519SOL    HW223457   0.611   6.461   4.500
 7520SOL     OW23458   2.381   0.072   2.717
 7520SOL    HW123459   2.455   0.072   2.650
 7520SOL    HW223460   2.294   0.053   2.672
 7521SOL     OW23461   4.803   2.533   5.286
 7521SOL    HW123462   4.729   2.592   5.320
 7521SOL    HW223463   4.871   2.590   5.240
 7522SOL     OW23464   1.334   1.268   6.023
 7522SOL    HW123465   1.368   1.290   6.115
 7522SOL    HW223466   1.404   1.292   5.955
 7523SOL     OW23467   5.127   0.374   6.338
 7523SOL    HW123468   5.097   0.343   6.428
 7523SOL    HW223469   5.217   0.417   6.345
 7524SOL     OW23470   1.013   2.625   5.184
 7524SOL    HW123471   0.934   2.595   5.238
 7524SOL    HW223472   0.990   2.621   5.087
 7525SOL     OW23473   3.608   0.843   6.875
 7525SOL    HW123474   3.517   0.865   6.841
 7525SOL    HW223475   3.668   0.922   6.861
 7526SOL     OW23476   2.998   3.246   1.332
 7526SOL    HW123477   2.900   3.229   1.346
 7526SOL    HW223478   3.041   3.263   1.421
 7527SOL     OW23479   3.108   6.323   3.755
 7527SOL    HW123480   3.175   6.300   3.825
 7527SOL    HW223481   3.150   6.382   3.686
 7528SOL     OW23482   6.192   2.253   0.212
 7528SOL    HW123483   6.228   2.331   0.160
 7528SOL    HW223484   6.093   2.263   0.221
 7529SOL     OW23485   5.445   1.613   4.353
 7529SOL    HW123486   5.513   1.543   4.377
 7529SOL    HW223487   5.437   1.678   4.429
 7530SOL     OW23488   6.839   2.691   2.328
 7530SOL    HW123489   6.836   2.674   2.229
 7530SOL    HW223490   6.929   2.662   2.363
 7531SOL     OW23491   5.586   2.896   4.416
 7531SOL    HW123492   5.577   2.952   4.498
 7531SOL    HW223493   5.570   2.800   4.438
 7532SOL     OW23494   4.409   6.378   0.336
 7532SOL    HW123495   4.434   6.310   0.267
 7532SOL    HW223496   4.454   6.356   0.422
 7533SOL     OW23497   3.417   1.841   1.609
 7533SOL    HW123498   3.389   1.935   1.590
 7533SOL    HW223499   3.351   1.799   1.672
 7534SOL     OW23500   4.803   5.985   5.248
 7534SOL    HW123501   4.846   5.987   5.158
 7534SOL    HW223502   4.824   5.899   5.294
 7535SOL     OW23503   2.082   6.972   4.757
 7535SOL    HW123504   2.158   7.013   4.706
 7535SOL    HW223505   2.085   7.002   4.852
 7536SOL     OW23506   5.447   4.242   4.332
 7536SOL    HW123507   5.513   4.171   4.306
 7536SOL    HW223508   5.369   4.199   4.378
 7537SOL     OW23509   2.013   4.947   2.282
 7537SOL    HW123510   1.961   4.963   2.198
 7537SOL    HW223511   1.978   5.008   2.354
 7538SOL     OW23512   1.916   2.243   1.493
 7538SOL    HW123513   1.992   2.188   1.530
 7538SOL    HW223514   1.946   2.338   1.484
 7539SOL     OW23515   1.674   3.483   4.484
 7539SOL    HW123516   1.644   3.543   4.558
 7539SOL    HW223517   1.595   3.457   4.428
 7540SOL     OW23518   4.614   0.683   4.954
 7540SOL    HW123519   4.620   0.590   4.991
 7540SOL    HW223520   4.611   0.749   5.029
 7541SOL     OW23521   0.620   4.052   5.050
 7541SOL    HW123522   0.603   3.959   5.084
 7541SOL    HW223523   0.533   4.098   5.032
 7542SOL     OW23524   0.763   5.497   6.885
 7542SOL    HW123525   0.857   5.528   6.868
 7542SOL    HW223526   0.756   5.458   6.976
 7543SOL     OW23527   3.868   1.036   5.459
 7543SOL    HW123528   3.962   1.003   5.454
 7543SOL    HW223529   3.826   1.035   5.368
 7544SOL     OW23530   6.219   2.305   3.851
 7544SOL    HW123531   6.165   2.377   3.808
 7544SOL    HW223532   6.158   2.232   3.883
 7545SOL     OW23533   0.788   6.114   6.735
 7545SOL    HW123534   0.847   6.190   6.762
 7545SOL    HW223535   0.817   6.080   6.646
 7546SOL     OW23536   4.322   1.757   1.498
 7546SOL    HW123537   4.286   1.681   1.554
 7546SOL    HW223538   4.413   1.782   1.530
 7547SOL     OW23539   5.569   1.222   0.541
 7547SOL    HW123540   5.576   1.274   0.455
 7547SOL    HW223541   5.478   1.236   0.580
 7548SOL     OW23542   4.121   2.168   6.771
 7548SOL    HW123543   4.093   2.071   6.774
 7548SOL    HW223544   4.187   2.185   6.844
 7549SOL     OW23545   3.178   3.319   6.990
 7549SOL    HW123546   3.176   3.301   6.892
 7549SOL    HW223547   3.231   3.401   7.008
 7550SOL     OW23548   1.946   4.637   4.347
 7550SOL    HW123549   1.949   4.729   4.388
 7550SOL    HW223550   1.991   4.639   4.258
 7551SOL     OW23551   6.250   2.967   5.332
 7551SOL    HW123552   6.286   2.891   5.277
 7551SOL    HW223553   6.292   3.053   5.302
 7552SOL     OW23554   1.556   6.283   3.625
 7552SOL    HW123555   1.568   6.351   3.696
 7552SOL    HW223556   1.610   6.307   3.545
 7553SOL     OW23557   4.069   6.904   5.537
 7553SOL    HW123558   4.015   6.980   5.573
 7553SOL    HW223559   4.126   6.866   5.610
 7554SOL     OW23560   5.320   0.927   6.783
 7554SOL    HW123561   5.235   0.903   6.829
 7554SOL    HW223562   5.396   0.925   6.848
 7555SOL     OW23563   3.379   5.538   6.596
 7555SOL    HW123564   3.424   5.627   6.608
 7555SOL    HW223565   3.385   5.485   6.681
 7556SOL     OW23566   2.478   2.888   6.839
 7556SOL    HW123567   2.411   2.822   6.870
 7556SOL    HW223568   2.564   2.874   6.888
 7557SOL     OW23569   5.361   0.691   6.334
 7557SOL    HW123570   5.341   0.705   6.431
 7557SOL    HW223571   5.366   0.780   6.289
 7558SOL     OW23572   1.851   2.754   4.524
 7558SOL    HW123573   1.937   2.750   4.575
 7558SOL    HW223574   1.796   2.673   4.546
 7559SOL     OW23575   4.145   3.205   6.866
 7559SOL    HW123576   4.120   3.154   6.784
 7559SOL    HW223577   4.077   3.276   6.884
 7560SOL     OW23578   4.821   0.041   0.503
 7560SOL    HW123579   4.797   0.017   0.409
 7560SOL    HW223580   4.737   0.055   0.555
 7561SOL     OW23581   6.951   3.311   6.438
 7561SOL    HW123582   7.005   3.254   6.376
 7561SOL    HW223583   6.953   3.272   6.530
 7562SOL     OW23584   0.430   5.776   5.579
 7562SOL    HW123585   0.364   5.774   5.503
 7562SOL    HW223586   0.493   5.699   5.570
 7563SOL     OW23587   2.962   6.989   1.458
 7563SOL    HW123588   2.889   7.001   1.391
 7563SOL    HW223589   2.933   6.923   1.527
 7564SOL     OW23590   4.259   0.928   3.660
 7564SOL    HW123591   4.248   1.004   3.596
 7564SOL    HW223592   4.293   0.963   3.747
 7565SOL     OW23593   6.334   3.394   6.691
 7565SOL    HW123594   6.257   3.335   6.669
 7565SOL    HW223595   6.413   3.368   6.636
 7566SOL     OW23596   6.009   5.411   2.832
 7566SOL    HW123597   5.981   5.505   2.852
 7566SOL    HW223598   5.952   5.348   2.885
 7567SOL     OW23599   1.910   1.211   5.529
 7567SOL    HW123600   1.948   1.273   5.460
 7567SOL    HW223601   1.881   1.263   5.609
 7568SOL     OW23602   5.678   4.793   2.932
 7568SOL    HW123603   5.631   4.792   3.021
 7568SOL    HW223604   5.702   4.887   2.909
 7569SOL     OW23605   3.177   4.441   6.081
 7569SOL    HW123606   3.212   4.446   5.987
 7569SOL    HW223607   3.160   4.534   6.114
 7570SOL     OW23608   5.631   4.026   4.651
 7570SOL    HW123609   5.561   3.975   4.701
 7570SOL    HW223610   5.665   3.971   4.575
 7571SOL     OW23611   4.614   4.427   3.514
 7571SOL    HW123612   4.663   4.358   3.461
 7571SOL    HW223613   4.610   4.400   3.610
 7572SOL     OW23614   4.911   0.670   2.297
 7572SOL    HW123615   4.955   0.699   2.381
 7572SOL    HW223616   4.838   0.734   2.274
 7573SOL     OW23617   0.279   6.823   4.942
 7573SOL    HW123618   0.203   6.886   4.958
 7573SOL    HW223619   0.261   6.737   4.991
 7574SOL     OW23620   5.139   0.848   5.478
 7574SOL    HW123621   5.081   0.830   5.558
 7574SOL    HW223622   5.081   0.874   5.401
 7575SOL     OW23623   5.370   0.279   6.614
 7575SOL    HW123624   5.453   0.239   6.652
 7575SOL    HW223625   5.392   0.330   6.531
 7576SOL     OW23626   5.282   2.960   0.386
 7576SOL    HW123627   5.213   2.905   0.340
 7576SOL    HW223628   5.300   2.921   0.477
 7577SOL     OW23629   0.464   6.500   0.011
 7577SOL    HW123630   0.413   6.512   6.952
 7577SOL    HW223631   0.444   6.410   0.049
 7578SOL     OW23632   3.240   5.179   2.348
 7578SOL    HW123633   3.291   5.119   2.286
 7578SOL    HW223634   3.304   5.232   2.403
 7579SOL     OW23635   0.035   1.006   1.842
 7579SOL    HW123636   0.124   1.016   1.798
 7579SOL    HW223637   0.004   1.096   1.875
 7580SOL     OW23638   0.633   4.111   3.871
 7580SOL    HW123639   0.567   4.078   3.938
 7580SOL    HW223640   0.605   4.082   3.780
 7581SOL     OW23641   0.486   2.008   1.460
 7581SOL    HW123642   0.393   1.996   1.426
 7581SOL    HW223643   0.529   2.084   1.414
 7582SOL     OW23644   3.901   1.644   3.439
 7582SOL    HW123645   3.969   1.570   3.439
 7582SOL    HW223646   3.946   1.731   3.423
 7583SOL     OW23647   4.902   2.655   2.188
 7583SOL    HW123648   4.937   2.621   2.275
 7583SOL    HW223649   4.978   2.684   2.130
 7584SOL     OW23650   2.729   0.941   3.254
 7584SOL    HW123651   2.687   0.963   3.342
 7584SOL    HW223652   2.659   0.938   3.183
 7585SOL     OW23653   1.768   2.943   6.187
 7585SOL    HW123654   1.784   2.988   6.099
 7585SOL    HW223655   1.761   2.844   6.172
 7586SOL     OW23656   2.301   6.622   3.686
 7586SOL    HW123657   2.292   6.714   3.724
 7586SOL    HW223658   2.304   6.556   3.760
 7587SOL     OW23659   2.052   1.586   6.531
 7587SOL    HW123660   2.024   1.498   6.493
 7587SOL    HW223661   2.145   1.607   6.501
 7588SOL     OW23662   2.018   2.777   3.688
 7588SOL    HW123663   2.082   2.852   3.670
 7588SOL    HW223664   2.037   2.701   3.625
 7589SOL     OW23665   0.285   0.441   2.354
 7589SOL    HW123666   0.359   0.472   2.414
 7589SOL    HW223667   0.257   0.516   2.294
 7590SOL     OW23668   4.306   1.682   6.501
 7590SOL    HW123669   4.237   1.658   6.432
 7590SOL    HW223670   4.376   1.739   6.459
 7591SOL     OW23671   5.561   4.477   0.548
 7591SOL    HW123672   5.661   4.468   0.541
 7591SOL    HW223673   5.518   4.422   0.477
 7592SOL     OW23674   6.267   5.888   4.742
 7592SOL    HW123675   6.171   5.892   4.715
 7592SOL    HW223676   6.289   5.968   4.799
 7593SOL     OW23677   6.594   3.299   0.133
 7593SOL    HW123678   6.522   3.234   0.157
 7593SOL    HW223679   6.562   3.392   0.150
 7594SOL     OW23680   1.516   4.661   2.099
 7594SOL    HW123681   1.574   4.632   2.175
 7594SOL    HW223682   1.420   4.661   2.128
 7595SOL     OW23683   6.058   3.158   6.061
 7595SOL    HW123684   6.036   3.225   6.132
 7595SOL    HW223685   6.012   3.071   6.081
 7596SOL     OW23686   3.689   6.394   4.258
 7596SOL    HW123687   3.738   6.419   4.174
 7596SOL    HW223688   3.713   6.301   4.285
 7597SOL     OW23689   1.684   6.757   2.944
 7597SOL    HW123690   1.675   6.852   2.914
 7597SOL    HW223691   1.778   6.726   2.931
 7598SOL     OW23692   0.051   0.756   3.143
 7598SOL    HW123693   0.100   0.724   3.062
 7598SOL    HW223694   0.065   0.691   3.218
 7599SOL     OW23695   5.520   2.291   2.532
 7599SOL    HW123696   5.450   2.248   2.475
 7599SOL    HW223697   5.563   2.366   2.480
 7600SOL     OW23698   0.761   1.590   3.632
 7600SOL    HW123699   0.701   1.653   3.583
 7600SOL    HW223700   0.825   1.642   3.688
 7601SOL     OW23701   2.621   4.955   2.037
 7601SOL    HW123702   2.589   4.914   2.122
 7601SOL    HW223703   2.690   4.896   1.996
 7602SOL     OW23704   1.573   3.526   0.092
 7602SOL    HW123705   1.520   3.611   0.082
 7602SOL    HW223706   1.666   3.541   0.059
 7603SOL     OW23707   1.872   6.009   6.404
 7603SOL    HW123708   1.781   6.011   6.363
 7603SOL    HW223709   1.876   6.073   6.480
 7604SOL     OW23710   1.341   2.987   4.058
 7604SOL    HW123711   1.377   3.040   3.981
 7604SOL    HW223712   1.302   2.901   4.024
 7605SOL     OW23713   1.366   0.246   0.819
 7605SOL    HW123714   1.416   0.330   0.801
 7605SOL    HW223715   1.371   0.223   0.916
 7606SOL     OW23716   6.041   3.054   4.439
 7606SOL    HW123717   5.981   2.977   4.422
 7606SOL    HW223718   5.989   3.139   4.436
 7607SOL     OW23719   3.743   4.827   0.645
 7607SOL    HW123720   3.809   4.755   0.666
 7607SOL    HW223721   3.654   4.786   0.626
 7608SOL     OW23722   4.023   3.382   0.850
 7608SOL    HW123723   3.999   3.286   0.835
 7608SOL    HW223724   4.121   3.389   0.868
 7609SOL     OW23725   1.848   3.226   4.159
 7609SOL    HW123726   1.820   3.205   4.065
 7609SOL    HW223727   1.872   3.142   4.207
 7610SOL     OW23728   4.353   4.767   6.228
 7610SOL    HW123729   4.350   4.739   6.132
 7610SOL    HW223730   4.383   4.689   6.284
 7611SOL     OW23731   5.344   3.958   1.425
 7611SOL    HW123732   5.400   4.040   1.439
 7611SOL    HW223733   5.351   3.930   1.329
 7612SOL     OW23734   4.956   3.113   2.446
 7612SOL    HW123735   4.936   3.151   2.356
 7612SOL    HW223736   4.936   3.015   2.445
 7613SOL     OW23737   0.722   1.919   0.875
 7613SOL    HW123738   0.642   1.859   0.872
 7613SOL    HW223739   0.692   2.014   0.878
 7614SOL     OW23740   5.689   2.982   1.231
 7614SOL    HW123741   5.608   2.938   1.193
 7614SOL    HW223742   5.712   3.063   1.177
 7615SOL     OW23743   3.971   4.687   6.653
 7615SOL    HW123744   4.049   4.630   6.677
 7615SOL    HW223745   4.001   4.760   6.591
 7616SOL     OW23746   6.603   6.332   4.886
 7616SOL    HW123747   6.609   6.324   4.786
 7616SOL    HW223748   6.695   6.347   4.923
 7617SOL     OW23749   3.406   6.221   3.623
 7617SOL    HW123750   3.478   6.281   3.586
 7617SOL    HW223751   3.374   6.256   3.710
 7618SOL     OW23752   0.353   2.465   6.250
 7618SOL    HW123753   0.305   2.497   6.331
 7618SOL    HW223754   0.449   2.448   6.272
 7619SOL     OW23755   6.762   3.016   4.693
 7619SOL    HW123756   6.689   3.058   4.747
 7619SOL    HW223757   6.817   2.957   4.752
 7620SOL     OW23758   3.823   5.799   1.666
 7620SOL    HW123759   3.744   5.854   1.693
 7620SOL    HW223760   3.817   5.778   1.568
 7621SOL     OW23761   6.556   1.151   0.864
 7621SOL    HW123762   6.646   1.134   0.823
 7621SOL    HW223763   6.536   1.079   0.930
 7622SOL     OW23764   4.494   4.418   5.883
 7622SOL    HW123765   4.457   4.462   5.801
 7622SOL    HW223766   4.422   4.405   5.950
 7623SOL     OW23767   4.717   4.433   6.837
 7623SOL    HW123768   4.629   4.409   6.877
 7623SOL    HW223769   4.790   4.413   6.903
 7624SOL     OW23770   6.527   3.923   4.680
 7624SOL    HW123771   6.576   3.926   4.593
 7624SOL    HW223772   6.466   3.844   4.681
 7625SOL     OW23773   5.249   1.234   0.396
 7625SOL    HW123774   5.330   1.292   0.405
 7625SOL    HW223775   5.277   1.139   0.387
 7626SOL     OW23776   6.285   0.582   5.280
 7626SOL    HW123777   6.229   0.502   5.301
 7626SOL    HW223778   6.375   0.572   5.324
 7627SOL     OW23779   3.714   2.991   0.676
 7627SOL    HW123780   3.756   3.036   0.597
 7627SOL    HW223781   3.785   2.973   0.745
 7628SOL     OW23782   3.292   2.927   2.352
 7628SOL    HW123783   3.275   2.866   2.274
 7628SOL    HW223784   3.366   2.889   2.408
 7629SOL     OW23785   0.082   4.608   3.273
 7629SOL    HW123786   0.127   4.565   3.351
 7629SOL    HW223787   7.014   4.574   3.266
 7630SOL     OW23788   0.643   0.920   0.495
 7630SOL    HW123789   0.557   0.967   0.478
 7630SOL    HW223790   0.707   0.982   0.540
 7631SOL     OW23791   1.061   2.319   5.750
 7631SOL    HW123792   0.969   2.282   5.766
 7631SOL    HW223793   1.128   2.261   5.795
 7632SOL     OW23794   5.116   4.183   0.660
 7632SOL    HW123795   5.133   4.265   0.715
 7632SOL    HW223796   5.028   4.144   0.685
 7633SOL     OW23797   5.517   0.694   1.484
 7633SOL    HW123798   5.557   0.673   1.573
 7633SOL    HW223799   5.537   0.789   1.460
 7634SOL     OW23800   2.358   1.160   1.771
 7634SOL    HW123801   2.389   1.239   1.825
 7634SOL    HW223802   2.376   1.076   1.823
 7635SOL     OW23803   3.403   4.916   5.191
 7635SOL    HW123804   3.376   4.982   5.260
 7635SOL    HW223805   3.415   4.826   5.233
 7636SOL     OW23806   1.017   3.332   4.262
 7636SOL    HW123807   1.109   3.294   4.272
 7636SOL    HW223808   0.969   3.285   4.188
 7637SOL     OW23809   2.688   6.249   2.380
 7637SOL    HW123810   2.656   6.154   2.385
 7637SOL    HW223811   2.785   6.250   2.354
 7638SOL     OW23812   2.024   5.239   2.080
 7638SOL    HW123813   2.031   5.143   2.055
 7638SOL    HW223814   1.985   5.247   2.172
 7639SOL     OW23815   0.249   1.458   0.727
 7639SOL    HW123816   0.299   1.416   0.651
 7639SOL    HW223817   0.171   1.510   0.691
 7640SOL     OW23818   2.646   1.470   5.737
 7640SOL    HW123819   2.677   1.438   5.647
 7640SOL    HW223820   2.638   1.392   5.799
 7641SOL     OW23821   0.871   3.511   2.458
 7641SOL    HW123822   0.903   3.555   2.373
 7641SOL    HW223823   0.781   3.546   2.482
 7642SOL     OW23824   3.612   1.573   2.610
 7642SOL    HW123825   3.521   1.590   2.571
 7642SOL    HW223826   3.669   1.654   2.598
 7643SOL     OW23827   5.368   1.928   3.092
 7643SOL    HW123828   5.323   1.999   3.145
 7643SOL    HW223829   5.313   1.844   3.094
 7644SOL     OW23830   4.790   2.849   2.425
 7644SOL    HW123831   4.704   2.864   2.474
 7644SOL    HW223832   4.771   2.802   2.339
 7645SOL     OW23833   5.152   3.859   5.428
 7645SOL    HW123834   5.149   3.872   5.527
 7645SOL    HW223835   5.075   3.803   5.399
 7646SOL     OW23836   1.260   3.224   4.182
 7646SOL    HW123837   1.279   3.136   4.139
 7646SOL    HW223838   1.262   3.297   4.113
 7647SOL     OW23839   0.306   2.227   3.752
 7647SOL    HW123840   0.288   2.232   3.850
 7647SOL    HW223841   0.287   2.134   3.720
 7648SOL     OW23842   2.466   1.812   2.291
 7648SOL    HW123843   2.549   1.868   2.283
 7648SOL    HW223844   2.487   1.728   2.341
 7649SOL     OW23845   1.695   0.216   3.867
 7649SOL    HW123846   1.642   0.176   3.793
 7649SOL    HW223847   1.645   0.293   3.906
 7650SOL     OW23848   5.542   0.494   0.173
 7650SOL    HW123849   5.587   0.454   0.252
 7650SOL    HW223850   5.463   0.438   0.147
 7651SOL     OW23851   2.055   0.192   4.368
 7651SOL    HW123852   2.112   0.270   4.393
 7651SOL    HW223853   2.061   0.122   4.440
 7652SOL     OW23854   5.512   2.229   4.594
 7652SOL    HW123855   5.452   2.298   4.634
 7652SOL    HW223856   5.473   2.194   4.509
 7653SOL     OW23857   0.550   1.595   0.094
 7653SOL    HW123858   0.454   1.571   0.080
 7653SOL    HW223859   0.555   1.684   0.140
 7654SOL     OW23860   4.919   3.296   4.305
 7654SOL    HW123861   4.915   3.216   4.364
 7654SOL    HW223862   4.997   3.287   4.242
 7655SOL     OW23863   4.329   6.220   3.670
 7655SOL    HW123864   4.356   6.123   3.667
 7655SOL    HW223865   4.411   6.277   3.668
 7656SOL     OW23866   4.132   4.079   6.891
 7656SOL    HW123867   4.132   3.985   6.924
 7656SOL    HW223868   4.064   4.089   6.818
 7657SOL     OW23869   1.535   2.025   3.050
 7657SOL    HW123870   1.528   1.957   3.123
 7657SOL    HW223871   1.466   2.005   2.980
 7658SOL     OW23872   2.825   0.368   0.308
 7658SOL    HW123873   2.911   0.417   0.300
 7658SOL    HW223874   2.800   0.360   0.404
 7659SOL     OW23875   4.994   4.670   6.793
 7659SOL    HW123876   5.075   4.660   6.852
 7659SOL    HW223877   5.021   4.661   6.697
 7660SOL     OW23878   6.511   6.086   3.872
 7660SOL    HW123879   6.503   6.041   3.960
 7660SOL    HW223880   6.442   6.050   3.809
 7661SOL     OW23881   5.756   2.389   5.441
 7661SOL    HW123882   5.684   2.401   5.372
 7661SOL    HW223883   5.813   2.311   5.417
 7662SOL     OW23884   1.208   2.885   4.329
 7662SOL    HW123885   1.199   2.939   4.412
 7662SOL    HW223886   1.251   2.941   4.258
 7663SOL     OW23887   6.021   4.993   6.446
 7663SOL    HW123888   5.932   5.005   6.490
 7663SOL    HW223889   6.041   5.074   6.390
 7664SOL     OW23890   4.136   0.891   2.098
 7664SOL    HW123891   4.194   0.963   2.058
 7664SOL    HW223892   4.165   0.873   2.192
 7665SOL     OW23893   6.158   1.008   5.026
 7665SOL    HW123894   6.061   1.010   5.004
 7665SOL    HW223895   6.180   0.922   5.073
 7666SOL     OW23896   0.450   4.461   3.013
 7666SOL    HW123897   0.501   4.547   3.019
 7666SOL    HW223898   0.427   4.442   2.917
 7667SOL     OW23899   4.121   0.542   2.238
 7667SOL    HW123900   4.042   0.570   2.185
 7667SOL    HW223901   4.131   0.601   2.318
 7668SOL     OW23902   2.771   5.095   0.794
 7668SOL    HW123903   2.780   5.182   0.746
 7668SOL    HW223904   2.833   5.093   0.872
 7669SOL     OW23905   4.926   1.303   5.609
 7669SOL    HW123906   5.018   1.278   5.577
 7669SOL    HW223907   4.912   1.401   5.597
 7670SOL     OW23908   0.692   5.378   0.817
 7670SOL    HW123909   0.721   5.287   0.786
 7670SOL    HW223910   0.719   5.447   0.750
 7671SOL     OW23911   3.573   0.800   2.437
 7671SOL    HW123912   3.623   0.718   2.465
 7671SOL    HW223913   3.488   0.807   2.489
 7672SOL     OW23914   0.704   5.536   3.036
 7672SOL    HW123915   0.644   5.596   3.088
 7672SOL    HW223916   0.731   5.582   2.951
 7673SOL     OW23917   1.808   5.729   1.912
 7673SOL    HW123918   1.779   5.635   1.929
 7673SOL    HW223919   1.815   5.778   1.998
 7674SOL     OW23920   4.713   1.097   4.074
 7674SOL    HW123921   4.810   1.119   4.074
 7674SOL    HW223922   4.697   1.018   4.132
 7675SOL     OW23923   5.836   6.229   3.340
 7675SOL    HW123924   5.882   6.258   3.256
 7675SOL    HW223925   5.816   6.309   3.396
 7676SOL     OW23926   2.960   2.226   0.188
 7676SOL    HW123927   3.035   2.290   0.171
 7676SOL    HW223928   2.971   2.146   0.130
 7677SOL     OW23929   0.383   4.026   2.058
 7677SOL    HW123930   0.358   3.944   2.006
 7677SOL    HW223931   0.340   4.023   2.148
 7678SOL     OW23932   2.370   2.760   5.209
 7678SOL    HW123933   2.391   2.798   5.299
 7678SOL    HW223934   2.351   2.835   5.145
 7679SOL     OW23935   2.711   6.234   5.677
 7679SOL    HW123936   2.662   6.316   5.646
 7679SOL    HW223937   2.646   6.171   5.719
 7680SOL     OW23938   1.709   0.776   1.040
 7680SOL    HW123939   1.799   0.798   1.003
 7680SOL    HW223940   1.695   0.677   1.037
 7681SOL     OW23941   2.794   0.882   0.872
 7681SOL    HW123942   2.703   0.877   0.831
 7681SOL    HW223943   2.792   0.840   0.963
 7682SOL     OW23944   4.453   6.956   2.139
 7682SOL    HW123945   4.385   6.919   2.203
 7682SOL    HW223946   4.405   6.996   2.061
 7683SOL     OW23947   0.104   1.416   5.104
 7683SOL    HW123948   0.004   1.421   5.109
 7683SOL    HW223949   0.144   1.496   5.148
 7684SOL     OW23950   4.411   1.420   1.027
 7684SOL    HW123951   4.489   1.417   1.089
 7684SOL    HW223952   4.390   1.515   1.004
 7685SOL     OW23953   2.359   1.906   5.750
 7685SOL    HW123954   2.384   1.958   5.669
 7685SOL    HW223955   2.360   1.808   5.729
 7686SOL     OW23956   6.446   6.500   3.431
 7686SOL    HW123957   6.370   6.558   3.402
 7686SOL    HW223958   6.531   6.536   3.391
 7687SOL     OW23959   5.823   5.708   4.739
 7687SOL    HW123960   5.898   5.654   4.777
 7687SOL    HW223961   5.760   5.649   4.690
 7688SOL     OW23962   0.234   5.935   5.725
 7688SOL    HW123963   0.320   5.895   5.696
 7688SOL    HW223964   0.163   5.915   5.657
 7689SOL     OW23965   5.656   6.321   2.695
 7689SOL    HW123966   5.614   6.319   2.786
 7689SOL    HW223967   5.754   6.339   2.704
 7690SOL     OW23968   5.768   5.582   0.140
 7690SOL    HW123969   5.798   5.631   0.222
 7690SOL    HW223970   5.711   5.504   0.167
 7691SOL     OW23971   5.573   4.140   2.702
 7691SOL    HW123972   5.559   4.093   2.615
 7691SOL    HW223973   5.529   4.089   2.776
 7692SOL     OW23974   0.651   6.061   2.003
 7692SOL    HW123975   0.569   6.028   2.051
 7692SOL    HW223976   0.650   6.161   2.000
 7693SOL     OW23977   3.214   0.704   1.453
 7693SOL    HW123978   3.266   0.671   1.375
 7693SOL    HW223979   3.250   0.665   1.538
 7694SOL     OW23980   5.469   3.593   3.442
 7694SOL    HW123981   5.485   3.623   3.536
 7694SOL    HW223982   5.557   3.586   3.394
 7695SOL     OW23983   5.114   0.416   1.389
 7695SOL    HW123984   5.106   0.331   1.441
 7695SOL    HW223985   5.211   0.437   1.375
 7696SOL     OW23986   7.014   1.389   6.174
 7696SOL    HW123987   0.076   1.347   6.197
 7696SOL    HW223988   6.996   1.464   6.238
 7697SOL     OW23989   2.669   0.291   3.543
 7697SOL    HW123990   2.626   0.241   3.618
 7697SOL    HW223991   2.768   0.282   3.549
 7698SOL     OW23992   5.566   1.230   4.262
 7698SOL    HW123993   5.652   1.180   4.249
 7698SOL    HW223994   5.496   1.191   4.202
 7699SOL     OW23995   2.607   5.605   6.049
 7699SOL    HW123996   2.623   5.534   6.117
 7699SOL    HW223997   2.534   5.577   5.987
 7700SOL     OW23998   4.244   5.273   3.236
 7700SOL    HW123999   4.330   5.316   3.265
 7700SOL    HW224000   4.197   5.235   3.316
 7701SOL     OW24001   6.973   2.805   6.741
 7701SOL    HW124002   7.022   2.753   6.812
 7701SOL    HW224003   6.948   2.895   6.777
 7702SOL     OW24004   4.781   5.740   5.369
 7702SOL    HW124005   4.819   5.733   5.461
 7702SOL    HW224006   4.681   5.738   5.373
 7703SOL     OW24007   6.108   6.026   6.285
 7703SOL    HW124008   6.147   6.014   6.193
 7703SOL    HW224009   6.024   6.078   6.279
 7704SOL     OW24010   5.638   0.550   3.661
 7704SOL    HW124011   5.637   0.647   3.684
 7704SOL    HW224012   5.601   0.537   3.569
 7705SOL     OW24013   2.255   6.011   0.913
 7705SOL    HW124014   2.341   6.049   0.949
 7705SOL    HW224015   2.208   5.963   0.987
 7706SOL     OW24016   3.599   3.387   3.875
 7706SOL    HW124017   3.501   3.367   3.869
 7706SOL    HW224018   3.630   3.427   3.789
 7707SOL     OW24019   6.782   4.105   6.230
 7707SOL    HW124020   6.699   4.150   6.263
 7707SOL    HW224021   6.757   4.027   6.172
 7708SOL     OW24022   1.260   6.488   5.122
 7708SOL    HW124023   1.252   6.483   5.022
 7708SOL    HW224024   1.184   6.439   5.164
 7709SOL     OW24025   6.772   4.770   1.753
 7709SOL    HW124026   6.815   4.731   1.834
 7709SOL    HW224027   6.837   4.830   1.706
 7710SOL     OW24028   2.260   2.169   0.236
 7710SOL    HW124029   2.338   2.232   0.236
 7710SOL    HW224030   2.198   2.192   0.311
 7711SOL     OW24031   5.990   5.689   6.080
 7711SOL    HW124032   6.028   5.731   6.163
 7711SOL    HW224033   5.921   5.750   6.041
 7712SOL     OW24034   6.210   5.279   0.683
 7712SOL    HW124035   6.254   5.312   0.599
 7712SOL    HW224036   6.129   5.335   0.702
 7713SOL     OW24037   1.399   3.994   0.529
 7713SOL    HW124038   1.493   3.988   0.498
 7713SOL    HW224039   1.387   3.941   0.613
 7714SOL     OW24040   0.088   4.984   5.541
 7714SOL    HW124041   0.176   4.991   5.494
 7714SOL    HW224042   0.040   4.902   5.510
 7715SOL     OW24043   2.930   2.551   6.262
 7715SOL    HW124044   2.940   2.651   6.261
 7715SOL    HW224045   2.876   2.524   6.341
 7716SOL     OW24046   6.432   4.286   0.388
 7716SOL    HW124047   6.521   4.332   0.394
 7716SOL    HW224048   6.360   4.354   0.380
 7717SOL     OW24049   1.093   1.270   5.728
 7717SOL    HW124050   1.114   1.189   5.783
 7717SOL    HW224051   1.174   1.329   5.722
 7718SOL     OW24052   6.630   3.684   3.118
 7718SOL    HW124053   6.730   3.675   3.116
 7718SOL    HW224054   6.595   3.685   3.024
 7719SOL     OW24055   0.365   4.133   5.008
 7719SOL    HW124056   0.343   4.105   4.915
 7719SOL    HW224057   0.287   4.117   5.068
 7720SOL     OW24058   6.288   2.821   6.525
 7720SOL    HW124059   6.387   2.826   6.520
 7720SOL    HW224060   6.258   2.728   6.505
 7721SOL     OW24061   0.556   5.654   2.172
 7721SOL    HW124062   0.539   5.731   2.235
 7721SOL    HW224063   0.644   5.667   2.127
 7722SOL     OW24064   1.674   4.477   3.734
 7722SOL    HW124065   1.737   4.535   3.682
 7722SOL    HW224066   1.680   4.383   3.701
 7723SOL     OW24067   3.810   3.495   0.134
 7723SOL    HW124068   3.835   3.499   0.037
 7723SOL    HW224069   3.712   3.478   0.142
 7724SOL     OW24070   3.135   4.408   0.766
 7724SOL    HW124071   3.180   4.347   0.701
 7724SOL    HW224072   3.092   4.355   0.838
 7725SOL     OW24073   6.478   1.638   2.945
 7725SOL    HW124074   6.534   1.631   2.862
 7725SOL    HW224075   6.506   1.719   2.997
 7726SOL     OW24076   1.598   4.660   6.341
 7726SOL    HW124077   1.572   4.756   6.355
 7726SOL    HW224078   1.681   4.656   6.286
 7727SOL     OW24079   6.755   2.310   2.288
 7727SOL    HW124080   6.711   2.341   2.204
 7727SOL    HW224081   6.723   2.367   2.365
 7728SOL     OW24082   2.098   3.054   5.108
 7728SOL    HW124083   2.068   3.134   5.160
 7728SOL    HW224084   2.194   3.064   5.083
 7729SOL     OW24085   6.273   1.121   1.754
 7729SOL    HW124086   6.258   1.029   1.719
 7729SOL    HW224087   6.361   1.155   1.721
 7730SOL     OW24088   6.885   4.922   6.252
 7730SOL    HW124089   6.811   4.875   6.202
 7730SOL    HW224090   6.858   5.017   6.269
 7731SOL     OW24091   6.103   0.071   0.062
 7731SOL    HW124092   6.142   0.037   0.148
 7731SOL    HW224093   6.039   0.003   0.025
 7732SOL     OW24094   3.763   0.005   0.400
 7732SOL    HW124095   3.746   7.016   0.303
 7732SOL    HW224096   3.694   0.067   0.437
 7733SOL     OW24097   5.107   6.255   2.332
 7733SOL    HW124098   5.015   6.219   2.319
 7733SOL    HW224099   5.167   6.224   2.259
 7734SOL     OW24100   1.816   4.812   5.195
 7734SOL    HW124101   1.770   4.882   5.140
 7734SOL    HW224102   1.914   4.832   5.198
 7735SOL     OW24103   5.709   5.843   6.601
 7735SOL    HW124104   5.632   5.781   6.589
 7735SOL    HW224105   5.720   5.898   6.518
 7736SOL     OW24106   2.756   2.789   6.608
 7736SOL    HW124107   2.801   2.794   6.519
 7736SOL    HW224108   2.772   2.874   6.658
 7737SOL     OW24109   3.533   0.309   2.505
 7737SOL    HW124110   3.544   0.213   2.478
 7737SOL    HW224111   3.579   0.368   2.438
 7738SOL     OW24112   2.833   5.140   0.414
 7738SOL    HW124113   2.872   5.061   0.460
 7738SOL    HW224114   2.823   5.215   0.480
 7739SOL     OW24115   1.230   2.231   2.250
 7739SOL    HW124116   1.147   2.204   2.299
 7739SOL    HW224117   1.211   2.313   2.197
 7740SOL     OW24118   2.660   0.963   3.731
 7740SOL    HW124119   2.655   0.994   3.636
 7740SOL    HW224120   2.731   0.893   3.739
 7741SOL     OW24121   0.391   4.242   5.279
 7741SOL    HW124122   0.383   4.341   5.264
 7741SOL    HW224123   0.322   4.195   5.224
 7742SOL     OW24124   4.359   2.405   3.403
 7742SOL    HW124125   4.441   2.461   3.411
 7742SOL    HW224126   4.356   2.362   3.312
 7743SOL     OW24127   4.489   1.610   0.250
 7743SOL    HW124128   4.565   1.667   0.282
 7743SOL    HW224129   4.414   1.614   0.316
 7744SOL     OW24130   0.995   0.125   3.937
 7744SOL    HW124131   0.970   0.211   3.892
 7744SOL    HW224132   1.005   0.141   4.036
 7745SOL     OW24133   3.534   0.351   0.360
 7745SOL    HW124134   3.562   0.447   0.360
 7745SOL    HW224135   3.455   0.339   0.300
 7746SOL     OW24136   0.866   0.543   0.476
 7746SOL    HW124137   0.916   0.619   0.435
 7746SOL    HW224138   0.768   0.566   0.480
 7747SOL     OW24139   6.517   6.425   1.217
 7747SOL    HW124140   6.557   6.344   1.174
 7747SOL    HW224141   6.589   6.481   1.258
 7748SOL     OW24142   3.312   4.102   4.221
 7748SOL    HW124143   3.306   4.063   4.313
 7748SOL    HW224144   3.238   4.066   4.165
 7749SOL     OW24145   3.169   3.498   4.901
 7749SOL    HW124146   3.223   3.416   4.882
 7749SOL    HW224147   3.071   3.476   4.894
 7750SOL     OW24148   6.660   5.733   0.037
 7750SOL    HW124149   6.652   5.757   6.967
 7750SOL    HW224150   6.578   5.764   0.086
 7751SOL     OW24151   1.134   2.866   2.597
 7751SOL    HW124152   1.075   2.943   2.574
 7751SOL    HW224153   1.207   2.857   2.529
 7752SOL     OW24154   5.522   6.005   5.487
 7752SOL    HW124155   5.433   6.050   5.495
 7752SOL    HW224156   5.575   6.021   5.570
 7753SOL     OW24157   2.044   0.465   4.194
 7753SOL    HW124158   2.131   0.422   4.218
 7753SOL    HW224159   1.978   0.394   4.169
 7754SOL     OW24160   5.181   6.527   1.708
 7754SOL    HW124161   5.132   6.594   1.764
 7754SOL    HW224162   5.177   6.555   1.612
 7755SOL     OW24163   1.408   2.126   5.796
 7755SOL    HW124164   1.468   2.049   5.773
 7755SOL    HW224165   1.460   2.211   5.792
 7756SOL     OW24166   3.956   5.075   2.766
 7756SOL    HW124167   3.915   4.985   2.777
 7756SOL    HW224168   3.887   5.146   2.784
 7757SOL     OW24169   5.183   5.708   4.835
 7757SOL    HW124170   5.173   5.615   4.799
 7757SOL    HW224171   5.265   5.750   4.797
 7758SOL     OW24172   1.235   1.702   0.491
 7758SOL    HW124173   1.314   1.656   0.532
 7758SOL    HW224174   1.265   1.755   0.412
 7759SOL     OW24175   0.943   1.823   5.050
 7759SOL    HW124176   0.862   1.790   5.098
 7759SOL    HW224177   0.994   1.885   5.110
 7760SOL     OW24178   5.655   3.407   2.818
 7760SOL    HW124179   5.729   3.473   2.830
 7760SOL    HW224180   5.568   3.450   2.841
 7761SOL     OW24181   1.390   0.169   6.250
 7761SOL    HW124182   1.396   0.094   6.184
 7761SOL    HW224183   1.436   0.250   6.213
 7762SOL     OW24184   4.651   0.498   3.923
 7762SOL    HW124185   4.664   0.451   4.010
 7762SOL    HW224186   4.561   0.543   3.923
 7763SOL     OW24187   0.991   1.407   0.396
 7763SOL    HW124188   1.086   1.393   0.368
 7763SOL    HW224189   0.976   1.504   0.415
 7764SOL     OW24190   3.831   2.971   3.358
 7764SOL    HW124191   3.915   2.928   3.392
 7764SOL    HW224192   3.752   2.914   3.382
 7765SOL     OW24193   6.065   2.077   3.905
 7765SOL    HW124194   6.135   2.037   3.965
 7765SOL    HW224195   5.977   2.035   3.925
 7766SOL     OW24196   5.513   1.953   6.778
 7766SOL    HW124197   5.535   2.027   6.714
 7766SOL    HW224198   5.554   1.972   6.867
 7767SOL     OW24199   4.477   6.645   3.872
 7767SOL    HW124200   4.419   6.643   3.953
 7767SOL    HW224201   4.548   6.714   3.883
 7768SOL     OW24202   4.410   4.791   2.514
 7768SOL    HW124203   4.370   4.789   2.605
 7768SOL    HW224204   4.417   4.698   2.479
 7769SOL     OW24205   4.980   2.774   2.637
 7769SOL    HW124206   4.919   2.711   2.684
 7769SOL    HW224207   4.935   2.811   2.556
 7770SOL     OW24208   1.162   3.877   2.020
 7770SOL    HW124209   1.237   3.943   2.012
 7770SOL    HW224210   1.104   3.882   1.938
 7771SOL     OW24211   2.933   1.983   5.160
 7771SOL    HW124212   2.925   2.077   5.192
 7771SOL    HW224213   2.978   1.928   5.230
 7772SOL     OW24214   5.568   0.447   2.588
 7772SOL    HW124215   5.484   0.487   2.550
 7772SOL    HW224216   5.555   0.425   2.684
 7773SOL     OW24217   2.998   5.869   4.529
 7773SOL    HW124218   2.954   5.783   4.556
 7773SOL    HW224219   3.087   5.876   4.575
 7774SOL     OW24220   5.649   1.961   6.186
 7774SOL    HW124221   5.625   2.016   6.266
 7774SOL    HW224222   5.582   1.976   6.114
 7775SOL     OW24223   4.357   6.370   2.214
 7775SOL    HW124224   4.321   6.401   2.302
 7775SOL    HW224225   4.405   6.446   2.169
 7776SOL     OW24226   2.168   4.556   0.105
 7776SOL    HW124227   2.122   4.643   0.089
 7776SOL    HW224228   2.256   4.573   0.151
 7777SOL     OW24229   0.607   0.541   5.070
 7777SOL    HW124230   0.511   0.513   5.068
 7777SOL    HW224231   0.658   0.492   4.999
 7778SOL     OW24232   5.160   5.007   0.358
 7778SOL    HW124233   5.061   4.998   0.357
 7778SOL    HW224234   5.190   5.064   0.282
 7779SOL     OW24235   3.004   2.332   1.212
 7779SOL    HW124236   3.027   2.317   1.308
 7779SOL    HW224237   3.088   2.348   1.160
 7780SOL     OW24238   0.774   5.253   5.520
 7780SOL    HW124239   0.770   5.280   5.424
 7780SOL    HW224240   0.709   5.178   5.536
 7781SOL     OW24241   1.113   4.704   0.199
 7781SOL    HW124242   1.089   4.771   0.270
 7781SOL    HW224243   1.205   4.670   0.215
 7782SOL     OW24244   0.985   5.014   4.559
 7782SOL    HW124245   1.011   4.919   4.543
 7782SOL    HW224246   0.965   5.058   4.471
 7783SOL     OW24247   1.084   6.091   4.493
 7783SOL    HW124248   1.026   6.025   4.540
 7783SOL    HW224249   1.137   6.044   4.421
 7784SOL     OW24250   2.863   2.743   1.020
 7784SOL    HW124251   2.816   2.680   1.083
 7784SOL    HW224252   2.951   2.703   0.993
 7785SOL     OW24253   1.432   6.536   4.187
 7785SOL    HW124254   1.464   6.520   4.094
 7785SOL    HW224255   1.411   6.634   4.198
 7786SOL     OW24256   3.261   6.333   6.905
 7786SOL    HW124257   3.292   6.421   6.868
 7786SOL    HW224258   3.341   6.279   6.933
 7787SOL     OW24259   2.895   2.866   6.354
 7787SOL    HW124260   2.830   2.941   6.355
 7787SOL    HW224261   2.979   2.894   6.401
 7788SOL     OW24262   1.492   5.402   1.844
 7788SOL    HW124263   1.589   5.419   1.862
 7788SOL    HW224264   1.443   5.394   1.931
 7789SOL     OW24265   2.641   6.804   6.466
 7789SOL    HW124266   2.566   6.844   6.414
 7789SOL    HW224267   2.628   6.823   6.563
 7790SOL     OW24268   5.050   5.395   2.924
 7790SOL    HW124269   4.999   5.378   2.839
 7790SOL    HW224270   5.068   5.308   2.969
 7791SOL     OW24271   2.388   5.692   3.430
 7791SOL    HW124272   2.398   5.609   3.374
 7791SOL    HW224273   2.391   5.772   3.371
 7792SOL     OW24274   1.738   5.178   5.305
 7792SOL    HW124275   1.778   5.268   5.322
 7792SOL    HW224276   1.755   5.118   5.382
 7793SOL     OW24277   3.026   1.086   0.111
 7793SOL    HW124278   3.070   1.171   0.140
 7793SOL    HW224279   2.935   1.080   0.153
 7794SOL     OW24280   5.889   4.829   3.341
 7794SOL    HW124281   5.888   4.851   3.438
 7794SOL    HW224282   5.983   4.813   3.311
 7795SOL     OW24283   2.138   3.847   5.253
 7795SOL    HW124284   2.222   3.900   5.255
 7795SOL    HW224285   2.069   3.892   5.309
 7796SOL     OW24286   3.632   4.107   3.509
 7796SOL    HW124287   3.698   4.037   3.536
 7796SOL    HW224288   3.663   4.151   3.424
 7797SOL     OW24289   1.535   0.127   2.677
 7797SOL    HW124290   1.528   0.110   2.578
 7797SOL    HW224291   1.631   0.128   2.704
 7798SOL     OW24292   2.023   4.312   5.798
 7798SOL    HW124293   2.065   4.397   5.767
 7798SOL    HW224294   1.949   4.286   5.736
 7799SOL     OW24295   1.250   5.961   2.167
 7799SOL    HW124296   1.304   6.012   2.234
 7799SOL    HW224297   1.152   5.973   2.186
 7800SOL     OW24298   1.286   5.367   0.861
 7800SOL    HW124299   1.377   5.335   0.833
 7800SOL    HW224300   1.244   5.299   0.921
 7801SOL     OW24301   2.258   1.537   1.670
 7801SOL    HW124302   2.261   1.583   1.759
 7801SOL    HW224303   2.206   1.592   1.605
 7802SOL     OW24304   5.771   2.406   1.065
 7802SOL    HW124305   5.771   2.506   1.066
 7802SOL    HW224306   5.822   2.372   1.144
 7803SOL     OW24307   4.067   1.889   6.180
 7803SOL    HW124308   3.986   1.918   6.129
 7803SOL    HW224309   4.142   1.871   6.117
 7804SOL     OW24310   4.966   2.089   4.384
 7804SOL    HW124311   5.051   2.059   4.427
 7804SOL    HW224312   4.967   2.189   4.374
 7805SOL     OW24313   5.297   1.899   0.946
 7805SOL    HW124314   5.334   1.883   0.855
 7805SOL    HW224315   5.363   1.951   1.000
 7806SOL     OW24316   5.900   1.804   6.586
 7806SOL    HW124317   5.924   1.724   6.641
 7806SOL    HW224318   5.809   1.790   6.545
 7807SOL     OW24319   0.761   4.882   5.277
 7807SOL    HW124320   0.733   4.791   5.249
 7807SOL    HW224321   0.860   4.882   5.296
 7808SOL     OW24322   6.549   3.263   4.156
 7808SOL    HW124323   6.553   3.259   4.256
 7808SOL    HW224324   6.522   3.174   4.120
 7809SOL     OW24325   1.849   5.781   4.045
 7809SOL    HW124326   1.769   5.785   3.985
 7809SOL    HW224327   1.906   5.702   4.020
 7810SOL     OW24328   3.462   0.816   4.718
 7810SOL    HW124329   3.438   0.724   4.751
 7810SOL    HW224330   3.474   0.813   4.619
 7811SOL     OW24331   1.298   5.606   2.566
 7811SOL    HW124332   1.322   5.702   2.576
 7811SOL    HW224333   1.352   5.551   2.631
 7812SOL     OW24334   0.942   2.172   3.682
 7812SOL    HW124335   0.950   2.238   3.608
 7812SOL    HW224336   0.951   2.079   3.645
 7813SOL     OW24337   4.405   2.453   6.737
 7813SOL    HW124338   4.494   2.415   6.761
 7813SOL    HW224339   4.355   2.388   6.680
 7814SOL     OW24340   7.015   2.787   3.285
 7814SOL    HW124341   7.016   2.700   3.236
 7814SOL    HW224342   0.075   2.798   3.335
 7815SOL     OW24343   5.221   0.421   5.702
 7815SOL    HW124344   5.217   0.496   5.769
 7815SOL    HW224345   5.138   0.366   5.709
 7816SOL     OW24346   1.834   2.215   6.449
 7816SOL    HW124347   1.892   2.171   6.380
 7816SOL    HW224348   1.865   2.309   6.464
 7817SOL     OW24349   5.650   4.873   3.215
 7817SOL    HW124350   5.581   4.839   3.279
 7817SOL    HW224351   5.742   4.857   3.253
 7818SOL     OW24352   4.536   0.777   2.926
 7818SOL    HW124353   4.601   0.717   2.971
 7818SOL    HW224354   4.582   0.828   2.853
 7819SOL     OW24355   6.934   3.275   1.818
 7819SOL    HW124356   6.917   3.371   1.838
 7819SOL    HW224357   6.857   3.237   1.767
 7820SOL     OW24358   1.435   2.255   4.936
 7820SOL    HW124359   1.410   2.176   4.992
 7820SOL    HW224360   1.421   2.339   4.990
 7821SOL     OW24361   5.663   6.230   0.792
 7821SOL    HW124362   5.674   6.265   0.699
 7821SOL    HW224363   5.612   6.144   0.790
 7822SOL     OW24364   0.919   1.983   5.673
 7822SOL    HW124365   1.017   1.980   5.650
 7822SOL    HW224366   0.872   1.908   5.628
 7823SOL     OW24367   2.635   3.907   5.305
 7823SOL    HW124368   2.599   3.831   5.360
 7823SOL    HW224369   2.561   3.949   5.253
 7824SOL     OW24370   5.966   0.871   3.903
 7824SOL    HW124371   6.039   0.927   3.942
 7824SOL    HW224372   5.956   0.787   3.957
 7825SOL     OW24373   1.542   2.461   1.392
 7825SOL    HW124374   1.605   2.388   1.367
 7825SOL    HW224375   1.511   2.508   1.309
 7826SOL     OW24376   6.355   1.636   1.356
 7826SOL    HW124377   6.392   1.714   1.304
 7826SOL    HW224378   6.293   1.670   1.426
 7827SOL     OW24379   2.143   5.153   0.845
 7827SOL    HW124380   2.161   5.225   0.912
 7827SOL    HW224381   2.190   5.069   0.874
 7828SOL     OW24382   0.675   4.146   6.690
 7828SOL    HW124383   0.683   4.060   6.741
 7828SOL    HW224384   0.738   4.145   6.613
 7829SOL     OW24385   2.584   3.902   1.244
 7829SOL    HW124386   2.507   3.918   1.182
 7829SOL    HW224387   2.559   3.830   1.309
 7830SOL     OW24388   2.603   4.627   5.112
 7830SOL    HW124389   2.692   4.652   5.074
 7830SOL    HW224390   2.615   4.599   5.207
 7831SOL     OW24391   2.333   6.469   1.767
 7831SOL    HW124392   2.427   6.501   1.762
 7831SOL    HW224393   2.272   6.547   1.781
 7832SOL     OW24394   6.005   1.055   3.550
 7832SOL    HW124395   6.035   0.961   3.541
 7832SOL    HW224396   6.084   1.114   3.566
 7833SOL     OW24397   0.571   1.188   6.121
 7833SOL    HW124398   0.591   1.106   6.174
 7833SOL    HW224399   0.648   1.252   6.129
 7834SOL     OW24400   6.659   1.921   3.588
 7834SOL    HW124401   6.575   1.953   3.543
 7834SOL    HW224402   6.738   1.959   3.541
 7835SOL     OW24403   3.481   2.042   5.354
 7835SOL    HW124404   3.392   2.074   5.325
 7835SOL    HW224405   3.533   2.118   5.394
 7836SOL     OW24406   3.106   2.906   5.354
 7836SOL    HW124407   3.145   2.898   5.263
 7836SOL    HW224408   3.126   2.997   5.391
 7837SOL     OW24409   5.276   5.354   6.842
 7837SOL    HW124410   5.251   5.360   6.939
 7837SOL    HW224411   5.193   5.348   6.786
 7838SOL     OW24412   3.774   0.114   0.692
 7838SOL    HW124413   3.732   0.024   0.682
 7838SOL    HW224414   3.707   0.185   0.673
 7839SOL     OW24415   5.873   4.228   5.039
 7839SOL    HW124416   5.810   4.224   5.117
 7839SOL    HW224417   5.835   4.174   4.963
 7840SOL     OW24418   6.169   2.887   3.901
 7840SOL    HW124419   6.086   2.930   3.865
 7840SOL    HW224420   6.151   2.850   3.992
 7841SOL     OW24421   3.441   2.183   6.005
 7841SOL    HW124422   3.392   2.233   6.076
 7841SOL    HW224423   3.456   2.089   6.034
 7842SOL     OW24424   2.896   2.057   2.768
 7842SOL    HW124425   2.851   2.116   2.701
 7842SOL    HW224426   2.836   1.981   2.791
 7843SOL     OW24427   0.022   6.131   3.499
 7843SOL    HW124428   7.002   6.090   3.578
 7843SOL    HW224429   0.121   6.125   3.511
 7844SOL     OW24430   3.741   0.107   2.975
 7844SOL    HW124431   3.822   0.163   2.958
 7844SOL    HW224432   3.664   0.166   3.000
 7845SOL     OW24433   5.583   1.931   2.884
 7845SOL    HW124434   5.532   1.948   2.968
 7845SOL    HW224435   5.566   2.004   2.819
 7846SOL     OW24436   0.510   1.486   1.954
 7846SOL    HW124437   0.526   1.533   1.867
 7846SOL    HW224438   0.439   1.533   2.005
 7847SOL     OW24439   6.675   1.634   3.294
 7847SOL    HW124440   6.658   1.574   3.372
 7847SOL    HW224441   6.733   1.587   3.227
 7848SOL     OW24442   3.167   4.172   0.609
 7848SOL    HW124443   3.249   4.223   0.584
 7848SOL    HW224444   3.193   4.082   0.644
 7849SOL     OW24445   6.661   4.389   4.339
 7849SOL    HW124446   6.620   4.346   4.419
 7849SOL    HW224447   6.591   4.443   4.291
 7850SOL     OW24448   0.182   1.537   4.444
 7850SOL    HW124449   0.258   1.471   4.441
 7850SOL    HW224450   0.191   1.601   4.367
 7851SOL     OW24451   6.490   1.230   1.640
 7851SOL    HW124452   6.441   1.314   1.618
 7851SOL    HW224453   6.586   1.238   1.612
 7852SOL     OW24454   3.103   1.680   6.250
 7852SOL    HW124455   3.054   1.607   6.299
 7852SOL    HW224456   3.154   1.640   6.174
 7853SOL     OW24457   5.116   2.478   1.835
 7853SOL    HW124458   5.039   2.538   1.815
 7853SOL    HW224459   5.200   2.520   1.800
 7854SOL     OW24460   3.502   3.338   6.851
 7854SOL    HW124461   3.518   3.421   6.798
 7854SOL    HW224462   3.412   3.300   6.828
 7855SOL     OW24463   4.819   6.727   4.616
 7855SOL    HW124464   4.886   6.673   4.564
 7855SOL    HW224465   4.804   6.684   4.705
 7856SOL     OW24466   6.683   5.478   5.057
 7856SOL    HW124467   6.652   5.568   5.024
 7856SOL    HW224468   6.781   5.481   5.076
 7857SOL     OW24469   5.304   2.265   6.734
 7857SOL    HW124470   5.209   2.234   6.727
 7857SOL    HW224471   5.306   2.365   6.739
 7858SOL     OW24472   6.218   6.794   4.067
 7858SOL    HW124473   6.134   6.774   4.017
 7858SOL    HW224474   6.218   6.746   4.154
 7859SOL     OW24475   4.245   2.840   6.357
 7859SOL    HW124476   4.195   2.770   6.409
 7859SOL    HW224477   4.257   2.921   6.414
 7860SOL     OW24478   3.199   0.943   3.355
 7860SOL    HW124479   3.280   1.002   3.362
 7860SOL    HW224480   3.165   0.944   3.261
 7861SOL     OW24481   3.688   4.721   1.607
 7861SOL    HW124482   3.652   4.679   1.690
 7861SOL    HW224483   3.618   4.779   1.565
 7862SOL     OW24484   2.095   4.725   2.081
 7862SOL    HW124485   2.182   4.717   2.130
 7862SOL    HW224486   2.091   4.814   2.034
 7863SOL     OW24487   0.378   4.559   4.575
 7863SOL    HW124488   0.459   4.532   4.628
 7863SOL    HW224489   0.407   4.595   4.486
 7864SOL     OW24490   0.947   6.096   5.153
 7864SOL    HW124491   1.002   6.151   5.216
 7864SOL    HW224492   0.999   6.080   5.069
 7865SOL     OW24493   6.448   6.359   3.878
 7865SOL    HW124494   6.486   6.273   3.841
 7865SOL    HW224495   6.480   6.370   3.972
 7866SOL     OW24496   1.072   1.927   5.988
 7866SOL    HW124497   1.114   1.854   5.934
 7866SOL    HW224498   1.126   2.010   5.978
 7867SOL     OW24499   6.004   6.084   3.511
 7867SOL    HW124500   6.096   6.124   3.506
 7867SOL    HW224501   5.940   6.141   3.460
 7868SOL     OW24502   4.851   6.234   1.752
 7868SOL    HW124503   4.873   6.301   1.822
 7868SOL    HW224504   4.920   6.238   1.680
 7869SOL     OW24505   5.230   3.658   0.182
 7869SOL    HW124506   5.242   3.656   0.083
 7869SOL    HW224507   5.221   3.564   0.217
 7870SOL     OW24508   4.284   5.210   3.961
 7870SOL    HW124509   4.253   5.120   3.991
 7870SOL    HW224510   4.264   5.222   3.863
 7871SOL     OW24511   4.655   1.827   2.211
 7871SOL    HW124512   4.621   1.747   2.162
 7871SOL    HW224513   4.684   1.799   2.303
 7872SOL     OW24514   1.676   3.928   3.118
 7872SOL    HW124515   1.676   3.848   3.179
 7872SOL    HW224516   1.605   3.917   3.049
 7873SOL     OW24517   6.042   6.404   6.236
 7873SOL    HW124518   6.066   6.419   6.332
 7873SOL    HW224519   5.979   6.476   6.205
 7874SOL     OW24520   4.877   2.408   0.212
 7874SOL    HW124521   4.805   2.476   0.196
 7874SOL    HW224522   4.915   2.421   0.303
 7875SOL     OW24523   4.201   2.977   0.081
 7875SOL    HW124524   4.144   2.895   0.083
 7875SOL    HW224525   4.186   3.027   7.022
 7876SOL     OW24526   1.527   6.804   3.493
 7876SOL    HW124527   1.472   6.723   3.517
 7876SOL    HW224528   1.619   6.775   3.469
 7877SOL     OW24529   1.339   1.966   2.847
 7877SOL    HW124530   1.243   1.938   2.846
 7877SOL    HW224531   1.397   1.887   2.862
 7878SOL     OW24532   4.758   4.289   4.757
 7878SOL    HW124533   4.786   4.280   4.852
 7878SOL    HW224534   4.774   4.202   4.709
 7879SOL     OW24535   3.889   5.492   3.133
 7879SOL    HW124536   3.958   5.543   3.185
 7879SOL    HW224537   3.930   5.452   3.052
 7880SOL     OW24538   1.957   4.576   0.921
 7880SOL    HW124539   2.010   4.614   0.845
 7880SOL    HW224540   1.946   4.477   0.908
 7881SOL     OW24541   6.129   5.266   4.861
 7881SOL    HW124542   6.132   5.191   4.795
 7881SOL    HW224543   6.048   5.258   4.917
 7882SOL     OW24544   1.349   3.280   2.037
 7882SOL    HW124545   1.320   3.231   1.955
 7882SOL    HW224546   1.268   3.311   2.088
 7883SOL     OW24547   1.240   0.578   0.440
 7883SOL    HW124548   1.308   0.546   0.507
 7883SOL    HW224549   1.283   0.584   0.350
 7884SOL     OW24550   2.134   3.450   4.719
 7884SOL    HW124551   2.110   3.390   4.796
 7884SOL    HW224552   2.086   3.537   4.729
 7885SOL     OW24553   6.059   5.737   1.182
 7885SOL    HW124554   6.079   5.713   1.277
 7885SOL    HW224555   5.985   5.804   1.179
 7886SOL     OW24556   3.850   4.828   0.205
 7886SOL    HW124557   3.835   4.751   0.142
 7886SOL    HW224558   3.764   4.853   0.248
 7887SOL     OW24559   3.331   2.474   5.392
 7887SOL    HW124560   3.273   2.548   5.427
 7887SOL    HW224561   3.281   2.421   5.324
 7888SOL     OW24562   6.520   0.488   5.412
 7888SOL    HW124563   6.480   0.437   5.488
 7888SOL    HW224564   6.539   0.425   5.337
 7889SOL     OW24565   1.376   4.424   1.418
 7889SOL    HW124566   1.412   4.423   1.324
 7889SOL    HW224567   1.277   4.408   1.415
 7890SOL     OW24568   1.904   2.856   2.597
 7890SOL    HW124569   1.913   2.771   2.650
 7890SOL    HW224570   1.808   2.882   2.591
 7891SOL     OW24571   1.731   3.438   3.840
 7891SOL    HW124572   1.744   3.535   3.819
 7891SOL    HW224573   1.688   3.429   3.929
 7892SOL     OW24574   2.017   0.891   4.267
 7892SOL    HW124575   2.037   0.869   4.362
 7892SOL    HW224576   2.068   0.829   4.207
 7893SOL     OW24577   6.852   6.072   2.624
 7893SOL    HW124578   6.824   6.040   2.534
 7893SOL    HW224579   6.935   6.127   2.617
 7894SOL     OW24580   3.472   7.025   0.929
 7894SOL    HW124581   3.465   6.996   0.834
 7894SOL    HW224582   3.383   7.017   0.974
 7895SOL     OW24583   6.131   0.630   5.524
 7895SOL    HW124584   6.151   0.637   5.426
 7895SOL    HW224585   6.140   0.720   5.566
 7896SOL     OW24586   4.912   4.214   0.186
 7896SOL    HW124587   4.992   4.155   0.192
 7896SOL    HW224588   4.928   4.285   0.117
 7897SOL     OW24589   2.350   4.053   0.236
 7897SOL    HW124590   2.427   4.010   0.283
 7897SOL    HW224591   2.275   3.988   0.227
 7898SOL     OW24592   4.901   2.221   3.903
 7898SOL    HW124593   4.932   2.190   3.813
 7898SOL    HW224594   4.840   2.152   3.942
 7899SOL     OW24595   5.519   0.926   1.223
 7899SOL    HW124596   5.520   0.826   1.217
 7899SOL    HW224597   5.495   0.953   1.316
 7900SOL     OW24598   1.472   5.041   1.447
 7900SOL    HW124599   1.375   5.026   1.424
 7900SOL    HW224600   1.479   5.115   1.513
 7901SOL     OW24601   5.026   1.545   6.651
 7901SOL    HW124602   4.968   1.482   6.599
 7901SOL    HW224603   5.015   1.638   6.615
 7902SOL     OW24604   5.102   6.038   1.540
 7902SOL    HW124605   5.151   5.951   1.544
 7902SOL    HW224606   5.004   6.023   1.549
 7903SOL     OW24607   5.664   1.118   1.079
 7903SOL    HW124608   5.615   1.051   1.136
 7903SOL    HW224609   5.674   1.203   1.131
 7904SOL     OW24610   5.889   6.530   3.676
 7904SOL    HW124611   5.805   6.570   3.712
 7904SOL    HW224612   5.896   6.435   3.705
 7905SOL     OW24613   4.437   2.462   0.397
 7905SOL    HW124614   4.404   2.499   0.484
 7905SOL    HW224615   4.431   2.362   0.399
 7906SOL     OW24616   0.251   5.622   0.381
 7906SOL    HW124617   0.267   5.585   0.472
 7906SOL    HW224618   0.335   5.664   0.347
 7907SOL     OW24619   5.488   2.639   3.455
 7907SOL    HW124620   5.518   2.676   3.544
 7907SOL    HW224621   5.389   2.624   3.457
 7908SOL     OW24622   0.708   2.021   5.828
 7908SOL    HW124623   0.803   2.019   5.797
 7908SOL    HW224624   0.649   1.982   5.757
 7909SOL     OW24625   5.691   3.785   5.033
 7909SOL    HW124626   5.626   3.815   5.103
 7909SOL    HW224627   5.700   3.686   5.036
 7910SOL     OW24628   2.998   3.606   6.060
 7910SOL    HW124629   3.045   3.691   6.087
 7910SOL    HW224630   3.030   3.579   5.969
 7911SOL     OW24631   1.481   3.057   6.928
 7911SOL    HW124632   1.422   3.086   7.003
 7911SOL    HW224633   1.543   3.131   6.903
 7912SOL     OW24634   6.763   5.022   0.194
 7912SOL    HW124635   6.745   5.118   0.217
 7912SOL    HW224636   6.860   5.011   0.172
 7913SOL     OW24637   1.482   4.807   1.159
 7913SOL    HW124638   1.386   4.807   1.189
 7913SOL    HW224639   1.528   4.887   1.197
 7914SOL     OW24640   6.700   4.485   6.862
 7914SOL    HW124641   6.630   4.484   6.933
 7914SOL    HW224642   6.790   4.474   6.904
 7915SOL     OW24643   4.927   3.169   2.155
 7915SOL    HW124644   5.003   3.176   2.090
 7915SOL    HW224645   4.843   3.145   2.106
 7916SOL     OW24646   0.426   3.872   5.402
 7916SOL    HW124647   0.335   3.884   5.443
 7916SOL    HW224648   0.427   3.913   5.310
 7917SOL     OW24649   3.660   4.038   3.874
 7917SOL    HW124650   3.628   3.944   3.880
 7917SOL    HW224651   3.581   4.100   3.878
 7918SOL     OW24652   0.317   1.535   6.998
 7918SOL    HW124653   0.275   1.596   0.040
 7918SOL    HW224654   0.340   1.587   6.916
 7919SOL     OW24655   1.948   4.163   2.374
 7919SOL    HW124656   1.953   4.075   2.327
 7919SOL    HW224657   2.026   4.172   2.436
 7920SOL     OW24658   0.201   5.649   1.055
 7920SOL    HW124659   0.293   5.686   1.043
 7920SOL    HW224660   0.150   5.659   0.970
 7921SOL     OW24661   4.390   6.497   0.702
 7921SOL    HW124662   4.458   6.570   0.692
 7921SOL    HW224663   4.302   6.529   0.669
 7922SOL     OW24664   6.610   6.736   6.530
 7922SOL    HW124665   6.511   6.748   6.531
 7922SOL    HW224666   6.634   6.658   6.588
 7923SOL     OW24667   3.335   0.564   2.279
 7923SOL    HW124668   3.333   0.465   2.263
 7923SOL    HW224669   3.297   0.584   2.369
 7924SOL     OW24670   4.306   6.737   1.990
 7924SOL    HW124671   4.373   6.663   1.996
 7924SOL    HW224672   4.273   6.759   2.082
 7925SOL     OW24673   0.660   1.849   6.240
 7925SOL    HW124674   0.686   1.916   6.310
 7925SOL    HW224675   0.721   1.858   6.161
 7926SOL     OW24676   5.218   1.949   5.643
 7926SOL    HW124677   5.236   1.881   5.714
 7926SOL    HW224678   5.123   1.979   5.648
 7927SOL     OW24679   3.764   5.282   3.934
 7927SOL    HW124680   3.834   5.218   3.967
 7927SOL    HW224681   3.674   5.251   3.963
 7928SOL     OW24682   1.268   2.537   4.478
 7928SOL    HW124683   1.261   2.563   4.574
 7928SOL    HW224684   1.216   2.453   4.462
 7929SOL     OW24685   3.905   4.227   5.910
 7929SOL    HW124686   3.913   4.141   5.961
 7929SOL    HW224687   3.995   4.252   5.873
 7930SOL     OW24688   4.575   5.264   4.005
 7930SOL    HW124689   4.479   5.254   4.032
 7930SOL    HW224690   4.593   5.208   3.924
 7931SOL     OW24691   1.373   1.939   6.103
 7931SOL    HW124692   1.358   1.981   6.014
 7931SOL    HW224693   1.344   1.843   6.100
 7932SOL     OW24694   2.471   6.334   6.607
 7932SOL    HW124695   2.498   6.388   6.527
 7932SOL    HW224696   2.515   6.244   6.602
 7933SOL     OW24697   0.408   6.104   6.968
 7933SOL    HW124698   0.502   6.117   6.934
 7933SOL    HW224699   0.347   6.089   6.890
 7934SOL     OW24700   2.395   4.642   0.196
 7934SOL    HW124701   2.462   4.688   0.138
 7934SOL    HW224702   2.422   4.651   0.292
 7935SOL     OW24703   5.432   6.412   0.245
 7935SOL    HW124704   5.366   6.403   0.320
 7935SOL    HW224705   5.472   6.323   0.225
 7936SOL     OW24706   3.788   5.419   2.220
 7936SOL    HW124707   3.783   5.372   2.132
 7936SOL    HW224708   3.711   5.482   2.229
 7937SOL     OW24709   6.477   0.201   3.752
 7937SOL    HW124710   6.426   0.124   3.789
 7937SOL    HW224711   6.454   0.213   3.655
 7938SOL     OW24712   6.082   5.470   5.183
 7938SOL    HW124713   6.168   5.430   5.150
 7938SOL    HW224714   6.024   5.397   5.218
 7939SOL     OW24715   1.239   2.805   5.587
 7939SOL    HW124716   1.235   2.713   5.626
 7939SOL    HW224717   1.233   2.801   5.488
 7940SOL     OW24718   1.994   4.257   2.111
 7940SOL    HW124719   1.998   4.239   2.210
 7940SOL    HW224720   2.018   4.174   2.061
 7941SOL     OW24721   6.444   6.729   0.634
 7941SOL    HW124722   6.489   6.643   0.614
 7941SOL    HW224723   6.452   6.749   0.732
 7942SOL     OW24724   6.634   5.583   2.854
 7942SOL    HW124725   6.537   5.563   2.864
 7942SOL    HW224726   6.671   5.529   2.778
 7943SOL     OW24727   5.726   3.333   0.328
 7943SOL    HW124728   5.698   3.384   0.409
 7943SOL    HW224729   5.717   3.235   0.346
 7944SOL     OW24730   0.631   3.032   1.307
 7944SOL    HW124731   0.722   3.062   1.280
 7944SOL    HW224732   0.632   2.933   1.323
 7945SOL     OW24733   5.373   6.155   1.728
 7945SOL    HW124734   5.418   6.244   1.729
 7945SOL    HW224735   5.396   6.107   1.643
 7946SOL     OW24736   2.211   1.584   5.446
 7946SOL    HW124737   2.272   1.645   5.396
 7946SOL    HW224738   2.117   1.618   5.441
 7947SOL     OW24739   3.825   2.194   6.289
 7947SOL    HW124740   3.768   2.247   6.352
 7947SOL    HW224741   3.845   2.251   6.209
 7948SOL     OW24742   0.695   6.436   1.009
 7948SOL    HW124743   0.715   6.388   1.094
 7948SOL    HW224744   0.777   6.486   0.980
 7949SOL     OW24745   4.866   4.483   4.580
 7949SOL    HW124746   4.803   4.553   4.613
 7949SOL    HW224747   4.844   4.395   4.622
 7950SOL     OW24748   5.778   5.177   4.626
 7950SOL    HW124749   5.707   5.195   4.695
 7950SOL    HW224750   5.778   5.250   4.558
 7951SOL     OW24751   1.800   4.125   1.107
 7951SOL    HW124752   1.756   4.172   1.184
 7951SOL    HW224753   1.886   4.085   1.137
 7952SOL     OW24754   0.767   3.386   6.517
 7952SOL    HW124755   0.867   3.383   6.514
 7952SOL    HW224756   0.730   3.297   6.490
 7953SOL     OW24757   1.873   2.983   3.365
 7953SOL    HW124758   1.797   2.991   3.301
 7953SOL    HW224759   1.939   3.056   3.349
 7954SOL     OW24760   4.673   4.161   5.180
 7954SOL    HW124761   4.650   4.137   5.275
 7954SOL    HW224762   4.621   4.103   5.118
 7955SOL     OW24763   1.311   6.490   6.580
 7955SOL    HW124764   1.351   6.575   6.616
 7955SOL    HW224765   1.230   6.512   6.526
 7956SOL     OW24766   3.255   5.824   2.695
 7956SOL    HW124767   3.251   5.915   2.654
 7956SOL    HW224768   3.186   5.816   2.767
 7957SOL     OW24769   1.566   1.225   0.922
 7957SOL    HW124770   1.550   1.130   0.895
 7957SOL    HW224771   1.663   1.238   0.944
 7958SOL     OW24772   3.817   5.019   4.294
 7958SOL    HW124773   3.721   5.040   4.312
 7958SOL    HW224774   3.873   5.100   4.313
 7959SOL     OW24775   4.093   5.578   1.113
 7959SOL    HW124776   4.108   5.481   1.095
 7959SOL    HW224777   4.119   5.631   1.032
 7960SOL     OW24778   4.083   1.608   0.619
 7960SOL    HW124779   4.116   1.641   0.707
 7960SOL    HW224780   3.986   1.585   0.626
 7961SOL     OW24781   0.884   6.691   1.199
 7961SOL    HW124782   0.890   6.609   1.141
 7961SOL    HW224783   0.970   6.742   1.194
 7962SOL     OW24784   2.145   0.151   0.431
 7962SOL    HW124785   2.237   0.133   0.467
 7962SOL    HW224786   2.152   0.169   0.332
 7963SOL     OW24787   6.854   1.111   3.805
 7963SOL    HW124788   6.879   1.133   3.711
 7963SOL    HW224789   6.827   1.194   3.853
 7964SOL     OW24790   0.347   4.991   3.596
 7964SOL    HW124791   0.407   5.004   3.675
 7964SOL    HW224792   0.310   4.898   3.598
 7965SOL     OW24793   3.819   3.185   0.150
 7965SOL    HW124794   3.809   3.274   0.105
 7965SOL    HW224795   3.778   3.114   0.093
 7966SOL     OW24796   0.752   3.313   5.661
 7966SOL    HW124797   0.837   3.269   5.631
 7966SOL    HW224798   0.765   3.412   5.663
 7967SOL     OW24799   2.621   5.883   3.990
 7967SOL    HW124800   2.681   5.923   3.920
 7967SOL    HW224801   2.621   5.942   4.071
 7968SOL     OW24802   2.773   2.327   3.420
 7968SOL    HW124803   2.749   2.269   3.342
 7968SOL    HW224804   2.865   2.363   3.407
 7969SOL     OW24805   4.609   6.881   1.898
 7969SOL    HW124806   4.551   6.842   1.826
 7969SOL    HW224807   4.592   6.832   1.984
 7970SOL     OW24808   0.712   3.065   3.140
 7970SOL    HW124809   0.663   3.135   3.088
 7970SOL    HW224810   0.651   3.025   3.208
 7971SOL     OW24811   4.723   1.460   1.028
 7971SOL    HW124812   4.705   1.409   0.944
 7971SOL    HW224813   4.821   1.461   1.046
 7972SOL     OW24814   1.520   3.524   1.710
 7972SOL    HW124815   1.595   3.489   1.653
 7972SOL    HW224816   1.452   3.568   1.651
 7973SOL     OW24817   4.754   4.233   3.390
 7973SOL    HW124818   4.793   4.180   3.314
 7973SOL    HW224819   4.770   4.185   3.476
 7974SOL     OW24820   5.900   0.976   4.951
 7974SOL    HW124821   5.871   0.949   4.859
 7974SOL    HW224822   5.876   1.071   4.967
 7975SOL     OW24823   5.972   0.349   2.892
 7975SOL    HW124824   5.954   0.252   2.907
 7975SOL    HW224825   5.886   0.398   2.882
 7976SOL     OW24826   0.655   0.741   6.521
 7976SOL    HW124827   0.610   0.654   6.539
 7976SOL    HW224828   0.667   0.752   6.422
 7977SOL     OW24829   5.029   5.277   1.434
 7977SOL    HW124830   5.043   5.337   1.512
 7977SOL    HW224831   4.993   5.189   1.466
 7978SOL     OW24832   5.466   3.336   6.447
 7978SOL    HW124833   5.434   3.271   6.516
 7978SOL    HW224834   5.434   3.307   6.357
 7979SOL     OW24835   3.585   0.342   4.902
 7979SOL    HW124836   3.577   0.243   4.916
 7979SOL    HW224837   3.571   0.389   4.990
 7980SOL     OW24838   2.638   5.554   6.978
 7980SOL    HW124839   2.713   5.610   6.943
 7980SOL    HW224840   2.551   5.593   6.949
 7981SOL     OW24841   0.311   5.583   2.041
 7981SOL    HW124842   0.370   5.647   2.090
 7981SOL    HW224843   0.368   5.514   1.995
 7982SOL     OW24844   0.459   1.603   0.579
 7982SOL    HW124845   0.404   1.520   0.570
 7982SOL    HW224846   0.547   1.589   0.532
 7983SOL     OW24847   5.567   1.419   2.597
 7983SOL    HW124848   5.576   1.333   2.546
 7983SOL    HW224849   5.639   1.482   2.567
 7984SOL     OW24850   1.830   1.824   1.742
 7984SOL    HW124851   1.758   1.773   1.790
 7984SOL    HW224852   1.871   1.765   1.672
 7985SOL     OW24853   2.348   6.440   3.924
 7985SOL    HW124854   2.432   6.389   3.904
 7985SOL    HW224855   2.272   6.377   3.937
 7986SOL     OW24856   2.878   0.728   6.891
 7986SOL    HW124857   2.845   0.633   6.889
 7986SOL    HW224858   2.800   0.790   6.893
 7987SOL     OW24859   1.153   3.143   6.876
 7987SOL    HW124860   1.146   3.232   6.831
 7987SOL    HW224861   1.191   3.155   6.968
 7988SOL     OW24862   1.480   1.956   3.883
 7988SOL    HW124863   1.445   2.047   3.907
 7988SOL    HW224864   1.517   1.958   3.791
 7989SOL     OW24865   3.137   2.692   5.554
 7989SOL    HW124866   3.141   2.787   5.522
 7989SOL    HW224867   3.074   2.640   5.497
 7990SOL     OW24868   6.592   3.635   3.392
 7990SOL    HW124869   6.514   3.572   3.391
 7990SOL    HW224870   6.600   3.679   3.303
 7991SOL     OW24871   6.653   0.775   4.500
 7991SOL    HW124872   6.676   0.680   4.521
 7991SOL    HW224873   6.654   0.830   4.584
 7992SOL     OW24874   1.286   6.602   0.963
 7992SOL    HW124875   1.316   6.681   0.909
 7992SOL    HW224876   1.366   6.548   0.991
 7993SOL     OW24877   1.117   6.079   6.543
 7993SOL    HW124878   1.207   6.044   6.569
 7993SOL    HW224879   1.129   6.156   6.480
 7994SOL     OW24880   5.157   0.091   2.919
 7994SOL    HW124881   5.149   7.021   2.891
 7994SOL    HW224882   5.138   0.099   3.016
 7995SOL     OW24883   4.609   5.264   3.578
 7995SOL    HW124884   4.563   5.222   3.656
 7995SOL    HW224885   4.601   5.363   3.584
 7996SOL     OW24886   2.607   0.083   4.561
 7996SOL    HW124887   2.648   0.173   4.553
 7996SOL    HW224888   2.675   0.018   4.596
 7997SOL     OW24889   0.013   1.336   0.902
 7997SOL    HW124890   0.006   1.274   0.824
 7997SOL    HW224891   0.071   1.295   0.973
 7998SOL     OW24892   3.437   5.263   1.275
 7998SOL    HW124893   3.495   5.182   1.262
 7998SOL    HW224894   3.428   5.282   1.372
 7999SOL     OW24895   1.430   6.952   6.115
 7999SOL    HW124896   1.460   6.873   6.168
 7999SOL    HW224897   1.330   6.952   6.112
 8000SOL     OW24898   5.036   0.185   0.539
 8000SOL    HW124899   5.123   0.138   0.521
 8000SOL    HW224900   4.961   0.129   0.504
 8001SOL     OW24901   3.455   5.450   1.104
 8001SOL    HW124902   3.458   5.379   1.174
 8001SOL    HW224903   3.359   5.470   1.081
 8002SOL     OW24904   0.744   2.336   5.954
 8002SOL    HW124905   0.693   2.305   5.874
 8002SOL    HW224906   0.786   2.257   5.999
 8003SOL     OW24907   2.761   4.644   2.742
 8003SOL    HW124908   2.686   4.649   2.807
 8003SOL    HW224909   2.840   4.599   2.785
 8004SOL     OW24910   1.871   4.015   3.581
 8004SOL    HW124911   1.910   4.056   3.663
 8004SOL    HW224912   1.930   3.941   3.549
 8005SOL     OW24913   3.308   1.151   2.799
 8005SOL    HW124914   3.265   1.147   2.708
 8005SOL    HW224915   3.366   1.070   2.812
 8006SOL     OW24916   2.398   6.991   6.651
 8006SOL    HW124917   2.388   6.965   6.555
 8006SOL    HW224918   2.385   0.064   6.661
 8007SOL     OW24919   0.242   0.608   4.163
 8007SOL    HW124920   0.283   0.542   4.100
 8007SOL    HW224921   0.295   0.692   4.163
 8008SOL     OW24922   4.341   6.657   6.036
 8008SOL    HW124923   4.394   6.645   5.953
 8008SOL    HW224924   4.395   6.706   6.104
 8009SOL     OW24925   5.769   0.548   2.916
 8009SOL    HW124926   5.669   0.555   2.920
 8009SOL    HW224927   5.810   0.631   2.955
 8010SOL     OW24928   1.319   1.234   0.538
 8010SOL    HW124929   1.332   1.243   0.439
 8010SOL    HW224930   1.333   1.139   0.565
 8011SOL     OW24931   3.306   2.528   1.313
 8011SOL    HW124932   3.245   2.603   1.341
 8011SOL    HW224933   3.392   2.534   1.364
 8012SOL     OW24934   2.133   5.498   1.628
 8012SOL    HW124935   2.180   5.575   1.585
 8012SOL    HW224936   2.152   5.499   1.726
 8013SOL     OW24937   1.151   4.477   3.772
 8013SOL    HW124938   1.162   4.401   3.708
 8013SOL    HW224939   1.080   4.455   3.839
 8014SOL     OW24940   0.847   6.239   5.469
 8014SOL    HW124941   0.917   6.168   5.458
 8014SOL    HW224942   0.789   6.216   5.547
 8015SOL     OW24943   3.087   1.491   0.046
 8015SOL    HW124944   3.084   1.416   0.112
 8015SOL    HW224945   3.113   1.576   0.092
 8016SOL     OW24946   4.840   6.910   6.933
 8016SOL    HW124947   4.807   6.844   6.999
 8016SOL    HW224948   4.940   6.913   6.934
 8017SOL     OW24949   6.486   6.408   0.345
 8017SOL    HW124950   6.520   6.439   0.434
 8017SOL    HW224951   6.422   6.477   0.310
 8018SOL     OW24952   3.433   2.516   6.094
 8018SOL    HW124953   3.356   2.579   6.098
 8018SOL    HW224954   3.449   2.488   5.999
 8019SOL     OW24955   2.282   3.722   6.784
 8019SOL    HW124956   2.364   3.725   6.842
 8019SOL    HW224957   2.276   3.808   6.732
 8020SOL     OW24958   6.599   6.052   0.954
 8020SOL    HW124959   6.531   6.100   0.898
 8020SOL    HW224960   6.674   6.021   0.896
 8021SOL     OW24961   1.222   1.686   1.313
 8021SOL    HW124962   1.229   1.692   1.213
 8021SOL    HW224963   1.128   1.659   1.337
 8022SOL     OW24964   4.161   0.118   2.949
 8022SOL    HW124965   4.164   0.187   3.021
 8022SOL    HW224966   4.082   0.134   2.890
 8023SOL     OW24967   5.731   5.171   3.230
 8023SOL    HW124968   5.719   5.073   3.242
 8023SOL    HW224969   5.652   5.219   3.269
 8024SOL     OW24970   2.761   4.878   0.279
 8024SOL    HW124971   2.813   4.793   0.285
 8024SOL    HW224972   2.811   4.950   0.327
 8025SOL     OW24973   2.215   6.154   6.516
 8025SOL    HW124974   2.126   6.168   6.559
 8025SOL    HW224975   2.281   6.219   6.554
 8026SOL     OW24976   0.690   4.788   6.637
 8026SOL    HW124977   0.696   4.695   6.600
 8026SOL    HW224978   0.614   4.792   6.702
 8027SOL     OW24979   4.031   2.078   5.115
 8027SOL    HW124980   3.996   2.010   5.051
 8027SOL    HW224981   4.049   2.035   5.203
 8028SOL     OW24982   2.762   4.978   4.971
 8028SOL    HW124983   2.858   4.948   4.968
 8028SOL    HW224984   2.706   4.915   4.916
 8029SOL     OW24985   5.027   3.177   0.534
 8029SOL    HW124986   5.123   3.157   0.511
 8029SOL    HW224987   4.974   3.187   0.450
 8030SOL     OW24988   4.634   4.290   0.158
 8030SOL    HW124989   4.723   4.246   0.148
 8030SOL    HW224990   4.606   4.288   0.254
 8031SOL     OW24991   4.727   6.163   2.900
 8031SOL    HW124992   4.644   6.188   2.851
 8031SOL    HW224993   4.760   6.075   2.866
 8032SOL     OW24994   5.467   4.171   6.033
 8032SOL    HW124995   5.517   4.127   6.108
 8032SOL    HW224996   5.452   4.105   5.960
 8033SOL     OW24997   5.065   3.709   6.497
 8033SOL    HW124998   4.992   3.778   6.495
 8033SOL    HW224999   5.029   3.624   6.534
 8034SOL     OW25000   6.671   1.011   5.218
 8034SOL    HW125001   6.663   0.992   5.316
 8034SOL    HW225002   6.688   0.925   5.169
 8035SOL     OW25003   5.382   1.133   4.842
 8035SOL    HW125004   5.434   1.064   4.793
 8035SOL    HW225005   5.299   1.155   4.791
 8036SOL     OW25006   0.563   4.240   2.657
 8036SOL    HW125007   0.570   4.334   2.690
 8036SOL    HW225008   0.468   4.210   2.661
 8037SOL     OW25009   2.186   3.143   1.677
 8037SOL    HW125010   2.164   3.175   1.770
 8037SOL    HW225011   2.237   3.057   1.683
 8038SOL     OW25012   4.624   1.073   3.166
 8038SOL    HW125013   4.545   1.028   3.207
 8038SOL    HW225014   4.596   1.120   3.083
 8039SOL     OW25015   0.986   0.937   4.041
 8039SOL    HW125016   1.021   0.843   4.038
 8039SOL    HW225017   1.001   0.981   3.952
 8040SOL     OW25018   1.383   6.279   0.927
 8040SOL    HW125019   1.409   6.205   0.864
 8040SOL    HW225020   1.353   6.358   0.874
 8041SOL     OW25021   2.853   1.592   1.985
 8041SOL    HW125022   2.937   1.570   2.035
 8041SOL    HW225023   2.862   1.682   1.942
 8042SOL     OW25024   3.782   2.950   3.814
 8042SOL    HW125025   3.826   2.952   3.904
 8042SOL    HW225026   3.851   2.966   3.744
 8043SOL     OW25027   3.817   0.266   1.786
 8043SOL    HW125028   3.789   0.253   1.881
 8043SOL    HW225029   3.841   0.177   1.746
 8044SOL     OW25030   3.778   3.404   0.582
 8044SOL    HW125031   3.837   3.324   0.591
 8044SOL    HW225032   3.816   3.466   0.514
 8045SOL     OW25033   5.402   0.164   1.424
 8045SOL    HW125034   5.395   0.260   1.448
 8045SOL    HW225035   5.323   0.115   1.460
 8046SOL     OW25036   6.671   5.300   0.211
 8046SOL    HW125037   6.590   5.354   0.190
 8046SOL    HW225038   6.754   5.351   0.187
 8047SOL     OW25039   3.991   5.221   4.308
 8047SOL    HW125040   3.967   5.315   4.332
 8047SOL    HW225041   4.084   5.201   4.339
 8048SOL     OW25042   5.691   0.923   5.975
 8048SOL    HW125043   5.610   0.968   6.013
 8048SOL    HW225044   5.772   0.977   5.997
 8049SOL     OW25045   1.761   0.366   0.752
 8049SOL    HW125046   1.850   0.361   0.706
 8049SOL    HW225047   1.712   0.281   0.738
 8050SOL     OW25048   1.223   3.684   2.196
 8050SOL    HW125049   1.317   3.652   2.186
 8050SOL    HW225050   1.201   3.746   2.121
 8051SOL     OW25051   4.729   5.864   3.110
 8051SOL    HW125052   4.640   5.909   3.105
 8051SOL    HW225053   4.716   5.767   3.129
 8052SOL     OW25054   4.274   1.731   2.339
 8052SOL    HW125055   4.217   1.811   2.325
 8052SOL    HW225056   4.344   1.727   2.267
 8053SOL     OW25057   3.252   3.946   3.513
 8053SOL    HW125058   3.205   3.975   3.430
 8053SOL    HW225059   3.340   3.905   3.490
 8054SOL     OW25060   5.158   7.018   4.536
 8054SOL    HW125061   5.209   6.946   4.583
 8054SOL    HW225062   5.080   6.977   4.488
 8055SOL     OW25063   0.127   0.510   6.194
 8055SOL    HW125064   0.151   0.526   6.290
 8055SOL    HW225065   0.030   0.528   6.180
 8056SOL     OW25066   4.275   2.047   4.200
 8056SOL    HW125067   4.230   1.977   4.145
 8056SOL    HW225068   4.298   2.010   4.290
 8057SOL     OW25069   3.171   2.003   3.052
 8057SOL    HW125070   3.155   2.100   3.066
 8057SOL    HW225071   3.124   1.950   3.123
 8058SOL     OW25072   4.666   0.872   2.696
 8058SOL    HW125073   4.663   0.773   2.683
 8058SOL    HW225074   4.742   0.896   2.756
 8059SOL     OW25075   4.522   2.405   4.709
 8059SOL    HW125076   4.585   2.330   4.690
 8059SOL    HW225077   4.428   2.373   4.701
 8060SOL     OW25078   0.595   2.270   4.387
 8060SOL    HW125079   0.538   2.267   4.469
 8060SOL    HW225080   0.681   2.223   4.405
 8061SOL     OW25081   6.597   0.196   1.812
 8061SOL    HW125082   6.523   0.155   1.757
 8061SOL    HW225083   6.637   0.125   1.871
 8062SOL     OW25084   2.903   5.157   4.261
 8062SOL    HW125085   2.970   5.095   4.302
 8062SOL    HW225086   2.874   5.225   4.328
 8063SOL     OW25087   0.885   2.594   0.586
 8063SOL    HW125088   0.947   2.632   0.655
 8063SOL    HW225089   0.816   2.538   0.631
 8064SOL     OW25090   0.111   5.316   0.933
 8064SOL    HW125091   0.201   5.361   0.937
 8064SOL    HW225092   0.091   5.273   1.021
 8065SOL     OW25093   3.918   6.138   4.376
 8065SOL    HW125094   3.926   6.099   4.468
 8065SOL    HW225095   4.008   6.170   4.345
 8066SOL     OW25096   0.955   2.165   6.299
 8066SOL    HW125097   0.905   2.142   6.215
 8066SOL    HW225098   1.040   2.114   6.302
 8067SOL     OW25099   4.720   3.180   1.646
 8067SOL    HW125100   4.664   3.146   1.722
 8067SOL    HW225101   4.671   3.253   1.599
 8068SOL     OW25102   5.808   4.673   0.506
 8068SOL    HW125103   5.802   4.761   0.460
 8068SOL    HW225104   5.900   4.636   0.494
 8069SOL     OW25105   2.067   5.672   1.317
 8069SOL    HW125106   2.022   5.619   1.389
 8069SOL    HW225107   2.020   5.657   1.230
 8070SOL     OW25108   3.110   2.769   0.103
 8070SOL    HW125109   3.093   2.744   0.199
 8070SOL    HW225110   3.042   2.726   0.044
 8071SOL     OW25111   2.656   6.245   5.016
 8071SOL    HW125112   2.658   6.342   5.041
 8071SOL    HW225113   2.722   6.230   4.942
 8072SOL     OW25114   3.366   0.917   6.775
 8072SOL    HW125115   3.266   0.911   6.773
 8072SOL    HW225116   3.403   0.895   6.684
 8073SOL     OW25117   4.458   5.608   5.871
 8073SOL    HW125118   4.541   5.589   5.924
 8073SOL    HW225119   4.400   5.671   5.923
 8074SOL     OW25120   3.047   2.685   0.355
 8074SOL    HW125121   2.993   2.601   0.350
 8074SOL    HW225122   3.080   2.698   0.449
 8075SOL     OW25123   6.302   0.923   0.914
 8075SOL    HW125124   6.273   0.931   0.819
 8075SOL    HW225125   6.242   0.978   0.972
 8076SOL     OW25126   5.204   2.482   5.377
 8076SOL    HW125127   5.275   2.550   5.360
 8076SOL    HW225128   5.245   2.391   5.381
 8077SOL     OW25129   1.184   5.085   1.756
 8077SOL    HW125130   1.182   5.148   1.834
 8077SOL    HW225131   1.194   4.991   1.789
 8078SOL     OW25132   5.854   1.049   0.908
 8078SOL    HW125133   5.783   1.094   0.963
 8078SOL    HW225134   5.821   1.036   0.815
 8079SOL     OW25135   5.326   1.775   3.433
 8079SOL    HW125136   5.294   1.727   3.352
 8079SOL    HW225137   5.328   1.711   3.511
 8080SOL     OW25138   0.322   3.709   0.510
 8080SOL    HW125139   0.313   3.644   0.586
 8080SOL    HW225140   0.233   3.723   0.467
 8081SOL     OW25141   4.929   6.925   4.416
 8081SOL    HW125142   4.935   6.849   4.352
 8081SOL    HW225143   4.883   6.896   4.500
 8082SOL     OW25144   6.058   0.461   1.831
 8082SOL    HW125145   6.008   0.385   1.871
 8082SOL    HW225146   6.155   0.440   1.829
 8083SOL     OW25147   5.211   3.517   2.677
 8083SOL    HW125148   5.239   3.439   2.734
 8083SOL    HW225149   5.268   3.522   2.596
 8084SOL     OW25150   5.475   6.807   0.415
 8084SOL    HW125151   5.498   6.812   0.512
 8084SOL    HW225152   5.547   6.760   0.365
 8085SOL     OW25153   6.229   0.361   2.860
 8085SOL    HW125154   6.135   0.333   2.881
 8085SOL    HW225155   6.227   0.433   2.791
 8086SOL     OW25156   4.683   1.203   3.809
 8086SOL    HW125157   4.727   1.291   3.827
 8086SOL    HW225158   4.693   1.144   3.889
 8087SOL     OW25159   2.721   1.680   0.753
 8087SOL    HW125160   2.659   1.736   0.698
 8087SOL    HW225161   2.813   1.686   0.716
 8088SOL     OW25162   5.696   2.243   1.435
 8088SOL    HW125163   5.786   2.250   1.393
 8088SOL    HW225164   5.671   2.147   1.446
 8089SOL     OW25165   4.932   2.822   0.510
 8089SOL    HW125166   5.018   2.780   0.537
 8089SOL    HW225167   4.913   2.901   0.569
 8090SOL     OW25168   3.921   2.363   6.814
 8090SOL    HW125169   3.980   2.290   6.780
 8090SOL    HW225170   3.976   2.434   6.857
 8091SOL     OW25171   2.313   3.924   6.603
 8091SOL    HW125172   2.301   4.022   6.616
 8091SOL    HW225173   2.389   3.908   6.539
 8092SOL     OW25174   1.072   2.364   4.868
 8092SOL    HW125175   1.005   2.428   4.906
 8092SOL    HW225176   1.155   2.414   4.843
 8093SOL     OW25177   4.806   5.560   1.674
 8093SOL    HW125178   4.724   5.616   1.682
 8093SOL    HW225179   4.785   5.477   1.622
 8094SOL     OW25180   1.416   4.187   4.430
 8094SOL    HW125181   1.485   4.256   4.407
 8094SOL    HW225182   1.461   4.105   4.465
 8095SOL     OW25183   6.020   4.033   4.192
 8095SOL    HW125184   5.957   4.062   4.120
 8095SOL    HW225185   5.991   3.945   4.229
 8096SOL     OW25186   2.926   5.544   3.778
 8096SOL    HW125187   2.939   5.521   3.681
 8096SOL    HW225188   2.830   5.569   3.793
 8097SOL     OW25189   5.096   6.621   3.293
 8097SOL    HW125190   5.016   6.679   3.301
 8097SOL    HW225191   5.072   6.526   3.316
 8098SOL     OW25192   2.070   6.721   3.905
 8098SOL    HW125193   2.138   6.777   3.859
 8098SOL    HW225194   2.078   6.734   4.004
 8099SOL     OW25195   5.451   6.965   3.947
 8099SOL    HW125196   5.520   7.015   4.000
 8099SOL    HW225197   5.453   6.996   3.852
 8100SOL     OW25198   6.866   7.014   6.876
 8100SOL    HW125199   6.960   0.001   6.846
 8100SOL    HW225200   6.860   6.933   6.935
 8101SOL     OW25201   2.011   0.075   3.801
 8101SOL    HW125202   2.017   0.050   3.898
 8101SOL    HW225203   1.993   7.019   3.746
 8102SOL     OW25204   1.193   5.126   4.682
 8102SOL    HW125205   1.098   5.099   4.670
 8102SOL    HW225206   1.251   5.074   4.619
 8103SOL     OW25207   4.375   0.637   0.777
 8103SOL    HW125208   4.388   0.685   0.690
 8103SOL    HW225209   4.317   0.557   0.762
 8104SOL     OW25210   2.420   6.616   6.155
 8104SOL    HW125211   2.438   6.553   6.081
 8104SOL    HW225212   2.493   6.685   6.160
 8105SOL     OW25213   1.781   2.138   2.912
 8105SOL    HW125214   1.808   2.197   2.989
 8105SOL    HW225215   1.704   2.081   2.940
 8106SOL     OW25216   2.941   5.871   3.200
 8106SOL    HW125217   2.902   5.882   3.291
 8106SOL    HW225218   3.036   5.900   3.200
 8107SOL     OW25219   1.184   5.698   5.181
 8107SOL    HW125220   1.189   5.600   5.159
 8107SOL    HW225221   1.160   5.750   5.099
 8108SOL     OW25222   5.910   3.282   4.891
 8108SOL    HW125223   5.993   3.309   4.938
 8108SOL    HW225224   5.831   3.300   4.949
 8109SOL     OW25225   0.897   3.582   4.057
 8109SOL    HW125226   0.928   3.675   4.038
 8109SOL    HW225227   0.893   3.567   4.156
 8110SOL     OW25228   3.720   6.337   0.646
 8110SOL    HW125229   3.670   6.391   0.714
 8110SOL    HW225230   3.786   6.278   0.693
 8111SOL     OW25231   4.194   1.049   5.347
 8111SOL    HW125232   4.150   1.139   5.360
 8111SOL    HW225233   4.261   1.034   5.420
 8112SOL     OW25234   1.872   1.465   4.395
 8112SOL    HW125235   1.848   1.542   4.335
 8112SOL    HW225236   1.788   1.416   4.421
 8113SOL     OW25237   2.896   3.237   0.346
 8113SOL    HW125238   2.810   3.279   0.375
 8113SOL    HW225239   2.891   3.138   0.361
 8114SOL     OW25240   2.069   3.269   1.482
 8114SOL    HW125241   2.117   3.201   1.537
 8114SOL    HW225242   1.985   3.230   1.446
 8115SOL     OW25243   3.990   1.149   1.706
 8115SOL    HW125244   4.085   1.172   1.725
 8115SOL    HW225245   3.959   1.078   1.770
 8116SOL     OW25246   4.993   0.093   5.045
 8116SOL    HW125247   4.943   0.021   4.997
 8116SOL    HW225248   5.075   0.116   4.993
 8117SOL     OW25249   2.220   1.152   4.332
 8117SOL    HW125250   2.298   1.206   4.363
 8117SOL    HW225251   2.249   1.093   4.256
 8118SOL     OW25252   6.573   3.062   5.644
 8118SOL    HW125253   6.601   3.112   5.726
 8118SOL    HW225254   6.646   2.997   5.619
 8119SOL     OW25255   6.688   5.995   5.049
 8119SOL    HW125256   6.667   6.043   4.964
 8119SOL    HW225257   6.650   6.047   5.126
 8120SOL     OW25258   3.326   4.562   6.899
 8120SOL    HW125259   3.406   4.585   6.843
 8120SOL    HW225260   3.244   4.569   6.842
 8121SOL     OW25261   6.728   5.605   2.468
 8121SOL    HW125262   6.748   5.560   2.381
 8121SOL    HW225263   6.809   5.654   2.500
 8122SOL     OW25264   0.943   5.776   2.943
 8122SOL    HW125265   0.851   5.807   2.919
 8122SOL    HW225266   0.965   5.806   3.036
 8123SOL     OW25267   0.139   6.991   6.838
 8123SOL    HW125268   0.179   0.038   6.781
 8123SOL    HW225269   0.204   6.964   6.908
 8124SOL     OW25270   0.010   6.529   1.302
 8124SOL    HW125271   0.084   6.520   1.368
 8124SOL    HW225272   0.027   6.607   1.243
 8125SOL     OW25273   0.672   6.912   3.395
 8125SOL    HW125274   0.647   6.823   3.435
 8125SOL    HW225275   0.760   6.904   3.349
 8126SOL     OW25276   6.318   3.938   2.360
 8126SOL    HW125277   6.371   3.858   2.330
 8126SOL    HW225278   6.319   4.008   2.288
 8127SOL     OW25279   2.407   5.959   0.571
 8127SOL    HW125280   2.478   5.923   0.631
 8127SOL    HW225281   2.416   5.919   0.480
 8128SOL     OW25282   2.656   3.054   0.679
 8128SOL    HW125283   2.568   3.042   0.726
 8128SOL    HW225284   2.728   3.008   0.731
 8129SOL     OW25285   4.005   0.975   5.743
 8129SOL    HW125286   3.955   1.059   5.725
 8129SOL    HW225287   4.054   0.947   5.660
 8130SOL     OW25288   0.233   4.680   6.257
 8130SOL    HW125289   0.179   4.765   6.261
 8130SOL    HW225290   0.172   4.602   6.244
 8131SOL     OW25291   3.251   0.743   0.716
 8131SOL    HW125292   3.172   0.781   0.668
 8131SOL    HW225293   3.227   0.729   0.813
 8132SOL     OW25294   5.945   6.651   6.875
 8132SOL    HW125295   5.898   6.608   6.798
 8132SOL    HW225296   6.036   6.682   6.845
 8133SOL     OW25297   3.558   4.998   1.837
 8133SOL    HW125298   3.568   4.901   1.861
 8133SOL    HW225299   3.467   5.014   1.798
 8134SOL     OW25300   0.887   1.525   4.322
 8134SOL    HW125301   0.879   1.425   4.312
 8134SOL    HW225302   0.874   1.568   4.233
 8135SOL     OW25303   2.337   5.606   1.220
 8135SOL    HW125304   2.404   5.617   1.293
 8135SOL    HW225305   2.247   5.634   1.252
 8136SOL     OW25306   4.822   4.380   2.754
 8136SOL    HW125307   4.762   4.416   2.683
 8136SOL    HW225308   4.767   4.358   2.835
 8137SOL     OW25309   2.520   1.403   3.994
 8137SOL    HW125310   2.460   1.381   3.916
 8137SOL    HW225311   2.484   1.483   4.041
 8138SOL     OW25312   5.591   2.154   0.674
 8138SOL    HW125313   5.601   2.072   0.731
 8138SOL    HW225314   5.588   2.126   0.578
 8139SOL     OW25315   1.858   2.493   3.423
 8139SOL    HW125316   1.831   2.547   3.503
 8139SOL    HW225317   1.795   2.511   3.348
 8140SOL     OW25318   3.599   6.937   0.659
 8140SOL    HW125319   3.561   6.844   0.660
 8140SOL    HW225320   3.529   7.000   0.626
 8141SOL     OW25321   4.223   0.129   5.762
 8141SOL    HW125322   4.199   0.034   5.781
 8141SOL    HW225323   4.256   0.172   5.846
 8142SOL     OW25324   1.605   5.019   0.273
 8142SOL    HW125325   1.628   4.931   0.230
 8142SOL    HW225326   1.554   5.075   0.208
 8143SOL     OW25327   5.725   5.037   0.682
 8143SOL    HW125328   5.635   5.076   0.666
 8143SOL    HW225329   5.716   4.946   0.723
 8144SOL     OW25330   0.703   5.575   5.864
 8144SOL    HW125331   0.742   5.635   5.935
 8144SOL    HW225332   0.609   5.550   5.889
 8145SOL     OW25333   5.478   5.533   0.743
 8145SOL    HW125334   5.410   5.545   0.816
 8145SOL    HW225335   5.443   5.571   0.658
 8146SOL     OW25336   5.759   0.645   5.351
 8146SOL    HW125337   5.802   0.697   5.277
 8146SOL    HW225338   5.660   0.656   5.347
 8147SOL     OW25339   6.245   0.654   0.772
 8147SOL    HW125340   6.259   0.728   0.707
 8147SOL    HW225341   6.235   0.567   0.723
 8148SOL     OW25342   4.585   5.268   6.812
 8148SOL    HW125343   4.678   5.246   6.785
 8148SOL    HW225344   4.562   5.220   6.896
 8149SOL     OW25345   1.441   6.635   3.028
 8149SOL    HW125346   1.375   6.710   3.038
 8149SOL    HW225347   1.534   6.672   3.032
 8150SOL     OW25348   0.939   4.004   0.581
 8150SOL    HW125349   1.011   3.963   0.636
 8150SOL    HW225350   0.972   4.021   0.489
 8151SOL     OW25351   5.665   5.059   3.609
 8151SOL    HW125352   5.652   5.052   3.708
 8151SOL    HW225353   5.749   5.111   3.591
 8152SOL     OW25354   6.428   3.494   3.133
 8152SOL    HW125355   6.490   3.416   3.123
 8152SOL    HW225356   6.481   3.576   3.153
 8153SOL     OW25357   1.014   1.389   3.237
 8153SOL    HW125358   1.028   1.296   3.271
 8153SOL    HW225359   0.983   1.447   3.313
 8154SOL     OW25360   3.829   6.658   3.130
 8154SOL    HW125361   3.744   6.710   3.144
 8154SOL    HW225362   3.898   6.718   3.088
 8155SOL     OW25363   1.491   3.650   2.128
 8155SOL    HW125364   1.574   3.604   2.160
 8155SOL    HW225365   1.491   3.745   2.159
 8156SOL     OW25366   4.456   6.265   0.577
 8156SOL    HW125367   4.468   6.345   0.635
 8156SOL    HW225368   4.363   6.229   0.588
 8157SOL     OW25369   6.358   4.834   6.267
 8157SOL    HW125370   6.358   4.933   6.278
 8157SOL    HW225371   6.283   4.807   6.206
 8158SOL     OW25372   5.286   4.131   6.919
 8158SOL    HW125373   5.287   4.038   6.957
 8158SOL    HW225374   5.217   4.135   6.847
 8159SOL     OW25375   3.239   5.478   4.171
 8159SOL    HW125376   3.149   5.518   4.155
 8159SOL    HW225377   3.309   5.550   4.170
 8160SOL     OW25378   4.719   0.157   3.537
 8160SOL    HW125379   4.778   0.234   3.561
 8160SOL    HW225380   4.677   0.120   3.620
 8161SOL     OW25381   5.627   3.753   6.220
 8161SOL    HW125382   5.716   3.715   6.193
 8161SOL    HW225383   5.607   3.726   6.314
 8162SOL     OW25384   6.571   5.802   6.806
 8162SOL    HW125385   6.578   5.893   6.765
 8162SOL    HW225386   6.617   5.735   6.746
 8163SOL     OW25387   2.241   4.372   5.456
 8163SOL    HW125388   2.304   4.355   5.380
 8163SOL    HW225389   2.182   4.293   5.467
 8164SOL     OW25390   4.546   1.107   0.636
 8164SOL    HW125391   4.592   1.092   0.548
 8164SOL    HW225392   4.447   1.101   0.622
 8165SOL     OW25393   6.488   3.859   5.943
 8165SOL    HW125394   6.405   3.914   5.932
 8165SOL    HW225395   6.463   3.762   5.948
 8166SOL     OW25396   1.564   0.592   3.112
 8166SOL    HW125397   1.548   0.623   3.206
 8166SOL    HW225398   1.614   0.506   3.113
 8167SOL     OW25399   0.164   0.629   3.391
 8167SOL    HW125400   0.129   0.650   3.482
 8167SOL    HW225401   0.264   0.628   3.392
 8168SOL     OW25402   2.870   0.698   1.550
 8168SOL    HW125403   2.921   0.763   1.493
 8168SOL    HW225404   2.932   0.653   1.614
 8169SOL     OW25405   4.605   2.171   0.380
 8169SOL    HW125406   4.667   2.231   0.431
 8169SOL    HW225407   4.510   2.188   0.409
 8170SOL     OW25408   0.143   4.676   1.707
 8170SOL    HW125409   0.056   4.678   1.755
 8170SOL    HW225410   0.207   4.738   1.753
 8171SOL     OW25411   2.313   1.586   6.457
 8171SOL    HW125412   2.331   1.517   6.527
 8171SOL    HW225413   2.365   1.669   6.478
 8172SOL     OW25414   6.827   2.048   1.971
 8172SOL    HW125415   6.894   2.107   1.924
 8172SOL    HW225416   6.789   1.983   1.906
 8173SOL     OW25417   5.386   2.142   2.308
 8173SOL    HW125418   5.312   2.182   2.254
 8173SOL    HW225419   5.421   2.061   2.262
 8174SOL     OW25420   0.565   6.998   2.606
 8174SOL    HW125421   0.561   0.065   2.644
 8174SOL    HW225422   0.489   6.984   2.543
 8175SOL     OW25423   0.088   3.047   4.862
 8175SOL    HW125424   0.035   3.102   4.798
 8175SOL    HW225425   0.167   3.099   4.894
 8176SOL     OW25426   2.554   4.813   1.422
 8176SOL    HW125427   2.625   4.745   1.437
 8176SOL    HW225428   2.516   4.840   1.511
 8177SOL     OW25429   4.864   0.874   3.758
 8177SOL    HW125430   4.874   0.793   3.699
 8177SOL    HW225431   4.783   0.865   3.814
 8178SOL     OW25432   2.866   6.866   1.086
 8178SOL    HW125433   2.884   6.829   1.178
 8178SOL    HW225434   2.953   6.884   1.040
 8179SOL     OW25435   5.335   1.299   5.157
 8179SOL    HW125436   5.359   1.218   5.210
 8179SOL    HW225437   5.350   1.381   5.212
 8180SOL     OW25438   6.287   0.876   6.225
 8180SOL    HW125439   6.224   0.842   6.295
 8180SOL    HW225440   6.334   0.799   6.182
 8181SOL     OW25441   1.652   1.432   0.740
 8181SOL    HW125442   1.706   1.407   0.820
 8181SOL    HW225443   1.681   1.521   0.706
 8182SOL     OW25444   2.979   3.326   5.748
 8182SOL    HW125445   2.889   3.307   5.788
 8182SOL    HW225446   3.010   3.417   5.774
 8183SOL     OW25447   6.657   2.389   4.663
 8183SOL    HW125448   6.628   2.298   4.692
 8183SOL    HW225449   6.696   2.384   4.571
 8184SOL     OW25450   0.322   6.995   0.499
 8184SOL    HW125451   0.228   7.008   0.531
 8184SOL    HW225452   0.353   6.903   0.524
 8185SOL     OW25453   1.689   0.379   0.196
 8185SOL    HW125454   1.751   0.423   0.131
 8185SOL    HW225455   1.723   0.390   0.289
 8186SOL     OW25456   2.731   4.668   5.793
 8186SOL    HW125457   2.678   4.596   5.836
 8186SOL    HW225458   2.734   4.748   5.853
 8187SOL     OW25459   1.889   1.312   5.105
 8187SOL    HW125460   1.967   1.252   5.088
 8187SOL    HW225461   1.810   1.280   5.053
 8188SOL     OW25462   5.024   3.339   3.715
 8188SOL    HW125463   5.030   3.347   3.615
 8188SOL    HW225464   4.991   3.248   3.739
 8189SOL     OW25465   5.363   4.977   2.800
 8189SOL    HW125466   5.394   5.001   2.708
 8189SOL    HW225467   5.350   4.878   2.806
 8190SOL     OW25468   4.858   3.787   4.159
 8190SOL    HW125469   4.836   3.702   4.112
 8190SOL    HW225470   4.917   3.843   4.100
 8191SOL     OW25471   3.517   5.478   2.288
 8191SOL    HW125472   3.451   5.523   2.228
 8191SOL    HW225473   3.468   5.435   2.364
 8192SOL     OW25474   2.216   5.262   1.539
 8192SOL    HW125475   2.183   5.350   1.574
 8192SOL    HW225476   2.138   5.205   1.514
 8193SOL     OW25477   6.205   5.438   5.547
 8193SOL    HW125478   6.204   5.340   5.524
 8193SOL    HW225479   6.257   5.452   5.631
 8194SOL     OW25480   5.009   0.469   1.083
 8194SOL    HW125481   5.087   0.456   1.144
 8194SOL    HW225482   4.955   0.384   1.080
 8195SOL     OW25483   0.125   6.780   3.048
 8195SOL    HW125484   0.077   6.760   3.134
 8195SOL    HW225485   0.082   6.860   3.005
 8196SOL     OW25486   3.882   6.275   6.620
 8196SOL    HW125487   3.930   6.361   6.638
 8196SOL    HW225488   3.828   6.284   6.536
 8197SOL     OW25489   3.302   0.996   0.438
 8197SOL    HW125490   3.358   1.040   0.368
 8197SOL    HW225491   3.361   0.950   0.504
 8198SOL     OW25492   3.321   6.305   2.468
 8198SOL    HW125493   3.371   6.231   2.513
 8198SOL    HW225494   3.375   6.342   2.393
 8199SOL     OW25495   6.020   2.644   5.839
 8199SOL    HW125496   6.021   2.668   5.742
 8199SOL    HW225497   5.951   2.698   5.886
 8200SOL     OW25498   5.777   4.681   1.681
 8200SOL    HW125499   5.806   4.770   1.646
 8200SOL    HW225500   5.770   4.685   1.780
 8201SOL     OW25501   6.224   0.871   4.746
 8201SOL    HW125502   6.262   0.779   4.749
 8201SOL    HW225503   6.263   0.926   4.820
 8202SOL     OW25504   0.293   5.457   3.723
 8202SOL    HW125505   0.298   5.526   3.652
 8202SOL    HW225506   0.198   5.445   3.752
 8203SOL     OW25507   3.168   2.457   6.901
 8203SOL    HW125508   3.238   2.419   6.841
 8203SOL    HW225509   3.077   2.441   6.861
 8204SOL     OW25510   3.774   4.630   0.017
 8204SOL    HW125511   3.809   4.586   6.960
 8204SOL    HW225512   3.676   4.613   0.024
 8205SOL     OW25513   0.242   4.616   0.011
 8205SOL    HW125514   0.190   4.633   6.954
 8205SOL    HW225515   0.276   4.522   0.011
 8206SOL     OW25516   5.259   1.859   6.734
 8206SOL    HW125517   5.352   1.897   6.734
 8206SOL    HW225518   5.195   1.926   6.696
 8207SOL     OW25519   3.054   3.293   4.548
 8207SOL    HW125520   3.085   3.358   4.479
 8207SOL    HW225521   3.119   3.217   4.554
 8208SOL     OW25522   1.019   0.367   1.008
 8208SOL    HW125523   1.056   0.396   1.097
 8208SOL    HW225524   0.926   0.403   0.997
 8209SOL     OW25525   0.322   1.580   5.198
 8209SOL    HW125526   0.348   1.666   5.155
 8209SOL    HW225527   0.353   1.503   5.141
 8210SOL     OW25528   2.217   1.542   0.423
 8210SOL    HW125529   2.183   1.514   0.334
 8210SOL    HW225530   2.310   1.508   0.435
 8211SOL     OW25531   3.868   4.226   1.706
 8211SOL    HW125532   3.891   4.170   1.786
 8211SOL    HW225533   3.781   4.272   1.721
 8212SOL     OW25534   2.139   2.595   2.239
 8212SOL    HW125535   2.158   2.567   2.333
 8212SOL    HW225536   2.153   2.518   2.177
 8213SOL     OW25537   6.534   4.094   1.570
 8213SOL    HW125538   6.593   4.019   1.538
 8213SOL    HW225539   6.439   4.074   1.546
 8214SOL     OW25540   5.827   5.649   3.870
 8214SOL    HW125541   5.746   5.704   3.885
 8214SOL    HW225542   5.801   5.558   3.838
 8215SOL     OW25543   3.028   5.409   5.993
 8215SOL    HW125544   3.114   5.435   6.037
 8215SOL    HW225545   2.990   5.487   5.943
 8216SOL     OW25546   5.295   5.101   4.028
 8216SOL    HW125547   5.379   5.147   4.001
 8216SOL    HW225548   5.271   5.128   4.122
 8217SOL     OW25549   1.274   4.583   0.440
 8217SOL    HW125550   1.327   4.665   0.462
 8217SOL    HW225551   1.312   4.540   0.358
 8218SOL     OW25552   0.261   6.875   6.459
 8218SOL    HW125553   0.325   6.895   6.384
 8218SOL    HW225554   0.225   6.961   6.495
 8219SOL     OW25555   4.541   2.551   0.840
 8219SOL    HW125556   4.446   2.529   0.863
 8219SOL    HW225557   4.583   2.472   0.795
 8220SOL     OW25558   3.565   2.870   3.401
 8220SOL    HW125559   3.487   2.905   3.453
 8220SOL    HW225560   3.548   2.883   3.304
 8221SOL     OW25561   5.425   6.662   3.595
 8221SOL    HW125562   5.335   6.619   3.592
 8221SOL    HW225563   5.466   6.649   3.686
 8222SOL     OW25564   5.765   1.115   1.464
 8222SOL    HW125565   5.823   1.187   1.504
 8222SOL    HW225566   5.703   1.156   1.397
 8223SOL     OW25567   1.073   4.748   5.603
 8223SOL    HW125568   1.010   4.825   5.612
 8223SOL    HW225569   1.149   4.774   5.544
 8224SOL     OW25570   6.035   0.924   2.755
 8224SOL    HW125571   6.023   1.023   2.750
 8224SOL    HW225572   6.028   0.894   2.850
 8225SOL     OW25573   3.418   1.623   0.647
 8225SOL    HW125574   3.417   1.561   0.569
 8225SOL    HW225575   3.503   1.675   0.648
 8226SOL     OW25576   3.908   6.961   0.896
 8226SOL    HW125577   3.861   6.965   0.808
 8226SOL    HW225578   3.985   6.898   0.890
 8227SOL     OW25579   6.608   1.595   2.692
 8227SOL    HW125580   6.599   1.578   2.594
 8227SOL    HW225581   6.675   1.532   2.731
 8228SOL     OW25582   6.736   2.376   5.819
 8228SOL    HW125583   6.726   2.473   5.795
 8228SOL    HW225584   6.822   2.362   5.867
 8229SOL     OW25585   4.335   2.779   0.861
 8229SOL    HW125586   4.430   2.746   0.859
 8229SOL    HW225587   4.278   2.713   0.908
 8230SOL     OW25588   4.183   0.317   5.549
 8230SOL    HW125589   4.198   0.235   5.605
 8230SOL    HW225590   4.109   0.299   5.484
 8231SOL     OW25591   3.330   4.603   0.783
 8231SOL    HW125592   3.270   4.524   0.772
 8231SOL    HW225593   3.282   4.676   0.832
 8232SOL     OW25594   4.894   1.386   2.026
 8232SOL    HW125595   4.960   1.448   2.067
 8232SOL    HW225596   4.943   1.310   1.981
 8233SOL     OW25597   1.523   5.702   6.381
 8233SOL    HW125598   1.474   5.647   6.313
 8233SOL    HW225599   1.620   5.679   6.380
 8234SOL     OW25600   2.661   4.241   6.760
 8234SOL    HW125601   2.611   4.236   6.847
 8234SOL    HW225602   2.674   4.149   6.724
 8235SOL     OW25603   0.570   3.258   0.250
 8235SOL    HW125604   0.651   3.209   0.217
 8235SOL    HW225605   0.565   3.348   0.205
 8236SOL     OW25606   0.727   4.698   0.712
 8236SOL    HW125607   0.678   4.670   0.795
 8236SOL    HW225608   0.706   4.793   0.691
 8237SOL     OW25609   4.021   6.975   4.249
 8237SOL    HW125610   3.933   7.012   4.279
 8237SOL    HW225611   4.030   6.988   4.151
 8238SOL     OW25612   0.618   5.106   6.128
 8238SOL    HW125613   0.718   5.108   6.126
 8238SOL    HW225614   0.586   5.016   6.098
 8239SOL     OW25615   6.707   1.488   6.235
 8239SOL    HW125616   6.734   1.394   6.253
 8239SOL    HW225617   6.776   1.550   6.272
 8240SOL     OW25618   3.593   4.117   2.689
 8240SOL    HW125619   3.500   4.147   2.714
 8240SOL    HW225620   3.620   4.040   2.747
 8241SOL     OW25621   3.877   0.124   5.975
 8241SOL    HW125622   3.934   0.060   6.027
 8241SOL    HW225623   3.910   0.217   5.989
 8242SOL     OW25624   0.647   5.043   5.574
 8242SOL    HW125625   0.642   5.008   5.480
 8242SOL    HW225626   0.567   5.011   5.625
 8243SOL     OW25627   0.528   2.509   0.442
 8243SOL    HW125628   0.539   2.605   0.417
 8243SOL    HW225629   0.561   2.451   0.367
 8244SOL     OW25630   0.446   0.939   4.829
 8244SOL    HW125631   0.512   0.900   4.894
 8244SOL    HW225632   0.442   0.880   4.748
 8245SOL     OW25633   4.261   2.018   2.793
 8245SOL    HW125634   4.255   1.921   2.768
 8245SOL    HW225635   4.312   2.067   2.722
 8246SOL     OW25636   1.091   2.865   5.983
 8246SOL    HW125637   1.148   2.932   6.031
 8246SOL    HW225638   1.025   2.913   5.925
 8247SOL     OW25639   1.763   0.550   2.420
 8247SOL    HW125640   1.853   0.540   2.376
 8247SOL    HW225641   1.692   0.550   2.349
 8248SOL     OW25642   6.036   5.524   4.792
 8248SOL    HW125643   6.106   5.452   4.787
 8248SOL    HW225644   5.968   5.498   4.861
 8249SOL     OW25645   1.611   2.888   5.753
 8249SOL    HW125646   1.599   2.919   5.659
 8249SOL    HW225647   1.553   2.808   5.770
 8250SOL     OW25648   3.338   3.994   2.096
 8250SOL    HW125649   3.423   4.021   2.141
 8250SOL    HW225650   3.340   3.896   2.077
 8251SOL     OW25651   5.340   3.945   4.417
 8251SOL    HW125652   5.438   3.946   4.434
 8251SOL    HW225653   5.323   3.922   4.321
 8252SOL     OW25654   2.882   1.612   5.092
 8252SOL    HW125655   2.852   1.534   5.145
 8252SOL    HW225656   2.803   1.665   5.062
 8253SOL     OW25657   4.011   4.946   5.548
 8253SOL    HW125658   3.932   5.006   5.557
 8253SOL    HW225659   4.079   4.990   5.489
 8254SOL     OW25660   4.587   4.407   5.263
 8254SOL    HW125661   4.597   4.316   5.223
 8254SOL    HW225662   4.651   4.417   5.339
 8255SOL     OW25663   2.280   0.140   5.461
 8255SOL    HW125664   2.214   0.080   5.416
 8255SOL    HW225665   2.354   0.161   5.397
 8256SOL     OW25666   6.888   6.896   2.239
 8256SOL    HW125667   6.918   6.990   2.225
 8256SOL    HW225668   6.811   6.876   2.180
 8257SOL     OW25669   5.449   4.037   2.939
 8257SOL    HW125670   5.362   3.996   2.966
 8257SOL    HW225671   5.465   4.120   2.992
 8258SOL     OW25672   5.644   1.737   0.942
 8258SOL    HW125673   5.676   1.664   0.882
 8258SOL    HW225674   5.561   1.708   0.989
 8259SOL     OW25675   3.553   1.474   4.036
 8259SOL    HW125676   3.472   1.460   3.979
 8259SOL    HW225677   3.545   1.562   4.083
 8260SOL     OW25678   2.470   6.452   1.411
 8260SOL    HW125679   2.483   6.358   1.442
 8260SOL    HW225680   2.402   6.497   1.469
 8261SOL     OW25681   6.347   0.003   2.262
 8261SOL    HW125682   6.346   6.933   2.290
 8261SOL    HW225683   6.341   0.008   2.162
 8262SOL     OW25684   0.538   3.391   0.583
 8262SOL    HW125685   0.545   3.301   0.540
 8262SOL    HW225686   0.462   3.391   0.649
 8263SOL     OW25687   0.582   2.596   6.395
 8263SOL    HW125688   0.597   2.690   6.364
 8263SOL    HW225689   0.542   2.598   6.487
 8264SOL     OW25690   2.596   6.370   2.156
 8264SOL    HW125691   2.545   6.299   2.108
 8264SOL    HW225692   2.643   6.329   2.234
 8265SOL     OW25693   6.932   0.578   1.082
 8265SOL    HW125694   6.923   0.676   1.069
 8265SOL    HW225695   6.844   0.540   1.112
 8266SOL     OW25696   2.294   1.072   3.616
 8266SOL    HW125697   2.363   1.143   3.631
 8266SOL    HW225698   2.204   1.107   3.643
 8267SOL     OW25699   2.104   2.733   1.283
 8267SOL    HW125700   2.197   2.763   1.308
 8267SOL    HW225701   2.110   2.653   1.224
 8268SOL     OW25702   1.733   6.448   6.004
 8268SOL    HW125703   1.789   6.431   6.085
 8268SOL    HW225704   1.717   6.546   5.994
 8269SOL     OW25705   4.265   1.435   2.348
 8269SOL    HW125706   4.336   1.384   2.397
 8269SOL    HW225707   4.296   1.528   2.331
 8270SOL     OW25708   2.649   6.523   5.063
 8270SOL    HW125709   2.563   6.550   5.107
 8270SOL    HW225710   2.723   6.523   5.131
 8271SOL     OW25711   0.384   0.358   3.252
 8271SOL    HW125712   0.423   0.268   3.272
 8271SOL    HW225713   0.353   0.400   3.338
 8272SOL     OW25714   6.037   2.157   2.502
 8272SOL    HW125715   6.042   2.071   2.452
 8272SOL    HW225716   6.009   2.230   2.440
 8273SOL     OW25717   2.570   1.019   6.611
 8273SOL    HW125718   2.641   1.028   6.680
 8273SOL    HW225719   2.610   1.033   6.520
 8274SOL     OW25720   5.297   4.711   4.372
 8274SOL    HW125721   5.304   4.707   4.273
 8274SOL    HW225722   5.324   4.622   4.411
 8275SOL     OW25723   5.828   1.344   5.923
 8275SOL    HW125724   5.861   1.386   5.839
 8275SOL    HW225725   5.858   1.399   6.001
 8276SOL     OW25726   0.566   2.612   3.280
 8276SOL    HW125727   0.502   2.593   3.206
 8276SOL    HW225728   0.658   2.622   3.243
 8277SOL     OW25729   0.217   5.931   6.128
 8277SOL    HW125730   0.244   6.027   6.120
 8277SOL    HW225731   0.126   5.926   6.167
 8278SOL     OW25732   3.209   1.627   6.004
 8278SOL    HW125733   3.257   1.683   5.937
 8278SOL    HW225734   3.188   1.537   5.964
 8279SOL     OW25735   1.182   6.650   4.356
 8279SOL    HW125736   1.266   6.684   4.314
 8279SOL    HW225737   1.125   6.727   4.384
 8280SOL     OW25738   2.345   3.228   0.736
 8280SOL    HW125739   2.334   3.263   0.829
 8280SOL    HW225740   2.286   3.148   0.724
 8281SOL     OW25741   3.025   4.301   1.751
 8281SOL    HW125742   3.022   4.215   1.802
 8281SOL    HW225743   2.966   4.368   1.796
 8282SOL     OW25744   4.938   3.456   0.148
 8282SOL    HW125745   4.951   3.410   0.061
 8282SOL    HW225746   5.027   3.472   0.191
 8283SOL     OW25747   2.018   5.254   5.718
 8283SOL    HW125748   1.925   5.290   5.708
 8283SOL    HW225749   2.016   5.154   5.706
 8284SOL     OW25750   1.011   3.717   1.028
 8284SOL    HW125751   1.053   3.742   1.116
 8284SOL    HW225752   1.070   3.650   0.982
 8285SOL     OW25753   3.149   3.908   5.116
 8285SOL    HW125754   3.217   3.838   5.138
 8285SOL    HW225755   3.059   3.864   5.105
 8286SOL     OW25756   5.672   2.110   6.401
 8286SOL    HW125757   5.772   2.115   6.400
 8286SOL    HW225758   5.635   2.199   6.426
 8287SOL     OW25759   1.570   5.757   4.175
 8287SOL    HW125760   1.656   5.733   4.219
 8287SOL    HW225761   1.536   5.679   4.123
 8288SOL     OW25762   3.064   2.119   2.077
 8288SOL    HW125763   3.150   2.135   2.027
 8288SOL    HW225764   2.994   2.183   2.044
 8289SOL     OW25765   0.706   6.053   0.738
 8289SOL    HW125766   0.660   6.130   0.780
 8289SOL    HW225767   0.650   6.017   0.663
 8290SOL     OW25768   5.400   1.475   1.492
 8290SOL    HW125769   5.305   1.504   1.498
 8290SOL    HW225770   5.458   1.538   1.542
 8291SOL     OW25771   5.105   6.261   4.598
 8291SOL    HW125772   5.016   6.306   4.603
 8291SOL    HW225773   5.169   6.308   4.659
 8292SOL     OW25774   2.722   6.892   6.775
 8292SOL    HW125775   2.656   6.816   6.781
 8292SOL    HW225776   2.802   6.863   6.723
 8293SOL     OW25777   2.821   5.333   0.601
 8293SOL    HW125778   2.753   5.379   0.658
 8293SOL    HW225779   2.910   5.377   0.612
 8294SOL     OW25780   5.873   3.550   5.233
 8294SOL    HW125781   5.818   3.533   5.315
 8294SOL    HW225782   5.958   3.596   5.258
 8295SOL     OW25783   4.903   5.727   2.117
 8295SOL    HW125784   4.980   5.671   2.149
 8295SOL    HW225785   4.906   5.733   2.017
 8296SOL     OW25786   1.334   4.310   6.622
 8296SOL    HW125787   1.393   4.274   6.695
 8296SOL    HW225788   1.289   4.393   6.655
 8297SOL     OW25789   6.940   3.046   2.718
 8297SOL    HW125790   6.968   3.086   2.805
 8297SOL    HW225791   7.001   2.970   2.695
 8298SOL     OW25792   6.269   1.440   1.926
 8298SOL    HW125793   6.310   1.409   1.840
 8298SOL    HW225794   6.334   1.427   2.001
 8299SOL     OW25795   6.693   2.284   2.011
 8299SOL    HW125796   6.755   2.206   2.024
 8299SOL    HW225797   6.720   2.334   1.929
 8300SOL     OW25798   0.470   5.860   4.804
 8300SOL    HW125799   0.518   5.788   4.753
 8300SOL    HW225800   0.434   5.928   4.739
 8301SOL     OW25801   3.632   1.790   1.243
 8301SOL    HW125802   3.641   1.785   1.343
 8301SOL    HW225803   3.535   1.789   1.219
 8302SOL     OW25804   5.648   0.157   6.652
 8302SOL    HW125805   5.693   0.111   6.576
 8302SOL    HW225806   5.647   0.097   6.732
 8303SOL     OW25807   6.623   1.213   3.519
 8303SOL    HW125808   6.545   1.150   3.514
 8303SOL    HW225809   6.706   1.161   3.541
 8304SOL     OW25810   6.838   3.174   1.002
 8304SOL    HW125811   6.915   3.119   0.970
 8304SOL    HW225812   6.868   3.269   1.013
 8305SOL     OW25813   4.938   5.135   4.154
 8305SOL    HW125814   4.893   5.104   4.238
 8305SOL    HW225815   4.896   5.221   4.124
 8306SOL     OW25816   5.848   2.124   5.680
 8306SOL    HW125817   5.861   2.077   5.768
 8306SOL    HW225818   5.803   2.212   5.696
 8307SOL     OW25819   3.510   5.719   1.591
 8307SOL    HW125820   3.574   5.731   1.516
 8307SOL    HW225821   3.539   5.643   1.649
 8308SOL     OW25822   3.281   5.492   1.799
 8308SOL    HW125823   3.258   5.436   1.879
 8308SOL    HW225824   3.380   5.490   1.784
 8309SOL     OW25825   6.694   5.327   3.655
 8309SOL    HW125826   6.595   5.339   3.660
 8309SOL    HW225827   6.724   5.264   3.727
 8310SOL     OW25828   0.039   5.366   0.675
 8310SOL    HW125829   0.112   5.383   0.741
 8310SOL    HW225830   6.983   5.333   0.723
 8311SOL     OW25831   1.017   1.681   4.504
 8311SOL    HW125832   1.075   1.743   4.451
 8311SOL    HW225833   0.975   1.614   4.443
 8312SOL     OW25834   4.873   0.285   0.067
 8312SOL    HW125835   4.866   0.375   0.110
 8312SOL    HW225836   4.928   0.225   0.124
 8313SOL     OW25837   5.454   0.072   0.672
 8313SOL    HW125838   5.402   0.076   0.587
 8313SOL    HW225839   5.392   0.080   0.750
 8314SOL     OW25840   5.304   0.392   0.282
 8314SOL    HW125841   5.246   0.314   0.301
 8314SOL    HW225842   5.335   0.433   0.368
 8315SOL     OW25843   4.176   2.944   1.697
 8315SOL    HW125844   4.246   3.010   1.670
 8315SOL    HW225845   4.181   2.863   1.639
 8316SOL     OW25846   1.468   2.166   1.180
 8316SOL    HW125847   1.423   2.109   1.249
 8316SOL    HW225848   1.560   2.189   1.211
 8317SOL     OW25849   1.778   2.972   2.115
 8317SOL    HW125850   1.688   2.930   2.106
 8317SOL    HW225851   1.836   2.913   2.171
 8318SOL     OW25852   4.584   1.616   5.240
 8318SOL    HW125853   4.663   1.674   5.257
 8318SOL    HW225854   4.584   1.585   5.145
 8319SOL     OW25855   1.936   1.910   0.303
 8319SOL    HW125856   2.009   1.876   0.362
 8319SOL    HW225857   1.873   1.965   0.357
 8320SOL     OW25858   3.283   3.645   2.277
 8320SOL    HW125859   3.281   3.554   2.318
 8320SOL    HW225860   3.267   3.714   2.348
 8321SOL     OW25861   6.815   0.124   6.395
 8321SOL    HW125862   6.864   0.192   6.340
 8321SOL    HW225863   6.760   0.171   6.464
 8322SOL     OW25864   6.359   6.992   1.106
 8322SOL    HW125865   6.382   0.045   1.164
 8322SOL    HW225866   6.320   7.025   1.020
 8323SOL     OW25867   4.913   5.440   2.332
 8323SOL    HW125868   4.880   5.452   2.238
 8323SOL    HW225869   4.867   5.505   2.392
 8324SOL     OW25870   5.502   6.688   1.257
 8324SOL    HW125871   5.409   6.666   1.228
 8324SOL    HW225872   5.544   6.751   1.190
 8325SOL     OW25873   2.648   3.763   5.721
 8325SOL    HW125874   2.625   3.774   5.817
 8325SOL    HW225875   2.700   3.842   5.689
 8326SOL     OW25876   5.356   3.634   5.551
 8326SOL    HW125877   5.286   3.678   5.608
 8326SOL    HW225878   5.357   3.536   5.570
 8327SOL     OW25879   6.152   1.234   6.291
 8327SOL    HW125880   6.052   1.241   6.288
 8327SOL    HW225881   6.180   1.206   6.383
 8328SOL     OW25882   2.876   6.220   5.897
 8328SOL    HW125883   2.847   6.212   5.802
 8328SOL    HW225884   2.838   6.144   5.950
 8329SOL     OW25885   1.261   3.306   5.798
 8329SOL    HW125886   1.289   3.243   5.726
 8329SOL    HW225887   1.237   3.254   5.880
 8330SOL     OW25888   2.530   1.269   6.862
 8330SOL    HW125889   2.507   1.197   6.927
 8330SOL    HW225890   2.627   1.264   6.839
 8331SOL     OW25891   3.056   0.991   1.138
 8331SOL    HW125892   2.991   1.067   1.147
 8331SOL    HW225893   3.062   0.943   1.225
 8332SOL     OW25894   4.612   5.233   2.354
 8332SOL    HW125895   4.575   5.304   2.295
 8332SOL    HW225896   4.551   5.153   2.353
 8333SOL     OW25897   0.295   6.192   6.176
 8333SOL    HW125898   0.332   6.263   6.116
 8333SOL    HW225899   0.208   6.221   6.213
 8334SOL     OW25900   4.024   1.115   3.679
 8334SOL    HW125901   3.995   1.049   3.748
 8334SOL    HW225902   4.096   1.173   3.717
 8335SOL     OW25903   5.258   6.780   0.139
 8335SOL    HW125904   5.282   6.829   0.223
 8335SOL    HW225905   5.337   6.726   0.108
 8336SOL     OW25906   6.739   4.813   3.302
 8336SOL    HW125907   6.733   4.780   3.207
 8336SOL    HW225908   6.795   4.896   3.304
 8337SOL     OW25909   2.579   6.030   2.682
 8337SOL    HW125910   2.488   6.047   2.721
 8337SOL    HW225911   2.568   5.992   2.590
 8338SOL     OW25912   3.778   5.350   1.937
 8338SOL    HW125913   3.844   5.406   1.888
 8338SOL    HW225914   3.824   5.270   1.977
 8339SOL     OW25915   5.878   0.125   1.407
 8339SOL    HW125916   5.947   0.163   1.469
 8339SOL    HW225917   5.792   0.174   1.418
 8340SOL     OW25918   4.991   2.918   1.153
 8340SOL    HW125919   5.033   2.886   1.069
 8340SOL    HW225920   4.946   2.842   1.200
 8341SOL     OW25921   2.957   6.397   0.290
 8341SOL    HW125922   2.873   6.347   0.311
 8341SOL    HW225923   2.934   6.481   0.240
 8342SOL     OW25924   4.158   5.926   1.166
 8342SOL    HW125925   4.161   6.021   1.136
 8342SOL    HW225926   4.192   5.919   1.260
 8343SOL     OW25927   1.730   5.781   5.546
 8343SOL    HW125928   1.670   5.788   5.626
 8343SOL    HW225929   1.719   5.862   5.489
 8344SOL     OW25930   4.370   6.293   4.479
 8344SOL    HW125931   4.346   6.390   4.470
 8344SOL    HW225932   4.469   6.282   4.475
 8345SOL     OW25933   4.547   1.811   2.711
 8345SOL    HW125934   4.451   1.807   2.686
 8345SOL    HW225935   4.570   1.731   2.767
 8346SOL     OW25936   3.120   5.094   0.673
 8346SOL    HW125937   3.198   5.111   0.733
 8346SOL    HW225938   3.045   5.155   0.697
 8347SOL     OW25939   3.336   5.225   4.161
 8347SOL    HW125940   3.300   5.318   4.171
 8347SOL    HW225941   3.261   5.159   4.175
 8348SOL     OW25942   2.609   0.362   2.337
 8348SOL    HW125943   2.533   0.415   2.375
 8348SOL    HW225944   2.633   0.288   2.399
 8349SOL     OW25945   6.059   6.258   1.600
 8349SOL    HW125946   6.100   6.210   1.522
 8349SOL    HW225947   5.962   6.276   1.582
 8350SOL     OW25948   3.774   6.799   5.575
 8350SOL    HW125949   3.863   6.839   5.553
 8350SOL    HW225950   3.703   6.868   5.562
 8351SOL     OW25951   5.040   5.054   4.588
 8351SOL    HW125952   5.014   4.981   4.525
 8351SOL    HW225953   5.074   5.014   4.673
 8352SOL     OW25954   0.829   0.258   3.229
 8352SOL    HW125955   0.769   0.336   3.239
 8352SOL    HW225956   0.813   0.215   3.140
 8353SOL     OW25957   6.750   3.238   1.482
 8353SOL    HW125958   6.706   3.250   1.393
 8353SOL    HW225959   6.839   3.195   1.470
 8354SOL     OW25960   4.090   0.045   6.211
 8354SOL    HW125961   4.093   0.141   6.239
 8354SOL    HW225962   4.082   7.013   6.292
 8355SOL     OW25963   2.641   0.562   5.980
 8355SOL    HW125964   2.739   0.555   5.959
 8355SOL    HW225965   2.595   0.478   5.951
 8356SOL     OW25966   0.814   6.239   1.151
 8356SOL    HW125967   0.871   6.300   1.205
 8356SOL    HW225968   0.861   6.152   1.137
 8357SOL     OW25969   4.372   6.843   4.854
 8357SOL    HW125970   4.351   6.813   4.761
 8357SOL    HW225971   4.434   6.922   4.851
 8358SOL     OW25972   1.486   4.362   5.400
 8358SOL    HW125973   1.580   4.375   5.370
 8358SOL    HW225974   1.445   4.285   5.351
 8359SOL     OW25975   2.964   0.475   5.036
 8359SOL    HW125976   3.008   0.386   5.038
 8359SOL    HW225977   2.865   0.464   5.029
 8360SOL     OW25978   3.686   6.226   1.210
 8360SOL    HW125979   3.609   6.169   1.183
 8360SOL    HW225980   3.660   6.322   1.203
 8361SOL     OW25981   3.229   0.552   2.532
 8361SOL    HW125982   3.281   0.487   2.587
 8361SOL    HW225983   3.205   0.632   2.587
 8362SOL     OW25984   4.200   1.981   0.562
 8362SOL    HW125985   4.157   1.896   0.532
 8362SOL    HW225986   4.201   1.984   0.662
 8363SOL     OW25987   6.882   2.678   6.513
 8363SOL    HW125988   6.870   2.581   6.532
 8363SOL    HW225989   6.927   2.722   6.591
 8364SOL     OW25990   1.286   2.788   2.905
 8364SOL    HW125991   1.252   2.873   2.864
 8364SOL    HW225992   1.290   2.798   3.005
 8365SOL     OW25993   1.967   3.854   1.870
 8365SOL    HW125994   1.895   3.909   1.828
 8365SOL    HW225995   1.925   3.785   1.929
 8366SOL     OW25996   1.866   5.899   2.179
 8366SOL    HW125997   1.767   5.914   2.180
 8366SOL    HW225998   1.892   5.846   2.259
 8367SOL     OW25999   3.970   6.206   3.925
 8367SOL    HW126000   4.041   6.276   3.924
 8367SOL    HW226001   3.992   6.135   3.858
 8368SOL     OW26002   2.082   5.938   6.203
 8368SOL    HW126003   2.026   5.856   6.192
 8368SOL    HW226004   2.032   6.005   6.259
 8369SOL     OW26005   1.649   6.521   6.678
 8369SOL    HW126006   1.724   6.564   6.728
 8369SOL    HW226007   1.585   6.480   6.743
 8370SOL     OW26008   2.880   1.664   5.691
 8370SOL    HW126009   2.952   1.637   5.628
 8370SOL    HW226010   2.803   1.601   5.684
 8371SOL     OW26011   2.057   4.142   0.779
 8371SOL    HW126012   2.042   4.136   0.680
 8371SOL    HW226013   2.100   4.057   0.811
 8372SOL     OW26014   0.909   5.487   2.304
 8372SOL    HW126015   0.894   5.583   2.282
 8372SOL    HW226016   0.955   5.442   2.227
 8373SOL     OW26017   1.625   6.964   3.674
 8373SOL    HW126018   1.584   6.907   3.603
 8373SOL    HW226019   1.723   6.945   3.680
 8374SOL     OW26020   0.213   0.714   5.504
 8374SOL    HW126021   0.235   0.623   5.472
 8374SOL    HW226022   0.126   0.743   5.465
 8375SOL     OW26023   3.337   6.687   4.866
 8375SOL    HW126024   3.421   6.674   4.815
 8375SOL    HW226025   3.284   6.602   4.867
 8376SOL     OW26026   1.129   0.696   3.972
 8376SOL    HW126027   1.212   0.740   4.006
 8376SOL    HW226028   1.105   0.620   4.033
 8377SOL     OW26029   4.687   6.169   1.234
 8377SOL    HW126030   4.590   6.188   1.248
 8377SOL    HW226031   4.720   6.221   1.155
 8378SOL     OW26032   4.470   5.150   2.712
 8378SOL    HW126033   4.546   5.150   2.776
 8378SOL    HW226034   4.384   5.153   2.762
 8379SOL     OW26035   6.064   2.545   1.319
 8379SOL    HW126036   6.078   2.587   1.408
 8379SOL    HW226037   6.012   2.607   1.260
 8380SOL     OW26038   0.115   0.571   2.161
 8380SOL    HW126039   0.064   0.645   2.118
 8380SOL    HW226040   0.055   0.518   2.221
 8381SOL     OW26041   0.084   2.921   5.117
 8381SOL    HW126042   0.085   3.009   5.166
 8381SOL    HW226043   0.098   2.937   5.019
 8382SOL     OW26044   2.493   0.958   3.113
 8382SOL    HW126045   2.437   0.876   3.130
 8382SOL    HW226046   2.440   1.039   3.137
 8383SOL     OW26047   2.286   0.118   5.882
 8383SOL    HW126048   2.230   0.037   5.900
 8383SOL    HW226049   2.256   0.162   5.797
 8384SOL     OW26050   6.641   0.766   1.095
 8384SOL    HW126051   6.596   0.691   1.047
 8384SOL    HW226052   6.730   0.785   1.053
 8385SOL     OW26053   6.309   1.388   1.279
 8385SOL    HW126054   6.389   1.342   1.240
 8385SOL    HW226055   6.319   1.487   1.271
 8386SOL     OW26056   1.257   5.081   2.184
 8386SOL    HW126057   1.313   5.028   2.248
 8386SOL    HW226058   1.198   5.019   2.132
 8387SOL     OW26059   1.729   1.282   2.432
 8387SOL    HW126060   1.634   1.288   2.403
 8387SOL    HW226061   1.736   1.223   2.512
 8388SOL     OW26062   2.619   6.242   0.483
 8388SOL    HW126063   2.654   6.179   0.552
 8388SOL    HW226064   2.671   6.231   0.398
 8389SOL     OW26065   7.011   3.146   2.967
 8389SOL    HW126066   0.043   3.227   2.958
 8389SOL    HW226067   6.998   3.125   3.064
 8390SOL     OW26068   4.590   1.132   6.320
 8390SOL    HW126069   4.514   1.195   6.303
 8390SOL    HW226070   4.672   1.184   6.345
 8391SOL     OW26071   6.429   4.824   0.773
 8391SOL    HW126072   6.349   4.882   0.758
 8391SOL    HW226073   6.425   4.744   0.713
 8392SOL     OW26074   6.254   3.764   4.609
 8392SOL    HW126075   6.203   3.848   4.590
 8392SOL    HW226076   6.256   3.748   4.707
 8393SOL     OW26077   0.343   0.060   2.943
 8393SOL    HW126078   0.428   0.008   2.956
 8393SOL    HW226079   0.359   0.156   2.966
 8394SOL     OW26080   6.016   2.085   1.403
 8394SOL    HW126081   5.961   2.027   1.343
 8394SOL    HW226082   6.074   2.027   1.461
 8395SOL     OW26083   2.875   0.001   5.202
 8395SOL    HW126084   2.869   6.987   5.111
 8395SOL    HW226085   2.846   0.097   5.199
 8396SOL     OW26086   4.817   5.403   2.773
 8396SOL    HW126087   4.734   5.401   2.717
 8396SOL    HW226088   4.869   5.485   2.751
 8397SOL     OW26089   1.457   0.721   2.571
 8397SOL    HW126090   1.534   0.783   2.555
 8397SOL    HW226091   1.491   0.634   2.605
 8398SOL     OW26092   4.423   1.706   6.213
 8398SOL    HW126093   4.402   1.804   6.202
 8398SOL    HW226094   4.337   1.654   6.213
 8399SOL     OW26095   5.580   6.833   6.711
 8399SOL    HW126096   5.664   6.872   6.674
 8399SOL    HW226097   5.592   6.813   6.808
 8400SOL     OW26098   1.777   0.955   4.524
 8400SOL    HW126099   1.690   0.997   4.497
 8400SOL    HW226100   1.785   0.865   4.481
 8401SOL     OW26101   1.904   1.016   5.274
 8401SOL    HW126102   1.872   1.084   5.339
 8401SOL    HW226103   1.953   1.061   5.200
 8402SOL     OW26104   4.672   1.750   6.074
 8402SOL    HW126105   4.584   1.729   6.116
 8402SOL    HW226106   4.658   1.772   5.977
 8403SOL     OW26107   7.004   3.503   4.430
 8403SOL    HW126108   0.023   3.550   4.506
 8403SOL    HW226109   0.011   3.409   4.425
 8404SOL     OW26110   3.514   6.962   5.981
 8404SOL    HW126111   3.554   0.023   5.950
 8404SOL    HW226112   3.573   6.886   5.954
 8405SOL     OW26113   1.831   1.397   5.733
 8405SOL    HW126114   1.844   1.450   5.650
 8405SOL    HW226115   1.734   1.392   5.756
 8406SOL     OW26116   4.366   0.763   0.543
 8406SOL    HW126117   4.450   0.774   0.491
 8406SOL    HW226118   4.287   0.780   0.484
 8407SOL     OW26119   3.270   6.507   3.334
 8407SOL    HW126120   3.224   6.569   3.270
 8407SOL    HW226121   3.235   6.414   3.322
 8408SOL     OW26122   5.870   3.807   1.335
 8408SOL    HW126123   5.922   3.727   1.365
 8408SOL    HW226124   5.869   3.875   1.409
 8409SOL     OW26125   5.076   1.791   2.797
 8409SOL    HW126126   5.084   1.763   2.701
 8409SOL    HW226127   5.084   1.711   2.856
 8410SOL     OW26128   5.668   0.246   1.482
 8410SOL    HW126129   5.587   0.197   1.515
 8410SOL    HW226130   5.640   0.319   1.421
 8411SOL     OW26131   0.909   5.117   0.162
 8411SOL    HW126132   0.861   5.031   0.180
 8411SOL    HW226133   1.002   5.112   0.199
 8412SOL     OW26134   3.644   2.161   1.488
 8412SOL    HW126135   3.627   2.115   1.401
 8412SOL    HW226136   3.717   2.229   1.476
 8413SOL     OW26137   4.044   5.828   6.785
 8413SOL    HW126138   4.130   5.780   6.768
 8413SOL    HW226139   4.049   5.874   6.873
 8414SOL     OW26140   4.015   6.360   4.192
 8414SOL    HW126141   4.009   6.458   4.208
 8414SOL    HW226142   3.976   6.339   4.102
 8415SOL     OW26143   0.334   6.219   3.848
 8415SOL    HW126144   0.317   6.133   3.800
 8415SOL    HW226145   0.394   6.202   3.926
 8416SOL     OW26146   6.255   3.294   2.684
 8416SOL    HW126147   6.318   3.368   2.707
 8416SOL    HW226148   6.298   3.206   2.706
 8417SOL     OW26149   1.519   3.667   5.533
 8417SOL    HW126150   1.431   3.660   5.485
 8417SOL    HW226151   1.562   3.755   5.511
 8418SOL     OW26152   5.533   5.385   1.129
 8418SOL    HW126153   5.600   5.311   1.124
 8418SOL    HW226154   5.503   5.397   1.224
 8419SOL     OW26155   5.596   7.006   1.381
 8419SOL    HW126156   5.607   7.005   1.281
 8419SOL    HW226157   5.548   0.063   1.408
 8420SOL     OW26158   4.384   6.914   0.525
 8420SOL    HW126159   4.306   6.873   0.478
 8420SOL    HW226160   4.385   7.012   0.508
 8421SOL     OW26161   3.299   5.849   6.843
 8421SOL    HW126162   3.307   5.752   6.867
 8421SOL    HW226163   3.234   5.894   6.905
 8422SOL     OW26164   4.202   1.343   1.881
 8422SOL    HW126165   4.142   1.373   1.954
 8422SOL    HW226166   4.297   1.347   1.912
 8423SOL     OW26167   3.215   5.111   6.083
 8423SOL    HW126168   3.310   5.115   6.051
 8423SOL    HW226169   3.162   5.054   6.020
 8424SOL     OW26170   2.069   2.181   2.175
 8424SOL    HW126171   2.042   2.092   2.212
 8424SOL    HW226172   1.993   2.245   2.185
 8425SOL     OW26173   4.348   4.699   5.963
 8425SOL    HW126174   4.340   4.600   5.980
 8425SOL    HW226175   4.259   4.734   5.932
 8426SOL     OW26176   3.680   3.195   3.288
 8426SOL    HW126177   3.736   3.112   3.301
 8426SOL    HW226178   3.603   3.174   3.228
 8427SOL     OW26179   3.801   4.069   4.123
 8427SOL    HW126180   3.769   4.071   4.028
 8427SOL    HW226181   3.735   4.116   4.181
 8428SOL     OW26182   0.471   6.090   1.507
 8428SOL    HW126183   0.462   6.110   1.604
 8428SOL    HW226184   0.518   6.002   1.495
 8429SOL     OW26185   1.356   6.136   4.601
 8429SOL    HW126186   1.342   6.056   4.659
 8429SOL    HW226187   1.270   6.160   4.556
 8430SOL     OW26188   3.857   5.291   3.325
 8430SOL    HW126189   3.875   5.363   3.259
 8430SOL    HW226190   3.941   5.269   3.375
 8431SOL     OW26191   3.603   3.785   1.213
 8431SOL    HW126192   3.568   3.832   1.132
 8431SOL    HW226193   3.691   3.825   1.239
 8432SOL     OW26194   5.615   6.394   5.823
 8432SOL    HW126195   5.695   6.413   5.767
 8432SOL    HW226196   5.533   6.427   5.777
 8433SOL     OW26197   4.772   2.713   0.860
 8433SOL    HW126198   4.686   2.661   0.859
 8433SOL    HW226199   4.756   2.803   0.902
 8434SOL     OW26200   2.924   7.018   4.657
 8434SOL    HW126201   2.913   0.073   4.599
 8434SOL    HW226202   3.021   7.002   4.673
 8435SOL     OW26203   6.180   0.621   1.381
 8435SOL    HW126204   6.140   0.537   1.343
 8435SOL    HW226205   6.268   0.599   1.423
 8436SOL     OW26206   3.057   6.425   3.099
 8436SOL    HW126207   3.055   6.519   3.134
 8436SOL    HW226208   3.063   6.361   3.176
 8437SOL     OW26209   2.173   1.224   3.992
 8437SOL    HW126210   2.164   1.125   3.993
 8437SOL    HW226211   2.110   1.264   4.059
 8438SOL     OW26212   2.252   4.711   2.822
 8438SOL    HW126213   2.255   4.723   2.922
 8438SOL    HW226214   2.272   4.615   2.800
 8439SOL     OW26215   5.863   5.267   3.012
 8439SOL    HW126216   5.807   5.243   3.091
 8439SOL    HW226217   5.959   5.249   3.033
 8440SOL     OW26218   2.369   1.656   3.692
 8440SOL    HW126219   2.395   1.671   3.788
 8440SOL    HW226220   2.451   1.661   3.635
 8441SOL     OW26221   5.402   0.088   0.174
 8441SOL    HW126222   5.485   0.041   0.204
 8441SOL    HW226223   5.411   0.115   0.078
 8442SOL     OW26224   3.631   2.492   5.422
 8442SOL    HW126225   3.534   2.506   5.443
 8442SOL    HW226226   3.653   2.395   5.432
 8443SOL     OW26227   2.567   4.776   3.655
 8443SOL    HW126228   2.558   4.676   3.653
 8443SOL    HW226229   2.485   4.817   3.615
 8444SOL     OW26230   3.010   6.552   4.366
 8444SOL    HW126231   2.991   6.613   4.442
 8444SOL    HW226232   2.941   6.479   4.363
 8445SOL     OW26233   3.168   0.095   1.304
 8445SOL    HW126234   3.149   0.180   1.354
 8445SOL    HW226235   3.122   0.019   1.349
 8446SOL     OW26236   5.489   5.671   6.598
 8446SOL    HW126237   5.507   5.587   6.649
 8446SOL    HW226238   5.391   5.678   6.580
 8447SOL     OW26239   5.037   1.852   2.379
 8447SOL    HW126240   5.012   1.902   2.462
 8447SOL    HW226241   5.054   1.917   2.305
 8448SOL     OW26242   4.305   5.947   4.173
 8448SOL    HW126243   4.270   6.040   4.177
 8448SOL    HW226244   4.245   5.886   4.225
 8449SOL     OW26245   0.204   3.103   3.526
 8449SOL    HW126246   0.108   3.127   3.515
 8449SOL    HW226247   0.223   3.018   3.478
 8450SOL     OW26248   0.698   0.092   0.693
 8450SOL    HW126249   0.770   0.029   0.665
 8450SOL    HW226250   0.735   0.185   0.701
 8451SOL     OW26251   3.732   1.547   0.045
 8451SOL    HW126252   3.717   1.453   0.075
 8451SOL    HW226253   3.830   1.560   0.027
 8452SOL     OW26254   6.079   1.997   3.218
 8452SOL    HW126255   6.154   1.947   3.175
 8452SOL    HW226256   6.019   1.933   3.266
 8453SOL     OW26257   0.491   4.603   6.821
 8453SOL    HW126258   0.542   4.520   6.848
 8453SOL    HW226259   0.405   4.576   6.777
 8454SOL     OW26260   0.006   6.201   1.726
 8454SOL    HW126261   6.975   6.205   1.808
 8454SOL    HW226262   6.991   6.140   1.659
 8455SOL     OW26263   6.690   1.493   1.847
 8455SOL    HW126264   6.756   1.489   1.772
 8455SOL    HW226265   6.682   1.587   1.879
 8456SOL     OW26266   3.878   5.833   3.510
 8456SOL    HW126267   3.908   5.868   3.422
 8456SOL    HW226268   3.802   5.889   3.544
 8457SOL     OW26269   0.100   6.926   4.695
 8457SOL    HW126270   0.116   6.957   4.601
 8457SOL    HW226271   0.084   7.006   4.754
 8458SOL     OW26272   3.075   0.544   0.338
 8458SOL    HW126273   3.048   0.621   0.279
 8458SOL    HW226274   3.019   0.544   0.421
 8459SOL     OW26275   2.868   5.602   2.108
 8459SOL    HW126276   2.899   5.697   2.111
 8459SOL    HW226277   2.780   5.595   2.156
 8460SOL     OW26278   3.968   4.178   5.263
 8460SOL    HW126279   4.062   4.161   5.291
 8460SOL    HW226280   3.910   4.101   5.289
 8461SOL     OW26281   1.186   3.976   5.095
 8461SOL    HW126282   1.190   4.014   5.003
 8461SOL    HW226283   1.110   3.911   5.101
 8462SOL     OW26284   2.464   2.483   6.374
 8462SOL    HW126285   2.507   2.545   6.308
 8462SOL    HW226286   2.441   2.535   6.457
 8463SOL     OW26287   0.206   0.203   1.455
 8463SOL    HW126288   0.140   0.246   1.517
 8463SOL    HW226289   0.212   0.256   1.370
 8464SOL     OW26290   5.847   4.091   3.996
 8464SOL    HW126291   5.884   4.149   3.924
 8464SOL    HW226292   5.766   4.043   3.963
 8465SOL     OW26293   0.913   3.041   0.317
 8465SOL    HW126294   0.950   2.972   0.380
 8465SOL    HW226295   0.824   3.011   0.285
 8466SOL     OW26296   0.672   6.795   4.288
 8466SOL    HW126297   0.620   6.771   4.207
 8466SOL    HW226298   0.654   6.890   4.313
 8467SOL     OW26299   3.328   6.537   0.181
 8467SOL    HW126300   3.366   6.560   0.270
 8467SOL    HW226301   3.334   6.439   0.166
 8468SOL     OW26302   4.165   1.730   6.770
 8468SOL    HW126303   4.193   1.702   6.678
 8468SOL    HW226304   4.244   1.766   6.819
 8469SOL     OW26305   3.560   1.880   6.622
 8469SOL    HW126306   3.595   1.949   6.686
 8469SOL    HW226307   3.617   1.799   6.626
 8470SOL     OW26308   0.850   3.498   6.789
 8470SOL    HW126309   0.776   3.481   6.723
 8470SOL    HW226310   0.823   3.461   6.879
 8471SOL     OW26311   2.978   0.923   3.556
 8471SOL    HW126312   3.025   0.987   3.617
 8471SOL    HW226313   3.019   0.928   3.465
 8472SOL     OW26314   0.033   0.460   4.982
 8472SOL    HW126315   0.038   0.554   5.015
 8472SOL    HW226316   0.063   0.456   4.887
 8473SOL     OW26317   6.267   5.403   6.419
 8473SOL    HW126318   6.273   5.342   6.498
 8473SOL    HW226319   6.205   5.364   6.351
 8474SOL     OW26320   3.050   3.244   2.506
 8474SOL    HW126321   3.022   3.312   2.574
 8474SOL    HW226322   3.126   3.190   2.542
 8475SOL     OW26323   0.583   2.046   2.958
 8475SOL    HW126324   0.620   1.978   3.021
 8475SOL    HW226325   0.630   2.038   2.870
 8476SOL     OW26326   6.728   1.573   1.150
 8476SOL    HW126327   6.743   1.624   1.065
 8476SOL    HW226328   6.771   1.483   1.143
 8477SOL     OW26329   4.518   6.560   2.076
 8477SOL    HW126330   4.576   6.555   2.157
 8477SOL    HW226331   4.568   6.526   1.997
 8478SOL     OW26332   1.312   0.448   6.374
 8478SOL    HW126333   1.221   0.429   6.336
 8478SOL    HW226334   1.382   0.412   6.312
 8479SOL     OW26335   6.432   2.414   1.440
 8479SOL    HW126336   6.375   2.439   1.362
 8479SOL    HW226337   6.393   2.451   1.524
 8480SOL     OW26338   4.558   1.402   0.074
 8480SOL    HW126339   4.593   1.321   0.122
 8480SOL    HW226340   4.557   1.480   0.136
 8481SOL     OW26341   5.105   2.446   3.652
 8481SOL    HW126342   5.091   2.459   3.750
 8481SOL    HW226343   5.024   2.401   3.613
 8482SOL     OW26344   4.284   6.676   2.877
 8482SOL    HW126345   4.374   6.635   2.866
 8482SOL    HW226346   4.293   6.764   2.924
 8483SOL     OW26347   3.825   5.879   2.263
 8483SOL    HW126348   3.816   5.865   2.165
 8483SOL    HW226349   3.921   5.891   2.287
 8484SOL     OW26350   0.783   5.586   2.761
 8484SOL    HW126351   0.861   5.536   2.725
 8484SOL    HW226352   0.765   5.666   2.703
 8485SOL     OW26353   2.987   3.077   6.955
 8485SOL    HW126354   3.059   3.036   6.898
 8485SOL    HW226355   3.022   3.162   6.995
 8486SOL     OW26356   4.683   1.151   2.810
 8486SOL    HW126357   4.688   1.119   2.716
 8486SOL    HW226358   4.588   1.174   2.832
 8487SOL     OW26359   5.603   1.149   6.565
 8487SOL    HW126360   5.513   1.115   6.591
 8487SOL    HW226361   5.674   1.091   6.604
 8488SOL     OW26362   5.566   4.751   5.348
 8488SOL    HW126363   5.594   4.839   5.309
 8488SOL    HW226364   5.633   4.721   5.415
 8489SOL     OW26365   5.909   0.755   0.544
 8489SOL    HW126366   5.911   0.657   0.523
 8489SOL    HW226367   5.948   0.770   0.636
 8490SOL     OW26368   3.968   6.537   4.778
 8490SOL    HW126369   3.951   6.522   4.681
 8490SOL    HW226370   3.920   6.620   4.808
 8491SOL     OW26371   2.362   0.063   0.642
 8491SOL    HW126372   2.273   0.021   0.660
 8491SOL    HW226373   2.427   0.036   0.713
 8492SOL     OW26374   4.424   4.278   6.559
 8492SOL    HW126375   4.514   4.235   6.557
 8492SOL    HW226376   4.433   4.374   6.587
 8493SOL     OW26377   2.769   1.986   6.471
 8493SOL    HW126378   2.714   2.047   6.414
 8493SOL    HW226379   2.855   2.031   6.496
 8494SOL     OW26380   2.905   4.618   0.988
 8494SOL    HW126381   2.819   4.632   0.939
 8494SOL    HW226382   2.907   4.526   1.027
 8495SOL     OW26383   6.504   4.216   0.860
 8495SOL    HW126384   6.447   4.200   0.779
 8495SOL    HW226385   6.495   4.139   0.923
 8496SOL     OW26386   0.631   1.744   1.779
 8496SOL    HW126387   0.635   1.665   1.718
 8496SOL    HW226388   0.690   1.817   1.742
 8497SOL     OW26389   6.536   1.271   3.805
 8497SOL    HW126390   6.613   1.313   3.853
 8497SOL    HW226391   6.546   1.285   3.707
 8498SOL     OW26392   0.320   6.240   2.720
 8498SOL    HW126393   0.303   6.151   2.764
 8498SOL    HW226394   0.376   6.297   2.781
 8499SOL     OW26395   2.763   5.324   6.681
 8499SOL    HW126396   2.725   5.270   6.756
 8499SOL    HW226397   2.840   5.275   6.640
 8500SOL     OW26398   2.347   6.784   5.734
 8500SOL    HW126399   2.392   6.855   5.679
 8500SOL    HW226400   2.304   6.826   5.814
 8501SOL     OW26401   0.413   2.325   6.797
 8501SOL    HW126402   0.442   2.404   6.744
 8501SOL    HW226403   0.364   2.261   6.738
 8502SOL     OW26404   1.188   4.487   1.688
 8502SOL    HW126405   1.229   4.478   1.597
 8502SOL    HW226406   1.259   4.505   1.755
 8503SOL     OW26407   1.330   6.596   3.457
 8503SOL    HW126408   1.313   6.511   3.505
 8503SOL    HW226409   1.258   6.611   3.389
 8504SOL     OW26410   2.443   5.504   3.213
 8504SOL    HW126411   2.473   5.589   3.169
 8504SOL    HW226412   2.400   5.445   3.144
 8505SOL     OW26413   4.773   4.173   3.937
 8505SOL    HW126414   4.770   4.161   4.036
 8505SOL    HW226415   4.845   4.115   3.898
 8506SOL     OW26416   6.341   1.018   7.003
 8506SOL    HW126417   6.392   0.965   6.935
 8506SOL    HW226418   6.391   1.101   7.025
 8507SOL     OW26419   3.689   0.858   5.693
 8507SOL    HW126420   3.681   0.803   5.610
 8507SOL    HW226421   3.759   0.820   5.753
 8508SOL     OW26422   6.541   2.496   4.899
 8508SOL    HW126423   6.610   2.457   4.839
 8508SOL    HW226424   6.469   2.539   4.845
 8509SOL     OW26425   4.867   2.073   3.664
 8509SOL    HW126426   4.800   2.000   3.651
 8509SOL    HW226427   4.831   2.159   3.628
 8510SOL     OW26428   5.256   4.258   3.610
 8510SOL    HW126429   5.196   4.185   3.576
 8510SOL    HW226430   5.265   4.329   3.539
 8511SOL     OW26431   6.033   4.143   2.023
 8511SOL    HW126432   5.978   4.104   1.949
 8511SOL    HW226433   6.055   4.238   2.003
 8512SOL     OW26434   3.552   2.167   1.013
 8512SOL    HW126435   3.487   2.123   0.950
 8512SOL    HW226436   3.645   2.150   0.982
 8513SOL     OW26437   4.906   4.081   1.556
 8513SOL    HW126438   4.858   4.072   1.643
 8513SOL    HW226439   5.002   4.053   1.567
 8514SOL     OW26440   3.117   2.191   3.957
 8514SOL    HW126441   3.044   2.257   3.940
 8514SOL    HW226442   3.097   2.138   4.039
 8515SOL     OW26443   6.070   1.438   0.146
 8515SOL    HW126444   6.010   1.380   0.090
 8515SOL    HW226445   6.030   1.448   0.237
 8516SOL     OW26446   6.769   1.315   1.463
 8516SOL    HW126447   6.724   1.403   1.483
 8516SOL    HW226448   6.710   1.260   1.406
 8517SOL     OW26449   1.673   3.275   6.808
 8517SOL    HW126450   1.653   3.363   6.765
 8517SOL    HW226451   1.683   3.205   6.737
 8518SOL     OW26452   4.704   4.410   6.444
 8518SOL    HW126453   4.722   4.331   6.504
 8518SOL    HW226454   4.737   4.493   6.487
 8519SOL     OW26455   1.312   4.020   1.691
 8519SOL    HW126456   1.363   4.099   1.658
 8519SOL    HW226457   1.376   3.950   1.724
 8520SOL     OW26458   3.542   3.530   0.233
 8520SOL    HW126459   3.458   3.531   0.178
 8520SOL    HW226460   3.538   3.455   0.298
 8521SOL     OW26461   2.507   4.885   5.775
 8521SOL    HW126462   2.459   4.913   5.692
 8521SOL    HW226463   2.534   4.966   5.826
 8522SOL     OW26464   1.697   6.027   0.962
 8522SOL    HW126465   1.649   6.011   1.048
 8522SOL    HW226466   1.633   6.017   0.885
 8523SOL     OW26467   2.061   6.373   6.757
 8523SOL    HW126468   2.038   6.385   6.854
 8523SOL    HW226469   2.131   6.439   6.730
 8524SOL     OW26470   0.347   3.063   5.764
 8524SOL    HW126471   0.419   3.130   5.783
 8524SOL    HW226472   0.377   2.973   5.794
 8525SOL     OW26473   6.095   4.402   1.935
 8525SOL    HW126474   6.015   4.409   1.876
 8525SOL    HW226475   6.075   4.443   2.024
 8526SOL     OW26476   4.178   6.679   6.792
 8526SOL    HW126477   4.128   6.685   6.879
 8526SOL    HW226478   4.265   6.726   6.801
 8527SOL     OW26479   2.459   1.001   6.246
 8527SOL    HW126480   2.494   0.910   6.221
 8527SOL    HW226481   2.387   0.991   6.315
 8528SOL     OW26482   3.858   1.063   0.114
 8528SOL    HW126483   3.883   0.976   0.157
 8528SOL    HW226484   3.847   1.050   0.016
 8529SOL     OW26485   1.393   7.022   0.663
 8529SOL    HW126486   1.311   0.037   0.624
 8529SOL    HW226487   1.402   0.024   0.759
 8530SOL     OW26488   3.568   4.407   5.381
 8530SOL    HW126489   3.640   4.371   5.322
 8530SOL    HW226490   3.601   4.412   5.476
 8531SOL     OW26491   6.675   4.734   2.307
 8531SOL    HW126492   6.596   4.686   2.268
 8531SOL    HW226493   6.662   4.746   2.405
 8532SOL     OW26494   4.162   4.921   4.816
 8532SOL    HW126495   4.197   4.831   4.790
 8532SOL    HW226496   4.073   4.936   4.773
 8533SOL     OW26497   1.731   0.075   0.131
 8533SOL    HW126498   1.721   0.165   0.173
 8533SOL    HW226499   1.669   0.010   0.175
 8534SOL     OW26500   6.334   2.604   4.146
 8534SOL    HW126501   6.344   2.602   4.046
 8534SOL    HW226502   6.266   2.673   4.171
 8535SOL     OW26503   6.258   0.903   3.699
 8535SOL    HW126504   6.169   0.859   3.693
 8535SOL    HW226505   6.304   0.875   3.783
 8536SOL     OW26506   6.945   2.447   4.762
 8536SOL    HW126507   6.846   2.433   4.771
 8536SOL    HW226508   6.962   2.535   4.718
 8537SOL     OW26509   5.436   0.657   3.007
 8537SOL    HW126510   5.389   0.672   3.094
 8537SOL    HW226511   5.423   0.562   2.978
 8538SOL     OW26512   0.850   0.975   6.901
 8538SOL    HW126513   0.760   0.943   6.871
 8538SOL    HW226514   0.887   0.911   6.969
 8539SOL     OW26515   5.616   0.844   2.955
 8539SOL    HW126516   5.696   0.842   3.016
 8539SOL    HW226517   5.558   0.764   2.973
 8540SOL     OW26518   5.002   0.446   6.097
 8540SOL    HW126519   5.028   0.423   6.191
 8540SOL    HW226520   5.084   0.473   6.046
 8541SOL     OW26521   2.493   1.250   4.309
 8541SOL    HW126522   2.536   1.241   4.399
 8541SOL    HW226523   2.545   1.316   4.254
 8542SOL     OW26524   4.042   4.784   6.939
 8542SOL    HW126525   4.029   4.759   6.843
 8542SOL    HW226526   3.958   4.824   6.975
 8543SOL     OW26527   2.792   1.190   1.033
 8543SOL    HW126528   2.857   1.138   0.979
 8543SOL    HW226529   2.719   1.226   0.974
 8544SOL     OW26530   5.801   2.824   3.989
 8544SOL    HW126531   5.825   2.742   4.041
 8544SOL    HW226532   5.793   2.902   4.051
 8545SOL     OW26533   4.982   0.172   5.405
 8545SOL    HW126534   4.905   0.127   5.450
 8545SOL    HW226535   4.969   0.271   5.407
 8546SOL     OW26536   6.420   2.228   4.028
 8546SOL    HW126537   6.366   2.152   4.063
 8546SOL    HW226538   6.363   2.286   3.969
 8547SOL     OW26539   1.791   6.686   6.127
 8547SOL    HW126540   1.778   6.673   6.225
 8547SOL    HW226541   1.716   6.741   6.090
 8548SOL     OW26542   6.071   2.204   5.373
 8548SOL    HW126543   6.133   2.139   5.417
 8548SOL    HW226544   5.983   2.160   5.357
 8549SOL     OW26545   1.221   3.140   3.671
 8549SOL    HW126546   1.243   3.141   3.573
 8549SOL    HW226547   1.227   3.232   3.707
 8550SOL     OW26548   1.871   4.447   6.990
 8550SOL    HW126549   1.852   4.543   6.972
 8550SOL    HW226550   1.812   4.414   0.039
 8551SOL     OW26551   3.518   3.929   6.614
 8551SOL    HW126552   3.430   3.884   6.634
 8551SOL    HW226553   3.564   3.881   6.539
 8552SOL     OW26554   2.296   0.080   3.980
 8552SOL    HW126555   2.272   0.158   3.922
 8552SOL    HW226556   2.228   0.072   4.053
 8553SOL     OW26557   4.297   4.877   6.846
 8553SOL    HW126558   4.230   4.843   6.912
 8553SOL    HW226559   4.276   4.840   6.756
 8554SOL     OW26560   1.022   4.847   0.424
 8554SOL    HW126561   0.924   4.865   0.418
 8554SOL    HW226562   1.042   4.798   0.509
 8555SOL     OW26563   1.941   1.266   2.273
 8555SOL    HW126564   1.937   1.350   2.219
 8555SOL    HW226565   1.863   1.263   2.336
 8556SOL     OW26566   0.965   6.614   5.415
 8556SOL    HW126567   1.046   6.565   5.446
 8556SOL    HW226568   0.985   6.661   5.329
 8557SOL     OW26569   5.778   0.386   3.183
 8557SOL    HW126570   5.794   0.458   3.115
 8557SOL    HW226571   5.865   0.344   3.207
 8558SOL     OW26572   2.991   5.134   3.180
 8558SOL    HW126573   3.022   5.042   3.155
 8558SOL    HW226574   2.920   5.127   3.250
 8559SOL     OW26575   6.734   0.547   2.379
 8559SOL    HW126576   6.663   0.530   2.446
 8559SOL    HW226577   6.791   0.623   2.409
 8560SOL     OW26578   6.613   6.039   2.345
 8560SOL    HW126579   6.563   6.076   2.266
 8560SOL    HW226580   6.620   6.110   2.415
 8561SOL     OW26581   3.378   0.602   1.621
 8561SOL    HW126582   3.393   0.525   1.683
 8561SOL    HW226583   3.448   0.672   1.638
 8562SOL     OW26584   3.131   5.747   5.393
 8562SOL    HW126585   3.160   5.652   5.406
 8562SOL    HW226586   3.124   5.792   5.482
 8563SOL     OW26587   2.398   4.171   6.700
 8563SOL    HW126588   2.495   4.151   6.717
 8563SOL    HW226589   2.350   4.180   6.787
 8564SOL     OW26590   3.259   1.318   4.195
 8564SOL    HW126591   3.235   1.412   4.218
 8564SOL    HW226592   3.330   1.319   4.124
 8565SOL     OW26593   4.233   5.387   0.954
 8565SOL    HW126594   4.214   5.288   0.959
 8565SOL    HW226595   4.331   5.401   0.940
 8566SOL     OW26596   1.459   0.435   1.405
 8566SOL    HW126597   1.360   0.445   1.396
 8566SOL    HW226598   1.501   0.526   1.412
 8567SOL     OW26599   0.060   2.072   2.574
 8567SOL    HW126600   0.047   1.984   2.529
 8567SOL    HW226601   0.030   2.145   2.512
 8568SOL     OW26602   5.604   1.141   6.303
 8568SOL    HW126603   5.593   1.169   6.398
 8568SOL    HW226604   5.529   1.179   6.248
 8569SOL     OW26605   5.075   1.534   5.768
 8569SOL    HW126606   5.018   1.596   5.714
 8569SOL    HW226607   5.047   1.538   5.864
 8570SOL     OW26608   1.187   2.792   5.313
 8570SOL    HW126609   1.136   2.718   5.269
 8570SOL    HW226610   1.284   2.783   5.292
 8571SOL     OW26611   1.622   4.941   5.451
 8571SOL    HW126612   1.683   4.897   5.386
 8571SOL    HW226613   1.630   4.896   5.540
 8572SOL     OW26614   3.275   5.207   7.016
 8572SOL    HW126615   3.299   5.278   0.057
 8572SOL    HW226616   3.195   5.236   6.964
 8573SOL     OW26617   3.389   6.437   5.804
 8573SOL    HW126618   3.366   6.496   5.881
 8573SOL    HW226619   3.326   6.454   5.729
 8574SOL     OW26620   6.711   5.638   5.353
 8574SOL    HW126621   6.753   5.674   5.437
 8574SOL    HW226622   6.628   5.690   5.332
 8575SOL     OW26623   2.724   2.613   5.258
 8575SOL    HW126624   2.640   2.617   5.204
 8575SOL    HW226625   2.754   2.706   5.280
 8576SOL     OW26626   1.654   5.858   0.015
 8576SOL    HW126627   1.710   5.903   6.971
 8576SOL    HW226628   1.617   5.773   7.003
 8577SOL     OW26629   6.819   6.243   4.001
 8577SOL    HW126630   6.918   6.227   4.003
 8577SOL    HW226631   6.772   6.157   3.983
 8578SOL     OW26632   5.609   1.336   4.953
 8578SOL    HW126633   5.513   1.309   4.943
 8578SOL    HW226634   5.616   1.436   4.958
 8579SOL     OW26635   1.343   0.194   2.857
 8579SOL    HW126636   1.433   0.179   2.816
 8579SOL    HW226637   1.322   0.292   2.857
 8580SOL     OW26638   2.775   6.216   2.766
 8580SOL    HW126639   2.707   6.163   2.715
 8580SOL    HW226640   2.729   6.280   2.828
 8581SOL     OW26641   3.210   3.338   2.120
 8581SOL    HW126642   3.181   3.246   2.147
 8581SOL    HW226643   3.247   3.386   2.199
 8582SOL     OW26644   4.632   4.469   2.579
 8582SOL    HW126645   4.585   4.500   2.496
 8582SOL    HW226646   4.571   4.480   2.658
 8583SOL     OW26647   5.251   0.538   4.667
 8583SOL    HW126648   5.253   0.598   4.747
 8583SOL    HW226649   5.302   0.581   4.592
 8584SOL     OW26650   0.615   3.658   5.983
 8584SOL    HW126651   0.577   3.664   5.891
 8584SOL    HW226652   0.689   3.724   5.993
 8585SOL     OW26653   0.700   5.960   6.132
 8585SOL    HW126654   0.791   5.999   6.144
 8585SOL    HW226655   0.702   5.862   6.154
 8586SOL     OW26656   3.065   0.090   3.316
 8586SOL    HW126657   3.084   0.088   3.218
 8586SOL    HW226658   2.992   0.025   3.337
 8587SOL     OW26659   2.173   0.282   3.029
 8587SOL    HW126660   2.171   0.306   2.932
 8587SOL    HW226661   2.203   0.187   3.039
 8588SOL     OW26662   2.237   0.628   6.993
 8588SOL    HW126663   2.310   0.678   0.014
 8588SOL    HW226664   2.270   0.536   6.969
 8589SOL     OW26665   5.373   2.640   4.457
 8589SOL    HW126666   5.459   2.599   4.487
 8589SOL    HW226667   5.329   2.580   4.390
 8590SOL     OW26668   0.075   6.529   3.994
 8590SOL    HW126669   0.048   6.482   3.909
 8590SOL    HW226670   0.163   6.494   4.025
 8591SOL     OW26671   6.884   4.838   6.562
 8591SOL    HW126672   6.890   4.788   6.475
 8591SOL    HW226673   6.822   4.789   6.623
 8592SOL     OW26674   0.030   2.995   6.535
 8592SOL    HW126675   0.100   2.923   6.535
 8592SOL    HW226676   6.976   2.963   6.586
 8593SOL     OW26677   2.400   0.317   1.827
 8593SOL    HW126678   2.467   0.388   1.806
 8593SOL    HW226679   2.399   0.301   1.926
 8594SOL     OW26680   3.416   3.081   5.282
 8594SOL    HW126681   3.493   3.058   5.342
 8594SOL    HW226682   3.395   3.002   5.224
 8595SOL     OW26683   1.672   2.485   2.864
 8595SOL    HW126684   1.660   2.440   2.776
 8595SOL    HW226685   1.662   2.418   2.937
 8596SOL     OW26686   6.417   5.306   3.652
 8596SOL    HW126687   6.397   5.404   3.646
 8596SOL    HW226688   6.367   5.266   3.728
 8597SOL     OW26689   4.693   0.965   0.832
 8597SOL    HW126690   4.630   1.021   0.778
 8597SOL    HW226691   4.689   0.994   0.928
 8598SOL     OW26692   6.800   6.514   1.060
 8598SOL    HW126693   6.772   6.418   1.067
 8598SOL    HW226694   6.765   6.565   1.138
 8599SOL     OW26695   1.141   2.339   4.071
 8599SOL    HW126696   1.196   2.418   4.100
 8599SOL    HW226697   1.054   2.339   4.120
 8600SOL     OW26698   4.921   4.979   5.598
 8600SOL    HW126699   4.845   4.966   5.661
 8600SOL    HW226700   4.998   5.020   5.646
 8601SOL     OW26701   0.314   0.437   5.171
 8601SOL    HW126702   0.237   0.500   5.158
 8601SOL    HW226703   0.281   0.343   5.165
 8602SOL     OW26704   3.286   5.596   3.203
 8602SOL    HW126705   3.323   5.602   3.295
 8602SOL    HW226706   3.277   5.499   3.177
 8603SOL     OW26707   3.937   5.164   0.594
 8603SOL    HW126708   3.882   5.122   0.522
 8603SOL    HW226709   3.994   5.095   0.637
 8604SOL     OW26710   0.936   3.385   3.585
 8604SOL    HW126711   0.965   3.361   3.677
 8604SOL    HW226712   0.909   3.481   3.582
 8605SOL     OW26713   3.324   5.581   4.610
 8605SOL    HW126714   3.282   5.589   4.701
 8605SOL    HW226715   3.264   5.530   4.550
 8606SOL     OW26716   1.507   3.441   6.201
 8606SOL    HW126717   1.582   3.503   6.223
 8606SOL    HW226718   1.502   3.430   6.101
 8607SOL     OW26719   3.359   6.021   0.872
 8607SOL    HW126720   3.414   5.948   0.832
 8607SOL    HW226721   3.346   6.094   0.805
 8608SOL     OW26722   4.798   4.723   2.965
 8608SOL    HW126723   4.866   4.792   2.991
 8608SOL    HW226724   4.706   4.758   2.983
 8609SOL     OW26725   5.659   0.820   3.469
 8609SOL    HW126726   5.722   0.748   3.441
 8609SOL    HW226727   5.670   0.838   3.567
 8610SOL     OW26728   1.985   1.943   2.275
 8610SOL    HW126729   2.060   1.880   2.292
 8610SOL    HW226730   1.931   1.955   2.359
 8611SOL     OW26731   1.858   2.066   4.301
 8611SOL    HW126732   1.919   2.006   4.250
 8611SOL    HW226733   1.833   2.022   4.388
 8612SOL     OW26734   3.514   3.227   0.675
 8612SOL    HW126735   3.417   3.203   0.674
 8612SOL    HW226736   3.567   3.147   0.704
 8613SOL     OW26737   2.422   2.086   0.962
 8613SOL    HW126738   2.390   2.137   0.883
 8613SOL    HW226739   2.521   2.074   0.956
 8614SOL     OW26740   0.922   3.766   2.172
 8614SOL    HW126741   0.973   3.799   2.092
 8614SOL    HW226742   0.925   3.836   2.244
 8615SOL     OW26743   5.346   2.249   5.402
 8615SOL    HW126744   5.304   2.162   5.380
 8615SOL    HW226745   5.409   2.237   5.478
 8616SOL     OW26746   3.085   4.718   1.444
 8616SOL    HW126747   3.085   4.811   1.406
 8616SOL    HW226748   3.031   4.717   1.528
 8617SOL     OW26749   6.663   0.834   6.135
 8617SOL    HW126750   6.642   0.930   6.118
 8617SOL    HW226751   6.584   0.778   6.110
 8618SOL     OW26752   6.081   6.071   1.206
 8618SOL    HW126753   6.037   5.982   1.201
 8618SOL    HW226754   6.012   6.143   1.211
 8619SOL     OW26755   3.830   4.843   2.050
 8619SOL    HW126756   3.757   4.796   2.000
 8619SOL    HW226757   3.878   4.904   1.988
 8620SOL     OW26758   0.614   0.382   3.595
 8620SOL    HW126759   0.577   0.406   3.684
 8620SOL    HW226760   0.619   0.283   3.585
 8621SOL     OW26761   6.309   1.445   3.065
 8621SOL    HW126762   6.225   1.482   3.023
 8621SOL    HW226763   6.376   1.519   3.075
 8622SOL     OW26764   4.843   2.920   0.113
 8622SOL    HW126765   4.771   2.900   0.180
 8622SOL    HW226766   4.931   2.892   0.150
 8623SOL     OW26767   0.561   4.086   3.223
 8623SOL    HW126768   0.548   4.184   3.241
 8623SOL    HW226769   0.637   4.074   3.159
 8624SOL     OW26770   0.947   3.829   4.655
 8624SOL    HW126771   0.881   3.753   4.657
 8624SOL    HW226772   1.004   3.825   4.736
 8625SOL     OW26773   4.761   6.999   5.398
 8625SOL    HW126774   4.729   6.905   5.395
 8625SOL    HW226775   4.685   0.034   5.420
 8626SOL     OW26776   3.757   2.963   5.220
 8626SOL    HW126777   3.739   2.867   5.197
 8626SOL    HW226778   3.707   2.987   5.304
 8627SOL     OW26779   0.682   1.219   3.375
 8627SOL    HW126780   0.755   1.260   3.428
 8627SOL    HW226781   0.602   1.280   3.374
 8628SOL     OW26782   6.321   6.822   1.640
 8628SOL    HW126783   6.327   6.743   1.700
 8628SOL    HW226784   6.295   6.793   1.548
 8629SOL     OW26785   1.351   5.109   5.378
 8629SOL    HW126786   1.422   5.050   5.417
 8629SOL    HW226787   1.266   5.058   5.370
 8630SOL     OW26788   5.266   4.511   3.428
 8630SOL    HW126789   5.247   4.593   3.482
 8630SOL    HW226790   5.189   4.448   3.434
 8631SOL     OW26791   2.360   5.583   5.886
 8631SOL    HW126792   2.357   5.595   5.786
 8631SOL    HW226793   2.309   5.500   5.911
 8632SOL     OW26794   3.738   6.404   3.762
 8632SOL    HW126795   3.710   6.311   3.788
 8632SOL    HW226796   3.698   6.427   3.673
 8633SOL     OW26797   5.914   1.649   4.666
 8633SOL    HW126798   5.934   1.654   4.763
 8633SOL    HW226799   5.822   1.611   4.652
 8634SOL     OW26800   5.497   3.349   0.140
 8634SOL    HW126801   5.424   3.282   0.153
 8634SOL    HW226802   5.554   3.352   0.222
 8635SOL     OW26803   5.927   4.304   6.358
 8635SOL    HW126804   5.927   4.404   6.360
 8635SOL    HW226805   5.838   4.272   6.324
 8636SOL     OW26806   5.298   6.162   0.952
 8636SOL    HW126807   5.221   6.223   0.975
 8636SOL    HW226808   5.299   6.085   1.015
 8637SOL     OW26809   2.202   0.997   6.961
 8637SOL    HW126810   2.224   0.978   6.865
 8637SOL    HW226811   2.108   1.030   6.968
 8638SOL     OW26812   3.194   2.968   6.780
 8638SOL    HW126813   3.157   2.947   6.690
 8638SOL    HW226814   3.256   2.895   6.809
 8639SOL     OW26815   5.466   2.148   1.802
 8639SOL    HW126816   5.565   2.158   1.808
 8639SOL    HW226817   5.428   2.221   1.745
 8640SOL     OW26818   4.618   3.980   0.613
 8640SOL    HW126819   4.664   4.004   0.528
 8640SOL    HW226820   4.643   3.886   0.639
 8641SOL     OW26821   6.128   5.115   3.832
 8641SOL    HW126822   6.080   5.029   3.847
 8641SOL    HW226823   6.065   5.183   3.797
 8642SOL     OW26824   2.744   0.770   2.900
 8642SOL    HW126825   2.790   0.841   2.847
 8642SOL    HW226826   2.799   0.748   2.981
 8643SOL     OW26827   3.436   0.793   6.508
 8643SOL    HW126828   3.356   0.769   6.454
 8643SOL    HW226829   3.478   0.875   6.469
 8644SOL     OW26830   4.783   2.369   5.646
 8644SOL    HW126831   4.723   2.303   5.600
 8644SOL    HW226832   4.728   2.432   5.701
 8645SOL     OW26833   4.662   4.361   0.977
 8645SOL    HW126834   4.647   4.372   1.075
 8645SOL    HW226835   4.661   4.451   0.932
 8646SOL     OW26836   6.283   0.920   2.135
 8646SOL    HW126837   6.221   0.977   2.082
 8646SOL    HW226838   6.257   0.923   2.232
 8647SOL     OW26839   2.527   5.197   5.976
 8647SOL    HW126840   2.606   5.257   5.989
 8647SOL    HW226841   2.527   5.126   6.047
 8648SOL     OW26842   6.551   0.798   3.672
 8648SOL    HW126843   6.541   0.881   3.618
 8648SOL    HW226844   6.501   0.723   3.627
 8649SOL     OW26845   5.688   4.410   6.055
 8649SOL    HW126846   5.665   4.484   5.991
 8649SOL    HW226847   5.613   4.344   6.058
 8650SOL     OW26848   1.863   4.438   6.325
 8650SOL    HW126849   1.956   4.475   6.319
 8650SOL    HW226850   1.807   4.476   6.251
 8651SOL     OW26851   3.454   0.918   0.691
 8651SOL    HW126852   3.503   0.922   0.778
 8651SOL    HW226853   3.368   0.868   0.705
 8652SOL     OW26854   1.909   3.922   3.964
 8652SOL    HW126855   1.993   3.888   4.006
 8652SOL    HW226856   1.878   4.003   4.013
 8653SOL     OW26857   6.162   1.062   6.564
 8653SOL    HW126858   6.149   0.991   6.633
 8653SOL    HW226859   6.259   1.088   6.560
 8654SOL     OW26860   0.910   5.059   1.126
 8654SOL    HW126861   0.884   5.150   1.096
 8654SOL    HW226862   0.853   4.991   1.081
 8655SOL     OW26863   6.386   1.425   3.973
 8655SOL    HW126864   6.425   1.359   3.909
 8655SOL    HW226865   6.449   1.439   4.049
 8656SOL     OW26866   6.200   0.839   0.587
 8656SOL    HW126867   6.114   0.876   0.552
 8656SOL    HW226868   6.274   0.863   0.525
 8657SOL     OW26869   5.190   4.762   0.536
 8657SOL    HW126870   5.189   4.690   0.466
 8657SOL    HW226871   5.198   4.851   0.492
 8658SOL     OW26872   3.813   6.649   0.159
 8658SOL    HW126873   3.735   6.701   0.123
 8658SOL    HW226874   3.867   6.614   0.083
 8659SOL     OW26875   4.588   1.713   3.372
 8659SOL    HW126876   4.621   1.715   3.278
 8659SOL    HW226877   4.659   1.748   3.433
 8660SOL     OW26878   5.584   3.503   0.752
 8660SOL    HW126879   5.666   3.485   0.807
 8660SOL    HW226880   5.533   3.579   0.792
 8661SOL     OW26881   5.876   3.930   0.961
 8661SOL    HW126882   5.823   3.918   1.045
 8661SOL    HW226883   5.830   3.995   0.901
 8662SOL     OW26884   4.525   6.015   0.983
 8662SOL    HW126885   4.584   5.938   0.961
 8662SOL    HW226886   4.571   6.101   0.960
 8663SOL     OW26887   2.727   5.780   1.436
 8663SOL    HW126888   2.654   5.744   1.494
 8663SOL    HW226889   2.815   5.765   1.481
 8664SOL     OW26890   2.910   6.247   1.341
 8664SOL    HW126891   2.960   6.163   1.358
 8664SOL    HW226892   2.819   6.225   1.304
 8665SOL     OW26893   5.581   6.181   4.830
 8665SOL    HW126894   5.614   6.093   4.795
 8665SOL    HW226895   5.492   6.167   4.873
 8666SOL     OW26896   4.831   1.429   3.921
 8666SOL    HW126897   4.877   1.414   4.008
 8666SOL    HW226898   4.784   1.518   3.923
 8667SOL     OW26899   4.932   2.673   3.052
 8667SOL    HW126900   5.006   2.666   2.985
 8667SOL    HW226901   4.970   2.697   3.141
 8668SOL     OW26902   5.588   3.895   3.259
 8668SOL    HW126903   5.495   3.926   3.277
 8668SOL    HW226904   5.613   3.916   3.164
 8669SOL     OW26905   2.347   6.224   0.356
 8669SOL    HW126906   2.447   6.231   0.363
 8669SOL    HW226907   2.322   6.131   0.330
 8670SOL     OW26908   3.413   4.631   5.320
 8670SOL    HW126909   3.467   4.552   5.348
 8670SOL    HW226910   3.316   4.604   5.312
 8671SOL     OW26911   5.516   1.991   3.382
 8671SOL    HW126912   5.522   2.080   3.338
 8671SOL    HW226913   5.428   1.949   3.361
 8672SOL     OW26914   2.039   4.882   3.897
 8672SOL    HW126915   2.137   4.898   3.908
 8672SOL    HW226916   1.990   4.969   3.897
 8673SOL     OW26917   6.571   2.696   0.300
 8673SOL    HW126918   6.515   2.665   0.376
 8673SOL    HW226919   6.523   2.678   0.214
 8674SOL     OW26920   5.486   5.252   3.262
 8674SOL    HW126921   5.447   5.185   3.198
 8674SOL    HW226922   5.454   5.231   3.355
 8675SOL     OW26923   3.087   2.052   4.228
 8675SOL    HW126924   3.011   2.116   4.239
 8675SOL    HW226925   3.120   2.023   4.318
 8676SOL     OW26926   4.191   0.636   2.505
 8676SOL    HW126927   4.204   0.541   2.531
 8676SOL    HW226928   4.165   0.689   2.585
 8677SOL     OW26929   2.364   5.781   5.469
 8677SOL    HW126930   2.399   5.696   5.509
 8677SOL    HW226931   2.325   5.761   5.379
 8678SOL     OW26932   6.469   0.592   0.927
 8678SOL    HW126933   6.399   0.587   0.856
 8678SOL    HW226934   6.429   0.567   1.015
 8679SOL     OW26935   6.780   2.555   3.353
 8679SOL    HW126936   6.730   2.552   3.439
 8679SOL    HW226937   6.752   2.636   3.301
 8680SOL     OW26938   1.138   3.807   1.251
 8680SOL    HW126939   1.214   3.751   1.215
 8680SOL    HW226940   1.139   3.804   1.351
 8681SOL     OW26941   4.882   5.456   6.981
 8681SOL    HW126942   4.820   5.478   0.030
 8681SOL    HW226943   4.839   5.480   6.894
 8682SOL     OW26944   5.195   6.904   1.058
 8682SOL    HW126945   5.154   6.995   1.050
 8682SOL    HW226946   5.198   6.877   1.154
 8683SOL     OW26947   1.998   2.566   2.527
 8683SOL    HW126948   1.996   2.612   2.615
 8683SOL    HW226949   1.907   2.571   2.484
 8684SOL     OW26950   0.693   2.719   5.013
 8684SOL    HW126951   0.651   2.794   5.064
 8684SOL    HW226952   0.651   2.632   5.042
 8685SOL     OW26953   0.444   1.873   5.900
 8685SOL    HW126954   0.481   1.890   5.809
 8685SOL    HW226955   0.516   1.837   5.960
 8686SOL     OW26956   6.911   0.950   1.441
 8686SOL    HW126957   6.825   0.972   1.487
 8686SOL    HW226958   6.986   0.997   1.488
 8687SOL     OW26959   4.311   5.348   2.070
 8687SOL    HW126960   4.217   5.373   2.047
 8687SOL    HW226961   4.362   5.327   1.987
 8688SOL     OW26962   3.096   5.950   7.013
 8688SOL    HW126963   3.094   6.034   0.042
 8688SOL    HW226964   3.033   5.958   6.937
 8689SOL     OW26965   3.529   3.824   1.806
 8689SOL    HW126966   3.588   3.793   1.881
 8689SOL    HW226967   3.436   3.789   1.820
 8690SOL     OW26968   1.382   3.144   3.042
 8690SOL    HW126969   1.353   3.056   3.080
 8690SOL    HW226970   1.338   3.157   2.953
 8691SOL     OW26971   3.385   1.974   6.428
 8691SOL    HW126972   3.410   2.068   6.406
 8691SOL    HW226973   3.450   1.936   6.493
 8692SOL     OW26974   1.574   1.454   4.015
 8692SOL    HW126975   1.552   1.365   4.054
 8692SOL    HW226976   1.594   1.519   4.089
 8693SOL     OW26977   6.908   1.111   6.849
 8693SOL    HW126978   6.832   1.047   6.852
 8693SOL    HW226979   6.955   1.111   6.938
 8694SOL     OW26980   4.288   1.329   5.133
 8694SOL    HW126981   4.259   1.391   5.207
 8694SOL    HW226982   4.208   1.295   5.085
 8695SOL     OW26983   3.831   2.884   6.046
 8695SOL    HW126984   3.840   2.790   6.015
 8695SOL    HW226985   3.758   2.890   6.114
 8696SOL     OW26986   2.294   5.448   0.475
 8696SOL    HW126987   2.345   5.423   0.393
 8696SOL    HW226988   2.196   5.440   0.456
 8697SOL     OW26989   6.803   2.539   0.300
 8697SOL    HW126990   6.807   2.457   0.357
 8697SOL    HW226991   6.723   2.593   0.324
 8698SOL     OW26992   5.589   5.929   4.450
 8698SOL    HW126993   5.563   5.906   4.543
 8698SOL    HW226994   5.632   5.850   4.407
 8699SOL     OW26995   2.536   2.437   5.690
 8699SOL    HW126996   2.529   2.531   5.658
 8699SOL    HW226997   2.632   2.414   5.708
 8700SOL     OW26998   0.729   0.775   4.405
 8700SOL    HW126999   0.819   0.817   4.397
 8700SOL    HW227000   0.719   0.734   4.496
 8701SOL     OW27001   1.142   0.928   0.585
 8701SOL    HW127002   1.139   0.987   0.665
 8701SOL    HW227003   1.107   0.837   0.608
 8702SOL     OW27004   5.019   4.757   1.156
 8702SOL    HW127005   4.932   4.707   1.157
 8702SOL    HW227006   5.038   4.787   1.062
 8703SOL     OW27007   3.311   5.271   0.444
 8703SOL    HW127008   3.354   5.290   0.532
 8703SOL    HW227009   3.370   5.209   0.391
 8704SOL     OW27010   0.149   3.569   2.749
 8704SOL    HW127011   0.051   3.568   2.768
 8704SOL    HW227012   0.166   3.626   2.668
 8705SOL     OW27013   4.920   1.058   6.535
 8705SOL    HW127014   4.861   0.978   6.540
 8705SOL    HW227015   4.865   1.140   6.552
 8706SOL     OW27016   4.509   2.309   6.271
 8706SOL    HW127017   4.561   2.373   6.214
 8706SOL    HW227018   4.420   2.292   6.230
 8707SOL     OW27019   6.927   2.646   0.078
 8707SOL    HW127020   6.901   2.610   0.168
 8707SOL    HW227021   6.879   2.595   0.007
 8708SOL     OW27022   4.829   2.182   2.380
 8708SOL    HW127023   4.838   2.218   2.287
 8708SOL    HW227024   4.917   2.190   2.427
 8709SOL     OW27025   6.813   5.881   0.250
 8709SOL    HW127026   6.779   5.821   0.178
 8709SOL    HW227027   6.748   5.955   0.266
 8710SOL     OW27028   2.136   3.131   4.077
 8710SOL    HW127029   2.047   3.095   4.106
 8710SOL    HW227030   2.165   3.202   4.141
 8711SOL     OW27031   1.206   6.332   3.065
 8711SOL    HW127032   1.220   6.337   2.966
 8711SOL    HW227033   1.144   6.405   3.094
 8712SOL     OW27034   4.005   2.189   4.849
 8712SOL    HW127035   4.032   2.267   4.906
 8712SOL    HW227036   4.084   2.129   4.835
 8713SOL     OW27037   0.603   3.609   4.061
 8713SOL    HW127038   0.699   3.605   4.034
 8713SOL    HW227039   0.579   3.525   4.111
 8714SOL     OW27040   1.062   1.052   5.899
 8714SOL    HW127041   0.964   1.040   5.914
 8714SOL    HW227042   1.107   0.963   5.900
 8715SOL     OW27043   4.170   0.561   1.230
 8715SOL    HW127044   4.260   0.559   1.272
 8715SOL    HW227045   4.100   0.546   1.300
 8716SOL     OW27046   0.547   0.336   1.096
 8716SOL    HW127047   0.467   0.347   1.037
 8716SOL    HW227048   0.542   0.247   1.142
 8717SOL     OW27049   3.376   3.603   3.577
 8717SOL    HW127050   3.475   3.593   3.578
 8717SOL    HW227051   3.344   3.617   3.483
 8718SOL     OW27052   0.846   3.565   4.691
 8718SOL    HW127053   0.871   3.489   4.632
 8718SOL    HW227054   0.849   3.536   4.787
 8719SOL     OW27055   2.883   0.829   6.349
 8719SOL    HW127056   2.861   0.809   6.253
 8719SOL    HW227057   2.828   0.770   6.408
 8720SOL     OW27058   6.333   5.156   5.825
 8720SOL    HW127059   6.274   5.080   5.853
 8720SOL    HW227060   6.353   5.147   5.727
 8721SOL     OW27061   0.091   2.413   2.177
 8721SOL    HW127062   0.152   2.450   2.247
 8721SOL    HW227063   0.014   2.366   2.222
 8722SOL     OW27064   4.260   1.376   0.172
 8722SOL    HW127065   4.236   1.280   0.182
 8722SOL    HW227066   4.359   1.386   0.167
 8723SOL     OW27067   4.573   5.339   0.740
 8723SOL    HW127068   4.552   5.423   0.690
 8723SOL    HW227069   4.670   5.340   0.767
 8724SOL     OW27070   5.569   0.423   5.812
 8724SOL    HW127071   5.517   0.368   5.877
 8724SOL    HW227072   5.572   0.518   5.844
 8725SOL     OW27073   1.970   7.009   6.635
 8725SOL    HW127074   1.889   6.968   6.594
 8725SOL    HW227075   1.942   0.056   6.698
 8726SOL     OW27076   6.378   0.302   2.035
 8726SOL    HW127077   6.325   0.218   2.028
 8726SOL    HW227078   6.464   0.283   2.084
 8727SOL     OW27079   0.089   6.194   2.235
 8727SOL    HW127080   0.132   6.178   2.146
 8727SOL    HW227081   0.134   6.138   2.304
 8728SOL     OW27082   4.921   0.244   3.885
 8728SOL    HW127083   4.948   0.234   3.790
 8728SOL    HW227084   4.969   0.322   3.925
 8729SOL     OW27085   4.639   6.312   4.383
 8729SOL    HW127086   4.663   6.262   4.300
 8729SOL    HW227087   4.717   6.312   4.445
 8730SOL     OW27088   6.554   4.070   2.527
 8730SOL    HW127089   6.514   3.999   2.469
 8730SOL    HW227090   6.651   4.080   2.506
 8731SOL     OW27091   2.455   2.635   2.611
 8731SOL    HW127092   2.373   2.689   2.591
 8731SOL    HW227093   2.431   2.560   2.672
 8732SOL     OW27094   5.452   4.505   1.862
 8732SOL    HW127095   5.430   4.411   1.837
 8732SOL    HW227096   5.412   4.568   1.795
 8733SOL     OW27097   1.813   5.928   1.270
 8733SOL    HW127098   1.896   5.974   1.235
 8733SOL    HW227099   1.838   5.838   1.305
 8734SOL     OW27100   1.685   5.001   2.410
 8734SOL    HW127101   1.735   4.974   2.328
 8734SOL    HW227102   1.707   4.940   2.486
 8735SOL     OW27103   1.033   2.244   0.661
 8735SOL    HW127104   1.059   2.162   0.609
 8735SOL    HW227105   1.104   2.265   0.728
 8736SOL     OW27106   1.028   5.907   6.210
 8736SOL    HW127107   1.085   5.829   6.186
 8736SOL    HW227108   0.995   5.897   6.304
 8737SOL     OW27109   2.155   6.671   6.250
 8737SOL    HW127110   2.170   6.732   6.328
 8737SOL    HW227111   2.244   6.641   6.214
 8738SOL     OW27112   2.185   5.448   4.450
 8738SOL    HW127113   2.152   5.380   4.385
 8738SOL    HW227114   2.278   5.476   4.426
 8739SOL     OW27115   6.007   5.436   6.135
 8739SOL    HW127116   6.020   5.533   6.155
 8739SOL    HW227117   6.063   5.411   6.055
 8740SOL     OW27118   5.314   1.015   5.343
 8740SOL    HW127119   5.255   0.957   5.399
 8740SOL    HW227120   5.363   0.958   5.277
 8741SOL     OW27121   2.737   1.634   1.564
 8741SOL    HW127122   2.835   1.649   1.579
 8741SOL    HW227123   2.721   1.614   1.468
 8742SOL     OW27124   5.915   6.318   1.206
 8742SOL    HW127125   5.958   6.403   1.237
 8742SOL    HW227126   5.923   6.311   1.107
 8743SOL     OW27127   1.631   0.583   2.180
 8743SOL    HW127128   1.551   0.640   2.200
 8743SOL    HW227129   1.656   0.594   2.084
 8744SOL     OW27130   3.319   2.517   6.630
 8744SOL    HW127131   3.372   2.579   6.572
 8744SOL    HW227132   3.360   2.426   6.628
 8745SOL     OW27133   6.032   2.845   6.216
 8745SOL    HW127134   5.998   2.770   6.272
 8745SOL    HW227135   6.112   2.814   6.165
 8746SOL     OW27136   5.467   3.847   4.848
 8746SOL    HW127137   5.537   3.814   4.910
 8746SOL    HW227138   5.381   3.862   4.898
 8747SOL     OW27139   0.805   2.788   2.458
 8747SOL    HW127140   0.819   2.696   2.423
 8747SOL    HW227141   0.784   2.850   2.383
 8748SOL     OW27142   6.935   1.685   4.898
 8748SOL    HW127143   6.942   1.784   4.889
 8748SOL    HW227144   6.861   1.662   4.961
 8749SOL     OW27145   2.526   0.456   6.250
 8749SOL    HW127146   2.538   0.412   6.339
 8749SOL    HW227147   2.615   0.467   6.206
 8750SOL     OW27148   3.518   3.463   5.503
 8750SOL    HW127149   3.552   3.417   5.421
 8750SOL    HW227150   3.573   3.545   5.520
 8751SOL     OW27151   6.032   0.846   3.005
 8751SOL    HW127152   6.021   0.903   3.086
 8751SOL    HW227153   6.129   0.844   2.979
 8752SOL     OW27154   2.636   3.935   0.646
 8752SOL    HW127155   2.637   3.964   0.742
 8752SOL    HW227156   2.645   4.015   0.587
 8753SOL     OW27157   4.339   2.131   5.429
 8753SOL    HW127158   4.287   2.046   5.422
 8753SOL    HW227159   4.339   2.179   5.341
 8754SOL     OW27160   1.475   3.211   5.274
 8754SOL    HW127161   1.480   3.206   5.374
 8754SOL    HW227162   1.527   3.135   5.234
 8755SOL     OW27163   2.726   0.394   0.709
 8755SOL    HW127164   2.730   0.303   0.667
 8755SOL    HW227165   2.636   0.434   0.693
 8756SOL     OW27166   1.633   2.965   3.197
 8756SOL    HW127167   1.544   3.007   3.184
 8756SOL    HW227168   1.682   2.962   3.110
 8757SOL     OW27169   4.118   6.326   5.840
 8757SOL    HW127170   4.182   6.328   5.917
 8757SOL    HW227171   4.108   6.232   5.807
 8758SOL     OW27172   4.895   6.432   2.585
 8758SOL    HW127173   4.917   6.389   2.673
 8758SOL    HW227174   4.885   6.530   2.598
 8759SOL     OW27175   4.458   1.886   0.417
 8759SOL    HW127176   4.366   1.848   0.408
 8759SOL    HW227177   4.456   1.984   0.394
 8760SOL     OW27178   1.281   1.194   4.939
 8760SOL    HW127179   1.183   1.217   4.946
 8760SOL    HW227180   1.333   1.278   4.926
 8761SOL     OW27181   5.531   2.302   2.814
 8761SOL    HW127182   5.549   2.395   2.843
 8761SOL    HW227183   5.525   2.298   2.714
 8762SOL     OW27184   0.873   4.370   2.253
 8762SOL    HW127185   0.961   4.344   2.212
 8762SOL    HW227186   0.870   4.339   2.348
 8763SOL     OW27187   6.436   6.350   5.927
 8763SOL    HW127188   6.458   6.444   5.901
 8763SOL    HW227189   6.359   6.318   5.872
 8764SOL     OW27190   4.594   1.021   4.929
 8764SOL    HW127191   4.686   0.990   4.905
 8764SOL    HW227192   4.531   1.002   4.853
 8765SOL     OW27193   5.553   0.517   5.084
 8765SOL    HW127194   5.463   0.520   5.128
 8765SOL    HW227195   5.616   0.576   5.133
 8766SOL     OW27196   4.475   4.537   3.878
 8766SOL    HW127197   4.401   4.592   3.840
 8766SOL    HW227198   4.481   4.553   3.976
 8767SOL     OW27199   4.554   6.587   3.242
 8767SOL    HW127200   4.575   6.498   3.201
 8767SOL    HW227201   4.609   6.600   3.325
 8768SOL     OW27202   1.179   3.134   0.333
 8768SOL    HW127203   1.188   3.158   0.430
 8768SOL    HW227204   1.109   3.062   0.324
 8769SOL     OW27205   0.787   0.477   4.095
 8769SOL    HW127206   0.779   0.550   4.163
 8769SOL    HW227207   0.820   0.394   4.139
 8770SOL     OW27208   5.164   4.280   2.190
 8770SOL    HW127209   5.127   4.228   2.267
 8770SOL    HW227210   5.110   4.363   2.176
 8771SOL     OW27211   1.219   0.217   6.717
 8771SOL    HW127212   1.137   0.244   6.667
 8771SOL    HW227213   1.193   0.169   6.800
 8772SOL     OW27214   4.696   6.789   0.092
 8772SOL    HW127215   4.597   6.787   0.082
 8772SOL    HW227216   4.729   6.696   0.108
 8773SOL     OW27217   4.558   2.554   3.729
 8773SOL    HW127218   4.556   2.579   3.826
 8773SOL    HW227219   4.486   2.486   3.712
 8774SOL     OW27220   1.553   1.597   6.586
 8774SOL    HW127221   1.537   1.517   6.643
 8774SOL    HW227222   1.466   1.633   6.553
 8775SOL     OW27223   6.304   0.190   5.659
 8775SOL    HW127224   6.403   0.208   5.656
 8775SOL    HW227225   6.281   0.122   5.589
 8776SOL     OW27226   3.802   3.657   5.696
 8776SOL    HW127227   3.726   3.677   5.633
 8776SOL    HW227228   3.766   3.649   5.789
 8777SOL     OW27229   6.903   3.938   1.661
 8777SOL    HW127230   6.898   4.022   1.606
 8777SOL    HW227231   6.970   3.876   1.621
 8778SOL     OW27232   6.423   2.791   4.846
 8778SOL    HW127233   6.498   2.822   4.905
 8778SOL    HW227234   6.461   2.739   4.769
 8779SOL     OW27235   2.926   5.185   2.318
 8779SOL    HW127236   2.929   5.088   2.295
 8779SOL    HW227237   3.018   5.219   2.335
 8780SOL     OW27238   0.694   5.937   2.956
 8780SOL    HW127239   0.763   5.990   3.007
 8780SOL    HW227240   0.603   5.962   2.988
 8781SOL     OW27241   6.190   1.761   3.365
 8781SOL    HW127242   6.128   1.705   3.420
 8781SOL    HW227243   6.157   1.855   3.362
 8782SOL     OW27244   5.240   6.715   1.939
 8782SOL    HW127245   5.311   6.752   1.879
 8782SOL    HW227246   5.270   6.721   2.034
 8783SOL     OW27247   6.685   3.935   3.629
 8783SOL    HW127248   6.596   3.941   3.585
 8783SOL    HW227249   6.686   3.993   3.710
 8784SOL     OW27250   5.597   4.347   6.600
 8784SOL    HW127251   5.565   4.274   6.539
 8784SOL    HW227252   5.697   4.341   6.609
 8785SOL     OW27253   6.427   3.765   6.842
 8785SOL    HW127254   6.509   3.822   6.842
 8785SOL    HW227255   6.442   3.684   6.785
 8786SOL     OW27256   2.019   0.005   0.096
 8786SOL    HW127257   1.922   7.016   0.114
 8786SOL    HW227258   2.044   0.098   0.126
 8787SOL     OW27259   3.104   2.702   1.790
 8787SOL    HW127260   3.192   2.661   1.764
 8787SOL    HW227261   3.041   2.629   1.817
 8788SOL     OW27262   0.324   2.095   6.006
 8788SOL    HW127263   0.356   2.011   5.962
 8788SOL    HW227264   0.328   2.170   5.941
 8789SOL     OW27265   6.210   7.013   5.482
 8789SOL    HW127266   6.124   0.038   5.476
 8789SOL    HW227267   6.215   6.946   5.408
 8790SOL     OW27268   0.145   0.878   6.964
 8790SOL    HW127269   0.080   0.802   6.964
 8790SOL    HW227270   0.238   0.842   6.973
 8791SOL     OW27271   5.898   6.738   5.452
 8791SOL    HW127272   5.865   6.823   5.411
 8791SOL    HW227273   5.901   6.666   5.382
 8792SOL     OW27274   3.556   6.572   3.286
 8792SOL    HW127275   3.462   6.542   3.301
 8792SOL    HW227276   3.555   6.657   3.232
 8793SOL     OW27277   1.915   4.797   3.038
 8793SOL    HW127278   1.853   4.768   3.111
 8793SOL    HW227279   1.864   4.805   2.952
 8794SOL     OW27280   4.321   6.448   1.744
 8794SOL    HW127281   4.263   6.395   1.805
 8794SOL    HW227282   4.413   6.408   1.742
 8795SOL     OW27283   1.421   6.040   5.670
 8795SOL    HW127284   1.484   6.035   5.592
 8795SOL    HW227285   1.332   6.002   5.643
 8796SOL     OW27286   4.547   2.220   4.423
 8796SOL    HW127287   4.506   2.132   4.399
 8796SOL    HW227288   4.476   2.291   4.425
 8797SOL     OW27289   0.655   6.725   5.797
 8797SOL    HW127290   0.585   6.682   5.854
 8797SOL    HW227291   0.710   6.654   5.753
 8798SOL     OW27292   5.245   5.827   5.999
 8798SOL    HW127293   5.262   5.829   6.097
 8798SOL    HW227294   5.163   5.881   5.978
 8799SOL     OW27295   2.028   4.646   4.046
 8799SOL    HW127296   2.022   4.742   4.018
 8799SOL    HW227297   2.122   4.615   4.040
 8800SOL     OW27298   6.057   4.099   5.556
 8800SOL    HW127299   6.122   4.132   5.487
 8800SOL    HW227300   6.020   4.011   5.527
 8801SOL     OW27301   0.645   2.027   4.944
 8801SOL    HW127302   0.705   2.001   4.868
 8801SOL    HW227303   0.594   2.110   4.918
 8802SOL     OW27304   2.122   6.920   0.770
 8802SOL    HW127305   2.124   6.949   0.866
 8802SOL    HW227306   2.037   6.952   0.727
 8803SOL     OW27307   6.975   5.303   6.340
 8803SOL    HW127308   6.957   5.229   6.275
 8803SOL    HW227309   0.002   5.375   6.296
 8804SOL     OW27310   3.311   0.283   2.219
 8804SOL    HW127311   3.258   0.261   2.301
 8804SOL    HW227312   3.360   0.201   2.189
 8805SOL     OW27313   2.778   0.022   4.163
 8805SOL    HW127314   2.768   6.966   4.106
 8805SOL    HW227315   2.848   0.082   4.123
 8806SOL     OW27316   2.536   4.856   2.279
 8806SOL    HW127317   2.540   4.924   2.352
 8806SOL    HW227318   2.605   4.786   2.295
 8807SOL     OW27319   5.452   0.166   6.918
 8807SOL    HW127320   5.411   0.110   6.847
 8807SOL    HW227321   5.549   0.146   6.925
 8808SOL     OW27322   5.596   2.444   6.844
 8808SOL    HW127323   5.616   2.446   6.746
 8808SOL    HW227324   5.571   2.352   6.872
 8809SOL     OW27325   4.397   5.608   3.821
 8809SOL    HW127326   4.317   5.666   3.836
 8809SOL    HW227327   4.452   5.605   3.905
 8810SOL     OW27328   5.015   0.809   5.729
 8810SOL    HW127329   4.936   0.755   5.757
 8810SOL    HW227330   5.034   0.879   5.798
 8811SOL     OW27331   2.955   1.479   3.803
 8811SOL    HW127332   2.914   1.429   3.727
 8811SOL    HW227333   2.898   1.468   3.885
 8812SOL     OW27334   2.193   0.012   1.024
 8812SOL    HW127335   2.147   0.082   1.078
 8812SOL    HW227336   2.272   0.052   0.978
 8813SOL     OW27337   1.220   4.739   2.121
 8813SOL    HW127338   1.188   4.825   2.080
 8813SOL    HW227339   1.153   4.708   2.188
 8814SOL     OW27340   5.656   6.935   1.106
 8814SOL    HW127341   5.604   6.992   1.041
 8814SOL    HW227342   5.752   6.962   1.103
 8815SOL     OW27343   6.593   6.495   0.581
 8815SOL    HW127344   6.632   6.474   0.671
 8815SOL    HW227345   6.665   6.533   0.522
 8816SOL     OW27346   1.284   0.571   0.161
 8816SOL    HW127347   1.317   0.478   0.150
 8816SOL    HW227348   1.359   0.635   0.142
 8817SOL     OW27349   0.871   5.921   4.681
 8817SOL    HW127350   0.831   5.974   4.755
 8817SOL    HW227351   0.799   5.872   4.632
 8818SOL     OW27352   0.363   3.658   4.739
 8818SOL    HW127353   0.460   3.685   4.746
 8818SOL    HW227354   0.310   3.712   4.804
 8819SOL     OW27355   5.552   5.063   5.042
 8819SOL    HW127356   5.458   5.056   5.077
 8819SOL    HW227357   5.615   5.027   5.110
 8820SOL     OW27358   1.866   0.662   5.162
 8820SOL    HW127359   1.934   0.666   5.235
 8820SOL    HW227360   1.798   0.735   5.176
 8821SOL     OW27361   3.079   6.146   0.163
 8821SOL    HW127362   3.163   6.200   0.162
 8821SOL    HW227363   3.007   6.198   0.208
 8822SOL     OW27364   0.415   6.976   4.740
 8822SOL    HW127365   0.334   6.946   4.791
 8822SOL    HW227366   0.494   6.977   4.802
 8823SOL     OW27367   2.536   0.721   1.211
 8823SOL    HW127368   2.526   0.719   1.311
 8823SOL    HW227369   2.633   0.732   1.188
 8824SOL     OW27370   0.859   3.274   0.992
 8824SOL    HW127371   0.850   3.338   0.915
 8824SOL    HW227372   0.860   3.181   0.957
 8825SOL     OW27373   1.938   0.495   2.627
 8825SOL    HW127374   1.904   0.440   2.704
 8825SOL    HW227375   1.862   0.515   2.565
 8826SOL     OW27376   6.539   3.508   1.034
 8826SOL    HW127377   6.554   3.559   0.949
 8826SOL    HW227378   6.526   3.572   1.109
 8827SOL     OW27379   3.654   1.356   3.440
 8827SOL    HW127380   3.588   1.380   3.368
 8827SOL    HW227381   3.620   1.389   3.528
 8828SOL     OW27382   4.817   5.420   5.831
 8828SOL    HW127383   4.822   5.515   5.862
 8828SOL    HW227384   4.842   5.416   5.734
 8829SOL     OW27385   6.158   2.451   0.638
 8829SOL    HW127386   6.112   2.442   0.726
 8829SOL    HW227387   6.189   2.361   0.607
 8830SOL     OW27388   1.136   1.858   2.229
 8830SOL    HW127389   1.227   1.817   2.231
 8830SOL    HW227390   1.131   1.927   2.156
 8831SOL     OW27391   4.796   1.775   3.997
 8831SOL    HW127392   4.789   1.863   4.045
 8831SOL    HW227393   4.709   1.753   3.955
 8832SOL     OW27394   0.025   5.723   3.039
 8832SOL    HW127395   0.063   5.792   2.977
 8832SOL    HW227396   6.951   5.728   3.037
 8833SOL     OW27397   2.132   5.904   5.582
 8833SOL    HW127398   2.218   5.853   5.591
 8833SOL    HW227399   2.088   5.879   5.496
 8834SOL     OW27400   5.272   3.573   4.766
 8834SOL    HW127401   5.288   3.625   4.849
 8834SOL    HW227402   5.186   3.522   4.774
 8835SOL     OW27403   5.432   1.015   6.039
 8835SOL    HW127404   5.388   0.952   5.975
 8835SOL    HW227405   5.378   1.022   6.123
 8836SOL     OW27406   4.840   2.637   6.865
 8836SOL    HW127407   4.768   2.585   6.910
 8836SOL    HW227408   4.859   2.597   6.775
 8837SOL     OW27409   0.084   5.549   3.245
 8837SOL    HW127410   0.056   5.618   3.178
 8837SOL    HW227411   0.005   5.522   3.300
 8838SOL     OW27412   2.386   5.026   2.922
 8838SOL    HW127413   2.444   5.105   2.901
 8838SOL    HW227414   2.324   5.009   2.845
 8839SOL     OW27415   5.212   4.974   3.477
 8839SOL    HW127416   5.143   4.958   3.406
 8839SOL    HW227417   5.186   5.054   3.531
 8840SOL     OW27418   6.537   1.857   2.184
 8840SOL    HW127419   6.441   1.870   2.160
 8840SOL    HW227420   6.563   1.922   2.256
 8841SOL     OW27421   0.544   0.895   5.304
 8841SOL    HW127422   0.467   0.941   5.347
 8841SOL    HW227423   0.610   0.868   5.374
 8842SOL     OW27424   3.492   3.161   2.311
 8842SOL    HW127425   3.542   3.210   2.382
 8842SOL    HW227426   3.469   3.069   2.343
 8843SOL     OW27427   1.898   3.246   5.775
 8843SOL    HW127428   1.870   3.340   5.796
 8843SOL    HW227429   1.933   3.242   5.682
 8844SOL     OW27430   6.853   2.430   6.908
 8844SOL    HW127431   6.864   2.334   6.933
 8844SOL    HW227432   6.756   2.450   6.893
 8845SOL     OW27433   3.635   3.760   0.217
 8845SOL    HW127434   3.613   3.663   0.214
 8845SOL    HW227435   3.552   3.815   0.203
 8846SOL     OW27436   3.051   5.980   3.566
 8846SOL    HW127437   3.147   5.980   3.541
 8846SOL    HW227438   3.040   5.940   3.657
 8847SOL     OW27439   2.735   1.389   3.636
 8847SOL    HW127440   2.668   1.320   3.664
 8847SOL    HW227441   2.779   1.359   3.551
 8848SOL     OW27442   2.406   0.704   1.481
 8848SOL    HW127443   2.318   0.662   1.460
 8848SOL    HW227444   2.412   0.793   1.437
 8849SOL     OW27445   3.225   6.520   3.615
 8849SOL    HW127446   3.257   6.523   3.520
 8849SOL    HW227447   3.272   6.591   3.668
 8850SOL     OW27448   1.038   2.295   0.121
 8850SOL    HW127449   1.075   2.387   0.127
 8850SOL    HW227450   1.044   2.262   0.027
 8851SOL     OW27451   1.214   4.290   3.563
 8851SOL    HW127452   1.292   4.280   3.501
 8851SOL    HW227453   1.134   4.245   3.524
 8852SOL     OW27454   0.021   2.644   5.147
 8852SOL    HW127455   0.021   2.741   5.123
 8852SOL    HW227456   0.107   2.621   5.193
 8853SOL     OW27457   3.018   0.940   1.427
 8853SOL    HW127458   2.983   0.998   1.502
 8853SOL    HW227459   3.102   0.896   1.457
 8854SOL     OW27460   2.535   2.317   5.972
 8854SOL    HW127461   2.519   2.349   5.878
 8854SOL    HW227462   2.610   2.251   5.972
 8855SOL     OW27463   6.549   5.044   1.450
 8855SOL    HW127464   6.463   5.000   1.475
 8855SOL    HW227465   6.577   5.013   1.359
 8856SOL     OW27466   1.151   6.271   6.362
 8856SOL    HW127467   1.249   6.290   6.349
 8856SOL    HW227468   1.104   6.354   6.391
 8857SOL     OW27469   6.844   1.908   4.602
 8857SOL    HW127470   6.890   1.913   4.513
 8857SOL    HW227471   6.910   1.925   4.675
 8858SOL     OW27472   0.182   4.087   4.523
 8858SOL    HW127473   0.084   4.092   4.503
 8858SOL    HW227474   0.218   4.180   4.536
 8859SOL     OW27475   1.360   1.550   3.650
 8859SOL    HW127476   1.457   1.541   3.626
 8859SOL    HW227477   1.321   1.629   3.604
 8860SOL     OW27478   6.833   2.205   1.633
 8860SOL    HW127479   6.798   2.279   1.575
 8860SOL    HW227480   6.880   2.244   1.712
 8861SOL     OW27481   4.182   1.082   5.996
 8861SOL    HW127482   4.247   1.006   5.989
 8861SOL    HW227483   4.202   1.149   5.925
 8862SOL     OW27484   5.770   6.853   3.760
 8862SOL    HW127485   5.752   6.949   3.739
 8862SOL    HW227486   5.826   6.813   3.688
 8863SOL     OW27487   2.822   4.766   3.426
 8863SOL    HW127488   2.784   4.676   3.448
 8863SOL    HW227489   2.801   4.789   3.331
 8864SOL     OW27490   3.068   5.008   6.474
 8864SOL    HW127491   3.110   5.065   6.403
 8864SOL    HW227492   3.135   4.943   6.509
 8865SOL     OW27493   3.169   0.793   4.490
 8865SOL    HW127494   3.244   0.858   4.479
 8865SOL    HW227495   3.206   0.703   4.512
 8866SOL     OW27496   5.451   0.246   3.152
 8866SOL    HW127497   5.378   0.312   3.138
 8866SOL    HW227498   5.456   0.184   3.073
 8867SOL     OW27499   5.892   4.261   3.469
 8867SOL    HW127500   5.852   4.245   3.560
 8867SOL    HW227501   5.883   4.358   3.446
 8868SOL     OW27502   0.405   3.269   1.282
 8868SOL    HW127503   0.354   3.277   1.367
 8868SOL    HW227504   0.461   3.186   1.285
 8869SOL     OW27505   3.718   6.024   5.437
 8869SOL    HW127506   3.649   6.002   5.367
 8869SOL    HW227507   3.771   6.103   5.408
 8870SOL     OW27508   2.611   6.507   1.692
 8870SOL    HW127509   2.633   6.570   1.618
 8870SOL    HW227510   2.695   6.464   1.726
 8871SOL     OW27511   1.877   0.374   3.700
 8871SOL    HW127512   1.846   0.308   3.768
 8871SOL    HW227513   1.806   0.443   3.685
 8872SOL     OW27514   1.819   4.821   5.701
 8872SOL    HW127515   1.904   4.840   5.652
 8872SOL    HW227516   1.777   4.738   5.664
 8873SOL     OW27517   1.279   0.049   2.280
 8873SOL    HW127518   1.322   6.985   2.289
 8873SOL    HW227519   1.187   0.039   2.243
 8874SOL     OW27520   2.174   5.483   2.335
 8874SOL    HW127521   2.102   5.491   2.403
 8874SOL    HW227522   2.136   5.442   2.251
 8875SOL     OW27523   6.767   3.697   4.611
 8875SOL    HW127524   6.843   3.664   4.667
 8875SOL    HW227525   6.713   3.620   4.578
 8876SOL     OW27526   2.183   0.293   5.655
 8876SOL    HW127527   2.214   0.384   5.628
 8876SOL    HW227528   2.220   0.225   5.592
 8877SOL     OW27529   2.285   2.165   4.180
 8877SOL    HW127530   2.355   2.122   4.124
 8877SOL    HW227531   2.275   2.113   4.265
 8878SOL     OW27532   4.772   4.963   0.635
 8878SOL    HW127533   4.808   5.054   0.654
 8878SOL    HW227534   4.711   4.935   0.709
 8879SOL     OW27535   4.408   4.565   2.370
 8879SOL    HW127536   4.485   4.519   2.326
 8879SOL    HW227537   4.328   4.560   2.310
 8880SOL     OW27538   4.473   6.358   5.140
 8880SOL    HW127539   4.483   6.378   5.042
 8880SOL    HW227540   4.429   6.269   5.151
 8881SOL     OW27541   5.400   6.070   3.961
 8881SOL    HW127542   5.419   5.990   3.905
 8881SOL    HW227543   5.483   6.125   3.969
 8882SOL     OW27544   5.016   1.214   1.420
 8882SOL    HW127545   4.920   1.240   1.409
 8882SOL    HW227546   5.022   1.115   1.430
 8883SOL     OW27547   2.163   6.382   5.974
 8883SOL    HW127548   2.106   6.305   6.002
 8883SOL    HW227549   2.107   6.464   5.965
 8884SOL     OW27550   6.299   3.097   5.899
 8884SOL    HW127551   6.273   3.057   5.811
 8884SOL    HW227552   6.225   3.082   5.965
 8885SOL     OW27553   5.296   4.450   0.655
 8885SOL    HW127554   5.321   4.485   0.745
 8885SOL    HW227555   5.368   4.474   0.589
 8886SOL     OW27556   2.848   5.975   5.430
 8886SOL    HW127557   2.762   5.990   5.479
 8886SOL    HW227558   2.854   6.039   5.354
 8887SOL     OW27559   3.952   1.190   0.843
 8887SOL    HW127560   3.929   1.113   0.903
 8887SOL    HW227561   3.927   1.276   0.889
 8888SOL     OW27562   1.777   1.568   5.490
 8888SOL    HW127563   1.851   1.624   5.452
 8888SOL    HW227564   1.757   1.493   5.427
 8889SOL     OW27565   6.520   6.806   0.049
 8889SOL    HW127566   6.620   6.806   0.040
 8889SOL    HW227567   6.478   6.794   6.985
 8890SOL     OW27568   0.122   5.648   5.585
 8890SOL    HW127569   0.110   5.741   5.550
 8890SOL    HW227570   0.127   5.584   5.509
 8891SOL     OW27571   3.863   4.133   0.174
 8891SOL    HW127572   3.860   4.203   0.103
 8891SOL    HW227573   3.945   4.147   0.230
 8892SOL     OW27574   3.945   4.856   3.002
 8892SOL    HW127575   3.853   4.866   3.040
 8892SOL    HW227576   3.999   4.938   3.023
 8893SOL     OW27577   1.218   5.181   4.328
 8893SOL    HW127578   1.129   5.137   4.312
 8893SOL    HW227579   1.207   5.257   4.391
 8894SOL     OW27580   3.119   1.856   6.496
 8894SOL    HW127581   3.079   1.822   6.411
 8894SOL    HW227582   3.219   1.851   6.490
 8895SOL     OW27583   7.009   2.196   1.833
 8895SOL    HW127584   0.025   2.286   1.821
 8895SOL    HW227585   0.028   2.130   1.774
 8896SOL     OW27586   2.216   2.962   4.786
 8896SOL    HW127587   2.243   2.952   4.882
 8896SOL    HW227588   2.154   3.040   4.776
 8897SOL     OW27589   2.586   2.425   3.593
 8897SOL    HW127590   2.662   2.383   3.543
 8897SOL    HW227591   2.558   2.509   3.546
 8898SOL     OW27592   4.937   3.505   2.657
 8898SOL    HW127593   4.900   3.573   2.594
 8898SOL    HW227594   5.037   3.510   2.657
 8899SOL     OW27595   1.299   4.470   0.935
 8899SOL    HW127596   1.373   4.410   0.905
 8899SOL    HW227597   1.225   4.415   0.972
 8900SOL     OW27598   5.050   3.334   3.278
 8900SOL    HW127599   5.111   3.285   3.340
 8900SOL    HW227600   5.087   3.331   3.185
 8901SOL     OW27601   0.845   1.204   5.011
 8901SOL    HW127602   0.927   1.251   4.979
 8901SOL    HW227603   0.852   1.107   4.991
 8902SOL     OW27604   0.809   5.668   0.297
 8902SOL    HW127605   0.755   5.727   0.236
 8902SOL    HW227606   0.860   5.601   0.242
 8903SOL     OW27607   0.605   1.773   4.174
 8903SOL    HW127608   0.566   1.864   4.159
 8903SOL    HW227609   0.704   1.776   4.159
 8904SOL     OW27610   0.620   0.677   4.644
 8904SOL    HW127611   0.644   0.613   4.716
 8904SOL    HW227612   0.520   0.683   4.636
 8905SOL     OW27613   2.105   3.138   3.324
 8905SOL    HW127614   2.082   3.202   3.398
 8905SOL    HW227615   2.175   3.075   3.357
 8906SOL     OW27616   0.395   6.452   1.056
 8906SOL    HW127617   0.345   6.380   1.104
 8906SOL    HW227618   0.481   6.415   1.021
 8907SOL     OW27619   3.521   2.718   5.822
 8907SOL    HW127620   3.572   2.668   5.892
 8907SOL    HW227621   3.573   2.799   5.793
 8908SOL     OW27622   1.551   5.763   0.260
 8908SOL    HW127623   1.570   5.817   0.178
 8908SOL    HW227624   1.588   5.810   0.340
 8909SOL     OW27625   2.391   1.658   5.659
 8909SOL    HW127626   2.332   1.626   5.585
 8909SOL    HW227627   2.463   1.590   5.676
 8910SOL     OW27628   1.014   3.192   5.530
 8910SOL    HW127629   1.064   3.148   5.456
 8910SOL    HW227630   1.012   3.291   5.516
 8911SOL     OW27631   4.897   3.102   4.567
 8911SOL    HW127632   4.994   3.109   4.590
 8911SOL    HW227633   4.845   3.170   4.619
 8912SOL     OW27634   2.914   3.755   6.985
 8912SOL    HW127635   2.866   3.680   6.938
 8912SOL    HW227636   2.847   3.819   7.023
 8913SOL     OW27637   4.135   5.488   6.416
 8913SOL    HW127638   4.046   5.477   6.461
 8913SOL    HW227639   4.154   5.408   6.359
 8914SOL     OW27640   4.762   0.160   4.738
 8914SOL    HW127641   4.755   0.107   4.654
 8914SOL    HW227642   4.843   0.218   4.735
 8915SOL     OW27643   1.573   1.927   3.608
 8915SOL    HW127644   1.650   1.881   3.563
 8915SOL    HW227645   1.515   1.971   3.539
 8916SOL     OW27646   6.695   3.164   0.649
 8916SOL    HW127647   6.697   3.064   0.656
 8916SOL    HW227648   6.781   3.202   0.684
 8917SOL     OW27649   5.672   2.783   0.506
 8917SOL    HW127650   5.643   2.730   0.426
 8917SOL    HW227651   5.741   2.731   0.557
 8918SOL     OW27652   0.555   4.549   0.897
 8918SOL    HW127653   0.645   4.508   0.879
 8918SOL    HW227654   0.513   4.503   0.975
 8919SOL     OW27655   4.870   3.952   6.990
 8919SOL    HW127656   4.920   3.901   0.034
 8919SOL    HW227657   4.931   4.020   6.949
 8920SOL     OW27658   7.021   1.656   6.905
 8920SOL    HW127659   0.019   1.620   6.814
 8920SOL    HW227660   0.071   1.711   6.940
 8921SOL     OW27661   1.800   3.226   1.635
 8921SOL    HW127662   1.796   3.150   1.699
 8921SOL    HW227663   1.863   3.295   1.670
 8922SOL     OW27664   4.041   5.042   2.349
 8922SOL    HW127665   4.038   4.966   2.284
 8922SOL    HW227666   3.989   5.019   2.431
 8923SOL     OW27667   1.649   1.745   6.390
 8923SOL    HW127668   1.643   1.694   6.476
 8923SOL    HW227669   1.628   1.841   6.407
 8924SOL     OW27670   4.485   5.519   5.219
 8924SOL    HW127671   4.507   5.559   5.308
 8924SOL    HW227672   4.398   5.556   5.187
 8925SOL     OW27673   0.894   0.626   3.321
 8925SOL    HW127674   0.823   0.612   3.253
 8925SOL    HW227675   0.892   0.722   3.352
 8926SOL     OW27676   6.351   3.245   6.440
 8926SOL    HW127677   6.332   3.315   6.371
 8926SOL    HW227678   6.265   3.217   6.483
 8927SOL     OW27679   0.027   1.060   4.482
 8927SOL    HW127680   0.062   0.967   4.472
 8927SOL    HW227681   0.028   1.085   4.579
 8928SOL     OW27682   1.500   0.391   6.153
 8928SOL    HW127683   1.598   0.401   6.136
 8928SOL    HW227684   1.453   0.475   6.126
 8929SOL     OW27685   5.840   2.074   4.828
 8929SOL    HW127686   5.906   2.092   4.754
 8929SOL    HW227687   5.889   2.049   4.911
 8930SOL     OW27688   0.982   2.691   4.240
 8930SOL    HW127689   1.045   2.742   4.298
 8930SOL    HW227690   1.033   2.631   4.178
 8931SOL     OW27691   3.210   3.824   0.958
 8931SOL    HW127692   3.116   3.797   0.976
 8931SOL    HW227693   3.236   3.799   0.865
 8932SOL     OW27694   6.161   2.257   1.917
 8932SOL    HW127695   6.260   2.273   1.912
 8932SOL    HW227696   6.120   2.276   1.828
 8933SOL     OW27697   2.974   3.025   5.950
 8933SOL    HW127698   2.930   3.055   6.035
 8933SOL    HW227699   2.937   3.078   5.873
 8934SOL     OW27700   2.441   5.535   4.411
 8934SOL    HW127701   2.469   5.573   4.500
 8934SOL    HW227702   2.517   5.482   4.373
 8935SOL     OW27703   0.471   4.746   0.066
 8935SOL    HW127704   0.519   4.785   7.013
 8935SOL    HW227705   0.384   4.707   0.037
 8936SOL     OW27706   1.114   4.303   2.180
 8936SOL    HW127707   1.114   4.206   2.205
 8936SOL    HW227708   1.168   4.355   2.248
 8937SOL     OW27709   0.562   0.052   5.781
 8937SOL    HW127710   0.645   0.019   5.825
 8937SOL    HW227711   0.576   0.146   5.750
 8938SOL     OW27712   0.561   6.262   0.845
 8938SOL    HW127713   0.626   6.316   0.898
 8938SOL    HW227714   0.519   6.321   0.776
 8939SOL     OW27715   5.051   2.969   4.232
 8939SOL    HW127716   5.075   3.059   4.195
 8939SOL    HW227717   5.115   2.946   4.306
 8940SOL     OW27718   0.419   1.359   2.294
 8940SOL    HW127719   0.487   1.425   2.260
 8940SOL    HW227720   0.327   1.397   2.281
 8941SOL     OW27721   6.440   2.634   5.906
 8941SOL    HW127722   6.477   2.709   5.960
 8941SOL    HW227723   6.378   2.670   5.836
 8942SOL     OW27724   6.417   4.917   4.934
 8942SOL    HW127725   6.419   4.989   4.864
 8942SOL    HW227726   6.417   4.828   4.890
 8943SOL     OW27727   3.461   5.117   5.941
 8943SOL    HW127728   3.432   5.056   5.866
 8943SOL    HW227729   3.535   5.074   5.992
 8944SOL     OW27730   5.277   4.809   5.348
 8944SOL    HW127731   5.373   4.826   5.370
 8944SOL    HW227732   5.269   4.723   5.299
 8945SOL     OW27733   1.049   0.876   2.986
 8945SOL    HW127734   1.087   0.936   2.915
 8945SOL    HW227735   1.122   0.845   3.046
 8946SOL     OW27736   3.348   1.408   5.196
 8946SOL    HW127737   3.404   1.349   5.137
 8946SOL    HW227738   3.292   1.351   5.257
 8947SOL     OW27739   2.303   3.415   5.674
 8947SOL    HW127740   2.294   3.317   5.689
 8947SOL    HW227741   2.387   3.448   5.718
 8948SOL     OW27742   6.397   6.569   4.688
 8948SOL    HW127743   6.372   6.472   4.692
 8948SOL    HW227744   6.496   6.577   4.704
 8949SOL     OW27745   2.509   0.001   0.855
 8949SOL    HW127746   2.506   6.928   0.839
 8949SOL    HW227747   2.573   0.021   0.930
 8950SOL     OW27748   4.722   4.242   5.874
 8950SOL    HW127749   4.651   4.303   5.837
 8950SOL    HW227750   4.704   4.225   5.971
 8951SOL     OW27751   1.327   2.090   5.316
 8951SOL    HW127752   1.234   2.094   5.352
 8951SOL    HW227753   1.324   2.067   5.218
 8952SOL     OW27754   1.326   6.702   2.570
 8952SOL    HW127755   1.414   6.715   2.616
 8952SOL    HW227756   1.255   6.756   2.617
 8953SOL     OW27757   1.506   4.216   6.812
 8953SOL    HW127758   1.521   4.198   6.909
 8953SOL    HW227759   1.581   4.271   6.776
 8954SOL     OW27760   0.796   0.110   5.305
 8954SOL    HW127761   0.870   0.107   5.372
 8954SOL    HW227762   0.734   0.033   5.321
 8955SOL     OW27763   0.134   5.032   2.240
 8955SOL    HW127764   0.110   5.085   2.321
 8955SOL    HW227765   0.216   4.978   2.259
 8956SOL     OW27766   0.978   1.341   6.748
 8956SOL    HW127767   1.063   1.393   6.736
 8956SOL    HW227768   0.929   1.375   6.829
 8957SOL     OW27769   2.740   4.425   1.627
 8957SOL    HW127770   2.668   4.358   1.644
 8957SOL    HW227771   2.786   4.449   1.713
 8958SOL     OW27772   0.482   1.347   5.042
 8958SOL    HW127773   0.508   1.259   5.083
 8958SOL    HW227774   0.430   1.331   4.959
 8959SOL     OW27775   1.457   4.226   1.625
 8959SOL    HW127776   1.437   4.311   1.576
 8959SOL    HW227777   1.521   4.244   1.700
 8960SOL     OW27778   4.492   4.432   2.833
 8960SOL    HW127779   4.424   4.372   2.876
 8960SOL    HW227780   4.569   4.444   2.896
 8961SOL     OW27781   2.541   1.202   4.602
 8961SOL    HW127782   2.574   1.296   4.595
 8961SOL    HW227783   2.458   1.200   4.658
 8962SOL     OW27784   5.944   6.095   2.287
 8962SOL    HW127785   5.895   6.131   2.365
 8962SOL    HW227786   5.937   6.158   2.210
 8963SOL     OW27787   4.198   6.178   4.333
 8963SOL    HW127788   4.279   6.209   4.383
 8963SOL    HW227789   4.167   6.250   4.272
 8964SOL     OW27790   4.852   3.058   3.183
 8964SOL    HW127791   4.908   3.123   3.234
 8964SOL    HW227792   4.832   3.095   3.092
 8965SOL     OW27793   2.399   4.827   0.764
 8965SOL    HW127794   2.434   4.892   0.696
 8965SOL    HW227795   2.377   4.876   0.849
 8966SOL     OW27796   6.709   3.925   6.905
 8966SOL    HW127797   6.705   3.899   6.809
 8966SOL    HW227798   6.617   3.952   6.936
 8967SOL     OW27799   4.068   6.992   1.996
 8967SOL    HW127800   4.109   6.971   1.907
 8967SOL    HW227801   4.056   0.065   2.005
 8968SOL     OW27802   5.049   4.865   3.284
 8968SOL    HW127803   4.975   4.893   3.222
 8968SOL    HW227804   5.098   4.787   3.244
 8969SOL     OW27805   0.108   1.353   4.639
 8969SOL    HW127806   0.162   1.343   4.723
 8969SOL    HW227807   0.157   1.413   4.575
 8970SOL     OW27808   2.364   3.321   0.476
 8970SOL    HW127809   2.368   3.321   0.576
 8970SOL    HW227810   2.300   3.251   0.446
 8971SOL     OW27811   4.994   5.492   1.950
 8971SOL    HW127812   5.065   5.424   1.970
 8971SOL    HW227813   4.930   5.496   2.027
 8972SOL     OW27814   5.440   4.624   6.357
 8972SOL    HW127815   5.455   4.527   6.338
 8972SOL    HW227816   5.384   4.664   6.284
 8973SOL     OW27817   1.132   3.091   2.345
 8973SOL    HW127818   1.210   3.150   2.324
 8973SOL    HW227819   1.110   3.034   2.266
 8974SOL     OW27820   1.402   4.480   5.649
 8974SOL    HW127821   1.314   4.433   5.640
 8974SOL    HW227822   1.466   4.444   5.582
 8975SOL     OW27823   1.903   7.019   6.132
 8975SOL    HW127824   1.912   7.013   6.232
 8975SOL    HW227825   1.960   0.068   6.098
 8976SOL     OW27826   0.245   4.620   5.080
 8976SOL    HW127827   0.282   4.628   4.987
 8976SOL    HW227828   0.319   4.631   5.146
 8977SOL     OW27829   5.639   2.639   0.245
 8977SOL    HW127830   5.714   2.691   0.204
 8977SOL    HW227831   5.671   2.546   0.267
 8978SOL     OW27832   5.909   0.313   4.958
 8978SOL    HW127833   5.817   0.297   4.994
 8978SOL    HW227834   5.935   0.237   4.898
 8979SOL     OW27835   1.230   3.516   4.297
 8979SOL    HW127836   1.212   3.596   4.354
 8979SOL    HW227837   1.143   3.480   4.263
 8980SOL     OW27838   2.902   2.966   5.652
 8980SOL    HW127839   2.814   3.012   5.659
 8980SOL    HW227840   2.895   2.874   5.691
 8981SOL     OW27841   4.590   1.974   5.613
 8981SOL    HW127842   4.537   1.925   5.545
 8981SOL    HW227843   4.550   2.065   5.627
 8982SOL     OW27844   0.997   2.190   1.082
 8982SOL    HW127845   1.036   2.229   1.165
 8982SOL    HW227846   0.960   2.099   1.102
 8983SOL     OW27847   1.877   6.004   0.244
 8983SOL    HW127848   1.950   5.937   0.238
 8983SOL    HW227849   1.806   5.972   0.307
 8984SOL     OW27850   6.998   0.534   4.443
 8984SOL    HW127851   0.003   0.439   4.452
 8984SOL    HW227852   6.984   0.555   4.346
 8985SOL     OW27853   2.578   2.786   0.606
 8985SOL    HW127854   2.619   2.869   0.645
 8985SOL    HW227855   2.597   2.708   0.665
 8986SOL     OW27856   4.968   5.194   2.450
 8986SOL    HW127857   4.924   5.274   2.409
 8986SOL    HW227858   4.921   5.169   2.534
 8987SOL     OW27859   4.238   6.848   1.429
 8987SOL    HW127860   4.337   6.862   1.429
 8987SOL    HW227861   4.203   6.859   1.336
 8988SOL     OW27862   1.621   3.433   5.594
 8988SOL    HW127863   1.659   3.435   5.686
 8988SOL    HW227864   1.579   3.522   5.573
 8989SOL     OW27865   5.040   3.886   1.232
 8989SOL    HW127866   5.047   3.801   1.285
 8989SOL    HW227867   4.976   3.948   1.278
 8990SOL     OW27868   1.935   6.015   3.187
 8990SOL    HW127869   1.865   5.947   3.207
 8990SOL    HW227870   1.936   6.035   3.089
 8991SOL     OW27871   1.364   2.146   6.503
 8991SOL    HW127872   1.458   2.122   6.476
 8991SOL    HW227873   1.337   2.090   6.581
 8992SOL     OW27874   5.501   1.353   0.312
 8992SOL    HW127875   5.473   1.444   0.283
 8992SOL    HW227876   5.558   1.311   0.241
 8993SOL     OW27877   5.247   2.556   2.242
 8993SOL    HW127878   5.193   2.546   2.326
 8993SOL    HW227879   5.277   2.465   2.211
 8994SOL     OW27880   1.075   4.684   4.823
 8994SOL    HW127881   1.159   4.731   4.849
 8994SOL    HW227882   1.044   4.717   4.734
 8995SOL     OW27883   0.699   3.037   0.130
 8995SOL    HW127884   0.603   3.037   0.103
 8995SOL    HW227885   0.756   3.037   0.048
 8996SOL     OW27886   5.467   5.178   0.634
 8996SOL    HW127887   5.372   5.149   0.648
 8996SOL    HW227888   5.469   5.274   0.607
 8997SOL     OW27889   5.031   1.244   6.023
 8997SOL    HW127890   5.020   1.220   6.119
 8997SOL    HW227891   4.956   1.204   5.970
 8998SOL     OW27892   6.379   3.931   4.333
 8998SOL    HW127893   6.465   3.901   4.373
 8998SOL    HW227894   6.323   3.976   4.402
 8999SOL     OW27895   4.860   6.538   6.791
 8999SOL    HW127896   4.831   6.618   6.739
 8999SOL    HW227897   4.877   6.565   6.886
 9000SOL     OW27898   1.636   4.039   0.888
 9000SOL    HW127899   1.697   4.056   0.966
 9000SOL    HW227900   1.646   3.945   0.858
 9001SOL     OW27901   1.501   5.684   2.124
 9001SOL    HW127902   1.409   5.647   2.139
 9001SOL    HW227903   1.560   5.657   2.200
 9002SOL     OW27904   0.355   4.670   4.844
 9002SOL    HW127905   0.351   4.609   4.766
 9002SOL    HW227906   0.448   4.670   4.881
 9003SOL     OW27907   5.335   3.208   1.679
 9003SOL    HW127908   5.408   3.145   1.705
 9003SOL    HW227909   5.276   3.166   1.610
 9004SOL     OW27910   4.010   6.730   1.559
 9004SOL    HW127911   4.095   6.770   1.526
 9004SOL    HW227912   3.932   6.772   1.511
 9005SOL     OW27913   5.809   2.563   4.119
 9005SOL    HW127914   5.728   2.537   4.171
 9005SOL    HW227915   5.823   2.496   4.045
 9006SOL     OW27916   2.645   6.203   1.260
 9006SOL    HW127917   2.632   6.107   1.285
 9006SOL    HW227918   2.567   6.233   1.204
 9007SOL     OW27919   3.472   0.966   3.820
 9007SOL    HW127920   3.544   0.896   3.821
 9007SOL    HW227921   3.392   0.931   3.867
 9008SOL     OW27922   1.340   5.773   3.751
 9008SOL    HW127923   1.298   5.700   3.806
 9008SOL    HW227924   1.321   5.757   3.655
 9009SOL     OW27925   3.111   6.929   0.994
 9009SOL    HW127926   3.118   0.003   1.005
 9009SOL    HW227927   3.156   6.902   0.909
 9010SOL     OW27928   1.326   6.629   3.727
 9010SOL    HW127929   1.317   6.720   3.766
 9010SOL    HW227930   1.325   6.634   3.628
 9011SOL     OW27931   5.846   1.757   2.312
 9011SOL    HW127932   5.941   1.749   2.343
 9011SOL    HW227933   5.819   1.854   2.313
 9012SOL     OW27934   2.207   3.862   0.797
 9012SOL    HW127935   2.179   3.779   0.844
 9012SOL    HW227936   2.233   3.840   0.702
 9013SOL     OW27937   6.920   6.582   5.149
 9013SOL    HW127938   6.916   6.662   5.089
 9013SOL    HW227939   6.980   6.602   5.227
 9014SOL     OW27940   5.973   1.954   0.204
 9014SOL    HW127941   5.925   1.884   0.152
 9014SOL    HW227942   5.930   2.043   0.189
 9015SOL     OW27943   4.663   1.490   2.115
 9015SOL    HW127944   4.752   1.475   2.071
 9015SOL    HW227945   4.672   1.479   2.213
 9016SOL     OW27946   0.412   6.691   6.573
 9016SOL    HW127947   0.346   6.747   6.522
 9016SOL    HW227948   0.448   6.744   6.650
 9017SOL     OW27949   4.381   2.034   3.351
 9017SOL    HW127950   4.376   2.119   3.298
 9017SOL    HW227951   4.381   1.956   3.289
 9018SOL     OW27952   3.781   2.271   6.550
 9018SOL    HW127953   3.749   2.183   6.586
 9018SOL    HW227954   3.852   2.308   6.609
 9019SOL     OW27955   1.396   6.517   2.025
 9019SOL    HW127956   1.437   6.428   2.045
 9019SOL    HW227957   1.314   6.529   2.081
 9020SOL     OW27958   0.143   3.883   1.313
 9020SOL    HW127959   0.169   3.960   1.255
 9020SOL    HW227960   0.220   3.820   1.322
 9021SOL     OW27961   6.613   6.999   3.340
 9021SOL    HW127962   6.651   6.907   3.328
 9021SOL    HW227963   6.688   0.039   3.346
 9022SOL     OW27964   3.219   1.955   6.897
 9022SOL    HW127965   3.186   1.895   6.824
 9022SOL    HW227966   3.318   1.944   6.907
 9023SOL     OW27967   3.612   3.118   2.614
 9023SOL    HW127968   3.703   3.075   2.616
 9023SOL    HW227969   3.622   3.216   2.595
 9024SOL     OW27970   0.870   4.750   4.993
 9024SOL    HW127971   0.945   4.733   4.929
 9024SOL    HW227972   0.901   4.731   5.086
 9025SOL     OW27973   0.510   5.262   0.446
 9025SOL    HW127974   0.537   5.353   0.416
 9025SOL    HW227975   0.499   5.202   0.367
 9026SOL     OW27976   4.386   3.070   0.828
 9026SOL    HW127977   4.314   3.089   0.761
 9026SOL    HW227978   4.399   2.971   0.836
 9027SOL     OW27979   1.385   2.394   3.420
 9027SOL    HW127980   1.365   2.421   3.326
 9027SOL    HW227981   1.360   2.298   3.433
 9028SOL     OW27982   2.906   3.708   5.578
 9028SOL    HW127983   2.891   3.801   5.545
 9028SOL    HW227984   2.818   3.663   5.593
 9029SOL     OW27985   4.075   6.322   5.264
 9029SOL    HW127986   4.106   6.319   5.169
 9029SOL    HW227987   4.121   6.396   5.312
 9030SOL     OW27988   2.612   1.634   3.562
 9030SOL    HW127989   2.695   1.685   3.539
 9030SOL    HW227990   2.637   1.545   3.601
 9031SOL     OW27991   4.178   5.783   4.339
 9031SOL    HW127992   4.222   5.787   4.429
 9031SOL    HW227993   4.147   5.690   4.322
 9032SOL     OW27994   3.803   3.745   0.612
 9032SOL    HW127995   3.761   3.712   0.697
 9032SOL    HW227996   3.741   3.726   0.536
 9033SOL     OW27997   0.375   3.927   3.017
 9033SOL    HW127998   0.441   3.979   3.071
 9033SOL    HW227999   0.285   3.931   3.060
 9034SOL     OW28000   3.342   0.201   5.059
 9034SOL    HW128001   3.409   0.244   5.121
 9034SOL    HW228002   3.340   0.103   5.076
 9035SOL     OW28003   1.960   5.223   6.524
 9035SOL    HW128004   1.982   5.162   6.448
 9035SOL    HW228005   2.043   5.243   6.576
 9036SOL     OW28006   1.530   1.647   5.556
 9036SOL    HW128007   1.484   1.620   5.471
 9036SOL    HW228008   1.623   1.612   5.557
 9037SOL     OW28009   1.268   4.101   4.816
 9037SOL    HW128010   1.363   4.080   4.838
 9037SOL    HW228011   1.264   4.140   4.724
 9038SOL     OW28012   4.048   0.330   6.055
 9038SOL    HW128013   4.142   0.299   6.068
 9038SOL    HW228014   4.023   0.393   6.129
 9039SOL     OW28015   2.814   5.739   5.304
 9039SOL    HW128016   2.866   5.666   5.348
 9039SOL    HW228017   2.839   5.827   5.344
 9040SOL     OW28018   3.306   2.004   2.603
 9040SOL    HW128019   3.299   2.052   2.516
 9040SOL    HW228020   3.218   2.008   2.651
 9041SOL     OW28021   1.112   2.115   1.408
 9041SOL    HW128022   1.086   2.170   1.488
 9041SOL    HW228023   1.064   2.027   1.411
 9042SOL     OW28024   3.441   0.528   4.429
 9042SOL    HW128025   3.514   0.527   4.361
 9042SOL    HW228026   3.464   0.466   4.504
 9043SOL     OW28027   1.371   0.998   0.208
 9043SOL    HW128028   1.433   0.919   0.212
 9043SOL    HW228029   1.278   0.968   0.228
 9044SOL     OW28030   6.255   0.475   0.226
 9044SOL    HW128031   6.325   0.545   0.214
 9044SOL    HW228032   6.297   0.385   0.225
 9045SOL     OW28033   2.446   1.588   2.436
 9045SOL    HW128034   2.387   1.511   2.412
 9045SOL    HW228035   2.496   1.567   2.520
 9046SOL     OW28036   3.359   3.629   3.228
 9046SOL    HW128037   3.282   3.601   3.285
 9046SOL    HW228038   3.431   3.560   3.231
 9047SOL     OW28039   1.892   3.605   5.636
 9047SOL    HW128040   1.953   3.626   5.560
 9047SOL    HW228041   1.803   3.577   5.601
 9048SOL     OW28042   5.079   3.409   6.546
 9048SOL    HW128043   4.991   3.389   6.504
 9048SOL    HW228044   5.142   3.446   6.478
 9049SOL     OW28045   3.566   6.975   5.642
 9049SOL    HW128046   3.473   6.973   5.679
 9049SOL    HW228047   3.620   0.018   5.689
 9050SOL     OW28048   0.060   3.171   0.886
 9050SOL    HW128049   0.147   3.129   0.916
 9050SOL    HW228050   0.074   3.268   0.870
 9051SOL     OW28051   3.671   6.816   0.983
 9051SOL    HW128052   3.594   6.860   0.938
 9051SOL    HW228053   3.748   6.879   0.987
 9052SOL     OW28054   2.673   2.441   4.247
 9052SOL    HW128055   2.658   2.534   4.279
 9052SOL    HW228056   2.615   2.423   4.168
 9053SOL     OW28057   2.068   0.759   2.688
 9053SOL    HW128058   2.053   0.664   2.664
 9053SOL    HW228059   1.986   0.796   2.732
 9054SOL     OW28060   2.881   5.778   3.489
 9054SOL    HW128061   2.937   5.855   3.518
 9054SOL    HW228062   2.940   5.700   3.468
 9055SOL     OW28063   6.121   2.814   4.150
 9055SOL    HW128064   6.159   2.907   4.148
 9055SOL    HW228065   6.067   2.802   4.233
 9056SOL     OW28066   0.647   1.480   2.215
 9056SOL    HW128067   0.709   1.458   2.141
 9056SOL    HW228068   0.686   1.554   2.271
 9057SOL     OW28069   4.996   4.163   6.456
 9057SOL    HW128070   4.931   4.211   6.513
 9057SOL    HW228071   4.964   4.069   6.440
 9058SOL     OW28072   1.791   1.374   1.771
 9058SOL    HW128073   1.796   1.286   1.819
 9058SOL    HW228074   1.791   1.448   1.837
 9059SOL     OW28075   1.278   2.085   4.093
 9059SOL    HW128076   1.343   2.092   4.169
 9059SOL    HW228077   1.217   2.165   4.094
 9060SOL     OW28078   6.099   2.527   3.372
 9060SOL    HW128079   6.145   2.499   3.288
 9060SOL    HW228080   6.086   2.626   3.372
 9061SOL     OW28081   2.081   4.986   1.984
 9061SOL    HW128082   2.047   4.951   1.896
 9061SOL    HW228083   2.181   4.979   1.985
 9062SOL     OW28084   1.865   6.324   2.113
 9062SOL    HW128085   1.847   6.261   2.037
 9062SOL    HW228086   1.938   6.286   2.170
 9063SOL     OW28087   3.107   0.098   3.058
 9063SOL    HW128088   3.193   0.049   3.074
 9063SOL    HW228089   3.109   0.138   2.966
 9064SOL     OW28090   6.436   2.478   5.411
 9064SOL    HW128091   6.464   2.395   5.363
 9064SOL    HW228092   6.467   2.558   5.359
 9065SOL     OW28093   3.485   0.472   5.137
 9065SOL    HW128094   3.546   0.448   5.212
 9065SOL    HW228095   3.403   0.515   5.173
 9066SOL     OW28096   4.218   6.081   0.814
 9066SOL    HW128097   4.179   5.989   0.818
 9066SOL    HW228098   4.282   6.093   0.890
 9067SOL     OW28099   0.316   0.527   4.545
 9067SOL    HW128100   0.256   0.488   4.475
 9067SOL    HW228101   0.410   0.527   4.512
 9068SOL     OW28102   2.585   6.639   4.577
 9068SOL    HW128103   2.638   6.599   4.502
 9068SOL    HW228104   2.529   6.714   4.542
 9069SOL     OW28105   1.463   3.444   1.352
 9069SOL    HW128106   1.425   3.524   1.399
 9069SOL    HW228107   1.457   3.364   1.413
 9070SOL     OW28108   1.342   3.256   4.776
 9070SOL    HW128109   1.245   3.237   4.766
 9070SOL    HW228110   1.395   3.186   4.727
 9071SOL     OW28111   6.193   6.681   1.421
 9071SOL    HW128112   6.248   6.600   1.440
 9071SOL    HW228113   6.102   6.653   1.389
 9072SOL     OW28114   6.951   2.028   1.480
 9072SOL    HW128115   6.900   2.091   1.539
 9072SOL    HW228116   6.902   1.941   1.475
 9073SOL     OW28117   3.150   6.820   2.442
 9073SOL    HW128118   3.152   6.781   2.534
 9073SOL    HW228119   3.232   6.791   2.392
 9074SOL     OW28120   1.579   1.971   2.224
 9074SOL    HW128121   1.557   2.035   2.151
 9074SOL    HW228122   1.664   1.923   2.202
 9075SOL     OW28123   0.545   1.195   1.555
 9075SOL    HW128124   0.487   1.114   1.542
 9075SOL    HW228125   0.585   1.194   1.646
 9076SOL     OW28126   6.698   2.632   5.746
 9076SOL    HW128127   6.728   2.727   5.741
 9076SOL    HW228128   6.602   2.629   5.775
 9077SOL     OW28129   4.395   0.604   0.071
 9077SOL    HW128130   4.477   0.586   0.126
 9077SOL    HW228131   4.418   0.666   7.022
 9078SOL     OW28132   4.050   3.238   6.225
 9078SOL    HW128133   4.127   3.254   6.287
 9078SOL    HW228134   4.084   3.201   6.139
 9079SOL     OW28135   3.478   0.031   4.306
 9079SOL    HW128136   3.481   0.125   4.270
 9079SOL    HW228137   3.451   6.994   4.234
 9080SOL     OW28138   4.580   2.498   6.499
 9080SOL    HW128139   4.510   2.502   6.571
 9080SOL    HW228140   4.550   2.437   6.426
 9081SOL     OW28141   4.327   0.350   2.254
 9081SOL    HW128142   4.252   0.410   2.228
 9081SOL    HW228143   4.326   0.337   2.354
 9082SOL     OW28144   2.348   0.506   5.348
 9082SOL    HW128145   2.358   0.487   5.445
 9082SOL    HW228146   2.418   0.572   5.319
 9083SOL     OW28147   3.198   5.217   6.323
 9083SOL    HW128148   3.195   5.314   6.298
 9083SOL    HW228149   3.204   5.162   6.240
 9084SOL     OW28150   3.419   4.143   3.902
 9084SOL    HW128151   3.393   4.145   3.806
 9084SOL    HW228152   3.349   4.191   3.956
 9085SOL     OW28153   2.071   0.431   1.735
 9085SOL    HW128154   1.982   0.400   1.702
 9085SOL    HW228155   2.092   0.385   1.821
 9086SOL     OW28156   0.741   4.573   6.925
 9086SOL    HW128157   0.665   4.620   6.879
 9086SOL    HW228158   0.721   4.476   6.930
 9087SOL     OW28159   4.393   2.115   1.299
 9087SOL    HW128160   4.456   2.044   1.330
 9087SOL    HW228161   4.381   2.184   1.371
 9088SOL     OW28162   6.901   6.800   1.610
 9088SOL    HW128163   6.985   6.749   1.621
 9088SOL    HW228164   6.922   6.894   1.581
 9089SOL     OW28165   5.514   5.787   5.830
 9089SOL    HW128166   5.422   5.821   5.812
 9089SOL    HW228167   5.510   5.714   5.898
 9090SOL     OW28168   7.016   1.129   4.763
 9090SOL    HW128169   7.000   1.216   4.717
 9090SOL    HW228170   6.932   1.099   4.807
 9091SOL     OW28171   2.695   4.161   0.507
 9091SOL    HW128172   2.791   4.187   0.490
 9091SOL    HW228173   2.637   4.205   0.439
 9092SOL     OW28174   6.425   0.871   6.725
 9092SOL    HW128175   6.338   0.842   6.766
 9092SOL    HW228176   6.420   0.860   6.626
 9093SOL     OW28177   0.893   5.781   5.721
 9093SOL    HW128178   0.904   5.729   5.806
 9093SOL    HW228179   0.872   5.719   5.646
 9094SOL     OW28180   6.290   4.841   2.756
 9094SOL    HW128181   6.193   4.844   2.779
 9094SOL    HW228182   6.317   4.746   2.739
 9095SOL     OW28183   5.205   4.840   5.900
 9095SOL    HW128184   5.136   4.774   5.870
 9095SOL    HW228185   5.200   4.852   5.999
 9096SOL     OW28186   6.475   5.052   2.488
 9096SOL    HW128187   6.443   5.138   2.447
 9096SOL    HW228188   6.522   4.998   2.418
 9097SOL     OW28189   1.772   1.636   0.525
 9097SOL    HW128190   1.801   1.637   0.430
 9097SOL    HW228191   1.819   1.709   0.575
 9098SOL     OW28192   3.030   2.196   4.805
 9098SOL    HW128193   2.949   2.255   4.804
 9098SOL    HW228194   3.086   2.217   4.885
 9099SOL     OW28195   3.335   3.295   6.337
 9099SOL    HW128196   3.356   3.285   6.240
 9099SOL    HW228197   3.239   3.321   6.348
 9100SOL     OW28198   0.065   3.492   3.666
 9100SOL    HW128199   0.005   3.557   3.619
 9100SOL    HW228200   0.130   3.542   3.723
 9101SOL     OW28201   2.690   2.553   1.772
 9101SOL    HW128202   2.779   2.534   1.813
 9101SOL    HW228203   2.637   2.614   1.832
 9102SOL     OW28204   3.692   6.525   2.115
 9102SOL    HW128205   3.666   6.576   2.033
 9102SOL    HW228206   3.791   6.528   2.126
 9103SOL     OW28207   5.624   1.724   6.642
 9103SOL    HW128208   5.635   1.664   6.721
 9103SOL    HW228209   5.592   1.814   6.673
 9104SOL     OW28210   6.922   6.483   1.770
 9104SOL    HW128211   6.979   6.420   1.718
 9104SOL    HW228212   6.856   6.527   1.708
 9105SOL     OW28213   0.685   0.541   5.633
 9105SOL    HW128214   0.753   0.556   5.705
 9105SOL    HW228215   0.682   0.620   5.572
 9106SOL     OW28216   6.049   3.069   1.342
 9106SOL    HW128217   6.117   3.126   1.388
 9106SOL    HW228218   5.960   3.080   1.386
 9107SOL     OW28219   2.412   0.687   6.480
 9107SOL    HW128220   2.456   0.685   6.570
 9107SOL    HW228221   2.464   0.630   6.416
 9108SOL     OW28222   4.805   4.568   5.366
 9108SOL    HW128223   4.787   4.573   5.268
 9108SOL    HW228224   4.882   4.628   5.389
 9109SOL     OW28225   5.421   3.638   2.890
 9109SOL    HW128226   5.392   3.677   2.977
 9109SOL    HW228227   5.343   3.596   2.843
 9110SOL     OW28228   1.640   5.575   4.503
 9110SOL    HW128229   1.655   5.593   4.600
 9110SOL    HW228230   1.704   5.630   4.449
 9111SOL     OW28231   4.490   2.861   0.109
 9111SOL    HW128232   4.511   2.857   0.206
 9111SOL    HW228233   4.396   2.892   0.096
 9112SOL     OW28234   1.554   5.304   2.431
 9112SOL    HW128235   1.550   5.208   2.459
 9112SOL    HW228236   1.618   5.353   2.491
 9113SOL     OW28237   5.570   2.866   2.721
 9113SOL    HW128238   5.510   2.943   2.699
 9113SOL    HW228239   5.527   2.808   2.790
 9114SOL     OW28240   7.017   5.200   3.641
 9114SOL    HW128241   6.949   5.203   3.568
 9114SOL    HW228242   0.083   5.189   3.601
 9115SOL     OW28243   5.964   5.700   5.084
 9115SOL    HW128244   5.889   5.656   5.033
 9115SOL    HW228245   6.017   5.630   5.131
 9116SOL     OW28246   0.555   6.916   3.079
 9116SOL    HW128247   0.641   6.887   3.122
 9116SOL    HW228248   0.481   6.855   3.108
 9117SOL     OW28249   3.649   2.667   6.469
 9117SOL    HW128250   3.708   2.629   6.541
 9117SOL    HW228251   3.625   2.594   6.404
 9118SOL     OW28252   6.426   3.244   0.396
 9118SOL    HW128253   6.403   3.177   0.467
 9118SOL    HW228254   6.422   3.201   0.306
 9119SOL     OW28255   3.670   1.224   1.645
 9119SOL    HW128256   3.680   1.171   1.561
 9119SOL    HW228257   3.578   1.211   1.682
 9120SOL     OW28258   6.980   2.306   5.902
 9120SOL    HW128259   6.961   2.208   5.915
 9120SOL    HW228260   0.024   2.335   5.967
 9121SOL     OW28261   3.510   6.054   5.231
 9121SOL    HW128262   3.485   6.127   5.168
 9121SOL    HW228263   3.452   6.059   5.313
 9122SOL     OW28264   2.425   4.429   2.323
 9122SOL    HW128265   2.506   4.448   2.379
 9122SOL    HW228266   2.423   4.332   2.299
 9123SOL     OW28267   1.417   0.544   4.322
 9123SOL    HW128268   1.456   0.535   4.230
 9123SOL    HW228269   1.430   0.637   4.355
 9124SOL     OW28270   3.749   5.240   1.633
 9124SOL    HW128271   3.673   5.200   1.582
 9124SOL    HW228272   3.789   5.171   1.693
 9125SOL     OW28273   4.097   4.225   1.124
 9125SOL    HW128274   4.058   4.217   1.215
 9125SOL    HW228275   4.024   4.243   1.058
 9126SOL     OW28276   4.460   3.975   1.236
 9126SOL    HW128277   4.534   4.009   1.294
 9126SOL    HW228278   4.382   3.951   1.293
 9127SOL     OW28279   6.836   2.499   5.238
 9127SOL    HW128280   6.912   2.557   5.210
 9127SOL    HW228281   6.842   2.481   5.337
 9128SOL     OW28282   5.896   2.340   5.101
 9128SOL    HW128283   5.918   2.254   5.147
 9128SOL    HW228284   5.807   2.331   5.056
 9129SOL     OW28285   6.495   1.873   0.181
 9129SOL    HW128286   6.399   1.847   0.190
 9129SOL    HW228287   6.506   1.931   0.100
 9130SOL     OW28288   1.230   4.821   5.844
 9130SOL    HW128289   1.191   4.797   5.755
 9130SOL    HW228290   1.212   4.748   5.909
 9131SOL     OW28291   5.062   3.158   6.653
 9131SOL    HW128292   4.971   3.120   6.635
 9131SOL    HW228293   5.064   3.254   6.626
 9132SOL     OW28294   1.002   4.735   4.576
 9132SOL    HW128295   0.972   4.640   4.576
 9132SOL    HW228296   1.099   4.740   4.553
 9133SOL     OW28297   3.442   0.831   1.061
 9133SOL    HW128298   3.399   0.918   1.035
 9133SOL    HW228299   3.494   0.844   1.146
 9134SOL     OW28300   4.790   5.286   1.593
 9134SOL    HW128301   4.690   5.294   1.601
 9134SOL    HW228302   4.812   5.217   1.524
 9135SOL     OW28303   1.141   6.544   2.123
 9135SOL    HW128304   1.116   6.635   2.156
 9135SOL    HW228305   1.058   6.494   2.099
 9136SOL     OW28306   4.524   5.714   5.459
 9136SOL    HW128307   4.495   5.646   5.527
 9136SOL    HW228308   4.460   5.791   5.460
 9137SOL     OW28309   3.895   0.243   0.011
 9137SOL    HW128310   3.943   0.190   6.967
 9137SOL    HW228311   3.943   0.236   0.098
 9138SOL     OW28312   1.257   3.698   6.744
 9138SOL    HW128313   1.314   3.780   6.745
 9138SOL    HW228314   1.314   3.617   6.757
 9139SOL     OW28315   1.110   1.360   1.989
 9139SOL    HW128316   1.109   1.281   2.051
 9139SOL    HW228317   1.165   1.338   1.909
 9140SOL     OW28318   0.634   5.024   2.517
 9140SOL    HW128319   0.601   5.082   2.592
 9140SOL    HW228320   0.624   5.073   2.430
 9141SOL     OW28321   0.170   5.982   6.538
 9141SOL    HW128322   0.119   6.028   6.466
 9141SOL    HW228323   0.122   5.899   6.565
 9142SOL     OW28324   0.494   3.212   1.905
 9142SOL    HW128325   0.426   3.265   1.856
 9142SOL    HW228326   0.461   3.193   1.998
 9143SOL     OW28327   0.352   4.106   1.251
 9143SOL    HW128328   0.267   4.126   1.202
 9143SOL    HW228329   0.389   4.191   1.289
 9144SOL     OW28330   3.433   5.009   4.637
 9144SOL    HW128331   3.334   4.997   4.633
 9144SOL    HW228332   3.465   4.996   4.731
 9145SOL     OW28333   1.518   6.161   6.881
 9145SOL    HW128334   1.535   6.250   6.921
 9145SOL    HW228335   1.604   6.121   6.848
 9146SOL     OW28336   4.933   3.233   2.983
 9146SOL    HW128337   5.010   3.296   2.976
 9146SOL    HW228338   4.906   3.203   2.891
 9147SOL     OW28339   6.784   0.760   4.787
 9147SOL    HW128340   6.702   0.808   4.818
 9147SOL    HW228341   6.758   0.680   4.734
 9148SOL     OW28342   5.575   0.074   1.975
 9148SOL    HW128343   5.617   0.047   1.889
 9148SOL    HW228344   5.633   0.044   2.051
 9149SOL     OW28345   5.491   3.425   2.013
 9149SOL    HW128346   5.581   3.404   1.975
 9149SOL    HW228347   5.461   3.349   2.071
 9150SOL     OW28348   3.481   4.168   0.408
 9150SOL    HW128349   3.424   4.139   0.331
 9150SOL    HW228350   3.446   4.255   0.444
 9151SOL     OW28351   2.165   3.746   3.989
 9151SOL    HW128352   2.258   3.741   3.954
 9151SOL    HW228353   2.164   3.795   4.076
 9152SOL     OW28354   1.656   4.330   4.370
 9152SOL    HW128355   1.689   4.253   4.315
 9152SOL    HW228356   1.684   4.318   4.465
 9153SOL     OW28357   0.406   3.081   6.807
 9153SOL    HW128358   0.368   3.103   6.717
 9153SOL    HW228359   0.340   3.108   6.877
 9154SOL     OW28360   4.891   4.557   3.775
 9154SOL    HW128361   4.939   4.582   3.691
 9154SOL    HW228362   4.809   4.505   3.753
 9155SOL     OW28363   1.993   4.501   2.992
 9155SOL    HW128364   1.917   4.515   3.054
 9155SOL    HW228365   2.065   4.569   3.011
 9156SOL     OW28366   6.587   2.921   1.251
 9156SOL    HW128367   6.559   3.015   1.270
 9156SOL    HW228368   6.635   2.918   1.163
 9157SOL     OW28369   2.929   4.478   6.871
 9157SOL    HW128370   3.028   4.492   6.860
 9157SOL    HW228371   2.891   4.443   6.785
 9158SOL     OW28372   6.869   4.334   4.091
 9158SOL    HW128373   6.871   4.406   4.160
 9158SOL    HW228374   6.787   4.345   4.034
 9159SOL     OW28375   1.910   0.295   3.420
 9159SOL    HW128376   1.918   0.299   3.520
 9159SOL    HW228377   1.835   0.233   3.395
 9160SOL     OW28378   0.379   5.109   5.718
 9160SOL    HW128379   0.343   5.176   5.652
 9160SOL    HW228380   0.438   5.155   5.784
 9161SOL     OW28381   6.151   5.092   3.231
 9161SOL    HW128382   6.168   5.189   3.219
 9161SOL    HW228383   6.150   5.046   3.142
 9162SOL     OW28384   3.696   0.473   3.040
 9162SOL    HW128385   3.693   0.566   3.078
 9162SOL    HW228386   3.603   0.441   3.026
 9163SOL     OW28387   6.987   3.467   2.240
 9163SOL    HW128388   0.020   3.388   2.220
 9163SOL    HW228389   6.937   3.493   2.158
 9164SOL     OW28390   1.878   0.937   6.789
 9164SOL    HW128391   1.941   0.862   6.766
 9164SOL    HW228392   1.784   0.908   6.772
 9165SOL     OW28393   4.827   1.945   5.769
 9165SOL    HW128394   4.740   1.976   5.729
 9165SOL    HW228395   4.849   1.855   5.732
 9166SOL     OW28396   4.054   5.157   1.078
 9166SOL    HW128397   4.009   5.068   1.072
 9166SOL    HW228398   3.988   5.226   1.108
 9167SOL     OW28399   1.283   2.418   6.068
 9167SOL    HW128400   1.374   2.415   6.108
 9167SOL    HW228401   1.287   2.462   5.978
 9168SOL     OW28402   6.687   5.739   6.293
 9168SOL    HW128403   6.604   5.683   6.283
 9168SOL    HW228404   6.682   5.818   6.232
 9169SOL     OW28405   6.660   5.908   6.040
 9169SOL    HW128406   6.635   5.834   5.977
 9169SOL    HW228407   6.673   5.993   5.989
 9170SOL     OW28408   1.680   1.469   6.366
 9170SOL    HW128409   1.621   1.523   6.425
 9170SOL    HW228410   1.734   1.530   6.308
 9171SOL     OW28411   2.624   5.486   0.770
 9171SOL    HW128412   2.582   5.530   0.691
 9171SOL    HW228413   2.647   5.554   0.839
 9172SOL     OW28414   4.397   1.920   4.587
 9172SOL    HW128415   4.492   1.948   4.568
 9172SOL    HW228416   4.353   1.891   4.502
 9173SOL     OW28417   6.108   2.739   4.768
 9173SOL    HW128418   6.157   2.817   4.728
 9173SOL    HW228419   6.014   2.740   4.735
 9174SOL     OW28420   0.824   5.979   0.004
 9174SOL    HW128421   0.891   6.040   0.046
 9174SOL    HW228422   0.776   6.027   6.956
 9175SOL     OW28423   1.497   6.693   0.131
 9175SOL    HW128424   1.483   6.638   0.048
 9175SOL    HW228425   1.426   6.671   0.198
 9176SOL     OW28426   2.414   6.887   1.836
 9176SOL    HW128427   2.470   6.945   1.777
 9176SOL    HW228428   2.469   6.856   1.914
 9177SOL     OW28429   1.551   2.358   3.758
 9177SOL    HW128430   1.625   2.292   3.768
 9177SOL    HW228431   1.545   2.414   3.840
 9178SOL     OW28432   2.294   5.340   6.367
 9178SOL    HW128433   2.379   5.383   6.398
 9178SOL    HW228434   2.301   5.241   6.378
 9179SOL     OW28435   2.566   5.921   4.713
 9179SOL    HW128436   2.483   5.949   4.762
 9179SOL    HW228437   2.626   5.871   4.775
 9180SOL     OW28438   6.909   2.186   3.942
 9180SOL    HW128439   6.816   2.168   3.974
 9180SOL    HW228440   6.907   2.207   3.844
 9181SOL     OW28441   5.010   2.692   3.298
 9181SOL    HW128442   5.091   2.676   3.354
 9181SOL    HW228443   4.929   2.693   3.357
 9182SOL     OW28444   3.073   1.149   2.972
 9182SOL    HW128445   3.111   1.216   3.035
 9182SOL    HW228446   3.133   1.138   2.893
 9183SOL     OW28447   4.718   3.769   6.112
 9183SOL    HW128448   4.685   3.715   6.036
 9183SOL    HW228449   4.701   3.721   6.198
 9184SOL     OW28450   3.927   2.080   0.700
 9184SOL    HW128451   3.995   2.026   0.750
 9184SOL    HW228452   3.883   2.023   0.632
 9185SOL     OW28453   0.768   6.652   6.734
 9185SOL    HW128454   0.768   6.585   6.660
 9185SOL    HW228455   0.705   6.623   6.806
 9186SOL     OW28456   4.593   0.579   5.612
 9186SOL    HW128457   4.653   0.628   5.548
 9186SOL    HW228458   4.649   0.540   5.685
 9187SOL     OW28459   4.776   2.219   6.646
 9187SOL    HW128460   4.790   2.158   6.568
 9187SOL    HW228461   4.752   2.164   6.727
 9188SOL     OW28462   1.864   0.706   1.393
 9188SOL    HW128463   1.773   0.743   1.410
 9188SOL    HW228464   1.931   0.781   1.391
 9189SOL     OW28465   3.191   0.884   3.951
 9189SOL    HW128466   3.173   0.865   3.855
 9189SOL    HW228467   3.104   0.900   3.998
 9190SOL     OW28468   6.458   3.761   5.545
 9190SOL    HW128469   6.521   3.832   5.578
 9190SOL    HW228470   6.490   3.671   5.575
 9191SOL     OW28471   4.791   6.531   0.096
 9191SOL    HW128472   4.878   6.548   0.051
 9191SOL    HW228473   4.803   6.537   0.195
 9192SOL     OW28474   6.268   4.037   6.198
 9192SOL    HW128475   6.276   3.940   6.175
 9192SOL    HW228476   6.228   4.086   6.120
 9193SOL     OW28477   3.239   3.607   3.847
 9193SOL    HW128478   3.226   3.706   3.854
 9193SOL    HW228479   3.288   3.586   3.762
 9194SOL     OW28480   3.522   5.834   1.937
 9194SOL    HW128481   3.497   5.868   1.846
 9194SOL    HW228482   3.438   5.815   1.988
 9195SOL     OW28483   2.037   2.756   3.343
 9195SOL    HW128484   2.000   2.664   3.333
 9195SOL    HW228485   1.963   2.823   3.340
 9196SOL     OW28486   5.279   0.352   3.845
 9196SOL    HW128487   5.323   0.406   3.773
 9196SOL    HW228488   5.348   0.302   3.897
 9197SOL     OW28489   3.390   3.981   1.106
 9197SOL    HW128490   3.322   3.922   1.063
 9197SOL    HW228491   3.397   3.958   1.203
 9198SOL     OW28492   5.592   4.022   6.223
 9198SOL    HW128493   5.594   4.065   6.314
 9198SOL    HW228494   5.629   3.929   6.229
 9199SOL     OW28495   0.795   3.330   6.053
 9199SOL    HW128496   0.819   3.427   6.064
 9199SOL    HW228497   0.698   3.317   6.070
 9200SOL     OW28498   1.361   6.006   6.700
 9200SOL    HW128499   1.422   5.954   6.640
 9200SOL    HW228500   1.416   6.058   6.766
 9201SOL     OW28501   0.770   3.992   1.391
 9201SOL    HW128502   0.759   3.931   1.313
 9201SOL    HW228503   0.695   3.977   1.456
 9202SOL     OW28504   2.023   5.639   4.521
 9202SOL    HW128505   2.075   5.714   4.559
 9202SOL    HW228506   2.084   5.578   4.471
 9203SOL     OW28507   5.049   2.499   6.461
 9203SOL    HW128508   5.094   2.461   6.380
 9203SOL    HW228509   5.059   2.598   6.462
 9204SOL     OW28510   5.349   3.838   3.626
 9204SOL    HW128511   5.423   3.779   3.658
 9204SOL    HW228512   5.277   3.782   3.584
 9205SOL     OW28513   5.347   3.168   2.155
 9205SOL    HW128514   5.265   3.164   2.098
 9205SOL    HW228515   5.322   3.200   2.247
 9206SOL     OW28516   3.243   0.214   4.618
 9206SOL    HW128517   3.204   0.180   4.532
 9206SOL    HW228518   3.330   0.258   4.599
 9207SOL     OW28519   3.706   6.492   5.817
 9207SOL    HW128520   3.615   6.480   5.856
 9207SOL    HW228521   3.770   6.427   5.859
 9208SOL     OW28522   5.297   3.701   2.245
 9208SOL    HW128523   5.207   3.661   2.226
 9208SOL    HW228524   5.356   3.690   2.164
 9209SOL     OW28525   4.108   0.713   1.869
 9209SOL    HW128526   4.116   0.782   1.941
 9209SOL    HW228527   4.085   0.624   1.911
 9210SOL     OW28528   1.751   0.433   1.076
 9210SOL    HW128529   1.673   0.376   1.100
 9210SOL    HW228530   1.836   0.386   1.100
 9211SOL     OW28531   5.230   2.184   6.266
 9211SOL    HW128532   5.211   2.120   6.191
 9211SOL    HW228533   5.272   2.135   6.342
 9212SOL     OW28534   4.875   4.338   5.073
 9212SOL    HW128535   4.836   4.429   5.086
 9212SOL    HW228536   4.812   4.270   5.111
 9213SOL     OW28537   5.489   6.486   4.216
 9213SOL    HW128538   5.501   6.580   4.247
 9213SOL    HW228539   5.494   6.424   4.295
 9214SOL     OW28540   0.789   2.452   5.261
 9214SOL    HW128541   0.730   2.454   5.180
 9214SOL    HW228542   0.778   2.538   5.312
 9215SOL     OW28543   0.332   4.022   2.332
 9215SOL    HW128544   0.356   4.118   2.340
 9215SOL    HW228545   0.377   3.970   2.405
 9216SOL     OW28546   2.400   6.560   4.798
 9216SOL    HW128547   2.369   6.466   4.784
 9216SOL    HW228548   2.458   6.587   4.721
 9217SOL     OW28549   5.617   1.521   6.824
 9217SOL    HW128550   5.613   1.436   6.876
 9217SOL    HW228551   5.556   1.515   6.744
 9218SOL     OW28552   4.063   0.294   6.650
 9218SOL    HW128553   4.129   0.246   6.708
 9218SOL    HW228554   4.003   0.227   6.606
 9219SOL     OW28555   4.223   3.109   5.377
 9219SOL    HW128556   4.181   3.114   5.467
 9219SOL    HW228557   4.156   3.077   5.310
 9220SOL     OW28558   2.050   5.876   2.385
 9220SOL    HW128559   1.995   5.863   2.468
 9220SOL    HW228560   2.144   5.847   2.402
 9221SOL     OW28561   2.643   0.464   5.617
 9221SOL    HW128562   2.619   0.384   5.671
 9221SOL    HW228563   2.648   0.544   5.677
 9222SOL     OW28564   2.228   4.482   4.412
 9222SOL    HW128565   2.211   4.403   4.353
 9222SOL    HW228566   2.157   4.487   4.482
 9223SOL     OW28567   0.822   2.969   3.774
 9223SOL    HW128568   0.858   2.972   3.867
 9223SOL    HW228569   0.889   3.009   3.711
 9224SOL     OW28570   1.448   3.248   3.939
 9224SOL    HW128571   1.395   3.317   3.987
 9224SOL    HW228572   1.543   3.279   3.931
 9225SOL     OW28573   3.584   6.908   6.493
 9225SOL    HW128574   3.675   6.867   6.501
 9225SOL    HW228575   3.553   6.902   6.399
 9226SOL     OW28576   1.225   0.241   1.640
 9226SOL    HW128577   1.289   0.302   1.686
 9226SOL    HW228578   1.275   0.171   1.589
 9227SOL     OW28579   1.880   4.842   1.613
 9227SOL    HW128580   1.844   4.870   1.524
 9227SOL    HW228581   1.975   4.873   1.621
 9228SOL     OW28582   2.173   2.692   6.025
 9228SOL    HW128583   2.270   2.670   6.029
 9228SOL    HW228584   2.161   2.785   5.988
 9229SOL     OW28585   1.396   5.038   6.664
 9229SOL    HW128586   1.319   4.975   6.665
 9229SOL    HW228587   1.437   5.040   6.573
 9230SOL     OW28588   4.934   2.805   3.811
 9230SOL    HW128589   5.016   2.765   3.769
 9230SOL    HW228590   4.938   2.791   3.910
 9231SOL     OW28591   1.123   5.036   6.015
 9231SOL    HW128592   1.151   4.997   5.927
 9231SOL    HW228593   1.039   4.991   6.046
 9232SOL     OW28594   1.953   5.111   1.377
 9232SOL    HW128595   1.935   5.192   1.322
 9232SOL    HW228596   1.867   5.066   1.400
 9233SOL     OW28597   0.956   6.969   0.676
 9233SOL    HW128598   0.972   6.873   0.700
 9233SOL    HW228599   1.042   7.020   0.683
 9234SOL     OW28600   2.401   5.222   0.619
 9234SOL    HW128601   2.410   5.241   0.717
 9234SOL    HW228602   2.397   5.308   0.568
 9235SOL     OW28603   2.436   2.204   3.662
 9235SOL    HW128604   2.472   2.296   3.647
 9235SOL    HW228605   2.373   2.182   3.587
 9236SOL     OW28606   2.241   3.465   6.762
 9236SOL    HW128607   2.237   3.564   6.750
 9236SOL    HW228608   2.202   3.441   6.851
 9237SOL     OW28609   0.258   5.964   2.723
 9237SOL    HW128610   0.202   5.979   2.806
 9237SOL    HW228611   0.329   5.897   2.743
 9238SOL     OW28612   3.146   2.416   5.974
 9238SOL    HW128613   3.047   2.427   5.983
 9238SOL    HW228614   3.186   2.503   5.946
 9239SOL     OW28615   6.599   4.427   6.113
 9239SOL    HW128616   6.559   4.349   6.161
 9239SOL    HW228617   6.639   4.490   6.179
 9240SOL     OW28618   5.278   3.223   2.771
 9240SOL    HW128619   5.192   3.208   2.722
 9240SOL    HW228620   5.354   3.193   2.714
 9241SOL     OW28621   6.763   5.738   0.488
 9241SOL    HW128622   6.795   5.645   0.506
 9241SOL    HW228623   6.794   5.767   0.398
 9242SOL     OW28624   1.676   2.315   1.662
 9242SOL    HW128625   1.673   2.365   1.749
 9242SOL    HW228626   1.741   2.360   1.600
 9243SOL     OW28627   1.121   0.570   1.837
 9243SOL    HW128628   1.033   0.527   1.861
 9243SOL    HW228629   1.104   0.648   1.776
 9244SOL     OW28630   2.529   6.226   6.208
 9244SOL    HW128631   2.498   6.243   6.115
 9244SOL    HW228632   2.532   6.312   6.259
 9245SOL     OW28633   0.644   4.199   3.536
 9245SOL    HW128634   0.614   4.115   3.491
 9245SOL    HW228635   0.572   4.268   3.528
 9246SOL     OW28636   5.870   7.021   4.298
 9246SOL    HW128637   5.946   6.966   4.263
 9246SOL    HW228638   5.896   0.092   4.297
 9247SOL     OW28639   3.960   5.395   2.899
 9247SOL    HW128640   3.878   5.338   2.902
 9247SOL    HW228641   4.007   5.383   2.811
 9248SOL     OW28642   2.848   1.927   5.478
 9248SOL    HW128643   2.891   1.837   5.484
 9248SOL    HW228644   2.912   1.996   5.511
 9249SOL     OW28645   3.889   4.971   1.412
 9249SOL    HW128646   3.980   4.943   1.383
 9249SOL    HW228647   3.878   4.953   1.510
 9250SOL     OW28648   6.788   3.248   3.940
 9250SOL    HW128649   6.812   3.229   4.035
 9250SOL    HW228650   6.806   3.167   3.884
 9251SOL     OW28651   4.259   2.334   1.844
 9251SOL    HW128652   4.191   2.315   1.914
 9251SOL    HW228653   4.347   2.356   1.887
 9252SOL     OW28654   5.239   0.970   5.014
 9252SOL    HW128655   5.275   1.060   4.990
 9252SOL    HW228656   5.314   0.912   5.048
 9253SOL     OW28657   5.156   5.062   5.696
 9253SOL    HW128658   5.163   5.016   5.785
 9253SOL    HW228659   5.211   5.146   5.698
 9254SOL     OW28660   5.158   4.773   2.439
 9254SOL    HW128661   5.114   4.799   2.526
 9254SOL    HW228662   5.130   4.837   2.367
 9255SOL     OW28663   5.874   3.336   6.710
 9255SOL    HW128664   5.888   3.435   6.719
 9255SOL    HW228665   5.811   3.306   6.781
 9256SOL     OW28666   2.212   6.710   1.766
 9256SOL    HW128667   2.251   6.777   1.829
 9256SOL    HW228668   2.209   6.749   1.674
 9257SOL     OW28669   6.020   5.915   3.135
 9257SOL    HW128670   6.042   5.909   3.037
 9257SOL    HW228671   6.074   5.989   3.176
 9258SOL     OW28672   3.644   3.715   0.836
 9258SOL    HW128673   3.545   3.704   0.838
 9258SOL    HW228674   3.686   3.645   0.894
 9259SOL     OW28675   1.659   1.510   0.005
 9259SOL    HW128676   1.626   1.564   6.954
 9259SOL    HW228677   1.665   1.414   7.004
 9260SOL     OW28678   6.945   2.521   6.258
 9260SOL    HW128679   6.916   2.588   6.190
 9260SOL    HW228680   6.865   2.471   6.292
 9261SOL     OW28681   4.911   1.194   6.304
 9261SOL    HW128682   4.927   1.125   6.374
 9261SOL    HW228683   4.852   1.157   6.233
 9262SOL     OW28684   1.001   6.756   5.084
 9262SOL    HW128685   1.055   6.805   5.153
 9262SOL    HW228686   0.919   6.808   5.062
 9263SOL     OW28687   3.370   5.341   3.137
 9263SOL    HW128688   3.329   5.339   3.046
 9263SOL    HW228689   3.468   5.324   3.130
 9264SOL     OW28690   4.652   3.327   0.140
 9264SOL    HW128691   4.751   3.313   0.153
 9264SOL    HW228692   4.618   3.263   0.072
 9265SOL     OW28693   3.930   1.968   6.424
 9265SOL    HW128694   3.878   2.051   6.402
 9265SOL    HW228695   3.998   1.952   6.352
 9266SOL     OW28696   7.018   5.545   1.206
 9266SOL    HW128697   0.076   5.558   1.153
 9266SOL    HW228698   6.970   5.632   1.215
 9267SOL     OW28699   1.186   1.792   4.341
 9267SOL    HW128700   1.207   1.753   4.251
 9267SOL    HW228701   1.135   1.878   4.328
 9268SOL     OW28702   1.082   6.539   2.618
 9268SOL    HW128703   1.006   6.582   2.570
 9268SOL    HW228704   1.149   6.506   2.552
 9269SOL     OW28705   3.982   6.987   6.450
 9269SOL    HW128706   3.920   0.040   6.454
 9269SOL    HW228707   3.993   6.949   6.542
 9270SOL     OW28708   3.600   0.736   5.425
 9270SOL    HW128709   3.673   0.740   5.357
 9270SOL    HW228710   3.515   0.707   5.382
 9271SOL     OW28711   0.126   0.284   0.790
 9271SOL    HW128712   0.152   0.210   0.729
 9271SOL    HW228713   0.207   0.336   0.815
 9272SOL     OW28714   1.028   6.605   6.889
 9272SOL    HW128715   0.962   6.545   6.934
 9272SOL    HW228716   0.986   6.695   6.874
 9273SOL     OW28717   5.453   5.903   3.040
 9273SOL    HW128718   5.381   5.946   2.986
 9273SOL    HW228719   5.442   5.927   3.136
 9274SOL     OW28720   6.484   2.152   0.202
 9274SOL    HW128721   6.403   2.206   0.226
 9274SOL    HW228722   6.488   2.071   0.261
 9275SOL     OW28723   0.097   6.694   0.046
 9275SOL    HW128724   0.175   6.752   0.023
 9275SOL    HW228725   0.129   6.602   0.067
 9276SOL     OW28726   2.526   4.863   6.828
 9276SOL    HW128727   2.602   4.838   6.768
 9276SOL    HW228728   2.561   4.892   6.916
 9277SOL     OW28729   4.004   5.148   3.074
 9277SOL    HW128730   4.055   5.209   3.135
 9277SOL    HW228731   3.906   5.160   3.090
 9278SOL     OW28732   0.965   0.670   5.427
 9278SOL    HW128733   1.038   0.601   5.437
 9278SOL    HW228734   0.901   0.640   5.356
 9279SOL     OW28735   3.234   6.451   1.555
 9279SOL    HW128736   3.291   6.519   1.509
 9279SOL    HW228737   3.286   6.412   1.631
 9280SOL     OW28738   2.506   2.020   2.573
 9280SOL    HW128739   2.587   1.971   2.541
 9280SOL    HW228740   2.481   2.091   2.506
 9281SOL     OW28741   3.596   3.779   6.375
 9281SOL    HW128742   3.673   3.729   6.337
 9281SOL    HW228743   3.515   3.766   6.317
 9282SOL     OW28744   4.452   1.044   4.391
 9282SOL    HW128745   4.435   0.968   4.329
 9282SOL    HW228746   4.516   1.016   4.462
 9283SOL     OW28747   5.488   0.701   5.405
 9283SOL    HW128748   5.413   0.658   5.357
 9283SOL    HW228749   5.472   0.696   5.504
 9284SOL     OW28750   2.774   3.352   5.414
 9284SOL    HW128751   2.866   3.377   5.384
 9284SOL    HW228752   2.751   3.262   5.376
 9285SOL     OW28753   5.070   2.863   0.881
 9285SOL    HW128754   5.074   2.766   0.856
 9285SOL    HW228755   4.997   2.907   0.830
 9286SOL     OW28756   4.724   5.565   0.139
 9286SOL    HW128757   4.725   5.534   0.234
 9286SOL    HW228758   4.672   5.650   0.132
 9287SOL     OW28759   3.172   4.586   5.605
 9287SOL    HW128760   3.129   4.675   5.590
 9287SOL    HW228761   3.187   4.541   5.517
 9288SOL     OW28762   4.738   2.014   3.335
 9288SOL    HW128763   4.727   2.089   3.269
 9288SOL    HW228764   4.793   1.941   3.295
 9289SOL     OW28765   4.407   0.569   6.715
 9289SOL    HW128766   4.428   0.664   6.741
 9289SOL    HW228767   4.323   0.540   6.761
 9290SOL     OW28768   5.936   0.734   4.259
 9290SOL    HW128769   5.961   0.713   4.353
 9290SOL    HW228770   6.015   0.721   4.199
 9291SOL     OW28771   1.536   6.268   6.114
 9291SOL    HW128772   1.496   6.323   6.187
 9291SOL    HW228773   1.590   6.327   6.054
 9292SOL     OW28774   1.265   1.308   6.475
 9292SOL    HW128775   1.204   1.364   6.531
 9292SOL    HW228776   1.302   1.233   6.530
 9293SOL     OW28777   4.809   2.956   6.784
 9293SOL    HW128778   4.828   2.872   6.836
 9293SOL    HW228779   4.765   2.932   6.697
 9294SOL     OW28780   4.803   0.750   6.844
 9294SOL    HW128781   4.855   0.744   6.758
 9294SOL    HW228782   4.865   0.745   6.921
 9295SOL     OW28783   6.970   0.779   5.403
 9295SOL    HW128784   6.944   0.796   5.497
 9295SOL    HW228785   6.963   0.681   5.383
 9296SOL     OW28786   2.154   4.664   0.739
 9296SOL    HW128787   2.129   4.656   0.643
 9296SOL    HW228788   2.234   4.723   0.748
 9297SOL     OW28789   0.596   6.429   3.341
 9297SOL    HW128790   0.497   6.437   3.354
 9297SOL    HW228791   0.639   6.517   3.358
 9298SOL     OW28792   1.106   6.495   6.169
 9298SOL    HW128793   1.051   6.511   6.251
 9298SOL    HW228794   1.097   6.399   6.141
 9299SOL     OW28795   0.857   1.283   3.954
 9299SOL    HW128796   0.957   1.278   3.960
 9299SOL    HW228797   0.817   1.266   4.045
 9300SOL     OW28798   0.442   5.432   5.270
 9300SOL    HW128799   0.501   5.513   5.270
 9300SOL    HW228800   0.376   5.440   5.194
 9301SOL     OW28801   0.081   4.409   5.125
 9301SOL    HW128802   0.152   4.473   5.095
 9301SOL    HW228803   0.029   4.450   5.200
 9302SOL     OW28804   2.249   3.016   4.507
 9302SOL    HW128805   2.241   2.977   4.598
 9302SOL    HW228806   2.211   3.109   4.507
 9303SOL     OW28807   3.022   4.673   0.606
 9303SOL    HW128808   3.093   4.673   0.677
 9303SOL    HW228809   2.937   4.709   0.644
 9304SOL     OW28810   4.259   5.196   0.584
 9304SOL    HW128811   4.302   5.285   0.600
 9304SOL    HW228812   4.170   5.210   0.542
 9305SOL     OW28813   3.630   1.243   0.376
 9305SOL    HW128814   3.639   1.153   0.419
 9305SOL    HW228815   3.611   1.232   0.279
 9306SOL     OW28816   0.575   3.657   5.480
 9306SOL    HW128817   0.561   3.596   5.402
 9306SOL    HW228818   0.515   3.737   5.471
 9307SOL     OW28819   1.278   4.202   0.655
 9307SOL    HW128820   1.345   4.276   0.658
 9307SOL    HW228821   1.318   4.122   0.609
 9308SOL     OW28822   0.797   4.656   1.957
 9308SOL    HW128823   0.863   4.650   2.032
 9308SOL    HW228824   0.828   4.601   1.880
 9309SOL     OW28825   4.208   6.899   5.841
 9309SOL    HW128826   4.308   6.898   5.845
 9309SOL    HW228827   4.171   6.864   5.927
 9310SOL     OW28828   5.276   6.100   5.836
 9310SOL    HW128829   5.208   6.150   5.889
 9310SOL    HW228830   5.232   6.056   5.757
 9311SOL     OW28831   5.286   4.303   1.287
 9311SOL    HW128832   5.216   4.244   1.327
 9311SOL    HW228833   5.246   4.391   1.261
 9312SOL     OW28834   1.820   2.064   0.925
 9312SOL    HW128835   1.793   1.989   0.985
 9312SOL    HW228836   1.774   2.055   0.837
 9313SOL     OW28837   0.941   0.541   1.410
 9313SOL    HW128838   0.877   0.528   1.485
 9313SOL    HW228839   0.947   0.457   1.356
 9314SOL     OW28840   6.026   3.455   1.124
 9314SOL    HW128841   5.943   3.470   1.071
 9314SOL    HW228842   6.066   3.366   1.100
 9315SOL     OW28843   5.993   0.625   6.138
 9315SOL    HW128844   5.971   0.720   6.158
 9315SOL    HW228845   6.047   0.621   6.053
 9316SOL     OW28846   5.997   6.993   5.143
 9316SOL    HW128847   5.913   6.947   5.171
 9316SOL    HW228848   5.975   0.041   5.079
 9317SOL     OW28849   4.070   5.186   3.482
 9317SOL    HW128850   4.054   5.088   3.486
 9317SOL    HW228851   4.064   5.225   3.575
 9318SOL     OW28852   4.344   6.638   0.326
 9318SOL    HW128853   4.245   6.648   0.338
 9318SOL    HW228854   4.369   6.541   0.335
 9319SOL     OW28855   2.258   2.781   0.585
 9319SOL    HW128856   2.215   2.732   0.509
 9319SOL    HW228857   2.350   2.744   0.600
 9320SOL     OW28858   4.799   0.683   6.139
 9320SOL    HW128859   4.860   0.606   6.117
 9320SOL    HW228860   4.740   0.657   6.215
 9321SOL     OW28861   1.032   2.137   5.438
 9321SOL    HW128862   1.064   2.081   5.515
 9321SOL    HW228863   0.934   2.154   5.448
 9322SOL     OW28864   6.605   4.790   6.157
 9322SOL    HW128865   6.520   4.820   6.200
 9322SOL    HW228866   6.585   4.742   6.072
 9323SOL     OW28867   2.231   1.931   4.788
 9323SOL    HW128868   2.310   1.985   4.817
 9323SOL    HW228869   2.147   1.981   4.811
 9324SOL     OW28870   2.055   3.724   1.399
 9324SOL    HW128871   2.109   3.641   1.389
 9324SOL    HW228872   2.068   3.763   1.490
 9325SOL     OW28873   0.898   6.459   1.720
 9325SOL    HW128874   0.819   6.464   1.659
 9325SOL    HW228875   0.975   6.417   1.672
 9326SOL     OW28876   3.262   5.604   6.934
 9326SOL    HW128877   3.167   5.589   6.961
 9326SOL    HW228878   3.296   5.526   6.882
 9327SOL     OW28879   4.511   0.233   3.020
 9327SOL    HW128880   4.429   0.271   3.063
 9327SOL    HW228881   4.567   0.187   3.089
 9328SOL     OW28882   2.144   6.689   4.967
 9328SOL    HW128883   2.071   6.622   4.953
 9328SOL    HW228884   2.225   6.661   4.916
 9329SOL     OW28885   6.849   5.474   0.531
 9329SOL    HW128886   6.779   5.453   0.599
 9329SOL    HW228887   6.939   5.477   0.575
 9330SOL     OW28888   0.464   0.028   6.611
 9330SOL    HW128889   0.505   0.034   6.520
 9330SOL    HW228890   0.421   0.115   6.635
 9331SOL     OW28891   2.044   2.506   5.856
 9331SOL    HW128892   2.087   2.554   5.932
 9331SOL    HW228893   1.948   2.532   5.850
 9332SOL     OW28894   4.104   5.404   0.326
 9332SOL    HW128895   4.137   5.460   0.250
 9332SOL    HW228896   4.094   5.461   0.408
 9333SOL     OW28897   3.979   5.731   0.323
 9333SOL    HW128898   3.978   5.690   0.232
 9333SOL    HW228899   3.890   5.718   0.367
 9334SOL     OW28900   5.169   0.504   4.246
 9334SOL    HW128901   5.256   0.465   4.275
 9334SOL    HW228902   5.182   0.599   4.220
 9335SOL     OW28903   1.819   2.173   0.292
 9335SOL    HW128904   1.730   2.190   0.250
 9335SOL    HW228905   1.890   2.171   0.222
 9336SOL     OW28906   5.589   6.888   4.725
 9336SOL    HW128907   5.646   6.900   4.644
 9336SOL    HW228908   5.507   6.836   4.701
 9337SOL     OW28909   4.933   0.672   6.613
 9337SOL    HW128910   4.908   0.575   6.610
 9337SOL    HW228911   4.991   0.694   6.534
 9338SOL     OW28912   6.696   5.874   0.756
 9338SOL    HW128913   6.757   5.840   0.827
 9338SOL    HW228914   6.737   5.858   0.666
 9339SOL     OW28915   5.549   5.622   0.336
 9339SOL    HW128916   5.600   5.707   0.340
 9339SOL    HW228917   5.467   5.629   0.392
 9340SOL     OW28918   4.226   4.828   2.759
 9340SOL    HW128919   4.157   4.815   2.687
 9340SOL    HW228920   4.219   4.921   2.795
 9341SOL     OW28921   6.509   4.341   6.693
 9341SOL    HW128922   6.592   4.364   6.743
 9341SOL    HW228923   6.434   4.327   6.758
 9342SOL     OW28924   2.780   0.285   4.551
 9342SOL    HW128925   2.758   0.339   4.632
 9342SOL    HW228926   2.864   0.319   4.509
 9343SOL     OW28927   5.016   3.598   1.934
 9343SOL    HW128928   4.935   3.572   1.882
 9343SOL    HW228929   5.088   3.627   1.872
 9344SOL     OW28930   5.225   5.740   6.595
 9344SOL    HW128931   5.203   5.834   6.623
 9344SOL    HW228932   5.225   5.735   6.495
 9345SOL     OW28933   6.106   4.896   0.370
 9345SOL    HW128934   6.173   4.970   0.362
 9345SOL    HW228935   6.016   4.934   0.392
 9346SOL     OW28936   4.830   6.162   2.548
 9346SOL    HW128937   4.859   6.255   2.571
 9346SOL    HW228938   4.851   6.144   2.452
 9347SOL     OW28939   3.654   6.043   0.811
 9347SOL    HW128940   3.606   5.957   0.793
 9347SOL    HW228941   3.675   6.050   0.909
 9348SOL     OW28942   3.094   5.163   2.862
 9348SOL    HW128943   3.086   5.154   2.763
 9348SOL    HW228944   3.158   5.237   2.883
 9349SOL     OW28945   6.131   5.918   2.357
 9349SOL    HW128946   6.069   5.990   2.327
 9349SOL    HW228947   6.079   5.841   2.392
 9350SOL     OW28948   0.264   1.631   4.200
 9350SOL    HW128949   0.283   1.728   4.221
 9350SOL    HW228950   0.348   1.588   4.168
 9351SOL     OW28951   2.684   0.090   6.196
 9351SOL    HW128952   2.600   0.092   6.142
 9351SOL    HW228953   2.703   0.181   6.233
 9352SOL     OW28954   2.338   3.257   6.007
 9352SOL    HW128955   2.249   3.216   5.986
 9352SOL    HW228956   2.325   3.332   6.071
 9353SOL     OW28957   1.706   4.255   2.088
 9353SOL    HW128958   1.803   4.237   2.099
 9353SOL    HW228959   1.681   4.250   1.992
 9354SOL     OW28960   6.060   1.592   1.149
 9354SOL    HW128961   6.032   1.501   1.118
 9354SOL    HW228962   6.108   1.639   1.075
 9355SOL     OW28963   6.473   1.037   4.330
 9355SOL    HW128964   6.513   1.074   4.414
 9355SOL    HW228965   6.504   1.090   4.252
 9356SOL     OW28966   4.762   5.425   2.111
 9356SOL    HW128967   4.680   5.425   2.168
 9356SOL    HW228968   4.754   5.353   2.041
 9357SOL     OW28969   2.114   3.902   0.163
 9357SOL    HW128970   2.082   3.807   0.154
 9357SOL    HW228971   2.088   3.953   0.080
 9358SOL     OW28972   5.874   3.527   1.778
 9358SOL    HW128973   5.894   3.625   1.775
 9358SOL    HW228974   5.928   3.479   1.708
 9359SOL     OW28975   0.601   4.018   5.646
 9359SOL    HW128976   0.622   4.037   5.550
 9359SOL    HW228977   0.663   3.948   5.680
 9360SOL     OW28978   1.101   7.016   5.849
 9360SOL    HW128979   1.191   7.026   5.807
 9360SOL    HW228980   1.062   6.926   5.825
 9361SOL     OW28981   2.472   6.243   3.525
 9361SOL    HW128982   2.522   6.160   3.548
 9361SOL    HW228983   2.528   6.323   3.545
 9362SOL     OW28984   1.699   1.122   1.894
 9362SOL    HW128985   1.653   1.171   1.968
 9362SOL    HW228986   1.652   1.141   1.807
 9363SOL     OW28987   4.372   5.066   2.128
 9363SOL    HW128988   4.311   5.140   2.103
 9363SOL    HW228989   4.359   5.042   2.224
 9364SOL     OW28990   4.205   3.174   5.977
 9364SOL    HW128991   4.171   3.082   5.955
 9364SOL    HW228992   4.192   3.233   5.898
 9365SOL     OW28993   2.613   1.899   5.314
 9365SOL    HW128994   2.616   1.975   5.250
 9365SOL    HW228995   2.700   1.891   5.362
 9366SOL     OW28996   3.215   1.529   6.854
 9366SOL    HW128997   3.189   1.617   6.813
 9366SOL    HW228998   3.171   1.520   6.944
 9367SOL     OW28999   6.936   6.021   3.723
 9367SOL    HW129000   6.844   6.060   3.728
 9367SOL    HW229001   6.995   6.069   3.789
 9368SOL     OW29002   3.273   1.966   3.571
 9368SOL    HW129003   3.201   2.015   3.619
 9368SOL    HW229004   3.315   2.027   3.504
 9369SOL     OW29005   0.765   0.418   6.346
 9369SOL    HW129006   0.779   0.412   6.247
 9369SOL    HW229007   0.828   0.485   6.385
 9370SOL     OW29008   4.973   0.481   2.663
 9370SOL    HW129009   4.973   0.390   2.620
 9370SOL    HW229010   5.067   0.508   2.683
 9371SOL     OW29011   1.820   4.662   0.346
 9371SOL    HW129012   1.916   4.687   0.356
 9371SOL    HW229013   1.786   4.622   0.432
 9372SOL     OW29014   5.369   5.652   3.180
 9372SOL    HW129015   5.366   5.721   3.108
 9372SOL    HW229016   5.432   5.578   3.153
 9373SOL     OW29017   5.050   2.258   2.522
 9373SOL    HW129018   5.120   2.191   2.545
 9373SOL    HW229019   4.980   2.260   2.594
 9374SOL     OW29020   6.429   3.075   0.191
 9374SOL    HW129021   6.486   3.004   0.233
 9374SOL    HW229022   6.400   3.045   0.100
 9375SOL     OW29023   6.834   2.257   3.066
 9375SOL    HW129024   6.823   2.176   3.123
 9375SOL    HW229025   6.894   2.236   2.989
 9376SOL     OW29026   2.511   3.663   1.048
 9376SOL    HW129027   2.421   3.681   1.089
 9376SOL    HW229028   2.543   3.573   1.078
 9377SOL     OW29029   1.565   5.876   3.859
 9377SOL    HW129030   1.521   5.954   3.903
 9377SOL    HW229031   1.495   5.818   3.818
 9378SOL     OW29032   0.436   0.454   5.401
 9378SOL    HW129033   0.399   0.462   5.309
 9378SOL    HW229034   0.535   0.439   5.397
 9379SOL     OW29035   4.600   4.991   5.429
 9379SOL    HW129036   4.565   5.048   5.354
 9379SOL    HW229037   4.525   4.970   5.491
 9380SOL     OW29038   5.969   4.725   4.755
 9380SOL    HW129039   5.996   4.766   4.842
 9380SOL    HW229040   5.958   4.626   4.765
 9381SOL     OW29041   2.280   3.486   6.160
 9381SOL    HW129042   2.238   3.522   6.243
 9381SOL    HW229043   2.277   3.556   6.088
 9382SOL     OW29044   3.461   1.516   3.570
 9382SOL    HW129045   3.511   1.495   3.654
 9382SOL    HW229046   3.468   1.614   3.551
 9383SOL     OW29047   2.526   6.363   4.439
 9383SOL    HW129048   2.512   6.296   4.511
 9383SOL    HW229049   2.440   6.410   4.420
 9384SOL     OW29050   3.337   5.939   1.289
 9384SOL    HW129051   3.341   5.842   1.312
 9384SOL    HW229052   3.330   5.993   1.373
 9385SOL     OW29053   4.456   1.230   2.957
 9385SOL    HW129054   4.467   1.292   3.035
 9385SOL    HW229055   4.368   1.183   2.964
 9386SOL     OW29056   1.989   6.438   4.981
 9386SOL    HW129057   2.006   6.426   4.884
 9386SOL    HW229058   2.065   6.398   5.033
 9387SOL     OW29059   2.848   1.215   6.530
 9387SOL    HW129060   2.935   1.239   6.487
 9387SOL    HW229061   2.787   1.175   6.461
 9388SOL     OW29062   2.414   5.578   2.614
 9388SOL    HW129063   2.360   5.599   2.695
 9388SOL    HW229064   2.373   5.501   2.565
 9389SOL     OW29065   2.021   0.111   5.230
 9389SOL    HW129066   1.992   0.075   5.319
 9389SOL    HW229067   2.043   0.035   5.169
 9390SOL     OW29068   3.881   5.436   4.923
 9390SOL    HW129069   3.893   5.426   4.824
 9390SOL    HW229070   3.786   5.414   4.947
 9391SOL     OW29071   2.431   0.567   5.042
 9391SOL    HW129072   2.418   0.644   4.979
 9391SOL    HW229073   2.346   0.515   5.049
 9392SOL     OW29074   0.076   0.427   5.521
 9392SOL    HW129075   0.059   0.427   5.620
 9392SOL    HW229076   0.169   0.394   5.503
 9393SOL     OW29077   2.850   0.267   5.261
 9393SOL    HW129078   2.844   0.367   5.250
 9393SOL    HW229079   2.773   0.234   5.315
 9394SOL     OW29080   0.175   1.462   2.237
 9394SOL    HW129081   0.125   1.540   2.199
 9394SOL    HW229082   0.116   1.381   2.235
 9395SOL     OW29083   2.514   1.995   0.184
 9395SOL    HW129084   2.422   1.982   0.221
 9395SOL    HW229085   2.508   2.039   0.094
 9396SOL     OW29086   1.164   5.378   3.672
 9396SOL    HW129087   1.192   5.384   3.576
 9396SOL    HW229088   1.087   5.440   3.689
 9397SOL     OW29089   2.999   0.111   0.367
 9397SOL    HW129090   2.940   0.188   0.343
 9397SOL    HW229091   2.993   0.094   0.466
 9398SOL     OW29092   1.215   0.197   5.573
 9398SOL    HW129093   1.272   0.132   5.623
 9398SOL    HW229094   1.134   0.151   5.537
 9399SOL     OW29095   0.424   1.649   6.778
 9399SOL    HW129096   0.360   1.726   6.772
 9399SOL    HW229097   0.467   1.634   6.689
 9400SOL     OW29098   4.398   2.504   1.621
 9400SOL    HW129099   4.341   2.532   1.698
 9400SOL    HW229100   4.494   2.524   1.641
 9401SOL     OW29101   4.621   7.006   3.126
 9401SOL    HW129102   4.545   0.001   3.065
 9401SOL    HW229103   4.588   6.948   3.201
 9402SOL     OW29104   1.136   5.130   3.886
 9402SOL    HW129105   1.193   5.062   3.933
 9402SOL    HW229106   1.115   5.205   3.949
 9403SOL     OW29107   5.822   1.286   3.160
 9403SOL    HW129108   5.758   1.345   3.111
 9403SOL    HW229109   5.773   1.206   3.195
 9404SOL     OW29110   0.403   3.161   6.088
 9404SOL    HW129111   0.457   3.113   6.019
 9404SOL    HW229112   0.427   3.258   6.088
 9405SOL     OW29113   0.337   5.972   2.230
 9405SOL    HW129114   0.267   5.904   2.208
 9405SOL    HW229115   0.320   6.009   2.321
 9406SOL     OW29116   6.908   2.884   6.332
 9406SOL    HW129117   6.905   2.788   6.361
 9406SOL    HW229118   6.966   2.935   6.396
 9407SOL     OW29119   2.714   5.197   3.183
 9407SOL    HW129120   2.701   5.295   3.193
 9407SOL    HW229121   2.664   5.149   3.255
 9408SOL     OW29122   3.860   1.611   6.181
 9408SOL    HW129123   3.832   1.530   6.232
 9408SOL    HW229124   3.837   1.599   6.084
 9409SOL     OW29125   5.758   4.539   6.344
 9409SOL    HW129126   5.716   4.606   6.404
 9409SOL    HW229127   5.696   4.517   6.268
 9410SOL     OW29128   2.788   6.348   1.785
 9410SOL    HW129129   2.783   6.257   1.745
 9410SOL    HW229130   2.872   6.356   1.839
 9411SOL     OW29131   4.543   3.918   1.525
 9411SOL    HW129132   4.633   3.947   1.491
 9411SOL    HW229133   4.536   3.818   1.520
 9412SOL     OW29134   0.186   3.056   1.578
 9412SOL    HW129135   0.106   3.040   1.635
 9412SOL    HW229136   0.181   3.147   1.537
 9413SOL     OW29137   3.463   6.071   4.383
 9413SOL    HW129138   3.490   6.026   4.468
 9413SOL    HW229139   3.543   6.084   4.325
 9414SOL     OW29140   3.184   0.778   3.705
 9414SOL    HW129141   3.232   0.852   3.658
 9414SOL    HW229142   3.141   0.718   3.637
 9415SOL     OW29143   2.647   0.214   2.077
 9415SOL    HW129144   2.592   0.298   2.074
 9415SOL    HW229145   2.663   0.182   1.983
 9416SOL     OW29146   0.836   1.697   1.012
 9416SOL    HW129147   0.769   1.624   0.996
 9416SOL    HW229148   0.816   1.774   0.952
 9417SOL     OW29149   3.833   6.529   5.514
 9417SOL    HW129150   3.767   6.604   5.509
 9417SOL    HW229151   3.859   6.514   5.609
 9418SOL     OW29152   3.326   6.111   1.490
 9418SOL    HW129153   3.385   6.181   1.450
 9418SOL    HW229154   3.238   6.151   1.513
 9419SOL     OW29155   3.160   4.870   5.772
 9419SOL    HW129156   3.110   4.833   5.694
 9419SOL    HW229157   3.106   4.942   5.815
 9420SOL     OW29158   0.539   2.735   4.787
 9420SOL    HW129159   0.602   2.729   4.864
 9420SOL    HW229160   0.457   2.682   4.807
 9421SOL     OW29161   1.781   6.172   4.772
 9421SOL    HW129162   1.820   6.096   4.721
 9421SOL    HW229163   1.780   6.255   4.715
 9422SOL     OW29164   4.957   6.306   2.834
 9422SOL    HW129165   4.869   6.260   2.851
 9422SOL    HW229166   5.027   6.265   2.892
 9423SOL     OW29167   4.426   0.859   3.169
 9423SOL    HW129168   4.473   0.822   3.249
 9423SOL    HW229169   4.481   0.842   3.087
 9424SOL     OW29170   4.578   0.893   5.169
 9424SOL    HW129171   4.589   0.967   5.103
 9424SOL    HW229172   4.616   0.921   5.258
 9425SOL     OW29173   6.661   3.518   6.445
 9425SOL    HW129174   6.613   3.604   6.428
 9425SOL    HW229175   6.747   3.517   6.395
 9426SOL     OW29176   2.872   2.168   6.884
 9426SOL    HW129177   2.874   2.261   6.847
 9426SOL    HW229178   2.817   2.110   6.824
 9427SOL     OW29179   2.804   5.338   4.467
 9427SOL    HW129180   2.819   5.312   4.563
 9427SOL    HW229181   2.795   5.437   4.461
 9428SOL     OW29182   5.201   0.617   0.882
 9428SOL    HW129183   5.125   0.558   0.910
 9428SOL    HW229184   5.178   0.662   0.796
 9429SOL     OW29185   1.808   3.947   2.178
 9429SOL    HW129186   1.784   3.900   2.093
 9429SOL    HW229187   1.908   3.954   2.186
 9430SOL     OW29188   0.058   4.400   1.838
 9430SOL    HW129189   0.085   4.376   1.744
 9430SOL    HW229190   0.082   4.326   1.900
 9431SOL     OW29191   5.697   3.903   1.163
 9431SOL    HW129192   5.608   3.859   1.162
 9431SOL    HW229193   5.751   3.870   1.241
 9432SOL     OW29194   5.347   1.232   3.051
 9432SOL    HW129195   5.369   1.184   2.966
 9432SOL    HW229196   5.397   1.319   3.053
 9433SOL     OW29197   3.873   4.909   3.541
 9433SOL    HW129198   3.837   4.941   3.628
 9433SOL    HW229199   3.954   4.853   3.557
 9434SOL     OW29200   5.161   5.156   3.045
 9434SOL    HW129201   5.125   5.183   3.134
 9434SOL    HW229202   5.235   5.090   3.057
 9435SOL     OW29203   0.493   2.255   4.868
 9435SOL    HW129204   0.492   2.271   4.769
 9435SOL    HW229205   0.403   2.223   4.897
 9436SOL     OW29206   1.058   3.567   1.796
 9436SOL    HW129207   1.021   3.526   1.879
 9436SOL    HW229208   1.146   3.610   1.816
 9437SOL     OW29209   2.111   6.513   3.143
 9437SOL    HW129210   2.147   6.576   3.213
 9437SOL    HW229211   2.085   6.427   3.186
 9438SOL     OW29212   0.250   6.910   2.114
 9438SOL    HW129213   0.289   6.963   2.039
 9438SOL    HW229214   0.200   6.832   2.078
 9439SOL     OW29215   0.777   2.560   1.999
 9439SOL    HW129216   0.795   2.587   1.904
 9439SOL    HW229217   0.690   2.511   2.004
 9440SOL     OW29218   4.200   5.465   4.024
 9440SOL    HW129219   4.156   5.517   3.950
 9440SOL    HW229220   4.222   5.373   3.991
 9441SOL     OW29221   1.496   3.430   4.904
 9441SOL    HW129222   1.440   3.361   4.858
 9441SOL    HW229223   1.577   3.386   4.943
 9442SOL     OW29224   4.435   3.254   0.291
 9442SOL    HW129225   4.516   3.273   0.236
 9442SOL    HW229226   4.380   3.337   0.299
 9443SOL     OW29227   2.335   5.133   1.314
 9443SOL    HW129228   2.286   5.051   1.284
 9443SOL    HW229229   2.301   5.162   1.403
 9444SOL     OW29230   1.061   3.863   6.593
 9444SOL    HW129231   1.130   3.803   6.633
 9444SOL    HW229232   1.078   3.957   6.621
 9445SOL     OW29233   5.782   3.661   2.761
 9445SOL    HW129234   5.743   3.709   2.840
 9445SOL    HW229235   5.715   3.659   2.687
 9446SOL     OW29236   6.730   6.548   4.040
 9446SOL    HW129237   6.737   6.502   3.951
 9446SOL    HW229238   6.648   6.517   4.087
 9447SOL     OW29239   6.117   3.643   3.542
 9447SOL    HW129240   6.072   3.715   3.490
 9447SOL    HW229241   6.203   3.618   3.497
 9448SOL     OW29242   6.762   6.784   6.172
 9448SOL    HW129243   6.756   6.692   6.211
 9448SOL    HW229244   6.693   6.843   6.214
 9449SOL     OW29245   0.007   5.996   6.933
 9449SOL    HW129246   0.079   6.052   6.892
 9449SOL    HW229247   6.971   6.055   6.985
 9450SOL     OW29248   3.243   5.437   4.959
 9450SOL    HW129249   3.268   5.351   4.916
 9450SOL    HW229250   3.144   5.439   4.975
 9451SOL     OW29251   3.801   6.424   6.193
 9451SOL    HW129252   3.809   6.523   6.177
 9451SOL    HW229253   3.808   6.375   6.106
 9452SOL     OW29254   1.280   3.884   0.300
 9452SOL    HW129255   1.231   3.810   0.347
 9452SOL    HW229256   1.330   3.938   0.368
 9453SOL     OW29257   2.406   5.154   3.553
 9453SOL    HW129258   2.380   5.165   3.649
 9453SOL    HW229259   2.390   5.240   3.504
 9454SOL     OW29260   2.027   3.674   6.938
 9454SOL    HW129261   2.103   3.656   6.875
 9454SOL    HW229262   1.970   3.592   6.946
 9455SOL     OW29263   3.982   1.735   2.859
 9455SOL    HW129264   3.937   1.810   2.909
 9455SOL    HW229265   4.076   1.725   2.892
 9456SOL     OW29266   0.899   3.666   0.759
 9456SOL    HW129267   0.865   3.579   0.724
 9456SOL    HW229268   0.884   3.671   0.857
 9457SOL     OW29269   2.394   4.295   5.248
 9457SOL    HW129270   2.374   4.357   5.173
 9457SOL    HW229271   2.424   4.207   5.212
 9458SOL     OW29272   1.238   2.918   6.719
 9458SOL    HW129273   1.245   2.990   6.788
 9458SOL    HW229274   1.325   2.911   6.670
 9459SOL     OW29275   5.428   4.825   2.365
 9459SOL    HW129276   5.455   4.813   2.270
 9459SOL    HW229277   5.340   4.781   2.381
 9460SOL     OW29278   0.019   2.339   4.141
 9460SOL    HW129279   7.008   2.288   4.062
 9460SOL    HW229280   7.010   2.433   4.139
 9461SOL     OW29281   6.716   1.682   2.315
 9461SOL    HW129282   6.677   1.761   2.267
 9461SOL    HW229283   6.720   1.701   2.413
 9462SOL     OW29284   2.127   3.643   2.954
 9462SOL    HW129285   2.216   3.653   2.910
 9462SOL    HW229286   2.101   3.729   2.997
 9463SOL     OW29287   0.162   0.772   1.432
 9463SOL    HW129288   0.210   0.858   1.445
 9463SOL    HW229289   0.216   0.712   1.372
 9464SOL     OW29290   6.018   6.889   1.060
 9464SOL    HW129291   6.100   6.836   1.084
 9464SOL    HW229292   5.974   6.847   0.980
 9465SOL     OW29293   0.918   6.172   3.364
 9465SOL    HW129294   0.859   6.100   3.399
 9465SOL    HW229295   0.990   6.192   3.431
 9466SOL     OW29296   4.301   4.440   5.399
 9466SOL    HW129297   4.220   4.431   5.458
 9466SOL    HW229298   4.275   4.425   5.304
 9467SOL     OW29299   1.190   2.346   1.259
 9467SOL    HW129300   1.145   2.263   1.291
 9467SOL    HW229301   1.289   2.338   1.274
 9468SOL     OW29302   5.943   2.167   6.334
 9468SOL    HW129303   5.973   2.073   6.317
 9468SOL    HW229304   5.900   2.204   6.251
 9469SOL     OW29305   5.831   6.146   1.396
 9469SOL    HW129306   5.754   6.183   1.447
 9469SOL    HW229307   5.841   6.196   1.310
 9470SOL     OW29308   4.584   4.158   5.435
 9470SOL    HW129309   4.610   4.083   5.496
 9470SOL    HW229310   4.625   4.243   5.469
 9471SOL     OW29311   6.358   1.526   4.289
 9471SOL    HW129312   6.268   1.510   4.249
 9471SOL    HW229313   6.357   1.499   4.385
 9472SOL     OW29314   6.145   3.347   4.673
 9472SOL    HW129315   6.217   3.345   4.604
 9472SOL    HW229316   6.061   3.308   4.634
 9473SOL     OW29317   2.826   5.220   5.415
 9473SOL    HW129318   2.911   5.246   5.370
 9473SOL    HW229319   2.841   5.134   5.465
 9474SOL     OW29320   6.963   3.294   0.503
 9474SOL    HW129321   6.967   3.373   0.564
 9474SOL    HW229322   6.876   3.295   0.453
 9475SOL     OW29323   2.863   3.591   0.267
 9475SOL    HW129324   2.835   3.526   0.338
 9475SOL    HW229325   2.880   3.541   0.182
 9476SOL     OW29326   3.052   3.345   5.494
 9476SOL    HW129327   3.018   3.333   5.587
 9476SOL    HW229328   3.139   3.295   5.484
 9477SOL     OW29329   0.281   3.715   2.509
 9477SOL    HW129330   0.351   3.777   2.544
 9477SOL    HW229331   0.248   3.748   2.420
 9478SOL     OW29332   5.412   3.101   6.093
 9478SOL    HW129333   5.394   3.092   5.995
 9478SOL    HW229334   5.476   3.030   6.121
 9479SOL     OW29335   4.520   6.562   6.977
 9479SOL    HW129336   4.593   6.511   7.022
 9479SOL    HW229337   4.483   6.629   0.015
 9480SOL     OW29338   4.777   3.787   0.746
 9480SOL    HW129339   4.774   3.731   0.828
 9480SOL    HW229340   4.846   3.751   0.683
 9481SOL     OW29341   5.606   3.639   1.683
 9481SOL    HW129342   5.535   3.570   1.696
 9481SOL    HW229343   5.695   3.593   1.679
 9482SOL     OW29344   6.794   0.683   3.181
 9482SOL    HW129345   6.889   0.711   3.183
 9482SOL    HW229346   6.738   0.747   3.234
 9483SOL     OW29347   1.541   1.414   1.242
 9483SOL    HW129348   1.641   1.416   1.253
 9483SOL    HW229349   1.518   1.433   1.146
 9484SOL     OW29350   4.399   1.434   3.169
 9484SOL    HW129351   4.458   1.492   3.225
 9484SOL    HW229352   4.363   1.360   3.225
 9485SOL     OW29353   0.871   0.570   2.283
 9485SOL    HW129354   0.853   0.472   2.297
 9485SOL    HW229355   0.953   0.580   2.226
 9486SOL     OW29356   2.540   5.392   1.588
 9486SOL    HW129357   2.583   5.378   1.677
 9486SOL    HW229358   2.492   5.308   1.561
 9487SOL     OW29359   2.946   3.320   3.262
 9487SOL    HW129360   2.936   3.409   3.218
 9487SOL    HW229361   2.939   3.332   3.362
 9488SOL     OW29362   1.685   6.302   1.307
 9488SOL    HW129363   1.685   6.340   1.215
 9488SOL    HW229364   1.690   6.202   1.302
 9489SOL     OW29365   4.035   3.996   1.479
 9489SOL    HW129366   4.017   3.950   1.566
 9489SOL    HW229367   3.976   3.956   1.408
 9490SOL     OW29368   6.596   5.454   0.698
 9490SOL    HW129369   6.574   5.468   0.601
 9490SOL    HW229370   6.531   5.390   0.738
 9491SOL     OW29371   6.722   4.353   3.866
 9491SOL    HW129372   6.733   4.255   3.850
 9491SOL    HW229373   6.634   4.383   3.829
 9492SOL     OW29374   3.579   2.887   2.968
 9492SOL    HW129375   3.513   2.876   3.042
 9492SOL    HW229376   3.669   2.906   3.006
 9493SOL     OW29377   3.742   5.648   3.775
 9493SOL    HW129378   3.767   5.614   3.684
 9493SOL    HW229379   3.689   5.578   3.823
 9494SOL     OW29380   4.444   4.805   1.063
 9494SOL    HW129381   4.351   4.823   1.031
 9494SOL    HW229382   4.440   4.764   1.155
 9495SOL     OW29383   6.140   1.724   4.031
 9495SOL    HW129384   6.228   1.717   3.983
 9495SOL    HW229385   6.117   1.635   4.070
 9496SOL     OW29386   5.731   4.732   1.072
 9496SOL    HW129387   5.752   4.749   0.976
 9496SOL    HW229388   5.691   4.641   1.082
 9497SOL     OW29389   6.306   5.216   6.626
 9497SOL    HW129390   6.369   5.231   6.702
 9497SOL    HW229391   6.248   5.137   6.645
 9498SOL     OW29392   5.369   0.340   4.821
 9498SOL    HW129393   5.314   0.396   4.758
 9498SOL    HW229394   5.363   0.379   4.913
 9499SOL     OW29395   2.552   5.365   6.490
 9499SOL    HW129396   2.648   5.348   6.512
 9499SOL    HW229397   2.499   5.373   6.575
 9500SOL     OW29398   4.639   0.131   1.446
 9500SOL    HW129399   4.555   0.179   1.470
 9500SOL    HW229400   4.700   0.193   1.397
 9501SOL     OW29401   2.637   1.449   4.858
 9501SOL    HW129402   2.712   1.437   4.793
 9501SOL    HW229403   2.588   1.534   4.837
 9502SOL     OW29404   0.216   2.191   4.922
 9502SOL    HW129405   0.168   2.209   4.836
 9502SOL    HW229406   0.151   2.153   4.988
 9503SOL     OW29407   0.630   1.519   1.015
 9503SOL    HW129408   0.697   1.445   1.021
 9503SOL    HW229409   0.537   1.482   1.024
 9504SOL     OW29410   6.897   1.981   0.653
 9504SOL    HW129411   6.921   1.972   0.557
 9504SOL    HW229412   6.934   2.066   0.689
 9505SOL     OW29413   5.619   4.464   3.683
 9505SOL    HW129414   5.594   4.548   3.635
 9505SOL    HW229415   5.581   4.466   3.775
 9506SOL     OW29416   0.352   2.812   6.768
 9506SOL    HW129417   0.399   2.894   6.801
 9506SOL    HW229418   0.306   2.767   6.844
 9507SOL     OW29419   1.259   1.362   3.500
 9507SOL    HW129420   1.310   1.420   3.563
 9507SOL    HW229421   1.167   1.400   3.487
 9508SOL     OW29422   6.358   3.786   0.825
 9508SOL    HW129423   6.435   3.724   0.812
 9508SOL    HW229424   6.291   3.744   0.887
 9509SOL     OW29425   0.832   0.570   5.217
 9509SOL    HW129426   0.804   0.491   5.271
 9509SOL    HW229427   0.767   0.584   5.142
 9510SOL     OW29428   1.111   4.045   2.269
 9510SOL    HW129429   1.211   4.044   2.279
 9510SOL    HW229430   1.071   3.978   2.332
 9511SOL     OW29431   0.642   1.514   6.871
 9511SOL    HW129432   0.586   1.541   6.793
 9511SOL    HW229433   0.609   1.561   6.953
 9512SOL     OW29434   5.960   1.263   1.604
 9512SOL    HW129435   6.027   1.189   1.594
 9512SOL    HW229436   5.994   1.331   1.668
 9513SOL     OW29437   2.025   3.276   5.232
 9513SOL    HW129438   1.974   3.287   5.317
 9513SOL    HW229439   2.074   3.360   5.211
 9514SOL     OW29440   2.246   4.169   6.936
 9514SOL    HW129441   2.203   4.252   6.900
 9514SOL    HW229442   2.176   4.097   6.945
 9515SOL     OW29443   1.216   5.737   0.776
 9515SOL    HW129444   1.274   5.721   0.855
 9515SOL    HW229445   1.245   5.820   0.729
 9516SOL     OW29446   5.838   3.565   4.963
 9516SOL    HW129447   5.857   3.542   5.058
 9516SOL    HW229448   5.873   3.657   4.944
 9517SOL     OW29449   1.069   4.670   0.658
 9517SOL    HW129450   1.108   4.606   0.591
 9517SOL    HW229451   1.047   4.621   0.742
 9518SOL     OW29452   1.393   2.078   0.152
 9518SOL    HW129453   1.359   2.087   0.059
 9518SOL    HW229454   1.481   2.126   0.161
 9519SOL     OW29455   3.585   4.127   4.255
 9519SOL    HW129456   3.492   4.144   4.221
 9519SOL    HW229457   3.585   4.138   4.355
 9520SOL     OW29458   0.394   1.291   3.048
 9520SOL    HW129459   0.359   1.221   2.986
 9520SOL    HW229460   0.399   1.378   3.001
 9521SOL     OW29461   3.601   4.302   1.294
 9521SOL    HW129462   3.659   4.244   1.351
 9521SOL    HW229463   3.621   4.285   1.197
 9522SOL     OW29464   4.330   5.648   1.619
 9522SOL    HW129465   4.255   5.712   1.634
 9522SOL    HW229466   4.318   5.601   1.532
 9523SOL     OW29467   2.566   5.211   4.570
 9523SOL    HW129468   2.544   5.241   4.662
 9523SOL    HW229469   2.641   5.267   4.534
 9524SOL     OW29470   2.326   2.846   0.311
 9524SOL    HW129471   2.269   2.927   0.321
 9524SOL    HW229472   2.362   2.820   0.401
 9525SOL     OW29473   2.642   2.101   5.616
 9525SOL    HW129474   2.717   2.070   5.556
 9525SOL    HW229475   2.670   2.185   5.662
 9526SOL     OW29476   6.047   4.284   1.131
 9526SOL    HW129477   6.073   4.216   1.062
 9526SOL    HW229478   6.121   4.293   1.199
 9527SOL     OW29479   1.048   0.547   4.719
 9527SOL    HW129480   1.029   0.552   4.621
 9527SOL    HW229481   1.102   0.465   4.738
 9528SOL     OW29482   7.016   1.538   0.660
 9528SOL    HW129483   6.931   1.589   0.643
 9528SOL    HW229484   6.997   1.460   0.719
 9529SOL     OW29485   6.303   3.407   6.241
 9529SOL    HW129486   6.307   3.367   6.149
 9529SOL    HW229487   6.384   3.463   6.257
 9530SOL     OW29488   1.618   3.310   3.340
 9530SOL    HW129489   1.552   3.384   3.350
 9530SOL    HW229490   1.570   3.225   3.319
 9531SOL     OW29491   4.907   4.449   2.319
 9531SOL    HW129492   4.987   4.447   2.378
 9531SOL    HW229493   4.850   4.369   2.337
 9532SOL     OW29494   0.158   6.229   0.966
 9532SOL    HW129495   0.109   6.154   0.922
 9532SOL    HW229496   0.117   6.248   1.055
 9533SOL     OW29497   0.483   6.120   4.966
 9533SOL    HW129498   0.474   6.024   4.936
 9533SOL    HW229499   0.431   6.179   4.904
 9534SOL     OW29500   6.750   4.239   5.187
 9534SOL    HW129501   6.786   4.218   5.097
 9534SOL    HW229502   6.755   4.158   5.245
 9535SOL     OW29503   1.725   0.804   5.854
 9535SOL    HW129504   1.813   0.768   5.884
 9535SOL    HW229505   1.717   0.900   5.881
 9536SOL     OW29506   3.294   4.139   5.227
 9536SOL    HW129507   3.245   4.059   5.192
 9536SOL    HW229508   3.231   4.197   5.278
 9537SOL     OW29509   2.534   0.058   4.288
 9537SOL    HW129510   2.615   0.035   4.234
 9537SOL    HW229511   2.562   0.091   4.378
 9538SOL     OW29512   5.468   0.694   4.049
 9538SOL    HW129513   5.547   0.633   4.053
 9538SOL    HW229514   5.460   0.733   3.958
 9539SOL     OW29515   3.305   3.691   4.475
 9539SOL    HW129516   3.324   3.596   4.451
 9539SOL    HW229517   3.269   3.697   4.568
 9540SOL     OW29518   6.063   4.937   4.292
 9540SOL    HW129519   6.105   4.857   4.335
 9540SOL    HW229520   5.984   4.965   4.345
 9541SOL     OW29521   3.291   0.149   6.316
 9541SOL    HW129522   3.224   0.105   6.375
 9541SOL    HW229523   3.275   0.248   6.314
 9542SOL     OW29524   4.842   4.616   5.075
 9542SOL    HW129525   4.774   4.634   5.005
 9542SOL    HW229526   4.934   4.633   5.039
 9543SOL     OW29527   3.616   0.461   5.538
 9543SOL    HW129528   3.560   0.544   5.528
 9543SOL    HW229529   3.705   0.485   5.577
 9544SOL     OW29530   6.293   2.643   3.872
 9544SOL    HW129531   6.255   2.736   3.875
 9544SOL    HW229532   6.241   2.588   3.808
 9545SOL     OW29533   5.668   5.853   4.041
 9545SOL    HW129534   5.603   5.889   3.975
 9545SOL    HW229535   5.628   5.856   4.133
 9546SOL     OW29536   4.115   2.231   5.595
 9546SOL    HW129537   4.114   2.204   5.498
 9546SOL    HW229538   4.120   2.330   5.602
 9547SOL     OW29539   2.512   5.000   4.295
 9547SOL    HW129540   2.474   5.092   4.282
 9547SOL    HW229541   2.566   4.998   4.380
 9548SOL     OW29542   6.471   4.722   5.576
 9548SOL    HW129543   6.536   4.798   5.568
 9548SOL    HW229544   6.447   4.689   5.485
 9549SOL     OW29545   3.093   2.322   1.478
 9549SOL    HW129546   3.182   2.362   1.499
 9549SOL    HW229547   3.055   2.280   1.561
 9550SOL     OW29548   6.820   1.128   0.733
 9550SOL    HW129549   6.830   1.197   0.662
 9550SOL    HW229550   6.909   1.090   0.756
 9551SOL     OW29551   5.840   2.251   6.106
 9551SOL    HW129552   5.746   2.259   6.137
 9551SOL    HW229553   5.875   2.341   6.082
 9552SOL     OW29554   1.546   6.376   4.377
 9552SOL    HW129555   1.570   6.423   4.462
 9552SOL    HW229556   1.500   6.439   4.315
 9553SOL     OW29557   6.050   2.155   6.885
 9553SOL    HW129558   6.108   2.227   6.922
 9553SOL    HW229559   6.002   2.188   6.804
 9554SOL     OW29560   2.616   0.020   2.255
 9554SOL    HW129561   2.616   0.095   2.188
 9554SOL    HW229562   2.665   0.049   2.337
 9555SOL     OW29563   1.238   1.066   2.458
 9555SOL    HW129564   1.168   0.998   2.478
 9555SOL    HW229565   1.315   1.022   2.413
 9556SOL     OW29566   2.132   4.157   1.569
 9556SOL    HW129567   2.069   4.083   1.544
 9556SOL    HW229568   2.127   4.229   1.500
 9557SOL     OW29569   6.520   6.155   2.089
 9557SOL    HW129570   6.587   6.088   2.059
 9557SOL    HW229571   6.433   6.138   2.042
 9558SOL     OW29572   5.956   6.344   5.501
 9558SOL    HW129573   5.960   6.244   5.507
 9558SOL    HW229574   5.871   6.372   5.458
 9559SOL     OW29575   0.149   4.819   0.946
 9559SOL    HW129576   0.126   4.903   0.897
 9559SOL    HW229577   0.172   4.840   1.041
 9560SOL     OW29578   2.231   1.520   3.498
 9560SOL    HW129579   2.275   1.574   3.570
 9560SOL    HW229580   2.296   1.453   3.463
 9561SOL     OW29581   2.179   0.493   0.322
 9561SOL    HW129582   2.111   0.563   0.301
 9561SOL    HW229583   2.164   0.413   0.264
 9562SOL     OW29584   2.681   0.177   5.443
 9562SOL    HW129585   2.737   0.227   5.508
 9562SOL    HW229586   2.712   0.082   5.438
 9563SOL     OW29587   6.975   6.417   0.539
 9563SOL    HW129588   0.038   6.464   0.544
 9563SOL    HW229589   6.902   6.485   0.526
 9564SOL     OW29590   2.994   0.788   0.600
 9564SOL    HW129591   2.974   0.690   0.593
 9564SOL    HW229592   2.909   0.838   0.616
 9565SOL     OW29593   3.973   0.836   4.559
 9565SOL    HW129594   3.950   0.750   4.603
 9565SOL    HW229595   3.906   0.858   4.489
 9566SOL     OW29596   2.593   4.823   0.067
 9566SOL    HW129597   2.650   4.760   0.014
 9566SOL    HW229598   2.635   4.840   0.156
 9567SOL     OW29599   4.913   5.225   0.623
 9567SOL    HW129600   4.891   5.251   0.529
 9567SOL    HW229601   5.011   5.207   0.630
 9568SOL     OW29602   4.359   2.579   6.205
 9568SOL    HW129603   4.325   2.625   6.123
 9568SOL    HW229604   4.400   2.647   6.266
 9569SOL     OW29605   0.082   1.186   2.137
 9569SOL    HW129606   0.045   1.172   2.229
 9569SOL    HW229607   0.176   1.153   2.134
 9570SOL     OW29608   0.846   3.125   1.679
 9570SOL    HW129609   0.788   3.175   1.615
 9570SOL    HW229610   0.933   3.174   1.690
 9571SOL     OW29611   3.616   4.068   5.952
 9571SOL    HW129612   3.538   4.007   5.958
 9571SOL    HW229613   3.682   4.045   6.023
 9572SOL     OW29614   2.351   4.931   2.013
 9572SOL    HW129615   2.427   4.996   2.016
 9572SOL    HW229616   2.379   4.844   2.053
 9573SOL     OW29617   0.840   3.040   6.414
 9573SOL    HW129618   0.880   3.005   6.498
 9573SOL    HW229619   0.893   3.120   6.383
 9574SOL     OW29620   3.999   3.613   3.304
 9574SOL    HW129621   3.944   3.683   3.349
 9574SOL    HW229622   3.952   3.525   3.309
 9575SOL     OW29623   0.607   0.943   1.198
 9575SOL    HW129624   0.656   1.027   1.222
 9575SOL    HW229625   0.669   0.879   1.154
 9576SOL     OW29626   2.047   0.905   1.433
 9576SOL    HW129627   2.110   0.904   1.355
 9576SOL    HW229628   2.009   0.997   1.444
 9577SOL     OW29629   1.293   0.740   6.420
 9577SOL    HW129630   1.287   0.641   6.410
 9577SOL    HW229631   1.384   0.772   6.394
 9578SOL     OW29632   0.496   3.639   3.451
 9578SOL    HW129633   0.408   3.627   3.404
 9578SOL    HW229634   0.505   3.571   3.523
 9579SOL     OW29635   1.569   5.012   2.828
 9579SOL    HW129636   1.513   4.934   2.856
 9579SOL    HW229637   1.530   5.054   2.746
 9580SOL     OW29638   4.854   4.108   0.712
 9580SOL    HW129639   4.879   4.074   0.803
 9580SOL    HW229640   4.768   4.065   0.683
 9581SOL     OW29641   0.200   5.391   5.710
 9581SOL    HW129642   0.294   5.394   5.677
 9581SOL    HW229643   0.154   5.477   5.688
 9582SOL     OW29644   4.932   5.032   5.947
 9582SOL    HW129645   4.844   5.072   5.920
 9582SOL    HW229646   4.917   4.940   5.983
 9583SOL     OW29647   3.753   4.114   1.449
 9583SOL    HW129648   3.726   4.108   1.545
 9583SOL    HW229649   3.788   4.025   1.418
 9584SOL     OW29650   0.060   5.514   6.827
 9584SOL    HW129651   7.020   5.589   6.824
 9584SOL    HW229652   0.099   5.499   6.736
 9585SOL     OW29653   6.874   0.322   5.132
 9585SOL    HW129654   6.784   0.338   5.093
 9585SOL    HW229655   6.944   0.359   5.072
 9586SOL     OW29656   5.621   4.984   1.946
 9586SOL    HW129657   5.558   4.937   2.008
 9586SOL    HW229658   5.697   4.923   1.923
 9587SOL     OW29659   0.577   0.721   1.757
 9587SOL    HW129660   0.575   0.660   1.679
 9587SOL    HW229661   0.671   0.731   1.790
 9588SOL     OW29662   6.581   1.128   1.301
 9588SOL    HW129663   6.542   1.083   1.381
 9588SOL    HW229664   6.543   1.087   1.218
 9589SOL     OW29665   2.340   5.073   0.117
 9589SOL    HW129666   2.392   5.019   0.183
 9589SOL    HW229667   2.385   5.070   0.028
 9590SOL     OW29668   6.602   2.940   1.943
 9590SOL    HW129669   6.631   3.018   1.999
 9590SOL    HW229670   6.519   2.900   1.981
 9591SOL     OW29671   2.917   6.390   5.589
 9591SOL    HW129672   2.873   6.480   5.581
 9591SOL    HW229673   2.855   6.327   5.635
 9592SOL     OW29674   4.217   4.453   1.003
 9592SOL    HW129675   4.157   4.376   1.025
 9592SOL    HW229676   4.240   4.450   0.906
 9593SOL     OW29677   0.158   0.690   5.761
 9593SOL    HW129678   0.219   0.754   5.807
 9593SOL    HW229679   0.166   0.701   5.662
 9594SOL     OW29680   1.356   5.442   2.344
 9594SOL    HW129681   1.314   5.487   2.423
 9594SOL    HW229682   1.434   5.387   2.374
 9595SOL     OW29683   0.640   4.115   5.324
 9595SOL    HW129684   0.679   4.140   5.236
 9595SOL    HW229685   0.551   4.159   5.335
 9596SOL     OW29686   6.773   5.438   6.195
 9596SOL    HW129687   6.825   5.480   6.269
 9596SOL    HW229688   6.778   5.339   6.203
 9597SOL     OW29689   0.655   4.136   1.668
 9597SOL    HW129690   0.562   4.110   1.641
 9597SOL    HW229691   0.690   4.204   1.605
 9598SOL     OW29692   1.639   3.708   4.133
 9598SOL    HW129693   1.730   3.667   4.140
 9598SOL    HW229694   1.625   3.741   4.039
 9599SOL     OW29695   3.846   0.165   4.766
 9599SOL    HW129696   3.892   0.245   4.805
 9599SOL    HW229697   3.883   0.146   4.675
 9600SOL     OW29698   2.142   6.810   6.476
 9600SOL    HW129699   2.083   6.889   6.493
 9600SOL    HW229700   2.163   6.765   6.563
 9601SOL     OW29701   5.365   3.810   1.125
 9601SOL    HW129702   5.281   3.761   1.151
 9601SOL    HW229703   5.342   3.903   1.096
 9602SOL     OW29704   6.730   5.157   6.199
 9602SOL    HW129705   6.670   5.119   6.129
 9602SOL    HW229706   6.675   5.189   6.276
 9603SOL     OW29707   3.913   1.475   3.932
 9603SOL    HW129708   3.861   1.391   3.921
 9603SOL    HW229709   3.877   1.545   3.870
 9604SOL     OW29710   4.163   7.006   6.955
 9604SOL    HW129711   4.100   6.973   6.885
 9604SOL    HW229712   4.214   0.059   6.921
 9605SOL     OW29713   0.730   5.330   3.491
 9605SOL    HW129714   0.642   5.317   3.445
 9605SOL    HW229715   0.803   5.297   3.432
 9606SOL     OW29716   1.749   6.378   6.459
 9606SOL    HW129717   1.721   6.426   6.543
 9606SOL    HW229718   1.705   6.289   6.455
 9607SOL     OW29719   2.170   1.741   6.982
 9607SOL    HW129720   2.130   1.673   6.920
 9607SOL    HW229721   2.110   1.820   6.988
 9608SOL     OW29722   6.567   5.816   2.520
 9608SOL    HW129723   6.574   5.881   2.445
 9608SOL    HW229724   6.627   5.738   2.503
 9609SOL     OW29725   2.354   4.335   6.477
 9609SOL    HW129726   2.274   4.396   6.479
 9609SOL    HW229727   2.371   4.298   6.568
 9610SOL     OW29728   1.512   5.384   4.350
 9610SOL    HW129729   1.419   5.348   4.357
 9610SOL    HW229730   1.522   5.460   4.415
 9611SOL     OW29731   0.372   6.507   6.763
 9611SOL    HW129732   0.273   6.492   6.760
 9611SOL    HW229733   0.398   6.569   6.689
 9612SOL     OW29734   0.607   4.168   2.139
 9612SOL    HW129735   0.660   4.239   2.092
 9612SOL    HW229736   0.564   4.108   2.072
 9613SOL     OW29737   5.101   6.353   3.394
 9613SOL    HW129738   5.163   6.294   3.341
 9613SOL    HW229739   5.013   6.308   3.404
 9614SOL     OW29740   3.197   2.324   0.486
 9614SOL    HW129741   3.253   2.370   0.418
 9614SOL    HW229742   3.102   2.321   0.455
 9615SOL     OW29743   1.409   0.234   0.438
 9615SOL    HW129744   1.435   0.320   0.483
 9615SOL    HW229745   1.372   0.171   0.506
 9616SOL     OW29746   4.224   3.859   1.309
 9616SOL    HW129747   4.186   3.907   1.389
 9616SOL    HW229748   4.257   3.769   1.337
 9617SOL     OW29749   2.254   2.910   3.408
 9617SOL    HW129750   2.255   2.920   3.507
 9617SOL    HW229751   2.184   2.843   3.382
 9618SOL     OW29752   3.893   6.628   5.247
 9618SOL    HW129753   3.991   6.647   5.249
 9618SOL    HW229754   3.860   6.607   5.339
 9619SOL     OW29755   1.189   6.735   0.457
 9619SOL    HW129756   1.227   6.646   0.433
 9619SOL    HW229757   1.152   6.779   0.375
 9620SOL     OW29758   4.375   2.204   6.927
 9620SOL    HW129759   4.429   2.289   6.930
 9620SOL    HW229760   4.313   2.202   7.005
 9621SOL     OW29761   0.645   0.930   2.177
 9621SOL    HW129762   0.564   0.912   2.120
 9621SOL    HW229763   0.624   1.004   2.241
 9622SOL     OW29764   6.396   0.728   0.379
 9622SOL    HW129765   6.369   0.662   0.449
 9622SOL    HW229766   6.490   0.759   0.397
 9623SOL     OW29767   2.917   4.901   6.205
 9623SOL    HW129768   2.880   4.858   6.287
 9623SOL    HW229769   2.916   5.001   6.217
 9624SOL     OW29770   6.888   4.646   2.179
 9624SOL    HW129771   6.957   4.618   2.245
 9624SOL    HW229772   6.802   4.664   2.225
 9625SOL     OW29773   5.104   5.993   0.365
 9625SOL    HW129774   5.168   5.937   0.417
 9625SOL    HW229775   5.137   6.002   0.271
 9626SOL     OW29776   3.031   6.260   6.729
 9626SOL    HW129777   3.066   6.353   6.724
 9626SOL    HW229778   3.055   6.221   6.818
 9627SOL     OW29779   6.893   5.043   3.204
 9627SOL    HW129780   6.839   5.113   3.250
 9627SOL    HW229781   6.990   5.071   3.203
 9628SOL     OW29782   5.573   5.265   6.514
 9628SOL    HW129783   5.475   5.277   6.494
 9628SOL    HW229784   5.596   5.168   6.509
 9629SOL     OW29785   0.463   6.371   2.907
 9629SOL    HW129786   0.489   6.450   2.853
 9629SOL    HW229787   0.543   6.337   2.957
 9630SOL     OW29788   6.660   6.278   5.648
 9630SOL    HW129789   6.604   6.195   5.650
 9630SOL    HW229790   6.746   6.262   5.695
 9631SOL     OW29791   5.944   0.233   0.199
 9631SOL    HW129792   6.006   0.186   0.136
 9631SOL    HW229793   5.868   0.274   0.148
 9632SOL     OW29794   2.536   5.196   2.774
 9632SOL    HW129795   2.572   5.278   2.818
 9632SOL    HW229796   2.570   5.191   2.680
 9633SOL     OW29797   4.978   4.985   7.022
 9633SOL    HW129798   5.069   4.945   0.007
 9633SOL    HW229799   4.916   4.946   0.064
 9634SOL     OW29800   0.819   0.278   4.268
 9634SOL    HW129801   0.902   0.223   4.276
 9634SOL    HW229802   0.747   0.237   4.323
 9635SOL     OW29803   1.505   4.806   5.705
 9635SOL    HW129804   1.573   4.737   5.681
 9635SOL    HW229805   1.436   4.766   5.764
 9636SOL     OW29806   3.811   2.012   6.064
 9636SOL    HW129807   3.838   2.086   6.003
 9636SOL    HW229808   3.767   2.050   6.145
 9637SOL     OW29809   2.817   1.623   6.669
 9637SOL    HW129810   2.819   1.666   6.579
 9637SOL    HW229811   2.737   1.563   6.676
 9638SOL     OW29812   6.839   3.514   0.255
 9638SOL    HW129813   6.749   3.556   0.267
 9638SOL    HW229814   6.844   3.429   0.306
 9639SOL     OW29815   3.754   1.194   2.072
 9639SOL    HW129816   3.765   1.264   2.002
 9639SOL    HW229817   3.777   1.233   2.162
 9640SOL     OW29818   3.409   1.704   2.996
 9640SOL    HW129819   3.435   1.778   3.057
 9640SOL    HW229820   3.421   1.733   2.901
 9641SOL     OW29821   5.488   6.365   1.025
 9641SOL    HW129822   5.439   6.321   0.950
 9641SOL    HW229823   5.426   6.425   1.075
 9642SOL     OW29824   2.938   5.954   4.865
 9642SOL    HW129825   2.997   6.033   4.881
 9642SOL    HW229826   2.850   5.969   4.910
 9643SOL     OW29827   6.212   4.483   4.213
 9643SOL    HW129828   6.299   4.453   4.175
 9643SOL    HW229829   6.220   4.577   4.247
 9644SOL     OW29830   1.162   5.227   4.957
 9644SOL    HW129831   1.126   5.144   4.998
 9644SOL    HW229832   1.204   5.205   4.869
 9645SOL     OW29833   3.845   5.030   3.778
 9645SOL    HW129834   3.819   5.122   3.750
 9645SOL    HW229835   3.786   5.001   3.853
 9646SOL     OW29836   2.906   4.864   1.948
 9646SOL    HW129837   2.867   4.772   1.956
 9646SOL    HW229838   2.999   4.864   1.984
 9647SOL     OW29839   6.768   5.532   1.086
 9647SOL    HW129840   6.714   5.590   1.147
 9647SOL    HW229841   6.862   5.525   1.121
 9648SOL     OW29842   3.861   1.833   6.947
 9648SOL    HW129843   3.784   1.772   6.935
 9648SOL    HW229844   3.873   1.888   6.864
 9649SOL     OW29845   3.000   5.549   6.999
 9649SOL    HW129846   3.027   5.547   0.070
 9649SOL    HW229847   2.947   5.632   6.982
 9650SOL     OW29848   5.053   4.343   3.406
 9650SOL    HW129849   4.994   4.368   3.329
 9650SOL    HW229850   5.055   4.244   3.417
 9651SOL     OW29851   6.699   0.899   6.813
 9651SOL    HW129852   6.611   0.894   6.766
 9651SOL    HW229853   6.770   0.861   6.755
 9652SOL     OW29854   2.030   4.423   0.572
 9652SOL    HW129855   2.116   4.443   0.619
 9652SOL    HW229856   2.049   4.400   0.477
 9653SOL     OW29857   4.271   5.653   5.043
 9653SOL    HW129858   4.256   5.751   5.042
 9653SOL    HW229859   4.307   5.624   4.955
 9654SOL     OW29860   3.795   3.304   2.296
 9654SOL    HW129861   3.894   3.317   2.306
 9654SOL    HW229862   3.779   3.232   2.228
 9655SOL     OW29863   0.239   1.052   0.248
 9655SOL    HW129864   0.152   1.002   0.245
 9655SOL    HW229865   0.227   1.141   0.203
 9656SOL     OW29866   3.805   2.246   0.891
 9656SOL    HW129867   3.842   2.181   0.825
 9656SOL    HW229868   3.875   2.268   0.959
 9657SOL     OW29869   6.252   1.812   3.099
 9657SOL    HW129870   6.241   1.761   3.185
 9657SOL    HW229871   6.349   1.819   3.077
 9658SOL     OW29872   5.997   1.247   2.789
 9658SOL    HW129873   6.032   1.316   2.853
 9658SOL    HW229874   5.901   1.266   2.767
 9659SOL     OW29875   7.013   3.769   0.622
 9659SOL    HW129876   0.010   3.770   0.525
 9659SOL    HW229877   6.917   3.794   0.635
 9660SOL     OW29878   6.997   5.872   1.546
 9660SOL    HW129879   0.041   5.896   1.478
 9660SOL    HW229880   0.014   5.822   1.621
 9661SOL     OW29881   3.206   6.266   2.147
 9661SOL    HW129882   3.280   6.329   2.127
 9661SOL    HW229883   3.244   6.183   2.189
 9662SOL     OW29884   4.894   2.588   4.800
 9662SOL    HW129885   4.965   2.625   4.740
 9662SOL    HW229886   4.804   2.614   4.763
 9663SOL     OW29887   0.456   6.243   4.076
 9663SOL    HW129888   0.529   6.305   4.104
 9663SOL    HW229889   0.380   6.250   4.141
 9664SOL     OW29890   5.695   6.441   4.040
 9664SOL    HW129891   5.780   6.493   4.045
 9664SOL    HW229892   5.629   6.477   4.106
 9665SOL     OW29893   5.165   6.368   0.113
 9665SOL    HW129894   5.241   6.422   0.149
 9665SOL    HW229895   5.101   6.346   0.186
 9666SOL     OW29896   6.061   3.861   1.678
 9666SOL    HW129897   6.128   3.788   1.667
 9666SOL    HW229898   6.102   3.948   1.649
 9667SOL     OW29899   3.878   3.343   5.350
 9667SOL    HW129900   3.966   3.316   5.310
 9667SOL    HW229901   3.807   3.342   5.279
 9668SOL     OW29902   6.584   1.096   6.080
 9668SOL    HW129903   6.490   1.130   6.078
 9668SOL    HW229904   6.634   1.134   6.002
 9669SOL     OW29905   1.664   0.247   1.950
 9669SOL    HW129906   1.699   0.338   1.925
 9669SOL    HW229907   1.596   0.257   2.022
 9670SOL     OW29908   5.908   4.787   6.248
 9670SOL    HW129909   5.860   4.703   6.276
 9670SOL    HW229910   5.912   4.850   6.326
 9671SOL     OW29911   6.051   5.180   6.963
 9671SOL    HW129912   6.005   5.228   6.888
 9671SOL    HW229913   6.116   5.243   7.007
 9672SOL     OW29914   1.611   6.063   4.107
 9672SOL    HW129915   1.625   6.124   4.185
 9672SOL    HW229916   1.615   5.968   4.139
 9673SOL     OW29917   5.390   3.896   0.491
 9673SOL    HW129918   5.349   3.895   0.399
 9673SOL    HW229919   5.446   3.814   0.504
 9674SOL     OW29920   2.838   6.099   3.067
 9674SOL    HW129921   2.770   6.052   3.010
 9674SOL    HW229922   2.881   6.034   3.129
 9675SOL     OW29923   5.940   2.307   0.522
 9675SOL    HW129924   5.981   2.332   0.611
 9675SOL    HW229925   5.973   2.217   0.495
 9676SOL     OW29926   1.145   3.547   5.747
 9676SOL    HW129927   1.194   3.469   5.788
 9676SOL    HW229928   1.184   3.632   5.783
 9677SOL     OW29929   1.269   5.456   5.051
 9677SOL    HW129930   1.211   5.395   4.996
 9677SOL    HW229931   1.327   5.402   5.111
 9678SOL     OW29932   3.157   3.564   3.428
 9678SOL    HW129933   3.072   3.616   3.420
 9678SOL    HW229934   3.147   3.497   3.501
 9679SOL     OW29935   2.341   1.018   2.251
 9679SOL    HW129936   2.350   1.084   2.176
 9679SOL    HW229937   2.307   0.931   2.216
 9680SOL     OW29938   5.261   0.779   3.188
 9680SOL    HW129939   5.163   0.773   3.208
 9680SOL    HW229940   5.312   0.791   3.274
 9681SOL     OW29941   3.161   1.306   0.255
 9681SOL    HW129942   3.260   1.314   0.246
 9681SOL    HW229943   3.135   1.315   0.351
 9682SOL     OW29944   4.949   4.930   4.344
 9682SOL    HW129945   4.885   4.861   4.309
 9682SOL    HW229946   5.022   4.945   4.277
 9683SOL     OW29947   2.447   5.330   0.885
 9683SOL    HW129948   2.473   5.259   0.950
 9683SOL    HW229949   2.529   5.374   0.849
 9684SOL     OW29950   0.446   2.964   5.442
 9684SOL    HW129951   0.347   2.971   5.444
 9684SOL    HW229952   0.479   2.917   5.524
 9685SOL     OW29953   2.406   4.333   1.522
 9685SOL    HW129954   2.336   4.265   1.543
 9685SOL    HW229955   2.439   4.319   1.429
 9686SOL     OW29956   6.989   1.415   0.086
 9686SOL    HW129957   6.917   1.349   0.109
 9686SOL    HW229958   6.975   1.448   7.019
 9687SOL     OW29959   1.680   0.745   4.183
 9687SOL    HW129960   1.688   0.694   4.269
 9687SOL    HW229961   1.771   0.763   4.146
 9688SOL     OW29962   0.265   2.250   2.379
 9688SOL    HW129963   0.187   2.200   2.415
 9688SOL    HW229964   0.289   2.214   2.289
 9689SOL     OW29965   1.291   6.034   6.990
 9689SOL    HW129966   1.283   5.938   7.014
 9689SOL    HW229967   1.387   6.057   6.977
 9690SOL     OW29968   5.928   6.214   6.674
 9690SOL    HW129969   6.010   6.194   6.620
 9690SOL    HW229970   5.952   6.274   6.751
 9691SOL     OW29971   2.583   5.110   1.447
 9691SOL    HW129972   2.554   5.057   1.527
 9691SOL    HW229973   2.509   5.111   1.380
 9692SOL     OW29974   3.582   5.471   2.758
 9692SOL    HW129975   3.511   5.526   2.802
 9692SOL    HW229976   3.626   5.525   2.686
 9693SOL     OW29977   6.205   5.255   1.456
 9693SOL    HW129978   6.291   5.303   1.440
 9693SOL    HW229979   6.210   5.205   1.542
 9694SOL     OW29980   2.248   0.983   0.238
 9694SOL    HW129981   2.290   0.892   0.229
 9694SOL    HW229982   2.231   1.021   0.147
 9695SOL     OW29983   0.173   3.772   1.991
 9695SOL    HW129984   0.248   3.742   2.051
 9695SOL    HW229985   0.104   3.819   2.045
 9696SOL     OW29986   5.106   3.409   0.637
 9696SOL    HW129987   5.068   3.320   0.610
 9696SOL    HW229988   5.095   3.422   0.735
 9697SOL     OW29989   0.495   6.072   6.296
 9697SOL    HW129990   0.410   6.105   6.254
 9697SOL    HW229991   0.551   6.028   6.226
 9698SOL     OW29992   4.595   1.641   5.802
 9698SOL    HW129993   4.604   1.569   5.871
 9698SOL    HW229994   4.514   1.696   5.821
 9699SOL     OW29995   0.158   5.123   6.516
 9699SOL    HW129996   0.250   5.160   6.528
 9699SOL    HW229997   0.102   5.190   6.468
 9700SOL     OW29998   4.484   4.978   5.033
 9700SOL    HW129999   4.497   4.954   4.937
 9700SOL    HW230000   4.387   5.000   5.049
 9701SOL     OW30001   4.093   5.300   5.060
 9701SOL    HW130002   4.029   5.359   5.011
 9701SOL    HW230003   4.170   5.277   5.001
 9702SOL     OW30004   4.925   0.337   6.828
 9702SOL    HW130005   4.916   0.308   6.924
 9702SOL    HW230006   4.856   0.407   6.809
 9703SOL     OW30007   4.485   4.482   4.296
 9703SOL    HW130008   4.497   4.563   4.355
 9703SOL    HW230009   4.388   4.472   4.273
 9704SOL     OW30010   2.987   0.963   3.176
 9704SOL    HW130011   3.002   1.034   3.107
 9704SOL    HW230012   2.899   0.977   3.220
 9705SOL     OW30013   5.846   4.711   5.954
 9705SOL    HW130014   5.865   4.713   6.052
 9705SOL    HW230015   5.920   4.665   5.907
 9706SOL     OW30016   0.571   2.904   1.022
 9706SOL    HW130017   0.589   2.944   1.112
 9706SOL    HW230018   0.513   2.823   1.033
 9707SOL     OW30019   6.325   4.540   1.550
 9707SOL    HW130020   6.409   4.564   1.502
 9707SOL    HW230021   6.336   4.450   1.594
 9708SOL     OW30022   1.747   2.248   2.361
 9708SOL    HW130023   1.764   2.155   2.393
 9708SOL    HW230024   1.650   2.271   2.374
 9709SOL     OW30025   5.855   6.130   2.963
 9709SOL    HW130026   5.921   6.087   2.901
 9709SOL    HW230027   5.896   6.211   3.004
 9710SOL     OW30028   0.005   1.689   1.913
 9710SOL    HW130029   7.005   1.670   2.007
 9710SOL    HW230030   6.994   1.617   1.853
 9711SOL     OW30031   2.157   4.538   6.193
 9711SOL    HW130032   2.137   4.563   6.098
 9711SOL    HW230033   2.139   4.441   6.206
 9712SOL     OW30034   6.174   4.726   6.114
 9712SOL    HW130035   6.166   4.636   6.073
 9712SOL    HW230036   6.088   4.749   6.161
 9713SOL     OW30037   1.380   5.095   3.432
 9713SOL    HW130038   1.437   5.170   3.466
 9713SOL    HW230039   1.285   5.109   3.460
 9714SOL     OW30040   2.970   1.077   0.781
 9714SOL    HW130041   2.910   1.003   0.809
 9714SOL    HW230042   2.937   1.115   0.694
 9715SOL     OW30043   5.311   3.945   6.260
 9715SOL    HW130044   5.409   3.964   6.273
 9715SOL    HW230045   5.296   3.846   6.259
 9716SOL     OW30046   4.105   3.271   0.180
 9716SOL    HW130047   4.157   3.192   0.147
 9716SOL    HW230048   4.011   3.264   0.148
 9717SOL     OW30049   5.262   5.934   6.246
 9717SOL    HW130050   5.186   5.999   6.248
 9717SOL    HW230051   5.343   5.977   6.286
 9718SOL     OW30052   5.167   2.575   0.922
 9718SOL    HW130053   5.217   2.627   0.991
 9718SOL    HW230054   5.209   2.484   0.913
 9719SOL     OW30055   0.068   1.734   6.667
 9719SOL    HW130056   0.096   1.826   6.639
 9719SOL    HW230057   0.132   1.667   6.628
 9720SOL     OW30058   0.057   5.486   2.324
 9720SOL    HW130059   0.104   5.475   2.412
 9720SOL    HW230060   0.095   5.564   2.275
 9721SOL     OW30061   0.224   2.334   1.647
 9721SOL    HW130062   0.190   2.373   1.732
 9721SOL    HW230063   0.199   2.237   1.642
 9722SOL     OW30064   6.670   0.469   4.217
 9722SOL    HW130065   6.579   0.507   4.198
 9722SOL    HW230066   6.677   0.447   4.315
 9723SOL     OW30067   2.290   6.057   2.955
 9723SOL    HW130068   2.331   6.077   3.044
 9723SOL    HW230069   2.281   6.141   2.902
 9724SOL     OW30070   1.667   3.945   0.494
 9724SOL    HW130071   1.739   3.898   0.443
 9724SOL    HW230072   1.706   4.026   0.539
 9725SOL     OW30073   3.243   4.799   6.449
 9725SOL    HW130074   3.195   4.747   6.378
 9725SOL    HW230075   3.316   4.853   6.407
 9726SOL     OW30076   5.090   0.460   3.984
 9726SOL    HW130077   5.172   0.428   3.935
 9726SOL    HW230078   5.114   0.483   4.078
 9727SOL     OW30079   0.459   3.751   5.743
 9727SOL    HW130080   0.474   3.827   5.680
 9727SOL    HW230081   0.431   3.670   5.691
 9728SOL     OW30082   0.526   0.312   6.431
 9728SOL    HW130083   0.603   0.367   6.398
 9728SOL    HW230084   0.461   0.297   6.357
 9729SOL     OW30085   0.870   4.448   3.259
 9729SOL    HW130086   0.880   4.471   3.356
 9729SOL    HW230087   0.918   4.362   3.240
 9730SOL     OW30088   0.789   3.409   3.238
 9730SOL    HW130089   0.874   3.457   3.261
 9730SOL    HW230090   0.811   3.327   3.184
 9731SOL     OW30091   4.356   4.126   0.989
 9731SOL    HW130092   4.303   4.209   1.005
 9731SOL    HW230093   4.399   4.096   1.074
 9732SOL     OW30094   5.930   5.671   2.916
 9732SOL    HW130095   6.010   5.707   2.964
 9732SOL    HW230096   5.853   5.734   2.927
 9733SOL     OW30097   5.726   5.162   1.053
 9733SOL    HW130098   5.727   5.169   0.953
 9733SOL    HW230099   5.819   5.176   1.088
 9734SOL     OW30100   6.127   1.149   2.513
 9734SOL    HW130101   6.188   1.221   2.480
 9734SOL    HW230102   6.074   1.183   2.591
 9735SOL     OW30103   2.624   4.552   3.170
 9735SOL    HW130104   2.570   4.584   3.248
 9735SOL    HW230105   2.701   4.614   3.155
 9736SOL     OW30106   6.324   1.850   6.394
 9736SOL    HW130107   6.283   1.786   6.459
 9736SOL    HW230108   6.393   1.802   6.339
 9737SOL     OW30109   6.470   3.163   4.522
 9737SOL    HW130110   6.463   3.168   4.622
 9737SOL    HW230111   6.393   3.212   4.481
 9738SOL     OW30112   1.968   6.849   1.485
 9738SOL    HW130113   1.997   6.941   1.513
 9738SOL    HW230114   1.878   6.829   1.523
 9739SOL     OW30115   5.972   5.312   2.229
 9739SOL    HW130116   6.023   5.303   2.315
 9739SOL    HW230117   5.890   5.256   2.234
 9740SOL     OW30118   6.490   2.309   2.541
 9740SOL    HW130119   6.529   2.250   2.612
 9740SOL    HW230120   6.539   2.396   2.539
 9741SOL     OW30121   4.954   2.251   2.963
 9741SOL    HW130122   5.012   2.170   2.963
 9741SOL    HW230123   4.983   2.313   3.036
 9742SOL     OW30124   3.852   0.008   1.718
 9742SOL    HW130125   3.908   7.000   1.793
 9742SOL    HW230126   3.908   0.014   1.635
 9743SOL     OW30127   1.036   2.022   4.333
 9743SOL    HW130128   0.950   2.037   4.284
 9743SOL    HW230129   1.055   2.102   4.390
 9744SOL     OW30130   0.406   0.795   2.872
 9744SOL    HW130131   0.451   0.719   2.919
 9744SOL    HW230132   0.311   0.772   2.855
 9745SOL     OW30133   6.457   2.717   6.269
 9745SOL    HW130134   6.499   2.757   6.350
 9745SOL    HW230135   6.527   2.695   6.202
 9746SOL     OW30136   6.783   0.734   5.872
 9746SOL    HW130137   6.706   0.674   5.854
 9746SOL    HW230138   6.763   0.791   5.952
 9747SOL     OW30139   2.169   0.371   1.477
 9747SOL    HW130140   2.242   0.303   1.475
 9747SOL    HW230141   2.134   0.382   1.570
 9748SOL     OW30142   0.502   1.769   3.550
 9748SOL    HW130143   0.495   1.754   3.451
 9748SOL    HW230144   0.531   1.864   3.567
 9749SOL     OW30145   1.927   1.569   4.991
 9749SOL    HW130146   1.939   1.571   4.891
 9749SOL    HW230147   1.935   1.475   5.024
 9750SOL     OW30148   5.820   4.529   3.354
 9750SOL    HW130149   5.829   4.629   3.353
 9750SOL    HW230150   5.734   4.504   3.309
 9751SOL     OW30151   1.423   0.964   0.527
 9751SOL    HW130152   1.348   0.898   0.527
 9751SOL    HW230153   1.510   0.916   0.521
 9752SOL     OW30154   5.388   2.009   6.440
 9752SOL    HW130155   5.457   2.043   6.503
 9752SOL    HW230156   5.402   1.912   6.423
 9753SOL     OW30157   6.282   5.910   5.564
 9753SOL    HW130158   6.223   5.884   5.641
 9753SOL    HW230159   6.233   5.975   5.505
 9754SOL     OW30160   0.814   1.531   6.551
 9754SOL    HW130161   0.777   1.511   6.460
 9754SOL    HW230162   0.830   1.446   6.600
 9755SOL     OW30163   4.170   4.005   5.438
 9755SOL    HW130164   4.161   3.952   5.522
 9755SOL    HW230165   4.219   3.951   5.369
 9756SOL     OW30166   6.018   3.371   0.554
 9756SOL    HW130167   5.944   3.437   0.543
 9756SOL    HW230168   6.048   3.339   0.464
 9757SOL     OW30169   5.675   3.637   3.272
 9757SOL    HW130170   5.774   3.643   3.257
 9757SOL    HW230171   5.633   3.725   3.251
 9758SOL     OW30172   2.515   6.931   7.014
 9758SOL    HW130173   2.529   6.840   0.026
 9758SOL    HW230174   2.564   6.939   6.927
 9759SOL     OW30175   2.251   6.811   6.791
 9759SOL    HW130176   2.161   6.844   6.821
 9759SOL    HW230177   2.300   6.885   6.746
 9760SOL     OW30178   4.859   3.300   5.199
 9760SOL    HW130179   4.811   3.385   5.221
 9760SOL    HW230180   4.943   3.322   5.149
 9761SOL     OW30181   6.031   0.488   2.317
 9761SOL    HW130182   5.986   0.571   2.283
 9761SOL    HW230183   5.980   0.408   2.285
 9762SOL     OW30184   3.182   1.945   4.475
 9762SOL    HW130185   3.100   1.910   4.521
 9762SOL    HW230186   3.218   2.022   4.528
 9763SOL     OW30187   5.160   1.914   1.784
 9763SOL    HW130188   5.145   1.978   1.710
 9763SOL    HW230189   5.216   1.957   1.855
 9764SOL     OW30190   0.568   2.785   2.623
 9764SOL    HW130191   0.595   2.706   2.678
 9764SOL    HW230192   0.636   2.858   2.634
 9765SOL     OW30193   6.649   1.234   2.752
 9765SOL    HW130194   6.704   1.159   2.788
 9765SOL    HW230195   6.552   1.216   2.771
 9766SOL     OW30196   2.677   0.514   3.393
 9766SOL    HW130197   2.625   0.590   3.432
 9766SOL    HW230198   2.674   0.436   3.455
 9767SOL     OW30199   5.274   2.206   5.756
 9767SOL    HW130200   5.186   2.255   5.762
 9767SOL    HW230201   5.260   2.117   5.712
 9768SOL     OW30202   5.162   1.673   2.554
 9768SOL    HW130203   5.172   1.574   2.538
 9768SOL    HW230204   5.126   1.716   2.471
 9769SOL     OW30205   2.636   0.461   2.663
 9769SOL    HW130206   2.660   0.377   2.711
 9769SOL    HW230207   2.564   0.441   2.596
 9770SOL     OW30208   5.358   0.421   6.859
 9770SOL    HW130209   5.363   0.383   6.766
 9770SOL    HW230210   5.399   0.357   6.923
 9771SOL     OW30211   2.686   5.502   1.161
 9771SOL    HW130212   2.624   5.442   1.213
 9771SOL    HW230213   2.634   5.547   1.088
 9772SOL     OW30214   1.181   6.262   2.798
 9772SOL    HW130215   1.180   6.319   2.716
 9772SOL    HW230216   1.112   6.190   2.790
 9773SOL     OW30217   5.347   6.466   3.983
 9773SOL    HW130218   5.355   6.561   3.953
 9773SOL    HW230219   5.399   6.453   4.067
 9774SOL     OW30220   6.330   4.821   1.564
 9774SOL    HW130221   6.321   4.877   1.646
 9774SOL    HW230222   6.302   4.727   1.584
 9775SOL     OW30223   2.342   0.804   3.698
 9775SOL    HW130224   2.377   0.802   3.792
 9775SOL    HW230225   2.331   0.899   3.669
 9776SOL     OW30226   0.261   5.442   4.569
 9776SOL    HW130227   0.162   5.435   4.562
 9776SOL    HW230228   0.303   5.404   4.486
 9777SOL     OW30229   5.354   4.330   6.236
 9777SOL    HW130230   5.375   4.277   6.155
 9777SOL    HW230231   5.295   4.407   6.212
 9778SOL     OW30232   0.806   0.880   3.365
 9778SOL    HW130233   0.815   0.934   3.281
 9778SOL    HW230234   0.754   0.931   3.433
 9779SOL     OW30235   2.071   0.551   5.016
 9779SOL    HW130236   2.092   0.456   5.040
 9779SOL    HW230237   2.001   0.586   5.079
 9780SOL     OW30238   2.497   1.537   0.790
 9780SOL    HW130239   2.586   1.565   0.755
 9780SOL    HW230240   2.436   1.616   0.792
 9781SOL     OW30241   1.234   3.985   4.371
 9781SOL    HW130242   1.277   3.952   4.287
 9781SOL    HW230243   1.282   4.067   4.403
 9782SOL     OW30244   6.588   0.775   1.838
 9782SOL    HW130245   6.545   0.735   1.757
 9782SOL    HW230246   6.654   0.711   1.876
 9783SOL     OW30247   5.028   2.419   3.157
 9783SOL    HW130248   4.967   2.494   3.131
 9783SOL    HW230249   5.119   2.456   3.178
 9784SOL     OW30250   3.754   1.730   4.246
 9784SOL    HW130251   3.666   1.754   4.204
 9784SOL    HW230252   3.767   1.631   4.242
 9785SOL     OW30253   6.578   3.978   5.664
 9785SOL    HW130254   6.525   4.062   5.666
 9785SOL    HW230255   6.608   3.956   5.757
 9786SOL     OW30256   2.366   4.869   6.538
 9786SOL    HW130257   2.351   4.936   6.610
 9786SOL    HW230258   2.296   4.797   6.543
 9787SOL     OW30259   4.554   3.494   1.681
 9787SOL    HW130260   4.471   3.443   1.702
 9787SOL    HW230261   4.576   3.483   1.584
 9788SOL     OW30262   0.372   0.463   3.955
 9788SOL    HW130263   0.471   0.449   3.953
 9788SOL    HW230264   0.349   0.549   3.909
 9789SOL     OW30265   1.284   5.655   0.272
 9789SOL    HW130266   1.374   5.683   0.305
 9789SOL    HW230267   1.230   5.618   0.347
 9790SOL     OW30268   5.606   3.951   5.724
 9790SOL    HW130269   5.533   4.012   5.695
 9790SOL    HW230270   5.578   3.900   5.806
 9791SOL     OW30271   0.139   1.642   2.992
 9791SOL    HW130272   0.145   1.558   2.938
 9791SOL    HW230273   0.064   1.699   2.959
 9792SOL     OW30274   5.566   5.464   2.118
 9792SOL    HW130275   5.651   5.500   2.156
 9792SOL    HW230276   5.508   5.428   2.192
 9793SOL     OW30277   5.611   4.757   3.590
 9793SOL    HW130278   5.534   4.768   3.528
 9793SOL    HW230279   5.669   4.839   3.587
 9794SOL     OW30280   6.212   4.636   6.689
 9794SOL    HW130281   6.214   4.703   6.614
 9794SOL    HW230282   6.169   4.552   6.657
 9795SOL     OW30283   1.478   2.167   4.270
 9795SOL    HW130284   1.544   2.107   4.316
 9795SOL    HW230285   1.468   2.252   4.321
 9796SOL     OW30286   4.068   2.553   1.275
 9796SOL    HW130287   3.985   2.562   1.220
 9796SOL    HW230288   4.084   2.456   1.295
 9797SOL     OW30289   3.428   5.390   6.840
 9797SOL    HW130290   3.391   5.319   6.900
 9797SOL    HW230291   3.526   5.374   6.826
 9798SOL     OW30292   3.074   0.441   1.054
 9798SOL    HW130293   3.070   0.491   1.141
 9798SOL    HW230294   3.085   0.506   0.979
 9799SOL     OW30295   3.528   3.836   3.376
 9799SOL    HW130296   3.601   3.791   3.428
 9799SOL    HW230297   3.481   3.768   3.320
 9800SOL     OW30298   3.197   6.506   5.152
 9800SOL    HW130299   3.278   6.507   5.211
 9800SOL    HW230300   3.126   6.449   5.194
 9801SOL     OW30301   4.882   4.463   0.310
 9801SOL    HW130302   4.858   4.368   0.290
 9801SOL    HW230303   4.940   4.466   0.391
 9802SOL     OW30304   0.826   2.668   1.746
 9802SOL    HW130305   0.918   2.697   1.720
 9802SOL    HW230306   0.760   2.739   1.724
 9803SOL     OW30307   6.150   1.556   0.494
 9803SOL    HW130308   6.060   1.536   0.534
 9803SOL    HW230309   6.218   1.559   0.568
 9804SOL     OW30310   0.879   6.547   2.793
 9804SOL    HW130311   0.965   6.507   2.760
 9804SOL    HW230312   0.884   6.646   2.788
 9805SOL     OW30313   0.991   5.992   5.478
 9805SOL    HW130314   0.980   5.937   5.560
 9805SOL    HW230315   1.044   5.942   5.410
 9806SOL     OW30316   1.396   1.838   0.284
 9806SOL    HW130317   1.391   1.928   0.240
 9806SOL    HW230318   1.488   1.823   0.320
 9807SOL     OW30319   1.867   3.087   7.000
 9807SOL    HW130320   1.905   2.998   6.977
 9807SOL    HW230321   1.829   3.130   6.918
 9808SOL     OW30322   5.930   1.466   5.656
 9808SOL    HW130323   6.027   1.445   5.662
 9808SOL    HW230324   5.918   1.562   5.630
 9809SOL     OW30325   0.926   2.021   6.709
 9809SOL    HW130326   0.978   1.992   6.629
 9809SOL    HW230327   0.858   1.951   6.731
 9810SOL     OW30328   2.378   2.466   3.999
 9810SOL    HW130329   2.287   2.425   4.001
 9810SOL    HW230330   2.373   2.561   4.031
 9811SOL     OW30331   5.407   5.474   4.087
 9811SOL    HW130332   5.368   5.458   4.178
 9811SOL    HW230333   5.361   5.553   4.045
 9812SOL     OW30334   2.792   2.361   5.773
 9812SOL    HW130335   2.823   2.378   5.867
 9812SOL    HW230336   2.867   2.377   5.709
 9813SOL     OW30337   6.070   0.543   7.001
 9813SOL    HW130338   6.124   0.499   0.047
 9813SOL    HW230339   6.076   0.643   7.012
 9814SOL     OW30340   0.438   1.248   6.962
 9814SOL    HW130341   0.442   1.342   6.929
 9814SOL    HW230342   0.510   1.194   6.919
 9815SOL     OW30343   5.986   3.774   2.640
 9815SOL    HW130344   5.907   3.726   2.678
 9815SOL    HW230345   6.052   3.708   2.606
 9816SOL     OW30346   0.177   1.641   6.296
 9816SOL    HW130347   0.166   1.602   6.388
 9816SOL    HW230348   0.254   1.704   6.295
 9817SOL     OW30349   2.596   5.701   2.440
 9817SOL    HW130350   2.686   5.735   2.469
 9817SOL    HW230351   2.560   5.639   2.510
 9818SOL     OW30352   1.745   1.151   3.979
 9818SOL    HW130353   1.652   1.116   3.991
 9818SOL    HW230354   1.796   1.141   4.064
 9819SOL     OW30355   5.128   2.962   4.971
 9819SOL    HW130356   5.172   3.049   4.992
 9819SOL    HW230357   5.043   2.953   5.023
 9820SOL     OW30358   3.821   3.235   6.657
 9820SOL    HW130359   3.745   3.170   6.650
 9820SOL    HW230360   3.789   3.327   6.632
 9821SOL     OW30361   4.803   0.687   0.544
 9821SOL    HW130362   4.787   0.722   0.637
 9821SOL    HW230363   4.720   0.699   0.490
 9822SOL     OW30364   3.084   5.276   3.505
 9822SOL    HW130365   3.158   5.241   3.448
 9822SOL    HW230366   3.005   5.215   3.499
 9823SOL     OW30367   2.006   6.943   1.941
 9823SOL    HW130368   1.971   6.869   1.884
 9823SOL    HW230369   2.019   7.025   1.885
 9824SOL     OW30370   1.880   5.578   4.729
 9824SOL    HW130371   1.936   5.555   4.808
 9824SOL    HW230372   1.939   5.590   4.649
 9825SOL     OW30373   5.570   6.489   5.020
 9825SOL    HW130374   5.670   6.479   5.025
 9825SOL    HW230375   5.528   6.428   5.087
 9826SOL     OW30376   3.688   6.262   5.615
 9826SOL    HW130377   3.693   6.347   5.669
 9826SOL    HW230378   3.767   6.205   5.635
 9827SOL     OW30379   2.203   3.910   3.649
 9827SOL    HW130380   2.140   3.834   3.662
 9827SOL    HW230381   2.236   3.911   3.555
 9828SOL     OW30382   2.908   2.291   5.226
 9828SOL    HW130383   2.895   2.316   5.322
 9828SOL    HW230384   3.002   2.309   5.199
 9829SOL     OW30385   4.353   6.108   6.422
 9829SOL    HW130386   4.284   6.048   6.381
 9829SOL    HW230387   4.351   6.098   6.521
 9830SOL     OW30388   4.838   2.020   1.508
 9830SOL    HW130389   4.912   2.019   1.441
 9830SOL    HW230390   4.865   1.968   1.589
 9831SOL     OW30391   0.763   4.864   2.298
 9831SOL    HW130392   0.708   4.941   2.266
 9831SOL    HW230393   0.772   4.868   2.398
 9832SOL     OW30394   4.366   5.616   2.387
 9832SOL    HW130395   4.343   5.616   2.484
 9832SOL    HW230396   4.435   5.546   2.369
 9833SOL     OW30397   3.412   3.197   3.342
 9833SOL    HW130398   3.318   3.173   3.317
 9833SOL    HW230399   3.428   3.173   3.438
 9834SOL     OW30400   2.185   4.602   5.667
 9834SOL    HW130401   2.221   4.538   5.598
 9834SOL    HW230402   2.142   4.680   5.620
 9835SOL     OW30403   3.660   3.258   4.280
 9835SOL    HW130404   3.569   3.232   4.249
 9835SOL    HW230405   3.654   3.344   4.332
 9836SOL     OW30406   0.686   4.285   4.385
 9836SOL    HW130407   0.617   4.348   4.348
 9836SOL    HW230408   0.665   4.192   4.356
 9837SOL     OW30409   5.350   0.557   2.455
 9837SOL    HW130410   5.352   0.647   2.411
 9837SOL    HW230411   5.286   0.497   2.405
 9838SOL     OW30412   1.590   6.320   0.708
 9838SOL    HW130413   1.670   6.380   0.702
 9838SOL    HW230414   1.508   6.371   0.682
 9839SOL     OW30415   4.693   6.363   3.131
 9839SOL    HW130416   4.636   6.343   3.051
 9839SOL    HW230417   4.719   6.278   3.176
 9840SOL     OW30418   5.037   1.795   0.557
 9840SOL    HW130419   4.980   1.863   0.603
 9840SOL    HW230420   5.062   1.723   0.622
 9841SOL     OW30421   1.418   4.898   3.695
 9841SOL    HW130422   1.395   4.901   3.598
 9841SOL    HW230423   1.342   4.936   3.748
 9842SOL     OW30424   3.398   3.025   0.891
 9842SOL    HW130425   3.390   3.123   0.873
 9842SOL    HW230426   3.478   3.008   0.949
 9843SOL     OW30427   0.206   6.978   1.710
 9843SOL    HW130428   0.195   6.984   1.611
 9843SOL    HW230429   0.119   6.995   1.755
 9844SOL     OW30430   6.025   1.128   4.100
 9844SOL    HW130431   6.079   1.081   4.031
 9844SOL    HW230432   5.929   1.100   4.093
 9845SOL     OW30433   1.451   2.594   2.464
 9845SOL    HW130434   1.470   2.616   2.559
 9845SOL    HW230435   1.398   2.668   2.422
 9846SOL     OW30436   4.600   1.649   1.212
 9846SOL    HW130437   4.647   1.587   1.150
 9846SOL    HW230438   4.662   1.720   1.243
 9847SOL     OW30439   3.748   2.870   2.405
 9847SOL    HW130440   3.792   2.960   2.412
 9847SOL    HW230441   3.809   2.800   2.443
 9848SOL     OW30442   4.093   4.812   5.965
 9848SOL    HW130443   4.135   4.881   5.905
 9848SOL    HW230444   4.003   4.788   5.928
 9849SOL     OW30445   0.907   6.880   6.763
 9849SOL    HW130446   0.835   6.950   6.774
 9849SOL    HW230447   0.865   6.793   6.737
 9850SOL     OW30448   0.112   0.748   3.630
 9850SOL    HW130449   0.020   0.782   3.614
 9850SOL    HW230450   0.120   0.717   3.724
 9851SOL     OW30451   2.276   6.555   4.319
 9851SOL    HW130452   2.315   6.560   4.227
 9851SOL    HW230453   2.274   6.646   4.359
 9852SOL     OW30454   1.757   1.726   5.150
 9852SOL    HW130455   1.786   1.739   5.245
 9852SOL    HW230456   1.802   1.645   5.112
 9853SOL     OW30457   6.338   3.403   5.523
 9853SOL    HW130458   6.405   3.387   5.596
 9853SOL    HW230459   6.252   3.433   5.564
 9854SOL     OW30460   0.502   5.515   4.751
 9854SOL    HW130461   0.526   5.424   4.717
 9854SOL    HW230462   0.420   5.547   4.704
 9855SOL     OW30463   1.433   3.488   0.867
 9855SOL    HW130464   1.500   3.475   0.793
 9855SOL    HW230465   1.464   3.440   0.949
 9856SOL     OW30466   5.648   4.687   4.125
 9856SOL    HW130467   5.616   4.776   4.156
 9856SOL    HW230468   5.748   4.683   4.135
 9857SOL     OW30469   5.840   2.962   2.822
 9857SOL    HW130470   5.789   3.040   2.859
 9857SOL    HW230471   5.776   2.899   2.778
 9858SOL     OW30472   0.669   6.880   1.500
 9858SOL    HW130473   0.761   6.919   1.494
 9858SOL    HW230474   0.635   6.888   1.594
 9859SOL     OW30475   6.809   4.601   4.213
 9859SOL    HW130476   6.713   4.583   4.235
 9859SOL    HW230477   6.818   4.693   4.175
 9860SOL     OW30478   1.600   2.228   4.637
 9860SOL    HW130479   1.521   2.173   4.608
 9860SOL    HW230480   1.611   2.220   4.736
 9861SOL     OW30481   3.052   0.598   3.487
 9861SOL    HW130482   2.968   0.651   3.492
 9861SOL    HW230483   3.052   0.543   3.403
 9862SOL     OW30484   2.698   3.317   0.779
 9862SOL    HW130485   2.609   3.362   0.768
 9862SOL    HW230486   2.694   3.225   0.741
 9863SOL     OW30487   3.161   5.559   1.108
 9863SOL    HW130488   3.168   5.657   1.124
 9863SOL    HW230489   3.113   5.516   1.185
 9864SOL     OW30490   3.356   0.674   5.326
 9864SOL    HW130491   3.289   0.722   5.269
 9864SOL    HW230492   3.309   0.610   5.386
 9865SOL     OW30493   0.908   6.387   4.808
 9865SOL    HW130494   0.862   6.298   4.815
 9865SOL    HW230495   1.003   6.377   4.838
 9866SOL     OW30496   5.908   4.461   4.805
 9866SOL    HW130497   5.963   4.401   4.862
 9866SOL    HW230498   5.829   4.411   4.769
 9867SOL     OW30499   6.091   2.460   2.351
 9867SOL    HW130500   6.142   2.436   2.434
 9867SOL    HW230501   6.126   2.545   2.313
 9868SOL     OW30502   0.292   3.541   4.437
 9868SOL    HW130503   0.391   3.529   4.444
 9868SOL    HW230504   0.246   3.481   4.502
 9869SOL     OW30505   0.764   3.026   0.875
 9869SOL    HW130506   0.699   2.968   0.924
 9869SOL    HW230507   0.853   2.980   0.872
 9870SOL     OW30508   4.324   0.585   2.810
 9870SOL    HW130509   4.268   0.606   2.890
 9870SOL    HW230510   4.396   0.652   2.801
 9871SOL     OW30511   6.653   3.264   5.440
 9871SOL    HW130512   6.601   3.201   5.499
 9871SOL    HW230513   6.688   3.339   5.495
 9872SOL     OW30514   2.727   5.271   5.038
 9872SOL    HW130515   2.647   5.284   5.097
 9872SOL    HW230516   2.745   5.174   5.028
 9873SOL     OW30517   2.310   2.281   6.101
 9873SOL    HW130518   2.322   2.254   6.197
 9873SOL    HW230519   2.400   2.298   6.061
 9874SOL     OW30520   0.219   3.254   5.469
 9874SOL    HW130521   0.268   3.275   5.385
 9874SOL    HW230522   0.204   3.155   5.475
 9875SOL     OW30523   6.883   5.875   2.795
 9875SOL    HW130524   6.901   5.801   2.730
 9875SOL    HW230525   6.863   5.959   2.744
 9876SOL     OW30526   5.417   1.091   4.043
 9876SOL    HW130527   5.344   1.035   4.003
 9876SOL    HW230528   5.468   1.135   3.969
 9877SOL     OW30529   6.967   4.433   4.557
 9877SOL    HW130530   6.880   4.390   4.581
 9877SOL    HW230531   7.001   4.394   4.471
 9878SOL     OW30532   2.238   3.671   6.478
 9878SOL    HW130533   2.301   3.655   6.402
 9878SOL    HW230534   2.251   3.764   6.513
 9879SOL     OW30535   0.389   4.668   5.328
 9879SOL    HW130536   0.476   4.647   5.283
 9879SOL    HW230537   0.405   4.682   5.426
 9880SOL     OW30538   2.464   0.419   0.639
 9880SOL    HW130539   2.440   0.362   0.561
 9880SOL    HW230540   2.437   0.374   0.724
 9881SOL     OW30541   6.630   1.213   4.490
 9881SOL    HW130542   6.693   1.148   4.446
 9881SOL    HW230543   6.648   1.305   4.455
 9882SOL     OW30544   3.651   3.716   5.200
 9882SOL    HW130545   3.744   3.740   5.227
 9882SOL    HW230546   3.651   3.626   5.155
 9883SOL     OW30547   1.341   5.630   1.770
 9883SOL    HW130548   1.396   5.711   1.792
 9883SOL    HW230549   1.394   5.547   1.792
 9884SOL     OW30550   3.583   2.287   0.530
 9884SOL    HW130551   3.508   2.254   0.472
 9884SOL    HW230552   3.546   2.314   0.619
 9885SOL     OW30553   0.897   3.206   4.025
 9885SOL    HW130554   0.818   3.262   4.047
 9885SOL    HW230555   0.871   3.109   4.026
 9886SOL     OW30556   6.343   6.676   1.880
 9886SOL    HW130557   6.383   6.663   1.970
 9886SOL    HW230558   6.308   6.589   1.845
 9887SOL     OW30559   3.202   0.272   0.209
 9887SOL    HW130560   3.122   0.214   0.197
 9887SOL    HW230561   3.225   0.277   0.306
 9888SOL     OW30562   5.622   6.043   3.280
 9888SOL    HW130563   5.700   6.105   3.283
 9888SOL    HW230564   5.558   6.065   3.354
 9889SOL     OW30565   1.218   5.215   2.408
 9889SOL    HW130566   1.256   5.304   2.387
 9889SOL    HW230567   1.231   5.153   2.330
 9890SOL     OW30568   6.615   2.823   0.594
 9890SOL    HW130569   6.699   2.801   0.544
 9890SOL    HW230570   6.542   2.760   0.566
 9891SOL     OW30571   5.268   4.821   1.779
 9891SOL    HW130572   5.263   4.901   1.718
 9891SOL    HW230573   5.290   4.740   1.725
 9892SOL     OW30574   2.658   5.573   3.815
 9892SOL    HW130575   2.644   5.477   3.793
 9892SOL    HW230576   2.627   5.591   3.908
 9893SOL     OW30577   6.451   6.265   2.663
 9893SOL    HW130578   6.510   6.330   2.615
 9893SOL    HW230579   6.410   6.203   2.596
 9894SOL     OW30580   3.075   1.235   6.383
 9894SOL    HW130581   3.030   1.320   6.356
 9894SOL    HW230582   3.112   1.190   6.301
 9895SOL     OW30583   6.400   2.208   5.520
 9895SOL    HW130584   6.341   2.129   5.538
 9895SOL    HW230585   6.396   2.270   5.598
 9896SOL     OW30586   4.951   2.527   0.762
 9896SOL    HW130587   4.869   2.577   0.790
 9896SOL    HW230588   5.028   2.555   0.819
 9897SOL     OW30589   4.934   1.243   2.367
 9897SOL    HW130590   4.989   1.275   2.291
 9897SOL    HW230591   4.981   1.262   2.453
 9898SOL     OW30592   0.861   5.522   5.186
 9898SOL    HW130593   0.869   5.429   5.222
 9898SOL    HW230594   0.880   5.521   5.088
 9899SOL     OW30595   6.506   4.561   2.187
 9899SOL    HW130596   6.417   4.583   2.147
 9899SOL    HW230597   6.573   4.546   2.115
 9900SOL     OW30598   2.084   1.891   2.802
 9900SOL    HW130599   2.066   1.836   2.720
 9900SOL    HW230600   2.056   1.985   2.786
 9901SOL     OW30601   1.453   2.863   0.354
 9901SOL    HW130602   1.475   2.956   0.327
 9901SOL    HW230603   1.489   2.846   0.446
 9902SOL     OW30604   3.489   3.030   1.383
 9902SOL    HW130605   3.432   3.019   1.302
 9902SOL    HW230606   3.502   2.941   1.427
 9903SOL     OW30607   4.556   0.556   2.512
 9903SOL    HW130608   4.478   0.495   2.527
 9903SOL    HW230609   4.600   0.576   2.600
 9904SOL     OW30610   6.944   3.401   6.810
 9904SOL    HW130611   6.853   3.359   6.809
 9904SOL    HW230612   6.954   3.455   6.894
 9905SOL     OW30613   2.277   6.532   0.444
 9905SOL    HW130614   2.280   6.433   0.435
 9905SOL    HW230615   2.192   6.559   0.491
 9906SOL     OW30616   1.538   3.098   0.246
 9906SOL    HW130617   1.567   3.177   0.298
 9906SOL    HW230618   1.465   3.124   0.182
 9907SOL     OW30619   2.546   6.815   3.487
 9907SOL    HW130620   2.481   6.888   3.508
 9907SOL    HW230621   2.525   6.777   3.397
 9908SOL     OW30622   0.555   3.260   5.820
 9908SOL    HW130623   0.640   3.273   5.769
 9908SOL    HW230624   0.530   3.346   5.865
 9909SOL     OW30625   3.301   0.714   3.109
 9909SOL    HW130626   3.210   0.675   3.095
 9909SOL    HW230627   3.325   0.708   3.206
 9910SOL     OW30628   0.395   5.072   1.580
 9910SOL    HW130629   0.396   5.142   1.651
 9910SOL    HW230630   0.451   4.994   1.609
 9911SOL     OW30631   4.959   5.262   3.202
 9911SOL    HW130632   4.864   5.289   3.189
 9911SOL    HW230633   5.013   5.341   3.230
 9912SOL     OW30634   4.509   0.790   2.365
 9912SOL    HW130635   4.520   0.705   2.417
 9912SOL    HW230636   4.440   0.775   2.293
 9913SOL     OW30637   6.203   3.215   2.079
 9913SOL    HW130638   6.158   3.193   2.165
 9913SOL    HW230639   6.166   3.158   2.006
 9914SOL     OW30640   0.864   0.736   5.803
 9914SOL    HW130641   0.875   0.766   5.897
 9914SOL    HW230642   0.919   0.654   5.788
 9915SOL     OW30643   5.215   3.790   4.207
 9915SOL    HW130644   5.235   3.705   4.255
 9915SOL    HW230645   5.242   3.781   4.111
 9916SOL     OW30646   2.826   2.262   3.909
 9916SOL    HW130647   2.802   2.198   3.835
 9916SOL    HW230648   2.758   2.336   3.911
 9917SOL     OW30649   3.223   3.081   4.532
 9917SOL    HW130650   3.227   3.053   4.436
 9917SOL    HW230651   3.305   3.049   4.579
 9918SOL     OW30652   1.470   1.603   0.573
 9918SOL    HW130653   1.520   1.614   0.487
 9918SOL    HW230654   1.505   1.523   0.622
 9919SOL     OW30655   2.255   5.114   2.244
 9919SOL    HW130656   2.169   5.097   2.293
 9919SOL    HW230657   2.275   5.036   2.185
 9920SOL     OW30658   3.384   1.061   3.112
 9920SOL    HW130659   3.363   1.142   3.166
 9920SOL    HW230660   3.343   1.069   3.021
 9921SOL     OW30661   5.898   6.078   4.308
 9921SOL    HW130662   5.891   6.051   4.212
 9921SOL    HW230663   5.911   6.177   4.314
 9922SOL     OW30664   4.606   4.278   0.690
 9922SOL    HW130665   4.607   4.321   0.781
 9922SOL    HW230666   4.698   4.250   0.665
 9923SOL     OW30667   6.882   2.921   0.463
 9923SOL    HW130668   6.948   2.968   0.522
 9923SOL    HW230669   6.928   2.892   0.379
 9924SOL     OW30670   5.474   1.877   2.177
 9924SOL    HW130671   5.572   1.892   2.190
 9924SOL    HW230672   5.436   1.833   2.258
 9925SOL     OW30673   2.041   4.085   5.077
 9925SOL    HW130674   2.139   4.079   5.061
 9925SOL    HW230675   1.993   4.025   5.013
 9926SOL     OW30676   3.537   2.495   1.465
 9926SOL    HW130677   3.537   2.434   1.545
 9926SOL    HW230678   3.588   2.451   1.390
 9927SOL     OW30679   0.866   2.365   1.343
 9927SOL    HW130680   0.774   2.331   1.325
 9927SOL    HW230681   0.880   2.451   1.295
 9928SOL     OW30682   6.277   4.656   2.085
 9928SOL    HW130683   6.296   4.732   2.147
 9928SOL    HW230684   6.181   4.658   2.058
 9929SOL     OW30685   2.807   4.135   5.324
 9929SOL    HW130686   2.745   4.059   5.311
 9929SOL    HW230687   2.756   4.216   5.354
 9930SOL     OW30688   6.959   0.181   5.715
 9930SOL    HW130689   7.004   0.170   5.627
 9930SOL    HW230690   7.012   0.244   5.772
 9931SOL     OW30691   0.339   5.456   4.989
 9931SOL    HW130692   0.408   5.481   4.921
 9931SOL    HW230693   0.297   5.369   4.963
 9932SOL     OW30694   2.064   2.234   0.419
 9932SOL    HW130695   1.967   2.225   0.396
 9932SOL    HW230696   2.075   2.235   0.518
 9933SOL     OW30697   1.880   0.942   3.851
 9933SOL    HW130698   1.825   0.997   3.914
 9933SOL    HW230699   1.935   0.877   3.902
 9934SOL     OW30700   6.011   2.042   0.543
 9934SOL    HW130701   5.921   2.008   0.569
 9934SOL    HW230702   6.063   1.969   0.500
 9935SOL     OW30703   2.878   1.855   0.597
 9935SOL    HW130704   2.856   1.810   0.511
 9935SOL    HW230705   2.910   1.948   0.579
 9936SOL     OW30706   5.850   5.080   5.744
 9936SOL    HW130707   5.793   4.999   5.744
 9936SOL    HW230708   5.932   5.064   5.688
 9937SOL     OW30709   1.326   0.802   3.116
 9937SOL    HW130710   1.423   0.782   3.109
 9937SOL    HW230711   1.314   0.895   3.152
 9938SOL     OW30712   5.451   0.266   3.545
 9938SOL    HW130713   5.425   0.363   3.545
 9938SOL    HW230714   5.503   0.246   3.463
 9939SOL     OW30715   2.140   2.743   0.854
 9939SOL    HW130716   2.182   2.768   0.767
 9939SOL    HW230717   2.107   2.649   0.850
 9940SOL     OW30718   0.097   0.416   3.861
 9940SOL    HW130719   0.195   0.426   3.877
 9940SOL    HW230720   0.048   0.496   3.896
 9941SOL     OW30721   3.266   5.489   6.077
 9941SOL    HW130722   3.287   5.493   6.174
 9941SOL    HW230723   3.351   5.478   6.025
 9942SOL     OW30724   4.802   4.686   2.672
 9942SOL    HW130725   4.786   4.692   2.771
 9942SOL    HW230726   4.758   4.604   2.636
 9943SOL     OW30727   0.722   4.586   5.861
 9943SOL    HW130728   0.661   4.507   5.855
 9943SOL    HW230729   0.695   4.643   5.939
 9944SOL     OW30730   0.004   5.877   6.285
 9944SOL    HW130731   0.012   5.812   6.360
 9944SOL    HW230732   6.991   5.831   6.205
 9945SOL     OW30733   5.349   3.751   6.977
 9945SOL    HW130734   5.270   3.767   6.918
 9945SOL    HW230735   5.388   3.661   6.957
 9946SOL     OW30736   6.494   0.477   3.463
 9946SOL    HW130737   6.589   0.492   3.438
 9946SOL    HW230738   6.480   0.379   3.482
 9947SOL     OW30739   1.763   1.823   3.807
 9947SOL    HW130740   1.846   1.824   3.752
 9947SOL    HW230741   1.684   1.842   3.749
 9948SOL     OW30742   6.940   5.889   5.208
 9948SOL    HW130743   6.997   5.809   5.223
 9948SOL    HW230744   6.850   5.860   5.175
 9949SOL     OW30745   0.453   5.061   4.136
 9949SOL    HW130746   0.356   5.050   4.117
 9949SOL    HW230747   0.475   5.020   4.225
 9950SOL     OW30748   6.864   5.270   5.913
 9950SOL    HW130749   6.824   5.256   6.004
 9950SOL    HW230750   6.964   5.274   5.921
 9951SOL     OW30751   1.644   2.357   2.612
 9951SOL    HW130752   1.580   2.327   2.541
 9951SOL    HW230753   1.738   2.342   2.581
 9952SOL     OW30754   1.347   3.652   1.490
 9952SOL    HW130755   1.411   3.714   1.444
 9952SOL    HW230756   1.266   3.703   1.520
 9953SOL     OW30757   5.526   2.252   3.284
 9953SOL    HW130758   5.616   2.282   3.251
 9953SOL    HW230759   5.512   2.285   3.378
 9954SOL     OW30760   1.736   0.879   4.932
 9954SOL    HW130761   1.676   0.817   4.881
 9954SOL    HW230762   1.793   0.930   4.867
 9955SOL     OW30763   4.779   3.268   6.672
 9955SOL    HW130764   4.679   3.259   6.674
 9955SOL    HW230765   4.817   3.242   6.761
 9956SOL     OW30766   6.889   4.141   2.597
 9956SOL    HW130767   6.842   4.228   2.610
 9956SOL    HW230768   6.937   4.116   2.681
 9957SOL     OW30769   5.302   6.906   1.335
 9957SOL    HW130770   5.235   6.872   1.401
 9957SOL    HW230771   5.394   6.900   1.375
 9958SOL     OW30772   3.345   5.723   5.930
 9958SOL    HW130773   3.287   5.775   5.992
 9958SOL    HW230774   3.309   5.630   5.921
 9959SOL     OW30775   4.250   3.379   1.683
 9959SOL    HW130776   4.162   3.357   1.641
 9959SOL    HW230777   4.317   3.307   1.660
 9960SOL     OW30778   0.266   6.523   1.470
 9960SOL    HW130779   0.307   6.445   1.517
 9960SOL    HW230780   0.336   6.593   1.455
 9961SOL     OW30781   2.300   4.406   2.936
 9961SOL    HW130782   2.332   4.411   2.842
 9961SOL    HW230783   2.202   4.388   2.937
 9962SOL     OW30784   3.841   0.944   2.049
 9962SOL    HW130785   3.935   0.915   2.066
 9962SOL    HW230786   3.838   1.043   2.036
 9963SOL     OW30787   2.582   3.354   6.960
 9963SOL    HW130788   2.625   3.311   6.881
 9963SOL    HW230789   2.586   3.292   0.012
 9964SOL     OW30790   3.430   4.973   5.723
 9964SOL    HW130791   3.344   4.922   5.718
 9964SOL    HW230792   3.485   4.953   5.643
 9965SOL     OW30793   3.537   5.607   4.438
 9965SOL    HW130794   3.460   5.610   4.502
 9965SOL    HW230795   3.505   5.631   4.347
 9966SOL     OW30796   2.863   5.323   2.086
 9966SOL    HW130797   2.878   5.421   2.104
 9966SOL    HW230798   2.863   5.273   2.173
 9967SOL     OW30799   6.160   5.303   3.010
 9967SOL    HW130800   6.139   5.349   2.923
 9967SOL    HW230801   6.258   5.309   3.028
 9968SOL     OW30802   3.965   5.540   6.881
 9968SOL    HW130803   3.891   5.603   6.860
 9968SOL    HW230804   4.047   5.565   6.829
 9969SOL     OW30805   1.588   3.093   4.434
 9969SOL    HW130806   1.582   3.037   4.352
 9969SOL    HW230807   1.597   3.189   4.408
 9970SOL     OW30808   6.471   5.297   1.323
 9970SOL    HW130809   6.514   5.310   1.233
 9970SOL    HW230810   6.532   5.242   1.381
 9971SOL     OW30811   2.376   2.487   1.520
 9971SOL    HW130812   2.326   2.471   1.605
 9971SOL    HW230813   2.440   2.412   1.505
 9972SOL     OW30814   2.678   3.932   0.928
 9972SOL    HW130815   2.728   3.927   1.015
 9972SOL    HW230816   2.581   3.944   0.946
 9973SOL     OW30817   4.572   2.532   4.354
 9973SOL    HW130818   4.489   2.475   4.355
 9973SOL    HW230819   4.630   2.507   4.432
 9974SOL     OW30820   0.331   2.624   2.754
 9974SOL    HW130821   0.283   2.683   2.818
 9974SOL    HW230822   0.409   2.673   2.716
 9975SOL     OW30823   0.420   5.477   6.225
 9975SOL    HW130824   0.364   5.537   6.283
 9975SOL    HW230825   0.489   5.432   6.282
 9976SOL     OW30826   1.012   5.090   5.209
 9976SOL    HW130827   1.024   5.114   5.305
 9976SOL    HW230828   1.101   5.064   5.170
 9977SOL     OW30829   5.423   4.691   5.872
 9977SOL    HW130830   5.354   4.763   5.879
 9977SOL    HW230831   5.393   4.622   5.806
 9978SOL     OW30832   6.976   1.562   5.360
 9978SOL    HW130833   0.026   1.620   5.390
 9978SOL    HW230834   6.946   1.504   5.435
 9979SOL     OW30835   6.210   4.157   6.506
 9979SOL    HW130836   6.190   4.129   6.411
 9979SOL    HW230837   6.242   4.078   6.558
 9980SOL     OW30838   1.998   0.313   0.611
 9980SOL    HW130839   2.025   0.263   0.528
 9980SOL    HW230840   2.061   0.389   0.626
 9981SOL     OW30841   2.478   2.098   0.480
 9981SOL    HW130842   2.566   2.111   0.434
 9981SOL    HW230843   2.404   2.108   0.414
 9982SOL     OW30844   0.877   1.246   4.270
 9982SOL    HW130845   0.805   1.183   4.241
 9982SOL    HW230846   0.965   1.199   4.268
 9983SOL     OW30847   0.279   1.113   1.754
 9983SOL    HW130848   0.327   1.173   1.817
 9983SOL    HW230849   0.344   1.050   1.711
 9984SOL     OW30850   0.969   6.192   0.404
 9984SOL    HW130851   0.975   6.156   0.497
 9984SOL    HW230852   1.013   6.282   0.400
 9985SOL     OW30853   2.557   5.964   1.330
 9985SOL    HW130854   2.620   5.888   1.318
 9985SOL    HW230855   2.529   5.970   1.426
 9986SOL     OW30856   5.552   4.940   1.137
 9986SOL    HW130857   5.611   4.863   1.112
 9986SOL    HW230858   5.599   5.026   1.117
 9987SOL     OW30859   6.447   2.737   2.070
 9987SOL    HW130860   6.468   2.640   2.084
 9987SOL    HW230861   6.448   2.785   2.158
 9988SOL     OW30862   6.777   5.268   4.380
 9988SOL    HW130863   6.739   5.228   4.464
 9988SOL    HW230864   6.745   5.217   4.301
 9989SOL     OW30865   6.367   4.305   2.275
 9989SOL    HW130866   6.400   4.400   2.269
 9989SOL    HW230867   6.278   4.304   2.319
 9990SOL     OW30868   2.273   6.903   2.878
 9990SOL    HW130869   2.304   6.813   2.908
 9990SOL    HW230870   2.345   6.946   2.822
 9991SOL     OW30871   2.053   3.695   3.736
 9991SOL    HW130872   2.024   3.600   3.741
 9991SOL    HW230873   2.084   3.725   3.826
 9992SOL     OW30874   3.669   3.975   0.774
 9992SOL    HW130875   3.712   3.974   0.683
 9992SOL    HW230876   3.644   3.882   0.800
 9993SOL     OW30877   3.906   7.006   3.680
 9993SOL    HW130878   3.990   0.022   3.644
 9993SOL    HW230879   3.912   6.907   3.670
 9994SOL     OW30880   6.902   3.880   2.441
 9994SOL    HW130881   6.946   3.952   2.495
 9994SOL    HW230882   6.816   3.914   2.404
 9995SOL     OW30883   3.116   1.092   3.709
 9995SOL    HW130884   3.211   1.122   3.697
 9995SOL    HW230885   3.073   1.144   3.783
 9996SOL     OW30886   2.568   3.777   1.497
 9996SOL    HW130887   2.540   3.692   1.542
 9996SOL    HW230888   2.668   3.776   1.485
 9997SOL     OW30889   5.338   0.768   2.275
 9997SOL    HW130890   5.381   0.846   2.321
 9997SOL    HW230891   5.385   0.750   2.189
 9998SOL     OW30892   5.774   3.748   1.952
 9998SOL    HW130893   5.776   3.848   1.954
 9998SOL    HW230894   5.682   3.717   1.931
 9999SOL     OW30895   0.126   5.695   5.225
 9999SOL    HW130896   0.214   5.734   5.197
 9999SOL    HW230897   0.141   5.624   5.294
10000SOL     OW30898   5.559   2.261   0.160
10000SOL    HW130899   5.502   2.297   0.234
10000SOL    HW230900   5.503   2.246   0.078
10001SOL     OW30901   3.594   0.416   1.449
10001SOL    HW130902   3.661   0.473   1.401
10001SOL    HW230903   3.580   0.451   1.542
10002SOL     OW30904   1.914   1.004   1.741
10002SOL    HW130905   1.859   1.036   1.818
10002SOL    HW230906   1.930   0.906   1.749
10003SOL     OW30907   2.813   2.215   2.287
10003SOL    HW130908   2.770   2.295   2.244
10003SOL    HW230909   2.880   2.176   2.224
10004SOL     OW30910   5.569   3.023   4.991
10004SOL    HW130911   5.473   2.996   5.005
10004SOL    HW230912   5.628   2.945   5.011
10005SOL     OW30913   3.393   5.348   2.506
10005SOL    HW130914   3.420   5.278   2.572
10005SOL    HW230915   3.307   5.390   2.534
10006SOL     OW30916   6.090   0.397   5.204
10006SOL    HW130917   6.103   0.312   5.154
10006SOL    HW230918   6.003   0.439   5.178
10007SOL     OW30919   1.053   3.379   3.861
10007SOL    HW130920   1.023   3.469   3.893
10007SOL    HW230921   1.000   3.308   3.907
10008SOL     OW30922   4.954   1.109   3.811
10008SOL    HW130923   4.916   1.019   3.795
10008SOL    HW230924   4.946   1.133   3.908
10009SOL     OW30925   1.501   4.124   1.364
10009SOL    HW130926   1.474   4.143   1.459
10009SOL    HW230927   1.532   4.209   1.322
10010SOL     OW30928   2.728   6.183   0.239
10010SOL    HW130929   2.706   6.085   0.247
10010SOL    HW230930   2.723   6.210   0.143
10011SOL     OW30931   0.440   4.273   6.634
10011SOL    HW130932   0.361   4.230   6.590
10011SOL    HW230933   0.516   4.208   6.638
10012SOL     OW30934   5.408   0.316   2.214
10012SOL    HW130935   5.347   0.367   2.274
10012SOL    HW230936   5.368   0.226   2.194
10013SOL     OW30937   1.714   2.212   4.144
10013SOL    HW130938   1.768   2.158   4.208
10013SOL    HW230939   1.618   2.214   4.173
10014SOL     OW30940   1.100   1.116   1.471
10014SOL    HW130941   1.141   1.085   1.385
10014SOL    HW230942   1.038   1.193   1.452
10015SOL     OW30943   3.943   5.268   0.155
10015SOL    HW130944   3.955   5.262   0.056
10015SOL    HW230945   4.011   5.330   0.193
10016SOL     OW30946   1.952   0.707   4.747
10016SOL    HW130947   1.952   0.804   4.772
10016SOL    HW230948   1.940   0.651   4.830
10017SOL     OW30949   2.086   1.704   3.027
10017SOL    HW130950   2.098   1.743   3.119
10017SOL    HW230951   2.086   1.777   2.959
10018SOL     OW30952   6.794   4.691   5.620
10018SOL    HW130953   6.824   4.757   5.689
10018SOL    HW230954   6.694   4.690   5.616
10019SOL     OW30955   0.675   1.569   2.953
10019SOL    HW130956   0.682   1.470   2.961
10019SOL    HW230957   0.579   1.595   2.948
10020SOL     OW30958   0.446   0.804   1.359
10020SOL    HW130959   0.437   0.709   1.330
10020SOL    HW230960   0.505   0.853   1.295
10021SOL     OW30961   0.896   2.551   2.361
10021SOL    HW130962   0.953   2.541   2.443
10021SOL    HW230963   0.878   2.462   2.321
10022SOL     OW30964   3.277   6.856   0.781
10022SOL    HW130965   3.223   6.838   0.699
10022SOL    HW230966   3.334   6.776   0.802
10023SOL     OW30967   1.773   5.299   4.275
10023SOL    HW130968   1.691   5.355   4.288
10023SOL    HW230969   1.760   5.210   4.319
10024SOL     OW30970   2.129   5.453   1.924
10024SOL    HW130971   2.035   5.468   1.892
10024SOL    HW230972   2.133   5.368   1.976
10025SOL     OW30973   1.548   2.828   2.054
10025SOL    HW130974   1.570   2.816   1.957
10025SOL    HW230975   1.497   2.748   2.086
10026SOL     OW30976   4.897   0.297   3.125
10026SOL    HW130977   4.930   0.369   3.065
10026SOL    HW230978   4.797   0.301   3.132
10027SOL     OW30979   0.801   2.711   5.371
10027SOL    HW130980   0.826   2.724   5.467
10027SOL    HW230981   0.868   2.756   5.313
10028SOL     OW30982   2.001   1.600   1.946
10028SOL    HW130983   2.089   1.648   1.939
10028SOL    HW230984   2.014   1.505   1.916
10029SOL     OW30985   1.571   2.309   3.115
10029SOL    HW130986   1.527   2.219   3.109
10029SOL    HW230987   1.502   2.379   3.132
10030SOL     OW30988   3.141   0.220   4.868
10030SOL    HW130989   3.220   0.207   4.929
10030SOL    HW230990   3.168   0.199   4.774
10031SOL     OW30991   5.585   4.810   4.845
10031SOL    HW130992   5.509   4.764   4.799
10031SOL    HW230993   5.552   4.893   4.890
10032SOL     OW30994   4.465   0.361   5.476
10032SOL    HW130995   4.367   0.350   5.493
10032SOL    HW230996   4.500   0.436   5.531
10033SOL     OW30997   4.588   2.600   3.989
10033SOL    HW130998   4.670   2.561   4.031
10033SOL    HW230999   4.554   2.675   4.045
10034SOL     OW31000   3.083   0.416   3.687
10034SOL    HW131001   3.035   0.378   3.608
10034SOL    HW231002   3.092   0.515   3.676
10035SOL     OW31003   6.401   4.860   1.060
10035SOL    HW131004   6.480   4.921   1.071
10035SOL    HW231005   6.403   4.820   0.968
10036SOL     OW31006   6.663   0.464   0.346
10036SOL    HW131007   6.632   0.474   0.251
10036SOL    HW231008   6.711   0.547   0.374
10037SOL     OW31009   5.787   0.659   0.167
10037SOL    HW131010   5.856   0.604   0.215
10037SOL    HW231011   5.697   0.620   0.182
10038SOL     OW31012   4.365   6.941   6.589
10038SOL    HW131013   4.402   6.864   6.641
10038SOL    HW231014   4.362   6.917   6.492
10039SOL     OW31015   4.434   6.613   5.265
10039SOL    HW131016   4.452   6.521   5.231
10039SOL    HW231017   4.336   6.632   5.261
10040SOL     OW31018   4.237   5.724   6.095
10040SOL    HW131019   4.307   5.670   6.140
10040SOL    HW231020   4.198   5.789   6.160
10041SOL     OW31021   4.675   6.313   6.815
10041SOL    HW131022   4.748   6.381   6.804
10041SOL    HW231023   4.596   6.341   6.761
10042SOL     OW31024   1.261   2.022   5.081
10042SOL    HW131025   1.177   2.040   5.030
10042SOL    HW231026   1.315   1.953   5.033
10043SOL     OW31027   0.516   2.032   4.246
10043SOL    HW131028   0.507   2.127   4.273
10043SOL    HW231029   0.487   1.973   4.321
10044SOL     OW31030   2.613   1.462   4.503
10044SOL    HW131031   2.584   1.503   4.589
10044SOL    HW231032   2.674   1.525   4.454
10045SOL     OW31033   5.328   6.726   3.877
10045SOL    HW131034   5.247   6.740   3.820
10045SOL    HW231035   5.386   6.807   3.874
10046SOL     OW31036   1.485   3.840   1.353
10046SOL    HW131037   1.584   3.837   1.336
10046SOL    HW231038   1.456   3.935   1.361
10047SOL     OW31039   6.670   3.580   5.181
10047SOL    HW131040   6.663   3.661   5.122
10047SOL    HW231041   6.579   3.553   5.211
10048SOL     OW31042   5.629   1.733   2.665
10048SOL    HW131043   5.720   1.698   2.643
10048SOL    HW231044   5.632   1.784   2.751
10049SOL     OW31045   0.732   0.217   6.595
10049SOL    HW131046   0.647   0.244   6.549
10049SOL    HW231047   0.711   0.168   6.679
10050SOL     OW31048   6.589   2.600   5.155
10050SOL    HW131049   6.667   2.565   5.206
10050SOL    HW231050   6.591   2.566   5.061
10051SOL     OW31051   6.321   2.405   5.064
10051SOL    HW131052   6.413   2.418   5.027
10051SOL    HW231053   6.262   2.479   5.034
10052SOL     OW31054   2.968   2.212   2.988
10052SOL    HW131055   2.958   2.135   2.926
10052SOL    HW231056   3.042   2.272   2.957
10053SOL     OW31057   3.412   5.942   1.698
10053SOL    HW131058   3.366   5.996   1.627
10053SOL    HW231059   3.434   5.852   1.663
10054SOL     OW31060   5.199   4.905   6.164
10054SOL    HW131061   5.105   4.882   6.189
10054SOL    HW231062   5.208   5.004   6.152
10055SOL     OW31063   6.163   2.207   4.988
10055SOL    HW131064   6.229   2.187   4.916
10055SOL    HW231065   6.201   2.276   5.049
10056SOL     OW31066   5.605   4.528   2.066
10056SOL    HW131067   5.570   4.503   1.976
10056SOL    HW231068   5.551   4.483   2.137
10057SOL     OW31069   4.087   2.258   4.523
10057SOL    HW131070   4.087   2.211   4.611
10057SOL    HW231071   4.030   2.207   4.458
10058SOL     OW31072   0.454   3.815   4.517
10058SOL    HW131073   0.480   3.902   4.560
10058SOL    HW231074   0.400   3.761   4.582
10059SOL     OW31075   4.857   6.776   1.003
10059SOL    HW131076   4.837   6.776   1.101
10059SOL    HW231077   4.916   6.854   0.981
10060SOL     OW31078   1.609   1.627   1.388
10060SOL    HW131079   1.592   1.548   1.330
10060SOL    HW231080   1.539   1.634   1.458
10061SOL     OW31081   4.970   1.213   4.441
10061SOL    HW131082   4.962   1.212   4.541
10061SOL    HW231083   4.911   1.284   4.404
10062SOL     OW31084   6.584   0.365   4.486
10062SOL    HW131085   6.561   0.271   4.460
10062SOL    HW231086   6.530   0.391   4.566
10063SOL     OW31087   2.010   1.391   4.154
10063SOL    HW131088   1.952   1.409   4.233
10063SOL    HW231089   1.967   1.429   4.072
10064SOL     OW31090   4.887   6.646   0.374
10064SOL    HW131091   4.798   6.678   0.405
10064SOL    HW231092   4.929   6.714   0.314
10065SOL     OW31093   1.881   0.006   2.515
10065SOL    HW131094   1.823   6.951   2.499
10065SOL    HW231095   1.883   0.062   2.433
10066SOL     OW31096   1.188   2.499   3.637
10066SOL    HW131097   1.189   2.424   3.704
10066SOL    HW231098   1.253   2.478   3.563
10067SOL     OW31099   6.444   4.326   4.531
10067SOL    HW131100   6.396   4.273   4.601
10067SOL    HW231101   6.384   4.339   4.452
10068SOL     OW31102   0.188   3.324   2.882
10068SOL    HW131103   0.121   3.369   2.823
10068SOL    HW231104   0.274   3.313   2.832
10069SOL     OW31105   1.990   5.481   3.278
10069SOL    HW131106   1.933   5.401   3.294
10069SOL    HW231107   1.992   5.537   3.361
10070SOL     OW31108   6.504   0.221   5.288
10070SOL    HW131109   6.448   0.167   5.224
10070SOL    HW231110   6.547   0.160   5.354
10071SOL     OW31111   6.248   5.946   3.800
10071SOL    HW131112   6.151   5.938   3.824
10071SOL    HW231113   6.293   5.857   3.812
10072SOL     OW31114   0.058   6.188   3.921
10072SOL    HW131115   0.127   6.241   3.871
10072SOL    HW231116   0.104   6.125   3.983
10073SOL     OW31117   6.026   4.466   5.114
10073SOL    HW131118   5.943   4.519   5.131
10073SOL    HW231119   6.000   4.375   5.080
10074SOL     OW31120   1.563   0.563   5.328
10074SOL    HW131121   1.601   0.655   5.325
10074SOL    HW231122   1.542   0.538   5.423
10075SOL     OW31123   1.814   2.988   2.972
10075SOL    HW131124   1.779   3.074   2.936
10075SOL    HW231125   1.899   2.965   2.925
10076SOL     OW31126   0.068   0.129   3.791
10076SOL    HW131127   0.051   0.227   3.789
10076SOL    HW231128   0.112   0.105   3.878
10077SOL     OW31129   3.873   2.840   6.532
10077SOL    HW131130   3.924   2.923   6.513
10077SOL    HW231131   3.781   2.848   6.494
10078SOL     OW31132   0.490   5.043   3.822
10078SOL    HW131133   0.470   5.003   3.911
10078SOL    HW231134   0.465   5.140   3.823
10079SOL     OW31135   6.735   3.832   2.742
10079SOL    HW131136   6.773   3.898   2.678
10079SOL    HW231137   6.737   3.870   2.835
10080SOL     OW31138   4.155   1.430   5.385
10080SOL    HW131139   4.058   1.451   5.371
10080SOL    HW231140   4.211   1.503   5.345
10081SOL     OW31141   0.055   7.025   0.576
10081SOL    HW131142   6.987   0.030   0.558
10081SOL    HW231143   0.054   6.960   0.652
10082SOL     OW31144   6.834   4.735   1.388
10082SOL    HW131145   6.863   4.794   1.463
10082SOL    HW231146   6.845   4.783   1.301
10083SOL     OW31147   4.933   1.202   3.325
10083SOL    HW131148   4.948   1.136   3.251
10083SOL    HW231149   4.937   1.154   3.413
10084SOL     OW31150   2.112   0.640   5.296
10084SOL    HW131151   2.200   0.596   5.312
10084SOL    HW231152   2.123   0.739   5.299
10085SOL     OW31153   1.537   5.788   1.862
10085SOL    HW131154   1.637   5.788   1.863
10085SOL    HW231155   1.504   5.755   1.951
10086SOL     OW31156   4.520   5.438   2.208
10086SOL    HW131157   4.566   5.525   2.189
10086SOL    HW231158   4.447   5.424   2.142
10087SOL     OW31159   0.316   0.265   4.127
10087SOL    HW131160   0.334   0.329   4.052
10087SOL    HW231161   0.241   0.204   4.102
10088SOL     OW31162   6.346   0.492   1.189
10088SOL    HW131163   6.386   0.408   1.226
10088SOL    HW231164   6.246   0.485   1.190
10089SOL     OW31165   2.908   1.627   2.332
10089SOL    HW131166   2.961   1.676   2.262
10089SOL    HW231167   2.868   1.545   2.292
10090SOL     OW31168   1.121   4.749   1.574
10090SOL    HW131169   1.030   4.743   1.532
10090SOL    HW231170   1.150   4.658   1.602
10091SOL     OW31171   0.684   4.013   6.323
10091SOL    HW131172   0.734   3.946   6.379
10091SOL    HW231173   0.711   4.105   6.351
10092SOL     OW31174   1.969   2.844   5.298
10092SOL    HW131175   1.888   2.874   5.349
10092SOL    HW231176   1.994   2.914   5.232
10093SOL     OW31177   6.876   3.629   5.362
10093SOL    HW131178   6.806   3.626   5.290
10093SOL    HW231179   6.839   3.588   5.445
10094SOL     OW31180   2.623   5.590   2.201
10094SOL    HW131181   2.633   5.661   2.271
10094SOL    HW231182   2.527   5.583   2.174
10095SOL     OW31183   5.954   1.890   5.342
10095SOL    HW131184   5.874   1.883   5.401
10095SOL    HW231185   6.001   1.802   5.339
10096SOL     OW31186   4.382   5.069   2.445
10096SOL    HW131187   4.421   5.093   2.534
10096SOL    HW231188   4.382   4.970   2.435
10097SOL     OW31189   1.072   0.857   0.027
10097SOL    HW131190   1.114   0.801   6.981
10097SOL    HW231191   1.052   0.799   0.107
10098SOL     OW31192   2.758   0.454   4.763
10098SOL    HW131193   2.721   0.416   4.848
10098SOL    HW231194   2.822   0.527   4.785
10099SOL     OW31195   0.088   5.044   0.814
10099SOL    HW131196   0.099   5.141   0.835
10099SOL    HW231197   0.164   5.014   0.756
10100SOL     OW31198   5.216   0.106   4.873
10100SOL    HW131199   5.281   0.175   4.904
10100SOL    HW231200   5.162   0.144   4.797
10101SOL     OW31201   6.264   4.070   1.590
10101SOL    HW131202   6.197   4.145   1.592
10101SOL    HW231203   6.304   4.058   1.681
10102SOL     OW31204   0.810   1.226   2.196
10102SOL    HW131205   0.722   1.193   2.228
10102SOL    HW231206   0.831   1.313   2.240
10103SOL     OW31207   2.734   0.163   5.729
10103SOL    HW131208   2.674   0.083   5.727
10103SOL    HW231209   2.829   0.134   5.728
10104SOL     OW31210   2.145   1.894   3.865
10104SOL    HW131211   2.227   1.946   3.891
10104SOL    HW231212   2.131   1.819   3.929
10105SOL     OW31213   1.722   0.916   0.610
10105SOL    HW131214   1.794   0.984   0.598
10105SOL    HW231215   1.647   0.956   0.664
10106SOL     OW31216   4.158   6.587   0.617
10106SOL    HW131217   4.132   6.596   0.521
10106SOL    HW231218   4.076   6.569   0.672
10107SOL     OW31219   6.919   1.599   6.387
10107SOL    HW131220   6.998   1.643   6.344
10107SOL    HW231221   6.946   1.564   6.477
10108SOL     OW31222   6.579   0.044   0.159
10108SOL    HW131223   6.597   0.067   0.254
10108SOL    HW231224   6.586   0.126   0.103
10109SOL     OW31225   5.207   6.875   0.398
10109SOL    HW131226   5.307   6.876   0.405
10109SOL    HW231227   5.169   6.833   0.481
10110SOL     OW31228   3.899   5.278   4.660
10110SOL    HW131229   3.938   5.345   4.597
10110SOL    HW231230   3.802   5.297   4.674
10111SOL     OW31231   5.710   3.341   3.766
10111SOL    HW131232   5.749   3.319   3.677
10111SOL    HW231233   5.635   3.405   3.755
10112SOL     OW31234   5.453   3.451   3.825
10112SOL    HW131235   5.405   3.371   3.790
10112SOL    HW231236   5.432   3.464   3.922
10113SOL     OW31237   4.280   0.215   6.790
10113SOL    HW131238   4.309   0.279   6.861
10113SOL    HW231239   4.359   0.190   6.733
10114SOL     OW31240   5.401   1.170   0.881
10114SOL    HW131241   5.487   1.126   0.910
10114SOL    HW231242   5.398   1.263   0.916
10115SOL     OW31243   3.797   1.615   4.764
10115SOL    HW131244   3.770   1.685   4.830
10115SOL    HW231245   3.738   1.620   4.684
10116SOL     OW31246   0.430   6.375   0.635
10116SOL    HW131247   0.331   6.367   0.621
10116SOL    HW231248   0.466   6.452   0.581
10117SOL     OW31249   6.487   5.613   5.585
10117SOL    HW131250   6.477   5.679   5.511
10117SOL    HW231251   6.508   5.523   5.547
10118SOL     OW31252   1.925   4.595   2.735
10118SOL    HW131253   1.961   4.566   2.824
10118SOL    HW231254   1.827   4.614   2.744
10119SOL     OW31255   0.552   5.555   4.359
10119SOL    HW131256   0.495   5.636   4.349
10119SOL    HW231257   0.573   5.539   4.455
10120SOL     OW31258   1.703   3.328   5.083
10120SOL    HW131259   1.787   3.382   5.079
10120SOL    HW231260   1.686   3.300   5.178
10121SOL     OW31261   6.330   3.931   6.632
10121SOL    HW131262   6.365   3.880   6.710
10121SOL    HW231263   6.376   3.900   6.549
10122SOL     OW31264   6.358   3.406   1.969
10122SOL    HW131265   6.299   3.486   1.965
10122SOL    HW231266   6.307   3.328   2.003
10123SOL     OW31267   5.440   6.580   0.032
10123SOL    HW131268   5.437   6.514   6.983
10123SOL    HW231269   5.430   6.532   0.119
10124SOL     OW31270   1.075   4.262   0.437
10124SOL    HW131271   1.052   4.358   0.422
10124SOL    HW231272   1.104   4.249   0.532
10125SOL     OW31273   2.073   1.347   1.886
10125SOL    HW131274   2.074   1.262   1.937
10125SOL    HW231275   2.098   1.330   1.791
10126SOL     OW31276   0.032   6.426   6.577
10126SOL    HW131277   0.034   6.437   6.676
10126SOL    HW231278   0.084   6.500   6.534
10127SOL     OW31279   2.915   4.555   6.389
10127SOL    HW131280   2.879   4.485   6.327
10127SOL    HW231281   2.851   4.568   6.465
10128SOL     OW31282   2.569   1.229   0.873
10128SOL    HW131283   2.630   1.278   0.811
10128SOL    HW231284   2.476   1.231   0.837
10129SOL     OW31285   5.720   1.787   2.005
10129SOL    HW131286   5.818   1.782   1.985
10129SOL    HW231287   5.702   1.866   2.064
10130SOL     OW31288   1.326   3.579   1.884
10130SOL    HW131289   1.391   3.538   1.819
10130SOL    HW231290   1.369   3.585   1.974
10131SOL     OW31291   1.041   0.115   4.596
10131SOL    HW131292   1.137   0.140   4.613
10131SOL    HW231293   0.984   0.197   4.603
10132SOL     OW31294   3.819   0.744   4.191
10132SOL    HW131295   3.879   0.690   4.250
10132SOL    HW231296   3.793   0.828   4.239
10133SOL     OW31297   3.938   6.136   0.754
10133SOL    HW131298   4.036   6.121   0.767
10133SOL    HW231299   3.888   6.090   0.828
10134SOL     OW31300   0.209   6.116   3.190
10134SOL    HW131301   0.194   6.214   3.196
10134SOL    HW231302   0.143   6.076   3.126
10135SOL     OW31303   4.891   3.473   3.437
10135SOL    HW131304   4.857   3.407   3.505
10135SOL    HW231305   4.944   3.425   3.367
10136SOL     OW31306   5.473   0.977   2.431
10136SOL    HW131307   5.553   0.918   2.424
10136SOL    HW231308   5.491   1.063   2.382
10137SOL     OW31309   6.748   3.519   4.048
10137SOL    HW131310   6.761   3.424   4.017
10137SOL    HW231311   6.710   3.573   3.974
10138SOL     OW31312   5.190   3.387   0.251
10138SOL    HW131313   5.249   3.405   0.329
10138SOL    HW231314   5.208   3.295   0.216
10139SOL     OW31315   2.938   3.748   3.683
10139SOL    HW131316   2.956   3.660   3.727
10139SOL    HW231317   2.842   3.772   3.695
10140SOL     OW31318   5.792   5.894   0.209
10140SOL    HW131319   5.870   5.951   0.187
10140SOL    HW231320   5.728   5.893   0.132
10141SOL     OW31321   4.035   1.420   5.662
10141SOL    HW131322   4.087   1.469   5.733
10141SOL    HW231323   4.093   1.405   5.583
10142SOL     OW31324   6.470   6.869   5.522
10142SOL    HW131325   6.490   6.784   5.472
10142SOL    HW231326   6.371   6.884   5.525
10143SOL     OW31327   5.579   1.295   0.006
10143SOL    HW131328   5.483   1.318   0.021
10143SOL    HW231329   5.593   1.197   0.023
10144SOL     OW31330   3.048   0.234   6.080
10144SOL    HW131331   3.121   0.302   6.072
10144SOL    HW231332   3.041   0.202   6.174
10145SOL     OW31333   3.166   4.952   4.023
10145SOL    HW131334   3.079   4.916   3.990
10145SOL    HW231335   3.232   4.954   3.948
10146SOL     OW31336   4.593   4.652   4.953
10146SOL    HW131337   4.502   4.610   4.957
10146SOL    HW231338   4.605   4.712   5.032
10147SOL     OW31339   5.903   3.917   5.182
10147SOL    HW131340   5.862   4.008   5.186
10147SOL    HW231341   5.838   3.854   5.139
10148SOL     OW31342   5.096   4.603   6.513
10148SOL    HW131343   5.123   4.510   6.539
10148SOL    HW231344   5.049   4.600   6.425
10149SOL     OW31345   5.792   3.074   0.915
10149SOL    HW131346   5.834   3.136   0.848
10149SOL    HW231347   5.859   3.005   0.943
10150SOL     OW31348   3.580   3.617   0.492
10150SOL    HW131349   3.614   3.598   0.400
10150SOL    HW231350   3.490   3.659   0.487
10151SOL     OW31351   0.639   5.852   0.154
10151SOL    HW131352   0.577   5.818   0.084
10151SOL    HW231353   0.709   5.910   0.111
10152SOL     OW31354   0.275   5.611   4.181
10152SOL    HW131355   0.246   5.660   4.099
10152SOL    HW231356   0.241   5.660   4.262
10153SOL     OW31357   4.463   5.987   3.730
10153SOL    HW131358   4.524   6.045   3.784
10153SOL    HW231359   4.510   5.961   3.645
10154SOL     OW31360   4.185   6.499   5.432
10154SOL    HW131361   4.186   6.535   5.526
10154SOL    HW231362   4.201   6.574   5.368
10155SOL     OW31363   4.201   2.427   5.928
10155SOL    HW131364   4.167   2.413   5.835
10155SOL    HW231365   4.192   2.524   5.952
10156SOL     OW31366   6.310   0.560   2.095
10156SOL    HW131367   6.353   0.474   2.066
10156SOL    HW231368   6.210   0.552   2.084
10157SOL     OW31369   0.276   1.805   0.625
10157SOL    HW131370   0.287   1.825   0.722
10157SOL    HW231371   0.342   1.735   0.598
10158SOL     OW31372   5.943   5.614   0.463
10158SOL    HW131373   5.934   5.550   0.387
10158SOL    HW231374   6.002   5.690   0.435
10159SOL     OW31375   1.944   3.092   0.754
10159SOL    HW131376   1.851   3.127   0.740
10159SOL    HW231377   1.998   3.106   0.671
10160SOL     OW31378   1.826   3.246   2.227
10160SOL    HW131379   1.738   3.280   2.194
10160SOL    HW231380   1.839   3.152   2.194
10161SOL     OW31381   3.642   2.960   0.972
10161SOL    HW131382   3.656   2.883   1.034
10161SOL    HW231383   3.717   2.963   0.906
10162SOL     OW31384   3.389   4.506   1.139
10162SOL    HW131385   3.325   4.436   1.173
10162SOL    HW231386   3.474   4.461   1.109
10163SOL     OW31387   5.944   4.115   6.819
10163SOL    HW131388   6.020   4.075   6.871
10163SOL    HW231389   5.878   4.156   6.882
10164SOL     OW31390   6.094   3.491   3.787
10164SOL    HW131391   6.192   3.477   3.800
10164SOL    HW231392   6.078   3.534   3.698
10165SOL     OW31393   6.700   1.986   2.912
10165SOL    HW131394   6.748   1.899   2.921
10165SOL    HW231395   6.662   2.012   3.001
10166SOL     OW31396   3.149   1.847   1.989
10166SOL    HW131397   3.116   1.932   2.031
10166SOL    HW231398   3.126   1.770   2.048
10167SOL     OW31399   1.283   4.555   6.820
10167SOL    HW131400   1.242   4.540   6.911
10167SOL    HW231401   1.367   4.607   6.830
10168SOL     OW31402   5.941   2.637   6.397
10168SOL    HW131403   5.949   2.538   6.387
10168SOL    HW231404   5.845   2.664   6.390
10169SOL     OW31405   6.274   4.691   3.461
10169SOL    HW131406   6.196   4.752   3.448
10169SOL    HW231407   6.335   4.698   3.382
10170SOL     OW31408   6.787   5.357   5.342
10170SOL    HW131409   6.864   5.343   5.406
10170SOL    HW231410   6.768   5.455   5.335
10171SOL     OW31411   0.192   2.327   4.352
10171SOL    HW131412   0.284   2.342   4.315
10171SOL    HW231413   0.127   2.317   4.276
10172SOL     OW31414   0.394   5.791   5.244
10172SOL    HW131415   0.478   5.746   5.275
10172SOL    HW231416   0.407   5.890   5.243
10173SOL     OW31417   1.728   2.473   0.730
10173SOL    HW131418   1.683   2.406   0.789
10173SOL    HW231419   1.740   2.559   0.780
10174SOL     OW31420   5.240   4.744   3.583
10174SOL    HW131421   5.268   4.834   3.550
10174SOL    HW231422   5.142   4.745   3.604
10175SOL     OW31423   6.037   1.820   2.950
10175SOL    HW131424   6.116   1.812   3.011
10175SOL    HW231425   6.036   1.911   2.908
10176SOL     OW31426   0.543   3.480   5.149
10176SOL    HW131427   0.571   3.444   5.238
10176SOL    HW231428   0.621   3.523   5.104
10177SOL     OW31429   2.415   0.968   1.378
10177SOL    HW131430   2.324   0.988   1.342
10177SOL    HW231431   2.473   1.049   1.368
10178SOL     OW31432   0.354   0.881   6.401
10178SOL    HW131433   0.341   0.832   6.315
10178SOL    HW231434   0.328   0.821   6.477
10179SOL     OW31435   0.521   2.579   6.669
10179SOL    HW131436   0.442   2.640   6.663
10179SOL    HW231437   0.566   2.591   6.758
10180SOL     OW31438   3.891   0.747   5.850
10180SOL    HW131439   3.949   0.827   5.837
10180SOL    HW231440   3.910   0.680   5.778
10181SOL     OW31441   6.276   3.732   1.292
10181SOL    HW131442   6.189   3.693   1.322
10181SOL    HW231443   6.275   3.831   1.304
10182SOL     OW31444   4.478   0.795   1.643
10182SOL    HW131445   4.399   0.856   1.643
10182SOL    HW231446   4.485   0.750   1.732
10183SOL     OW31447   6.771   3.018   6.528
10183SOL    HW131448   6.804   2.966   6.450
10183SOL    HW231449   6.718   3.097   6.496
10184SOL     OW31450   4.405   0.898   5.980
10184SOL    HW131451   4.379   0.805   5.955
10184SOL    HW231452   4.476   0.895   6.050
10185SOL     OW31453   6.144   5.937   2.871
10185SOL    HW131454   6.103   5.998   2.804
10185SOL    HW231455   6.238   5.967   2.891
10186SOL     OW31456   5.661   3.875   3.920
10186SOL    HW131457   5.649   3.800   3.984
10186SOL    HW231458   5.735   3.854   3.856
10187SOL     OW31459   1.317   3.527   0.272
10187SOL    HW131460   1.260   3.458   0.228
10187SOL    HW231461   1.334   3.500   0.367
10188SOL     OW31462   3.968   4.694   0.416
10188SOL    HW131463   3.934   4.722   0.327
10188SOL    HW231464   4.018   4.770   0.458
10189SOL     OW31465   0.601   0.984   6.324
10189SOL    HW131466   0.507   0.958   6.348
10189SOL    HW231467   0.653   1.003   6.407
10190SOL     OW31468   4.822   3.146   1.199
10190SOL    HW131469   4.855   3.054   1.180
10190SOL    HW231470   4.793   3.189   1.113
10191SOL     OW31471   4.037   6.170   6.423
10191SOL    HW131472   4.057   6.086   6.474
10191SOL    HW231473   3.939   6.189   6.426
10192SOL     OW31474   4.281   1.617   5.240
10192SOL    HW131475   4.379   1.625   5.223
10192SOL    HW231476   4.230   1.657   5.164
10193SOL     OW31477   3.676   2.858   2.118
10193SOL    HW131478   3.693   2.845   2.215
10193SOL    HW231479   3.580   2.841   2.098
10194SOL     OW31480   5.069   6.125   6.216
10194SOL    HW131481   5.090   6.216   6.181
10194SOL    HW231482   5.019   6.133   6.302
10195SOL     OW31483   6.404   6.079   0.153
10195SOL    HW131484   6.384   6.159   0.096
10195SOL    HW231485   6.456   6.106   0.233
10196SOL     OW31486   4.577   2.142   4.054
10196SOL    HW131487   4.512   2.189   4.113
10196SOL    HW231488   4.528   2.085   3.989
10197SOL     OW31489   5.323   1.592   4.817
10197SOL    HW131490   5.285   1.586   4.909
10197SOL    HW231491   5.271   1.659   4.764
10198SOL     OW31492   2.915   6.939   2.370
10198SOL    HW131493   2.909   7.014   2.435
10198SOL    HW231494   3.000   6.888   2.385
10199SOL     OW31495   1.518   2.686   0.582
10199SOL    HW131496   1.605   2.721   0.617
10199SOL    HW231497   1.520   2.587   0.579
10200SOL     OW31498   4.642   2.618   5.946
10200SOL    HW131499   4.650   2.556   6.024
10200SOL    HW231500   4.732   2.650   5.919
10201SOL     OW31501   1.183   5.097   0.284
10201SOL    HW131502   1.264   5.095   0.225
10201SOL    HW231503   1.202   5.154   0.364
10202SOL     OW31504   3.224   5.242   0.924
10202SOL    HW131505   3.187   5.252   1.016
10202SOL    HW231506   3.288   5.165   0.922
10203SOL     OW31507   6.534   3.022   2.519
10203SOL    HW131508   6.502   3.024   2.425
10203SOL    HW231509   6.616   2.965   2.526
10204SOL     OW31510   4.309   5.727   6.755
10204SOL    HW131511   4.360   5.789   6.696
10204SOL    HW231512   4.321   5.633   6.723
10205SOL     OW31513   2.562   0.706   2.260
10205SOL    HW131514   2.649   0.755   2.251
10205SOL    HW231515   2.502   0.731   2.184
10206SOL     OW31516   6.897   6.822   6.546
10206SOL    HW131517   6.814   6.768   6.534
10206SOL    HW231518   6.947   6.788   6.626
10207SOL     OW31519   1.119   2.396   6.727
10207SOL    HW131520   1.116   2.485   6.773
10207SOL    HW231521   1.185   2.399   6.653
10208SOL     OW31522   6.328   5.110   4.054
10208SOL    HW131523   6.398   5.177   4.028
10208SOL    HW231524   6.258   5.107   3.983
10209SOL     OW31525   0.313   6.863   7.023
10209SOL    HW131526   0.377   6.854   0.073
10209SOL    HW231527   0.356   6.832   6.939
10210SOL     OW31528   4.658   6.252   1.996
10210SOL    HW131529   4.608   6.238   1.910
10210SOL    HW231530   4.749   6.288   1.976
10211SOL     OW31531   4.946   6.536   4.419
10211SOL    HW131532   4.931   6.470   4.346
10211SOL    HW231533   5.030   6.587   4.400
10212SOL     OW31534   0.126   0.086   5.498
10212SOL    HW131535   0.181   0.159   5.539
10212SOL    HW231536   0.154   7.024   5.535
10213SOL     OW31537   5.794   2.466   2.054
10213SOL    HW131538   5.764   2.558   2.080
10213SOL    HW231539   5.804   2.461   1.954
10214SOL     OW31540   0.293   1.694   1.408
10214SOL    HW131541   0.220   1.668   1.345
10214SOL    HW231542   0.280   1.788   1.438
10215SOL     OW31543   3.806   3.252   4.041
10215SOL    HW131544   3.748   3.285   3.967
10215SOL    HW231545   3.756   3.256   4.127
10216SOL     OW31546   0.056   1.286   1.488
10216SOL    HW131547   0.092   1.344   1.415
10216SOL    HW231548   6.983   1.273   1.475
10217SOL     OW31549   2.971   1.347   3.431
10217SOL    HW131550   2.998   1.443   3.440
10217SOL    HW231551   3.050   1.288   3.447
10218SOL     OW31552   0.912   0.971   1.666
10218SOL    HW131553   0.893   1.038   1.737
10218SOL    HW231554   0.861   0.995   1.583
10219SOL     OW31555   0.405   2.373   2.866
10219SOL    HW131556   0.366   2.443   2.805
10219SOL    HW231557   0.341   2.297   2.873
10220SOL     OW31558   4.817   1.871   0.961
10220SOL    HW131559   4.771   1.805   0.901
10220SOL    HW231560   4.768   1.875   1.048
10221SOL     OW31561   1.649   4.062   4.239
10221SOL    HW131562   1.641   3.986   4.304
10221SOL    HW231563   1.670   4.027   4.148
10222SOL     OW31564   3.052   4.259   5.261
10222SOL    HW131565   2.996   4.339   5.240
10222SOL    HW231566   2.994   4.177   5.264
10223SOL     OW31567   2.573   5.127   1.020
10223SOL    HW131568   2.595   5.162   1.111
10223SOL    HW231569   2.652   5.138   0.960
10224SOL     OW31570   6.116   2.489   6.091
10224SOL    HW131571   6.146   2.578   6.125
10224SOL    HW231572   6.062   2.502   6.008
10225SOL     OW31573   1.270   6.163   5.231
10225SOL    HW131574   1.360   6.186   5.269
10225SOL    HW231575   1.199   6.216   5.278
10226SOL     OW31576   2.279   0.556   5.905
10226SOL    HW131577   2.299   0.514   5.817
10226SOL    HW231578   2.306   0.652   5.903
10227SOL     OW31579   5.364   5.013   0.937
10227SOL    HW131580   5.391   4.981   0.846
10227SOL    HW231581   5.420   4.967   1.006
10228SOL     OW31582   0.615   6.328   1.883
10228SOL    HW131583   0.556   6.402   1.852
10228SOL    HW231584   0.697   6.366   1.926
10229SOL     OW31585   1.889   3.088   4.743
10229SOL    HW131586   1.892   3.071   4.645
10229SOL    HW231587   1.896   3.000   4.792
10230SOL     OW31588   6.369   6.415   3.039
10230SOL    HW131589   6.310   6.401   2.959
10230SOL    HW231590   6.312   6.414   3.122
10231SOL     OW31591   6.425   4.694   5.313
10231SOL    HW131592   6.368   4.630   5.262
10231SOL    HW231593   6.484   4.744   5.249
10232SOL     OW31594   3.120   1.536   4.024
10232SOL    HW131595   3.063   1.523   3.943
10232SOL    HW231596   3.113   1.630   4.056
10233SOL     OW31597   3.967   3.712   5.033
10233SOL    HW131598   3.961   3.743   5.128
10233SOL    HW231599   3.921   3.777   4.973
10234SOL     OW31600   5.376   0.413   0.880
10234SOL    HW131601   5.447   0.406   0.810
10234SOL    HW231602   5.318   0.492   0.862
10235SOL     OW31603   3.499   2.112   1.263
10235SOL    HW131604   3.404   2.083   1.264
10235SOL    HW231605   3.530   2.122   1.169
10236SOL     OW31606   2.307   1.189   1.069
10236SOL    HW131607   2.284   1.247   0.991
10236SOL    HW231608   2.398   1.149   1.055
10237SOL     OW31609   0.440   4.911   6.089
10237SOL    HW131610   0.399   4.995   6.122
10237SOL    HW231611   0.377   4.835   6.103
10238SOL     OW31612   3.936   4.005   1.882
10238SOL    HW131613   3.845   3.963   1.878
10238SOL    HW231614   3.963   4.018   1.977
10239SOL     OW31615   2.146   4.059   5.837
10239SOL    HW131616   2.113   4.147   5.802
10239SOL    HW231617   2.246   4.060   5.838
10240SOL     OW31618   1.973   4.713   2.415
10240SOL    HW131619   1.983   4.799   2.364
10240SOL    HW231620   1.971   4.636   2.350
10241SOL     OW31621   0.323   6.464   3.362
10241SOL    HW131622   0.291   6.424   3.276
10241SOL    HW231623   0.247   6.470   3.427
10242SOL     OW31624   0.135   1.037   1.529
10242SOL    HW131625   0.183   1.032   1.616
10242SOL    HW231626   0.119   1.132   1.504
10243SOL     OW31627   2.450   4.511   2.722
10243SOL    HW131628   2.490   4.551   2.639
10243SOL    HW231629   2.470   4.568   2.800
10244SOL     OW31630   1.441   4.177   1.018
10244SOL    HW131631   1.389   4.118   1.080
10244SOL    HW231632   1.488   4.120   0.950
10245SOL     OW31633   3.619   3.450   1.355
10245SOL    HW131634   3.638   3.532   1.410
10245SOL    HW231635   3.528   3.414   1.378
10246SOL     OW31636   3.434   3.133   3.686
10246SOL    HW131637   3.431   3.182   3.774
10246SOL    HW231638   3.529   3.129   3.654
10247SOL     OW31639   6.949   4.268   6.464
10247SOL    HW131640   6.982   4.247   6.372
10247SOL    HW231641   6.888   4.196   6.496
10248SOL     OW31642   1.654   6.188   2.827
10248SOL    HW131643   1.648   6.282   2.862
10248SOL    HW231644   1.692   6.190   2.735
10249SOL     OW31645   2.614   6.113   6.649
10249SOL    HW131646   2.549   6.044   6.681
10249SOL    HW231647   2.689   6.069   6.600
10250SOL     OW31648   6.313   2.432   1.690
10250SOL    HW131649   6.300   2.504   1.758
10250SOL    HW231650   6.369   2.359   1.729
10251SOL     OW31651   2.095   1.122   5.101
10251SOL    HW131652   2.143   1.053   5.047
10251SOL    HW231653   2.155   1.200   5.117
10252SOL     OW31654   3.674   4.536   6.229
10252SOL    HW131655   3.579   4.508   6.243
10252SOL    HW231656   3.701   4.517   6.134
10253SOL     OW31657   2.813   6.925   0.760
10253SOL    HW131658   2.811   6.868   0.842
10253SOL    HW231659   2.770   6.876   0.684
10254SOL     OW31660   5.372   1.376   5.679
10254SOL    HW131661   5.274   1.392   5.681
10254SOL    HW231662   5.400   1.329   5.763
10255SOL     OW31663   2.540   5.994   1.624
10255SOL    HW131664   2.543   5.900   1.657
10255SOL    HW231665   2.486   6.050   1.687
10256SOL     OW31666   4.982   2.202   1.814
10256SOL    HW131667   5.028   2.134   1.756
10256SOL    HW231668   5.026   2.291   1.803
10257SOL     OW31669   1.594   4.719   4.534
10257SOL    HW131670   1.544   4.652   4.479
10257SOL    HW231671   1.615   4.799   4.479
10258SOL     OW31672   3.328   1.443   3.840
10258SOL    HW131673   3.257   1.471   3.904
10258SOL    HW231674   3.327   1.502   3.760
10259SOL     OW31675   1.290   5.085   2.945
10259SOL    HW131676   1.283   4.994   2.985
10259SOL    HW231677   1.359   5.085   2.873
10260SOL     OW31678   1.528   1.160   3.714
10260SOL    HW131679   1.594   1.092   3.683
10260SOL    HW231680   1.575   1.247   3.730
10261SOL     OW31681   6.975   4.907   2.472
10261SOL    HW131682   6.936   4.999   2.467
10261SOL    HW231683   6.945   4.854   2.393
10262SOL     OW31684   2.764   6.941   5.433
10262SOL    HW131685   2.799   6.964   5.342
10262SOL    HW231686   2.841   6.931   5.496
10263SOL     OW31687   5.722   0.075   6.962
10263SOL    HW131688   5.757   0.163   6.992
10263SOL    HW231689   5.777   0.002   7.004
10264SOL     OW31690   5.843   6.893   6.621
10264SOL    HW131691   5.888   6.876   6.709
10264SOL    HW231692   5.912   6.918   6.553
10265SOL     OW31693   2.741   3.079   1.415
10265SOL    HW131694   2.805   3.040   1.481
10265SOL    HW231695   2.652   3.091   1.458
10266SOL     OW31696   4.080   3.263   3.855
10266SOL    HW131697   4.085   3.336   3.924
10266SOL    HW231698   3.995   3.211   3.868
10267SOL     OW31699   5.877   2.773   0.106
10267SOL    HW131700   5.876   2.701   0.036
10267SOL    HW231701   5.970   2.786   0.140
10268SOL     OW31702   6.150   5.647   2.633
10268SOL    HW131703   6.094   5.672   2.554
10268SOL    HW231704   6.091   5.609   2.704
10269SOL     OW31705   0.232   3.642   6.822
10269SOL    HW131706   0.206   3.549   6.850
10269SOL    HW231707   0.285   3.685   6.894
10270SOL     OW31708   3.982   4.813   2.610
10270SOL    HW131709   3.919   4.735   2.603
10270SOL    HW231710   3.937   4.896   2.577
10271SOL     OW31711   3.726   2.537   6.747
10271SOL    HW131712   3.669   2.455   6.743
10271SOL    HW231713   3.821   2.510   6.761
10272SOL     OW31714   1.656   1.368   5.357
10272SOL    HW131715   1.561   1.398   5.362
10272SOL    HW231716   1.659   1.271   5.333
10273SOL     OW31717   2.798   5.423   2.848
10273SOL    HW131718   2.804   5.376   2.760
10273SOL    HW231719   2.865   5.383   2.911
10274SOL     OW31720   0.635   5.616   5.507
10274SOL    HW131721   0.659   5.620   5.410
10274SOL    HW231722   0.718   5.602   5.561
10275SOL     OW31723   0.542   6.564   2.385
10275SOL    HW131724   0.525   6.493   2.454
10275SOL    HW231725   0.470   6.559   2.315
10276SOL     OW31726   5.381   5.117   5.448
10276SOL    HW131727   5.404   5.073   5.535
10276SOL    HW231728   5.440   5.196   5.434
10277SOL     OW31729   1.180   5.836   4.082
10277SOL    HW131730   1.253   5.883   4.033
10277SOL    HW231731   1.194   5.737   4.074
10278SOL     OW31732   0.845   2.049   3.912
10278SOL    HW131733   0.874   2.115   3.843
10278SOL    HW231734   0.758   2.009   3.885
10279SOL     OW31735   1.890   5.107   3.868
10279SOL    HW131736   1.928   5.180   3.924
10279SOL    HW231737   1.825   5.053   3.924
10280SOL     OW31738   0.223   3.062   0.412
10280SOL    HW131739   0.179   3.028   0.495
10280SOL    HW231740   0.199   3.003   0.334
10281SOL     OW31741   5.728   1.526   3.048
10281SOL    HW131742   5.678   1.484   2.972
10281SOL    HW231743   5.747   1.621   3.026
10282SOL     OW31744   5.638   3.533   4.381
10282SOL    HW131745   5.722   3.522   4.327
10282SOL    HW231746   5.623   3.452   4.437
10283SOL     OW31747   1.705   3.041   0.972
10283SOL    HW131748   1.751   3.113   1.024
10283SOL    HW231749   1.772   2.972   0.945
10284SOL     OW31750   5.444   2.388   4.873
10284SOL    HW131751   5.450   2.463   4.938
10284SOL    HW231752   5.536   2.354   4.853
10285SOL     OW31753   5.441   6.979   2.670
10285SOL    HW131754   5.523   6.924   2.683
10285SOL    HW231755   5.431   7.002   2.574
10286SOL     OW31756   3.256   1.689   3.295
10286SOL    HW131757   3.270   1.595   3.266
10286SOL    HW231758   3.344   1.738   3.295
10287SOL     OW31759   2.020   6.479   1.586
10287SOL    HW131760   2.038   6.439   1.676
10287SOL    HW231761   2.101   6.531   1.556
10288SOL     OW31762   4.766   5.517   3.402
10288SOL    HW131763   4.699   5.492   3.472
10288SOL    HW231764   4.858   5.499   3.436
10289SOL     OW31765   2.667   6.259   7.002
10289SOL    HW131766   2.574   6.240   6.968
10289SOL    HW231767   2.712   6.324   6.940
10290SOL     OW31768   3.209   3.881   2.776
10290SOL    HW131769   3.267   3.857   2.698
10290SOL    HW231770   3.114   3.861   2.755
10291SOL     OW31771   3.841   1.572   3.018
10291SOL    HW131772   3.905   1.497   3.032
10291SOL    HW231773   3.890   1.652   2.983
10292SOL     OW31774   1.611   1.062   5.350
10292SOL    HW131775   1.511   1.064   5.343
10292SOL    HW231776   1.638   1.044   5.444
10293SOL     OW31777   2.142   4.072   2.625
10293SOL    HW131778   2.127   3.973   2.633
10293SOL    HW231779   2.198   4.103   2.703
10294SOL     OW31780   5.587   3.025   3.211
10294SOL    HW131781   5.596   2.929   3.235
10294SOL    HW231782   5.651   3.047   3.137
10295SOL     OW31783   0.378   4.240   5.544
10295SOL    HW131784   0.386   4.226   5.446
10295SOL    HW231785   0.287   4.209   5.575
10296SOL     OW31786   5.095   1.665   0.325
10296SOL    HW131787   5.097   1.727   0.247
10296SOL    HW231788   5.073   1.716   0.408
10297SOL     OW31789   1.823   0.277   6.360
10297SOL    HW131790   1.874   0.191   6.364
10297SOL    HW231791   1.780   0.295   6.448
10298SOL     OW31792   2.519   4.251   1.762
10298SOL    HW131793   2.464   4.282   1.684
10298SOL    HW231794   2.465   4.189   1.818
10299SOL     OW31795   4.698   4.466   3.016
10299SOL    HW131796   4.704   4.440   3.112
10299SOL    HW231797   4.750   4.550   3.000
10300SOL     OW31798   1.497   3.906   2.182
10300SOL    HW131799   1.591   3.922   2.213
10300SOL    HW231800   1.433   3.956   2.241
10301SOL     OW31801   5.669   2.452   4.328
10301SOL    HW131802   5.583   2.412   4.297
10301SOL    HW231803   5.661   2.476   4.425
10302SOL     OW31804   1.667   6.806   4.091
10302SOL    HW131805   1.706   6.723   4.050
10302SOL    HW231806   1.666   6.879   4.023
10303SOL     OW31807   1.897   5.982   2.915
10303SOL    HW131808   1.799   5.973   2.933
10303SOL    HW231809   1.921   6.078   2.900
10304SOL     OW31810   5.417   6.867   1.748
10304SOL    HW131811   5.345   6.818   1.698
10304SOL    HW231812   5.397   6.965   1.748
10305SOL     OW31813   1.065   4.532   6.607
10305SOL    HW131814   0.975   4.493   6.628
10305SOL    HW231815   1.107   4.564   6.692
10306SOL     OW31816   5.013   0.016   6.204
10306SOL    HW131817   5.043   6.948   6.218
10306SOL    HW231818   5.091   0.078   6.211
10307SOL     OW31819   2.720   2.398   5.428
10307SOL    HW131820   2.719   2.485   5.379
10307SOL    HW231821   2.632   2.352   5.415
10308SOL     OW31822   2.012   4.349   3.510
10308SOL    HW131823   2.098   4.311   3.476
10308SOL    HW231824   1.999   4.321   3.605
10309SOL     OW31825   6.953   1.275   5.909
10309SOL    HW131826   6.979   1.293   6.004
10309SOL    HW231827   6.867   1.224   5.907
10310SOL     OW31828   3.348   3.305   1.049
10310SOL    HW131829   3.358   3.404   1.037
10310SOL    HW231830   3.426   3.270   1.100
10311SOL     OW31831   6.897   6.163   0.500
10311SOL    HW131832   6.950   6.246   0.515
10311SOL    HW231833   6.950   6.084   0.529
10312SOL     OW31834   3.466   6.102   2.569
10312SOL    HW131835   3.519   6.024   2.534
10312SOL    HW231836   3.510   6.137   2.652
10313SOL     OW31837   4.759   6.615   1.884
10313SOL    HW131838   4.698   6.609   1.805
10313SOL    HW231839   4.847   6.654   1.857
10314SOL     OW31840   6.528   1.022   1.944
10314SOL    HW131841   6.542   0.937   1.892
10314SOL    HW231842   6.430   1.042   1.948
10315SOL     OW31843   5.110   6.027   5.623
10315SOL    HW131844   5.127   5.958   5.553
10315SOL    HW231845   5.011   6.035   5.639
10316SOL     OW31846   5.784   1.733   4.209
10316SOL    HW131847   5.742   1.749   4.299
10316SOL    HW231848   5.816   1.638   4.204
10317SOL     OW31849   4.763   5.956   4.166
10317SOL    HW131850   4.800   5.987   4.253
10317SOL    HW231851   4.838   5.933   4.104
10318SOL     OW31852   5.523   6.158   6.911
10318SOL    HW131853   5.469   6.242   6.912
10318SOL    HW231854   5.476   6.090   6.854
10319SOL     OW31855   1.180   2.544   5.644
10319SOL    HW131856   1.223   2.542   5.734
10319SOL    HW231857   1.126   2.461   5.631
10320SOL     OW31858   0.070   0.956   2.774
10320SOL    HW131859   0.156   1.007   2.768
10320SOL    HW231860   0.072   0.880   2.709
10321SOL     OW31861   4.018   2.035   1.617
10321SOL    HW131862   3.972   2.119   1.644
10321SOL    HW231863   4.040   1.981   1.698
10322SOL     OW31864   6.309   5.944   5.192
10322SOL    HW131865   6.239   5.978   5.255
10322SOL    HW231866   6.265   5.902   5.113
10323SOL     OW31867   6.055   2.894   5.498
10323SOL    HW131868   6.031   2.945   5.580
10323SOL    HW231869   6.099   2.956   5.432
10324SOL     OW31870   3.617   3.367   2.490
10324SOL    HW131871   3.570   3.453   2.468
10324SOL    HW231872   3.668   3.336   2.410
10325SOL     OW31873   0.008   3.948   2.186
10325SOL    HW131874   6.958   3.919   2.245
10325SOL    HW231875   6.998   3.978   2.098
10326SOL     OW31876   3.264   4.257   0.182
10326SOL    HW131877   3.207   4.175   0.174
10326SOL    HW231878   3.311   4.273   0.095
10327SOL     OW31879   2.451   1.253   1.313
10327SOL    HW131880   2.380   1.284   1.377
10327SOL    HW231881   2.420   1.267   1.219
10328SOL     OW31882   5.781   2.715   0.905
10328SOL    HW131883   5.863   2.746   0.857
10328SOL    HW231884   5.802   2.705   1.003
10329SOL     OW31885   3.588   0.314   3.940
10329SOL    HW131886   3.611   0.223   3.905
10329SOL    HW231887   3.565   0.375   3.864
10330SOL     OW31888   4.825   0.174   2.245
10330SOL    HW131889   4.873   0.180   2.333
10330SOL    HW231890   4.752   0.242   2.242
10331SOL     OW31891   6.724   1.065   5.572
10331SOL    HW131892   6.761   1.123   5.499
10331SOL    HW231893   6.779   0.982   5.580
10332SOL     OW31894   6.695   6.877   0.662
10332SOL    HW131895   6.658   6.913   0.748
10332SOL    HW231896   6.621   6.835   0.609
10333SOL     OW31897   6.920   4.710   4.455
10333SOL    HW131898   6.883   4.668   4.373
10333SOL    HW231899   6.904   4.649   4.533
10334SOL     OW31900   4.120   6.631   3.793
10334SOL    HW131901   4.191   6.681   3.743
10334SOL    HW231902   4.031   6.649   3.751
10335SOL     OW31903   2.719   4.637   6.928
10335SOL    HW131904   2.627   4.609   6.899
10335SOL    HW231905   2.786   4.573   6.892
10336SOL     OW31906   6.670   6.307   2.444
10336SOL    HW131907   6.677   6.389   2.388
10336SOL    HW231908   6.746   6.303   2.509
10337SOL     OW31909   6.966   6.448   5.931
10337SOL    HW131910   6.896   6.517   5.946
10337SOL    HW231911   6.950   6.370   5.991
10338SOL     OW31912   2.277   6.128   2.610
10338SOL    HW131913   2.279   6.090   2.517
10338SOL    HW231914   2.335   6.209   2.615
10339SOL     OW31915   3.528   4.568   0.064
10339SOL    HW131916   3.504   4.601   0.156
10339SOL    HW231917   3.449   4.576   0.004
10340SOL     OW31918   1.665   4.615   1.093
10340SOL    HW131919   1.750   4.648   1.053
10340SOL    HW231920   1.604   4.693   1.111
10341SOL     OW31921   1.884   3.492   1.696
10341SOL    HW131922   1.861   3.507   1.600
10341SOL    HW231923   1.983   3.497   1.708
10342SOL     OW31924   1.230   0.301   5.331
10342SOL    HW131925   1.241   0.209   5.293
10342SOL    HW231926   1.241   0.297   5.430
10343SOL     OW31927   3.523   5.975   6.777
10343SOL    HW131928   3.493   6.057   6.728
10343SOL    HW231929   3.443   5.922   6.804
10344SOL     OW31930   4.656   4.349   1.517
10344SOL    HW131931   4.739   4.401   1.535
10344SOL    HW231932   4.598   4.350   1.599
10345SOL     OW31933   1.976   1.239   6.765
10345SOL    HW131934   1.919   1.172   6.811
10345SOL    HW231935   1.920   1.296   6.705
10346SOL     OW31936   6.657   6.865   1.522
10346SOL    HW131937   6.743   6.844   1.568
10346SOL    HW231938   6.581   6.846   1.584
10347SOL     OW31939   4.813   2.226   2.731
10347SOL    HW131940   4.730   2.174   2.754
10347SOL    HW231941   4.861   2.250   2.816
10348SOL     OW31942   6.671   1.559   0.302
10348SOL    HW131943   6.572   1.555   0.312
10348SOL    HW231944   6.711   1.607   0.380
10349SOL     OW31945   6.857   0.845   0.942
10349SOL    HW131946   6.905   0.780   0.883
10349SOL    HW231947   6.915   0.926   0.957
10350SOL     OW31948   1.938   7.013   5.458
10350SOL    HW131949   1.852   6.987   5.414
10350SOL    HW231950   1.979   6.933   5.502
10351SOL     OW31951   4.811   5.383   6.335
10351SOL    HW131952   4.823   5.297   6.385
10351SOL    HW231953   4.763   5.365   6.249
10352SOL     OW31954   4.096   2.474   6.310
10352SOL    HW131955   4.089   2.493   6.407
10352SOL    HW231956   4.178   2.518   6.273
10353SOL     OW31957   0.128   2.637   5.904
10353SOL    HW131958   0.196   2.687   5.957
10353SOL    HW231959   0.129   2.541   5.931
10354SOL     OW31960   5.773   2.844   1.839
10354SOL    HW131961   5.767   2.938   1.871
10354SOL    HW231962   5.846   2.796   1.889
10355SOL     OW31963   1.878   0.196   1.665
10355SOL    HW131964   1.812   0.147   1.721
10355SOL    HW231965   1.831   0.263   1.608
10356SOL     OW31966   0.201   4.606   5.917
10356SOL    HW131967   0.229   4.701   5.901
10356SOL    HW231968   0.236   4.548   5.844
10357SOL     OW31969   2.804   3.303   5.955
10357SOL    HW131970   2.801   3.254   6.042
10357SOL    HW231971   2.740   3.380   5.959
10358SOL     OW31972   6.442   3.077   2.783
10358SOL    HW131973   6.461   3.058   2.687
10358SOL    HW231974   6.508   3.028   2.840
10359SOL     OW31975   6.797   1.806   1.525
10359SOL    HW131976   6.866   1.739   1.498
10359SOL    HW231977   6.708   1.779   1.487
10360SOL     OW31978   4.600   5.748   2.697
10360SOL    HW131979   4.506   5.713   2.688
10360SOL    HW231980   4.644   5.705   2.775
10361SOL     OW31981   3.103   0.218   2.778
10361SOL    HW131982   3.049   0.301   2.761
10361SOL    HW231983   3.198   0.235   2.754
10362SOL     OW31984   0.952   5.147   4.311
10362SOL    HW131985   0.924   5.112   4.222
10362SOL    HW231986   0.887   5.218   4.341
10363SOL     OW31987   4.472   1.943   0.938
10363SOL    HW131988   4.375   1.954   0.957
10363SOL    HW231989   4.525   1.997   1.003
10364SOL     OW31990   3.986   3.566   2.362
10364SOL    HW131991   4.022   3.555   2.455
10364SOL    HW231992   3.898   3.612   2.366
10365SOL     OW31993   5.127   4.332   5.770
10365SOL    HW131994   5.129   4.266   5.696
10365SOL    HW231995   5.047   4.391   5.760
10366SOL     OW31996   4.482   0.337   4.101
10366SOL    HW131997   4.576   0.304   4.107
10366SOL    HW231998   4.464   0.401   4.176
10367SOL     OW31999   6.980   1.494   1.720
10367SOL    HW132000   7.012   1.470   1.629
10367SOL    HW232001   6.995   1.417   1.782
10368SOL     OW32002   2.036   0.784   2.163
10368SOL    HW132003   1.979   0.811   2.241
10368SOL    HW232004   2.031   0.685   2.151
10369SOL     OW32005   3.885   1.294   5.265
10369SOL    HW132006   3.855   1.267   5.357
10369SOL    HW232007   3.820   1.360   5.227
10370SOL     OW32008   5.480   1.977   5.580
10370SOL    HW132009   5.504   2.073   5.591
10370SOL    HW232010   5.380   1.967   5.587
10371SOL     OW32011   2.032   6.056   4.237
10371SOL    HW132012   2.009   6.142   4.191
10371SOL    HW232013   1.955   6.027   4.294
10372SOL     OW32014   1.495   1.476   0.276
10372SOL    HW132015   1.524   1.526   0.195
10372SOL    HW232016   1.560   1.402   0.296
10373SOL     OW32017   1.951   6.737   4.341
10373SOL    HW132018   1.918   6.646   4.369
10373SOL    HW232019   1.873   6.794   4.315
10374SOL     OW32020   4.186   1.043   2.689
10374SOL    HW132021   4.262   1.015   2.630
10374SOL    HW232022   4.101   1.041   2.635
10375SOL     OW32023   2.921   1.473   6.351
10375SOL    HW132024   2.842   1.433   6.304
10375SOL    HW232025   2.893   1.558   6.396
10376SOL     OW32026   1.206   6.277   4.214
10376SOL    HW132027   1.175   6.360   4.261
10376SOL    HW232028   1.256   6.302   4.131
10377SOL     OW32029   6.794   1.327   3.942
10377SOL    HW132030   6.786   1.420   3.906
10377SOL    HW232031   6.857   1.327   4.020
10378SOL     OW32032   6.177   0.168   6.081
10378SOL    HW132033   6.230   0.119   6.150
10378SOL    HW232034   6.080   0.166   6.106
10379SOL     OW32035   3.052   6.570   4.689
10379SOL    HW132036   3.107   6.502   4.737
10379SOL    HW232037   2.959   6.571   4.728
10380SOL     OW32038   0.801   2.078   4.190
10380SOL    HW132039   0.837   2.023   4.115
10380SOL    HW232040   0.701   2.071   4.190
10381SOL     OW32041   4.424   4.634   0.272
10381SOL    HW132042   4.515   4.638   0.313
10381SOL    HW232043   4.362   4.587   0.335
10382SOL     OW32044   2.043   4.384   0.297
10382SOL    HW132045   2.136   4.362   0.269
10382SOL    HW232046   2.021   4.478   0.270
10383SOL     OW32047   6.939   3.986   0.817
10383SOL    HW132048   6.846   3.978   0.780
10383SOL    HW232049   6.949   4.075   0.862
10384SOL     OW32050   0.612   6.874   0.801
10384SOL    HW132051   0.634   6.971   0.794
10384SOL    HW232052   0.603   6.848   0.897
10385SOL     OW32053   3.179   6.469   5.560
10385SOL    HW132054   3.080   6.469   5.574
10385SOL    HW232055   3.202   6.531   5.485
10386SOL     OW32056   6.212   2.424   5.687
10386SOL    HW132057   6.191   2.494   5.754
10386SOL    HW232058   6.189   2.457   5.595
10387SOL     OW32059   4.524   2.011   3.041
10387SOL    HW132060   4.569   2.096   3.072
10387SOL    HW232061   4.432   2.033   3.008
10388SOL     OW32062   2.264   5.667   2.819
10388SOL    HW132063   2.224   5.675   2.910
10388SOL    HW232064   2.246   5.751   2.767
10389SOL     OW32065   0.112   6.732   1.959
10389SOL    HW132066   0.040   6.800   1.947
10389SOL    HW232067   0.140   6.697   1.869
10390SOL     OW32068   2.604   2.820   1.436
10390SOL    HW132069   2.597   2.836   1.535
10390SOL    HW232070   2.628   2.905   1.390
10391SOL     OW32071   1.100   5.750   4.634
10391SOL    HW132072   1.185   5.800   4.652
10391SOL    HW232073   1.024   5.796   4.680
10392SOL     OW32074   6.325   4.482   6.904
10392SOL    HW132075   6.393   4.520   6.966
10392SOL    HW232076   6.295   4.553   6.839
10393SOL     OW32077   2.254   2.473   2.441
10393SOL    HW132078   2.341   2.465   2.489
10393SOL    HW232079   2.181   2.487   2.507
10394SOL     OW32080   2.285   6.309   4.777
10394SOL    HW132081   2.188   6.335   4.783
10394SOL    HW232082   2.293   6.209   4.783
10395SOL     OW32083   6.808   0.749   3.525
10395SOL    HW132084   6.736   0.784   3.464
10395SOL    HW232085   6.765   0.701   3.602
10396SOL     OW32086   2.269   0.378   4.316
10396SOL    HW132087   2.358   0.352   4.278
10396SOL    HW232088   2.276   0.468   4.357
10397SOL     OW32089   3.066   2.021   3.714
10397SOL    HW132090   3.085   2.012   3.812
10397SOL    HW232091   2.969   2.041   3.700
10398SOL     OW32092   5.721   2.414   0.403
10398SOL    HW132093   5.798   2.361   0.438
10398SOL    HW232094   5.638   2.358   0.404
10399SOL     OW32095   4.192   1.872   4.418
10399SOL    HW132096   4.174   1.779   4.385
10399SOL    HW232097   4.132   1.892   4.495
10400SOL     OW32098   3.891   5.391   0.932
10400SOL    HW132099   3.908   5.490   0.922
10400SOL    HW232100   3.836   5.375   1.014
10401SOL     OW32101   0.399   0.346   2.928
10401SOL    HW132102   0.303   0.369   2.911
10401SOL    HW232103   0.443   0.420   2.978
10402SOL     OW32104   0.077   2.750   5.622
10402SOL    HW132105   7.009   2.756   5.589
10402SOL    HW232106   0.088   2.665   5.675
10403SOL     OW32107   5.384   1.576   2.884
10403SOL    HW132108   5.472   1.615   2.911
10403SOL    HW232109   5.331   1.644   2.833
10404SOL     OW32110   0.471   6.595   3.570
10404SOL    HW132111   0.410   6.575   3.493
10404SOL    HW232112   0.563   6.613   3.535
10405SOL     OW32113   1.225   5.519   4.737
10405SOL    HW132114   1.203   5.607   4.695
10405SOL    HW232115   1.308   5.529   4.791
10406SOL     OW32116   2.144   3.653   5.092
10406SOL    HW132117   2.223   3.591   5.087
10406SOL    HW232118   2.154   3.715   5.170
10407SOL     OW32119   1.663   0.643   6.797
10407SOL    HW132120   1.577   0.651   6.748
10407SOL    HW232121   1.672   0.719   6.862
10408SOL     OW32122   3.398   6.136   1.910
10408SOL    HW132123   3.429   6.057   1.857
10408SOL    HW232124   3.431   6.127   2.005
10409SOL     OW32125   0.347   3.888   0.913
10409SOL    HW132126   0.393   3.950   0.850
10409SOL    HW232127   0.385   3.898   1.005
10410SOL     OW32128   5.218   1.579   1.266
10410SOL    HW132129   5.202   1.481   1.275
10410SOL    HW232130   5.306   1.602   1.308
10411SOL     OW32131   3.684   5.403   4.355
10411SOL    HW132132   3.616   5.451   4.410
10411SOL    HW232133   3.776   5.431   4.384
10412SOL     OW32134   0.550   1.095   0.824
10412SOL    HW132135   0.637   1.074   0.868
10412SOL    HW232136   0.530   1.193   0.833
10413SOL     OW32137   0.271   2.125   0.886
10413SOL    HW132138   0.234   2.165   0.803
10413SOL    HW232139   0.220   2.158   0.965
10414SOL     OW32140   4.728   6.578   5.829
10414SOL    HW132141   4.729   6.640   5.751
10414SOL    HW232142   4.785   6.498   5.809
10415SOL     OW32143   2.543   4.505   3.699
10415SOL    HW132144   2.473   4.436   3.682
10415SOL    HW232145   2.609   4.470   3.766
10416SOL     OW32146   6.192   1.113   5.419
10416SOL    HW132147   6.290   1.101   5.404
10416SOL    HW232148   6.156   1.178   5.351
10417SOL     OW32149   4.800   4.129   4.234
10417SOL    HW132150   4.787   4.222   4.270
10417SOL    HW232151   4.756   4.063   4.294
10418SOL     OW32152   6.263   4.223   5.369
10418SOL    HW132153   6.341   4.161   5.358
10418SOL    HW232154   6.272   4.299   5.305
10419SOL     OW32155   3.200   0.482   5.449
10419SOL    HW132156   3.173   0.420   5.376
10419SOL    HW232157   3.122   0.497   5.510
10420SOL     OW32158   6.801   3.410   3.704
10420SOL    HW132159   6.898   3.416   3.728
10420SOL    HW232160   6.760   3.332   3.749
10421SOL     OW32161   1.403   2.998   4.589
10421SOL    HW132162   1.398   2.899   4.575
10421SOL    HW232163   1.478   3.035   4.535
10422SOL     OW32164   6.548   3.459   5.728
10422SOL    HW132165   6.559   3.389   5.799
10422SOL    HW232166   6.629   3.517   5.725
10423SOL     OW32167   4.182   4.994   5.074
10423SOL    HW132168   4.152   4.910   5.120
10423SOL    HW232169   4.156   4.990   4.977
10424SOL     OW32170   4.076   2.304   0.317
10424SOL    HW132171   4.083   2.327   0.414
10424SOL    HW232172   3.996   2.349   0.278
10425SOL     OW32173   0.434   6.122   1.783
10425SOL    HW132174   0.512   6.173   1.822
10425SOL    HW232175   0.351   6.175   1.795
10426SOL     OW32176   5.717   3.542   5.477
10426SOL    HW132177   5.658   3.623   5.482
10426SOL    HW232178   5.758   3.525   5.567
10427SOL     OW32179   5.167   6.712   6.800
10427SOL    HW132180   5.145   6.805   6.829
10427SOL    HW232181   5.234   6.673   6.863
10428SOL     OW32182   2.156   1.647   4.277
10428SOL    HW132183   2.170   1.549   4.263
10428SOL    HW232184   2.170   1.669   4.374
10429SOL     OW32185   0.837   3.844   3.162
10429SOL    HW132186   0.796   3.929   3.128
10429SOL    HW232187   0.764   3.776   3.177
10430SOL     OW32188   3.971   6.220   4.646
10430SOL    HW132189   3.980   6.299   4.585
10430SOL    HW232190   3.879   6.182   4.638
10431SOL     OW32191   2.936   0.877   4.600
10431SOL    HW132192   2.903   0.949   4.538
10431SOL    HW232193   3.025   0.845   4.569
10432SOL     OW32194   0.130   1.750   5.391
10432SOL    HW132195   0.112   1.763   5.294
10432SOL    HW232196   0.222   1.781   5.413
10433SOL     OW32197   6.872   6.286   2.134
10433SOL    HW132198   6.952   6.238   2.169
10433SOL    HW232199   6.862   6.268   2.036
10434SOL     OW32200   4.611   6.168   4.823
10434SOL    HW132201   4.587   6.095   4.887
10434SOL    HW232202   4.701   6.204   4.847
10435SOL     OW32203   1.753   2.132   5.978
10435SOL    HW132204   1.851   2.146   5.991
10435SOL    HW232205   1.706   2.145   6.065
10436SOL     OW32206   6.706   4.053   3.877
10436SOL    HW132207   6.611   4.083   3.881
10436SOL    HW232208   6.730   4.006   3.962
10437SOL     OW32209   5.710   4.993   5.250
10437SOL    HW132210   5.795   4.941   5.238
10437SOL    HW232211   5.718   5.051   5.330
10438SOL     OW32212   6.992   5.981   5.910
10438SOL    HW132213   6.967   5.909   5.975
10438SOL    HW232214   0.034   5.945   5.846
10439SOL     OW32215   5.791   1.462   5.320
10439SOL    HW132216   5.795   1.371   5.279
10439SOL    HW232217   5.736   1.459   5.404
10440SOL     OW32218   6.865   6.776   0.007
10440SOL    HW132219   6.959   6.760   0.037
10440SOL    HW232220   6.820   6.689   7.013
10441SOL     OW32221   3.186   1.358   1.170
10441SOL    HW132222   3.200   1.310   1.257
10441SOL    HW232223   3.275   1.375   1.127
10442SOL     OW32224   4.130   0.315   4.685
10442SOL    HW132225   4.191   0.297   4.762
10442SOL    HW232226   4.171   0.279   4.601
10443SOL     OW32227   6.603   2.662   2.728
10443SOL    HW132228   6.523   2.614   2.692
10443SOL    HW232229   6.634   2.618   2.812
10444SOL     OW32230   3.436   5.188   2.724
10444SOL    HW132231   3.499   5.169   2.799
10444SOL    HW232232   3.401   5.102   2.688
10445SOL     OW32233   0.489   3.885   2.521
10445SOL    HW132234   0.558   3.895   2.449
10445SOL    HW232235   0.534   3.856   2.606
10446SOL     OW32236   1.658   3.957   6.039
10446SOL    HW132237   1.597   4.030   6.007
10446SOL    HW232238   1.606   3.894   6.098
10447SOL     OW32239   6.635   0.290   2.195
10447SOL    HW132240   6.612   0.218   2.260
10447SOL    HW232241   6.722   0.333   2.221
10448SOL     OW32242   3.353   0.378   2.681
10448SOL    HW132243   3.436   0.349   2.633
10448SOL    HW232244   3.379   0.439   2.757
10449SOL     OW32245   2.867   5.756   6.588
10449SOL    HW132246   2.769   5.766   6.570
10449SOL    HW232247   2.910   5.846   6.582
10450SOL     OW32248   6.839   0.775   6.610
10450SOL    HW132249   6.802   0.714   6.540
10450SOL    HW232250   6.913   0.829   6.572
10451SOL     OW32251   3.367   7.024   2.729
10451SOL    HW132252   3.281   0.042   2.756
10451SOL    HW232253   3.381   6.942   2.784
10452SOL     OW32254   6.703   3.412   2.778
10452SOL    HW132255   6.704   3.341   2.708
10452SOL    HW232256   6.674   3.374   2.865
10453SOL     OW32257   4.486   6.094   2.565
10453SOL    HW132258   4.577   6.131   2.582
10453SOL    HW232259   4.494   6.010   2.512
10454SOL     OW32260   5.705   0.784   0.867
10454SOL    HW132261   5.702   0.884   0.872
10454SOL    HW232262   5.800   0.753   0.868
10455SOL     OW32263   0.143   5.756   3.986
10455SOL    HW132264   0.177   5.850   3.989
10455SOL    HW232265   0.117   5.733   3.892
10456SOL     OW32266   0.398   5.580   0.638
10456SOL    HW132267   0.450   5.559   0.555
10456SOL    HW232268   0.449   5.645   0.694
10457SOL     OW32269   4.078   2.963   0.448
10457SOL    HW132270   4.170   2.998   0.432
10457SOL    HW232271   4.082   2.865   0.466
10458SOL     OW32272   6.349   6.630   6.575
10458SOL    HW132273   6.353   6.622   6.475
10458SOL    HW232274   6.326   6.541   6.614
10459SOL     OW32275   4.910   5.147   1.007
10459SOL    HW132276   4.903   5.216   1.079
10459SOL    HW232277   4.849   5.071   1.029
10460SOL     OW32278   0.470   3.754   1.912
10460SOL    HW132279   0.563   3.735   1.944
10460SOL    HW232280   0.462   3.727   1.816
10461SOL     OW32281   6.427   5.094   5.550
10461SOL    HW132282   6.501   5.027   5.557
10461SOL    HW232283   6.465   5.185   5.540
10462SOL     OW32284   5.813   2.214   2.888
10462SOL    HW132285   5.833   2.276   2.812
10462SOL    HW232286   5.714   2.208   2.901
10463SOL     OW32287   4.455   2.279   5.600
10463SOL    HW132288   4.407   2.214   5.541
10463SOL    HW232289   4.437   2.257   5.696
10464SOL     OW32290   5.908   6.237   2.037
10464SOL    HW132291   5.995   6.246   1.989
10464SOL    HW232292   5.834   6.266   1.977
10465SOL     OW32293   4.543   5.672   1.777
10465SOL    HW132294   4.534   5.756   1.831
10465SOL    HW232295   4.465   5.664   1.716
10466SOL     OW32296   4.937   4.500   5.690
10466SOL    HW132297   4.965   4.581   5.639
10466SOL    HW232298   4.873   4.527   5.762
10467SOL     OW32299   1.621   2.349   0.429
10467SOL    HW132300   1.696   2.322   0.489
10467SOL    HW232301   1.658   2.407   0.355
10468SOL     OW32302   4.190   4.962   4.064
10468SOL    HW132303   4.272   4.947   4.118
10468SOL    HW232304   4.117   4.901   4.095
10469SOL     OW32305   4.438   3.966   5.759
10469SOL    HW132306   4.508   3.934   5.695
10469SOL    HW232307   4.399   4.051   5.724
10470SOL     OW32308   2.388   1.332   3.386
10470SOL    HW132309   2.361   1.276   3.308
10470SOL    HW232310   2.488   1.337   3.392
10471SOL     OW32311   2.512   0.689   0.549
10471SOL    HW132312   2.574   0.740   0.609
10471SOL    HW232313   2.476   0.610   0.599
10472SOL     OW32314   2.627   5.570   0.409
10472SOL    HW132315   2.658   5.477   0.430
10472SOL    HW232316   2.699   5.618   0.360
10473SOL     OW32317   5.827   6.872   5.723
10473SOL    HW132318   5.869   6.899   5.810
10473SOL    HW232319   5.850   6.777   5.703
10474SOL     OW32320   4.356   1.062   3.885
10474SOL    HW132321   4.334   1.157   3.860
10474SOL    HW232322   4.439   1.062   3.942
10475SOL     OW32323   3.469   6.944   1.939
10475SOL    HW132324   3.410   6.966   2.017
10475SOL    HW232325   3.413   6.912   1.863
10476SOL     OW32326   5.044   6.403   6.187
10476SOL    HW132327   5.089   6.473   6.132
10476SOL    HW232328   4.960   6.439   6.226
10477SOL     OW32329   6.539   0.891   4.792
10477SOL    HW132330   6.513   0.975   4.746
10477SOL    HW232331   6.518   0.898   4.890
10478SOL     OW32332   6.698   6.545   7.020
10478SOL    HW132333   6.761   6.467   7.015
10478SOL    HW232334   6.619   6.527   6.962
10479SOL     OW32335   6.455   1.174   2.211
10479SOL    HW132336   6.495   1.083   2.226
10479SOL    HW232337   6.446   1.189   2.112
10480SOL     OW32338   1.081   1.128   2.128
10480SOL    HW132339   1.078   1.028   2.126
10480SOL    HW232340   0.999   1.162   2.174
10481SOL     OW32341   1.789   6.456   2.963
10481SOL    HW132342   1.856   6.528   2.982
10481SOL    HW232343   1.713   6.495   2.911
10482SOL     OW32344   6.297   5.301   4.573
10482SOL    HW132345   6.271   5.244   4.495
10482SOL    HW232346   6.261   5.394   4.560
10483SOL     OW32347   5.128   5.566   0.411
10483SOL    HW132348   5.069   5.493   0.445
10483SOL    HW232349   5.162   5.542   0.320
10484SOL     OW32350   4.957   1.699   1.879
10484SOL    HW132351   5.002   1.785   1.854
10484SOL    HW232352   4.994   1.667   1.966
10485SOL     OW32353   2.952   4.229   0.436
10485SOL    HW132354   2.925   4.325   0.446
10485SOL    HW232355   3.025   4.208   0.502
10486SOL     OW32356   0.129   0.907   0.522
10486SOL    HW132357   0.138   0.883   0.425
10486SOL    HW232358   0.154   0.828   0.578
10487SOL     OW32359   4.880   0.047   1.597
10487SOL    HW132360   4.847   0.013   1.685
10487SOL    HW232361   4.805   0.091   1.548
10488SOL     OW32362   3.330   1.636   5.636
10488SOL    HW132363   3.361   1.658   5.729
10488SOL    HW232364   3.355   1.711   5.575
10489SOL     OW32365   0.348   6.746   5.268
10489SOL    HW132366   0.394   6.787   5.347
10489SOL    HW232367   0.301   6.817   5.216
10490SOL     OW32368   6.100   1.174   1.292
10490SOL    HW132369   6.112   1.079   1.321
10490SOL    HW232370   6.188   1.221   1.295
10491SOL     OW32371   1.642   3.641   6.833
10491SOL    HW132372   1.550   3.615   6.863
10491SOL    HW232373   1.664   3.593   6.748
10492SOL     OW32374   5.900   4.378   5.504
10492SOL    HW132375   5.840   4.369   5.584
10492SOL    HW232376   5.995   4.376   5.533
10493SOL     OW32377   3.622   0.723   1.616
10493SOL    HW132378   3.663   0.802   1.662
10493SOL    HW232379   3.691   0.652   1.604
10494SOL     OW32380   5.158   3.778   5.734
10494SOL    HW132381   5.204   3.856   5.775
10494SOL    HW232382   5.077   3.755   5.787
10495SOL     OW32383   2.660   0.075   0.128
10495SOL    HW132384   2.579   0.027   0.096
10495SOL    HW232385   2.671   0.061   0.226
10496SOL     OW32386   0.097   4.506   6.503
10496SOL    HW132387   0.158   4.508   6.582
10496SOL    HW232388   0.034   4.428   6.511
10497SOL     OW32389   2.313   0.018   2.305
10497SOL    HW132390   2.411   0.037   2.302
10497SOL    HW232391   2.293   6.965   2.247
10498SOL     OW32392   3.043   5.702   1.385
10498SOL    HW132393   3.127   5.686   1.437
10498SOL    HW232394   3.020   5.619   1.334
10499SOL     OW32395   3.715   6.854   2.481
10499SOL    HW132396   3.739   6.882   2.574
10499SOL    HW232397   3.789   6.880   2.419
10500SOL     OW32398   0.057   0.863   6.489
10500SOL    HW132399   0.148   0.825   6.503
10500SOL    HW232400   0.028   0.846   6.394
10501SOL     OW32401   2.413   5.751   3.079
10501SOL    HW132402   2.419   5.757   2.979
10501SOL    HW232403   2.356   5.826   3.113
10502SOL     OW32404   2.762   0.412   0.994
10502SOL    HW132405   2.860   0.428   1.009
10502SOL    HW232406   2.743   0.409   0.896
10503SOL     OW32407   3.655   2.788   0.366
10503SOL    HW132408   3.722   2.856   0.394
10503SOL    HW232409   3.674   2.701   0.413
10504SOL     OW32410   2.007   1.601   6.792
10504SOL    HW132411   1.908   1.612   6.785
10504SOL    HW232412   2.045   1.578   6.703
10505SOL     OW32413   5.226   6.201   0.672
10505SOL    HW132414   5.261   6.185   0.764
10505SOL    HW232415   5.128   6.219   0.676
10506SOL     OW32416   6.929   5.286   7.019
10506SOL    HW132417   6.993   5.326   6.954
10506SOL    HW232418   6.942   5.327   0.083
10507SOL     OW32419   2.277   0.059   0.021
10507SOL    HW132420   2.195   0.003   0.024
10507SOL    HW232421   2.357   0.002   0.001
10508SOL     OW32422   6.230   6.715   4.529
10508SOL    HW132423   6.285   6.673   4.601
10508SOL    HW232424   6.137   6.731   4.563
10509SOL     OW32425   0.730   6.617   4.823
10509SOL    HW132426   0.700   6.685   4.756
10509SOL    HW232427   0.794   6.553   4.779
10510SOL     OW32428   4.859   6.143   6.426
10510SOL    HW132429   4.777   6.086   6.420
10510SOL    HW232430   4.849   6.208   6.501
10511SOL     OW32431   4.352   1.708   1.855
10511SOL    HW132432   4.429   1.754   1.812
10511SOL    HW232433   4.320   1.634   1.796
10512SOL     OW32434   3.741   0.090   5.372
10512SOL    HW132435   3.837   0.115   5.389
10512SOL    HW232436   3.738   0.010   5.312
10513SOL     OW32437   6.677   2.828   4.184
10513SOL    HW132438   6.625   2.893   4.128
10513SOL    HW232439   6.666   2.852   4.281
10514SOL     OW32440   0.080   3.698   0.362
10514SOL    HW132441   0.040   3.614   0.327
10514SOL    HW232442   0.081   3.767   0.290
10515SOL     OW32443   0.424   3.215   2.749
10515SOL    HW132444   0.441   3.314   2.746
10515SOL    HW232445   0.492   3.168   2.693
10516SOL     OW32446   3.640   0.990   0.517
10516SOL    HW132447   3.622   0.938   0.434
10516SOL    HW232448   3.582   0.955   0.591
10517SOL     OW32449   0.129   2.706   2.391
10517SOL    HW132450   0.187   2.630   2.420
10517SOL    HW232451   0.166   2.792   2.426
10518SOL     OW32452   1.240   5.238   6.896
10518SOL    HW132453   1.311   5.190   6.845
10518SOL    HW232454   1.173   5.276   6.832
10519SOL     OW32455   2.084   3.122   6.794
10519SOL    HW132456   2.049   3.084   6.880
10519SOL    HW232457   2.180   3.148   6.806
10520SOL     OW32458   1.159   2.649   6.864
10520SOL    HW132459   1.196   2.734   6.828
10520SOL    HW232460   1.068   2.667   6.904
10521SOL     OW32461   5.619   5.953   2.015
10521SOL    HW132462   5.599   6.048   1.988
10521SOL    HW232463   5.692   5.917   1.957
10522SOL     OW32464   6.239   0.507   6.182
10522SOL    HW132465   6.229   0.409   6.198
10522SOL    HW232466   6.149   0.550   6.185
10523SOL     OW32467   0.777   4.876   4.235
10523SOL    HW132468   0.735   4.786   4.224
10523SOL    HW232469   0.876   4.869   4.225
10524SOL     OW32470   1.695   0.547   4.699
10524SOL    HW132471   1.785   0.585   4.720
10524SOL    HW232472   1.626   0.594   4.754
10525SOL     OW32473   3.321   6.953   5.799
10525SOL    HW132474   3.388   6.958   5.872
10525SOL    HW232475   3.231   6.979   5.834
10526SOL     OW32476   0.691   0.100   3.579
10526SOL    HW132477   0.775   0.145   3.548
10526SOL    HW232478   0.673   0.020   3.522
10527SOL     OW32479   6.317   1.906   4.830
10527SOL    HW132480   6.278   1.990   4.792
10527SOL    HW232481   6.416   1.907   4.818
10528SOL     OW32482   1.885   3.659   5.983
10528SOL    HW132483   1.932   3.709   5.911
10528SOL    HW232484   1.944   3.586   6.017
10529SOL     OW32485   2.338   5.759   4.288
10529SOL    HW132486   2.345   5.840   4.346
10529SOL    HW232487   2.384   5.683   4.332
10530SOL     OW32488   2.241   0.521   6.662
10530SOL    HW132489   2.206   0.526   6.568
10530SOL    HW232490   2.340   0.502   6.659
10531SOL     OW32491   1.300   3.386   3.736
10531SOL    HW132492   1.370   3.339   3.788
10531SOL    HW232493   1.229   3.420   3.797
10532SOL     OW32494   1.270   4.882   6.355
10532SOL    HW132495   1.320   4.867   6.270
10532SOL    HW232496   1.323   4.847   6.432
10533SOL     OW32497   2.509   1.284   5.042
10533SOL    HW132498   2.532   1.187   5.034
10533SOL    HW232499   2.558   1.336   4.973
10534SOL     OW32500   5.850   5.749   1.418
10534SOL    HW132501   5.893   5.817   1.477
10534SOL    HW232502   5.765   5.718   1.460
10535SOL     OW32503   0.824   2.001   1.158
10535SOL    HW132504   0.790   1.938   1.087
10535SOL    HW232505   0.758   2.075   1.170
10536SOL     OW32506   3.743   0.705   3.173
10536SOL    HW132507   3.774   0.706   3.268
10536SOL    HW232508   3.700   0.792   3.152
10537SOL     OW32509   3.799   5.477   4.103
10537SOL    HW132510   3.814   5.402   4.039
10537SOL    HW232511   3.746   5.445   4.181
10538SOL     OW32512   5.187   2.605   0.283
10538SOL    HW132513   5.206   2.624   0.379
10538SOL    HW232514   5.176   2.506   0.270
10539SOL     OW32515   0.303   3.757   0.048
10539SOL    HW132516   0.289   3.661   0.075
10539SOL    HW232517   0.217   3.807   0.055
10540SOL     OW32518   1.381   3.033   4.975
10540SOL    HW132519   1.480   3.018   4.980
10540SOL    HW232520   1.363   3.118   4.925
10541SOL     OW32521   4.066   3.877   2.179
10541SOL    HW132522   4.164   3.894   2.186
10541SOL    HW232523   4.050   3.782   2.153
10542SOL     OW32524   6.891   0.862   5.652
10542SOL    HW132525   6.852   0.808   5.726
10542SOL    HW232526   6.948   0.935   5.691
10543SOL     OW32527   0.341   1.072   5.472
10543SOL    HW132528   0.385   1.063   5.561
10543SOL    HW232529   0.322   1.169   5.453
10544SOL     OW32530   1.892   6.707   1.848
10544SOL    HW132531   1.937   6.652   1.778
10544SOL    HW232532   1.905   6.664   1.937
10545SOL     OW32533   6.092   1.256   3.142
10545SOL    HW132534   5.992   1.259   3.144
10545SOL    HW232535   6.126   1.336   3.093
10546SOL     OW32536   1.316   1.023   6.600
10546SOL    HW132537   1.333   0.925   6.589
10546SOL    HW232538   1.230   1.036   6.650
10547SOL     OW32539   5.507   2.553   2.051
10547SOL    HW132540   5.587   2.493   2.051
10547SOL    HW232541   5.499   2.598   2.139
10548SOL     OW32542   5.301   4.425   4.917
10548SOL    HW132543   5.385   4.373   4.935
10548SOL    HW232544   5.222   4.372   4.947
10549SOL     OW32545   6.976   6.962   1.836
10549SOL    HW132546   6.914   6.966   1.915
10549SOL    HW232547   6.933   6.911   1.762
10550SOL     OW32548   4.248   6.165   4.708
10550SOL    HW132549   4.309   6.163   4.629
10550SOL    HW232550   4.159   6.200   4.680
10551SOL     OW32551   1.963   2.870   6.871
10551SOL    HW132552   1.912   2.803   6.925
10551SOL    HW232553   1.969   2.839   6.776
10552SOL     OW32554   3.419   1.671   6.376
10552SOL    HW132555   3.458   1.613   6.448
10552SOL    HW232556   3.411   1.764   6.410
10553SOL     OW32557   0.577   5.175   1.368
10553SOL    HW132558   0.527   5.189   1.453
10553SOL    HW232559   0.673   5.159   1.388
10554SOL     OW32560   5.072   5.250   7.019
10554SOL    HW132561   5.030   5.161   0.009
10554SOL    HW232562   5.003   5.317   6.992
10555SOL     OW32563   1.932   3.436   0.596
10555SOL    HW132564   1.967   3.345   0.579
10555SOL    HW232565   1.996   3.504   0.560
10556SOL     OW32566   2.282   2.442   4.949
10556SOL    HW132567   2.360   2.487   4.991
10556SOL    HW232568   2.253   2.365   5.006
10557SOL     OW32569   2.435   2.185   3.195
10557SOL    HW132570   2.381   2.150   3.271
10557SOL    HW232571   2.479   2.271   3.222
10558SOL     OW32572   4.142   0.682   3.623
10558SOL    HW132573   4.175   0.769   3.660
10558SOL    HW232574   4.068   0.648   3.681
10559SOL     OW32575   4.751   0.352   1.328
10559SOL    HW132576   4.797   0.389   1.409
10559SOL    HW232577   4.672   0.410   1.305
10560SOL     OW32578   3.507   5.968   3.735
10560SOL    HW132579   3.462   6.057   3.735
10560SOL    HW232580   3.539   5.947   3.643
10561SOL     OW32581   3.255   4.765   1.087
10561SOL    HW132582   3.193   4.770   1.009
10561SOL    HW232583   3.302   4.677   1.087
10562SOL     OW32584   4.697   5.836   0.180
10562SOL    HW132585   4.606   5.863   0.211
10562SOL    HW232586   4.766   5.875   0.242
10563SOL     OW32587   0.134   1.475   4.028
10563SOL    HW132588   0.157   1.504   4.121
10563SOL    HW232589   0.143   1.376   4.021
10564SOL     OW32590   5.922   6.600   2.047
10564SOL    HW132591   5.824   6.613   2.057
10564SOL    HW232592   5.970   6.678   2.087
10565SOL     OW32593   6.665   0.466   6.248
10565SOL    HW132594   6.748   0.453   6.194
10565SOL    HW232595   6.603   0.527   6.200
10566SOL     OW32596   3.982   2.597   0.137
10566SOL    HW132597   3.968   2.693   0.162
10566SOL    HW232598   4.079   2.574   0.149
10567SOL     OW32599   2.626   1.867   4.171
10567SOL    HW132600   2.713   1.840   4.128
10567SOL    HW232601   2.646   1.917   4.256
10568SOL     OW32602   6.191   2.022   1.090
10568SOL    HW132603   6.252   2.101   1.095
10568SOL    HW232604   6.098   2.053   1.074
10569SOL     OW32605   5.811   2.380   1.761
10569SOL    HW132606   5.776   2.445   1.694
10569SOL    HW232607   5.899   2.344   1.730
10570SOL     OW32608   1.749   5.002   3.346
10570SOL    HW132609   1.742   5.031   3.442
10570SOL    HW232610   1.676   4.937   3.326
10571SOL     OW32611   0.004   5.425   4.537
10571SOL    HW132612   6.950   5.486   4.531
10571SOL    HW232613   7.000   5.332   4.554
10572SOL     OW32614   0.045   4.384   3.752
10572SOL    HW132615   0.035   4.444   3.672
10572SOL    HW232616   0.113   4.314   3.732
10573SOL     OW32617   4.450   0.560   5.290
10573SOL    HW132618   4.446   0.467   5.327
10573SOL    HW232619   4.455   0.625   5.366
10574SOL     OW32620   1.229   1.714   4.090
10574SOL    HW132621   1.184   1.793   4.049
10574SOL    HW232622   1.269   1.657   4.018
10575SOL     OW32623   0.131   1.386   2.870
10575SOL    HW132624   0.106   1.307   2.927
10575SOL    HW232625   0.083   1.380   2.782
10576SOL     OW32626   0.180   5.485   5.388
10576SOL    HW132627   0.146   5.391   5.397
10576SOL    HW232628   0.279   5.483   5.374
10577SOL     OW32629   1.879   2.695   0.043
10577SOL    HW132630   1.793   2.680   7.020
10577SOL    HW232631   1.862   2.694   0.141
10578SOL     OW32632   5.817   0.750   3.144
10578SOL    HW132633   5.906   0.753   3.098
10578SOL    HW232634   5.830   0.727   3.240
10579SOL     OW32635   4.637   2.075   1.106
10579SOL    HW132636   4.703   2.014   1.152
10579SOL    HW232637   4.648   2.168   1.142
10580SOL     OW32638   6.763   0.439   7.019
10580SOL    HW132639   6.699   0.365   0.015
10580SOL    HW232640   6.737   0.480   6.931
10581SOL     OW32641   0.118   0.203   3.204
10581SOL    HW132642   0.197   0.259   3.179
10581SOL    HW232643   0.069   0.248   3.279
10582SOL     OW32644   4.851   5.146   6.780
10582SOL    HW132645   4.901   5.232   6.777
10582SOL    HW232646   4.889   5.088   6.853
10583SOL     OW32647   3.745   1.533   5.219
10583SOL    HW132648   3.757   1.533   5.119
10583SOL    HW232649   3.824   1.577   5.262
10584SOL     OW32650   6.544   6.042   1.620
10584SOL    HW132651   6.497   6.038   1.708
10584SOL    HW232652   6.493   5.989   1.552
10585SOL     OW32653   2.127   2.944   5.531
10585SOL    HW132654   2.126   2.861   5.588
10585SOL    HW232655   2.052   2.941   5.466
10586SOL     OW32656   0.634   4.925   4.453
10586SOL    HW132657   0.552   4.980   4.437
10586SOL    HW232658   0.695   4.931   4.374
10587SOL     OW32659   5.820   4.060   0.175
10587SOL    HW132660   5.901   4.069   0.232
10587SOL    HW232661   5.824   3.975   0.123
10588SOL     OW32662   0.196   3.933   3.207
10588SOL    HW132663   0.112   3.988   3.207
10588SOL    HW232664   0.248   3.953   3.290
10589SOL     OW32665   6.402   1.437   4.540
10589SOL    HW132666   6.376   1.343   4.564
10589SOL    HW232667   6.442   1.482   4.620
10590SOL     OW32668   1.169   0.291   1.373
10590SOL    HW132669   1.143   0.202   1.337
10590SOL    HW232670   1.179   0.286   1.472
10591SOL     OW32671   0.882   1.761   6.083
10591SOL    HW132672   0.968   1.790   6.042
10591SOL    HW232673   0.832   1.703   6.019
10592SOL     OW32674   6.385   3.177   0.878
10592SOL    HW132675   6.418   3.254   0.822
10592SOL    HW232676   6.293   3.198   0.912
10593SOL     OW32677   1.941   5.162   0.383
10593SOL    HW132678   1.993   5.159   0.468
10593SOL    HW232679   1.845   5.140   0.401
10594SOL     OW32680   5.173   0.609   2.099
10594SOL    HW132681   5.225   0.641   2.178
10594SOL    HW232682   5.093   0.667   2.086
10595SOL     OW32683   3.810   6.882   5.137
10595SOL    HW132684   3.812   6.783   5.154
10595SOL    HW232685   3.899   6.921   5.158
10596SOL     OW32686   4.591   0.187   0.113
10596SOL    HW132687   4.567   0.133   0.193
10596SOL    HW232688   4.690   0.199   0.110
10597SOL     OW32689   3.314   1.274   4.890
10597SOL    HW132690   3.244   1.345   4.897
10597SOL    HW232691   3.394   1.299   4.944
10598SOL     OW32692   2.921   2.418   6.760
10598SOL    HW132693   2.908   2.396   6.663
10598SOL    HW232694   2.862   2.494   6.785
10599SOL     OW32695   4.751   2.716   6.470
10599SOL    HW132696   4.699   2.798   6.493
10599SOL    HW232697   4.705   2.636   6.509
10600SOL     OW32698   1.870   2.483   0.476
10600SOL    HW132699   1.838   2.462   0.568
10600SOL    HW232700   1.968   2.466   0.470
10601SOL     OW32701   1.473   4.115   6.476
10601SOL    HW132702   1.543   4.176   6.439
10601SOL    HW232703   1.417   4.165   6.543
10602SOL     OW32704   4.991   2.256   3.359
10602SOL    HW132705   5.014   2.161   3.338
10602SOL    HW232706   5.008   2.313   3.279
10603SOL     OW32707   2.115   5.460   3.877
10603SOL    HW132708   2.175   5.503   3.810
10603SOL    HW232709   2.020   5.463   3.845
10604SOL     OW32710   5.882   3.940   5.752
10604SOL    HW132711   5.894   3.864   5.815
10604SOL    HW232712   5.797   3.928   5.701
10605SOL     OW32713   1.479   4.757   0.879
10605SOL    HW132714   1.504   4.771   0.975
10605SOL    HW232715   1.399   4.812   0.857
10606SOL     OW32716   6.716   0.022   2.005
10606SOL    HW132717   6.743   0.086   2.077
10606SOL    HW232718   6.713   6.955   2.042
10607SOL     OW32719   4.068   4.897   6.211
10607SOL    HW132720   4.081   4.870   6.116
10607SOL    HW232721   4.112   4.831   6.272
10608SOL     OW32722   4.939   1.891   6.031
10608SOL    HW132723   4.846   1.870   6.061
10608SOL    HW232724   4.938   1.915   5.934
10609SOL     OW32725   2.989   6.875   1.760
10609SOL    HW132726   3.042   6.791   1.773
10609SOL    HW232727   2.907   6.872   1.815
10610SOL     OW32728   1.289   3.262   6.109
10610SOL    HW132729   1.266   3.173   6.147
10610SOL    HW232730   1.379   3.291   6.142
10611SOL     OW32731   4.296   3.652   5.788
10611SOL    HW132732   4.365   3.723   5.804
10611SOL    HW232733   4.253   3.668   5.699
10612SOL     OW32734   2.950   0.537   5.612
10612SOL    HW132735   2.882   0.576   5.549
10612SOL    HW232736   2.959   0.439   5.593
10613SOL     OW32737   6.598   0.207   5.664
10613SOL    HW132738   6.667   0.278   5.676
10613SOL    HW232739   6.623   0.148   5.587
10614SOL     OW32740   6.605   2.658   4.644
10614SOL    HW132741   6.554   2.674   4.559
10614SOL    HW232742   6.616   2.560   4.657
10615SOL     OW32743   3.128   6.168   5.640
10615SOL    HW132744   3.091   6.260   5.629
10615SOL    HW232745   3.228   6.172   5.632
10616SOL     OW32746   2.646   6.505   1.193
10616SOL    HW132747   2.623   6.464   1.281
10616SOL    HW232748   2.613   6.599   1.190
10617SOL     OW32749   2.140   2.573   0.451
10617SOL    HW132750   2.102   2.557   0.360
10617SOL    HW232751   2.208   2.504   0.472
10618SOL     OW32752   6.494   3.788   6.427
10618SOL    HW132753   6.531   3.809   6.336
10618SOL    HW232754   6.409   3.737   6.417
10619SOL     OW32755   6.606   3.676   2.562
10619SOL    HW132756   6.621   3.732   2.644
10619SOL    HW232757   6.694   3.649   2.523
10620SOL     OW32758   1.590   5.202   5.590
10620SOL    HW132759   1.599   5.168   5.496
10620SOL    HW232760   1.549   5.294   5.588
10621SOL     OW32761   0.879   6.308   1.472
10621SOL    HW132762   0.799   6.368   1.472
10621SOL    HW232763   0.962   6.362   1.458
10622SOL     OW32764   4.858   0.746   1.086
10622SOL    HW132765   4.880   0.656   1.123
10622SOL    HW232766   4.899   0.756   0.995
10623SOL     OW32767   0.366   4.710   4.335
10623SOL    HW132768   0.299   4.732   4.264
10623SOL    HW232769   0.403   4.795   4.373
10624SOL     OW32770   0.659   1.910   4.648
10624SOL    HW132771   0.720   1.982   4.615
10624SOL    HW232772   0.705   1.821   4.638
10625SOL     OW32773   0.605   4.336   6.883
10625SOL    HW132774   0.643   4.274   6.814
10625SOL    HW232775   0.535   4.288   6.936
10626SOL     OW32776   2.205   2.942   1.075
10626SOL    HW132777   2.177   2.866   1.017
10626SOL    HW232778   2.291   2.920   1.121
10627SOL     OW32779   5.633   5.953   1.244
10627SOL    HW132780   5.728   5.962   1.216
10627SOL    HW232781   5.600   5.862   1.219
10628SOL     OW32782   5.189   5.760   6.926
10628SOL    HW132783   5.164   5.735   6.833
10628SOL    HW232784   5.142   5.700   6.991
10629SOL     OW32785   2.775   4.712   4.767
10629SOL    HW132786   2.698   4.648   4.758
10629SOL    HW232787   2.812   4.706   4.859
10630SOL     OW32788   6.581   1.446   4.167
10630SOL    HW132789   6.665   1.501   4.172
10630SOL    HW232790   6.515   1.479   4.234
10631SOL     OW32791   2.325   5.127   5.040
10631SOL    HW132792   2.354   5.095   4.950
10631SOL    HW232793   2.225   5.117   5.048
10632SOL     OW32794   5.558   1.521   3.821
10632SOL    HW132795   5.603   1.472   3.895
10632SOL    HW232796   5.528   1.611   3.854
10633SOL     OW32797   2.315   3.826   1.430
10633SOL    HW132798   2.242   3.801   1.494
10633SOL    HW232799   2.403   3.828   1.478
10634SOL     OW32800   2.930   5.478   1.270
10634SOL    HW132801   2.909   5.409   1.340
10634SOL    HW232802   2.847   5.498   1.218
10635SOL     OW32803   3.760   1.772   0.809
10635SOL    HW132804   3.853   1.785   0.772
10635SOL    HW232805   3.765   1.759   0.908
10636SOL     OW32806   0.943   1.322   1.420
10636SOL    HW132807   0.859   1.276   1.450
10636SOL    HW232808   0.931   1.421   1.425
10637SOL     OW32809   3.034   4.811   5.523
10637SOL    HW132810   2.946   4.857   5.535
10637SOL    HW232811   3.060   4.814   5.427
10638SOL     OW32812   0.196   5.343   3.086
10638SOL    HW132813   0.161   5.418   3.142
10638SOL    HW232814   0.204   5.373   2.991
10639SOL     OW32815   0.729   3.239   2.489
10639SOL    HW132816   0.741   3.328   2.445
10639SOL    HW232817   0.689   3.251   2.579
10640SOL     OW32818   3.890   0.077   5.648
10640SOL    HW132819   3.869   0.080   5.746
10640SOL    HW232820   3.824   0.135   5.598
10641SOL     OW32821   3.712   2.234   0.284
10641SOL    HW132822   3.730   2.317   0.231
10641SOL    HW232823   3.625   2.244   0.332
10642SOL     OW32824   6.481   2.823   1.632
10642SOL    HW132825   6.553   2.757   1.610
10642SOL    HW232826   6.400   2.804   1.577
10643SOL     OW32827   2.120   4.566   5.133
10643SOL    HW132828   2.208   4.539   5.095
10643SOL    HW232829   2.128   4.657   5.174
10644SOL     OW32830   5.798   2.371   3.198
10644SOL    HW132831   5.870   2.307   3.171
10644SOL    HW232832   5.816   2.461   3.158
10645SOL     OW32833   0.579   1.566   4.928
10645SOL    HW132834   0.537   1.656   4.939
10645SOL    HW232835   0.534   1.500   4.989
10646SOL     OW32836   0.301   1.524   6.060
10646SOL    HW132837   0.312   1.431   6.096
10646SOL    HW232838   0.243   1.577   6.122
10647SOL     OW32839   3.697   5.357   0.060
10647SOL    HW132840   3.780   5.314   0.098
10647SOL    HW232841   3.624   5.353   0.129
10648SOL     OW32842   4.864   4.434   6.079
10648SOL    HW132843   4.804   4.370   6.126
10648SOL    HW232844   4.817   4.469   5.998
10649SOL     OW32845   0.602   4.348   3.199
10649SOL    HW132846   0.686   4.401   3.185
10649SOL    HW232847   0.537   4.368   3.126
10650SOL     OW32848   1.151   6.731   2.816
10650SOL    HW132849   1.122   6.823   2.791
10650SOL    HW232850   1.129   6.668   2.741
10651SOL     OW32851   4.619   6.897   5.937
10651SOL    HW132852   4.667   6.921   6.022
10651SOL    HW232853   4.614   6.797   5.929
10652SOL     OW32854   3.570   0.283   6.390
10652SOL    HW132855   3.561   0.317   6.297
10652SOL    HW232856   3.500   0.213   6.407
10653SOL     OW32857   5.669   4.072   4.288
10653SOL    HW132858   5.685   3.998   4.354
10653SOL    HW232859   5.653   4.033   4.197
10654SOL     OW32860   4.496   1.386   1.292
10654SOL    HW132861   4.491   1.483   1.269
10654SOL    HW232862   4.409   1.357   1.333
10655SOL     OW32863   2.793   5.314   1.459
10655SOL    HW132864   2.737   5.355   1.531
10655SOL    HW232865   2.744   5.236   1.419
10656SOL     OW32866   6.125   2.545   0.890
10656SOL    HW132867   6.111   2.642   0.870
10656SOL    HW232868   6.221   2.529   0.913
10657SOL     OW32869   6.629   0.145   6.826
10657SOL    HW132870   6.550   0.086   6.810
10657SOL    HW232871   6.708   0.089   6.853
10658SOL     OW32872   6.355   3.611   4.403
10658SOL    HW132873   6.307   3.678   4.461
10658SOL    HW232874   6.398   3.658   4.327
10659SOL     OW32875   6.782   6.193   0.756
10659SOL    HW132876   6.859   6.159   0.808
10659SOL    HW232877   6.795   6.174   0.659
10660SOL     OW32878   5.246   4.195   6.448
10660SOL    HW132879   5.146   4.185   6.446
10660SOL    HW232880   5.278   4.231   6.361
10661SOL     OW32881   0.049   6.244   2.596
10661SOL    HW132882   0.092   6.234   2.686
10661SOL    HW232883   0.073   6.333   2.557
10662SOL     OW32884   5.738   0.546   1.944
10662SOL    HW132885   5.681   0.468   1.969
10662SOL    HW232886   5.834   0.524   1.959
10663SOL     OW32887   0.334   0.094   1.929
10663SOL    HW132888   0.375   0.184   1.937
10663SOL    HW232889   0.273   0.091   1.850
10664SOL     OW32890   1.972   4.541   5.420
10664SOL    HW132891   2.043   4.544   5.350
10664SOL    HW232892   1.882   4.548   5.378
10665SOL     OW32893   0.357   0.895   0.784
10665SOL    HW132894   0.409   0.820   0.826
10665SOL    HW232895   0.409   0.980   0.792
10666SOL     OW32896   3.334   4.956   0.487
10666SOL    HW132897   3.340   4.950   0.388
10666SOL    HW232898   3.282   5.038   0.512
10667SOL     OW32899   3.901   2.750   5.409
10667SOL    HW132900   3.835   2.752   5.334
10667SOL    HW232901   3.909   2.841   5.448
10668SOL     OW32902   1.171   1.835   5.274
10668SOL    HW132903   1.126   1.746   5.259
10668SOL    HW232904   1.184   1.881   5.186
10669SOL     OW32905   6.089   6.599   0.442
10669SOL    HW132906   5.992   6.598   0.465
10669SOL    HW232907   6.126   6.691   0.455
10670SOL     OW32908   4.916   3.700   5.270
10670SOL    HW132909   4.834   3.658   5.232
10670SOL    HW232910   4.987   3.706   5.199
10671SOL     OW32911   2.688   1.965   2.323
10671SOL    HW132912   2.787   1.951   2.326
10671SOL    HW232913   2.668   2.062   2.309
10672SOL     OW32914   6.732   2.399   0.598
10672SOL    HW132915   6.654   2.360   0.647
10672SOL    HW232916   6.773   2.472   0.652
10673SOL     OW32917   1.608   2.252   0.120
10673SOL    HW132918   1.532   2.317   0.113
10673SOL    HW232919   1.676   2.274   0.050
10674SOL     OW32920   3.365   3.567   0.990
10674SOL    HW132921   3.294   3.632   1.014
10674SOL    HW232922   3.367   3.555   0.891
10675SOL     OW32923   2.048   0.177   6.027
10675SOL    HW132924   2.125   0.178   5.963
10675SOL    HW232925   2.034   0.269   6.064
10676SOL     OW32926   6.385   6.625   6.300
10676SOL    HW132927   6.305   6.588   6.252
10676SOL    HW232928   6.391   6.724   6.284
10677SOL     OW32929   0.573   0.635   2.115
10677SOL    HW132930   0.634   0.711   2.093
10677SOL    HW232931   0.618   0.548   2.096
10678SOL     OW32932   3.710   5.247   2.861
10678SOL    HW132933   3.675   5.250   2.955
10678SOL    HW232934   3.647   5.296   2.801
10679SOL     OW32935   5.254   4.596   6.157
10679SOL    HW132936   5.291   4.674   6.106
10679SOL    HW232937   5.202   4.537   6.095
10680SOL     OW32938   1.953   2.023   3.697
10680SOL    HW132939   1.894   2.078   3.757
10680SOL    HW232940   2.025   1.980   3.752
10681SOL     OW32941   6.984   4.043   6.881
10681SOL    HW132942   0.001   3.953   6.879
10681SOL    HW232943   6.885   4.033   6.869
10682SOL     OW32944   2.003   2.161   2.743
10682SOL    HW132945   2.057   2.240   2.774
10682SOL    HW232946   1.930   2.143   2.808
10683SOL     OW32947   3.515   1.770   4.117
10683SOL    HW132948   3.460   1.761   4.034
10683SOL    HW232949   3.469   1.832   4.182
10684SOL     OW32950   4.546   3.613   0.375
10684SOL    HW132951   4.509   3.666   0.452
10684SOL    HW232952   4.589   3.530   0.410
10685SOL     OW32953   6.697   4.525   1.990
10685SOL    HW132954   6.794   4.547   1.981
10685SOL    HW232955   6.642   4.604   1.962
10686SOL     OW32956   3.781   5.092   6.772
10686SOL    HW132957   3.762   5.068   6.677
10686SOL    HW232958   3.741   5.023   6.833
10687SOL     OW32959   6.983   4.925   1.631
10687SOL    HW132960   0.002   4.972   1.708
10687SOL    HW232961   0.008   4.942   1.547
10688SOL     OW32962   6.662   4.773   2.581
10688SOL    HW132963   6.640   4.696   2.642
10688SOL    HW232964   6.659   4.858   2.633
10689SOL     OW32965   0.316   0.120   3.656
10689SOL    HW132966   0.220   0.093   3.658
10689SOL    HW232967   0.325   0.211   3.615
10690SOL     OW32968   5.809   5.331   3.962
10690SOL    HW132969   5.836   5.300   3.871
10690SOL    HW232970   5.794   5.253   4.021
10691SOL     OW32971   6.775   1.376   2.544
10691SOL    HW132972   6.711   1.324   2.601
10691SOL    HW232973   6.761   1.353   2.448
10692SOL     OW32974   3.258   5.163   3.302
10692SOL    HW132975   3.312   5.232   3.254
10692SOL    HW232976   3.170   5.152   3.256
10693SOL     OW32977   1.744   0.805   1.920
10693SOL    HW132978   1.839   0.786   1.893
10693SOL    HW232979   1.738   0.896   1.959
10694SOL     OW32980   3.782   6.047   1.420
10694SOL    HW132981   3.730   6.099   1.353
10694SOL    HW232982   3.777   5.949   1.398
10695SOL     OW32983   6.460   1.939   2.709
10695SOL    HW132984   6.493   2.024   2.751
10695SOL    HW232985   6.489   1.862   2.765
10696SOL     OW32986   6.899   4.939   2.142
10696SOL    HW132987   6.891   4.839   2.145
10696SOL    HW232988   6.990   4.966   2.173
10697SOL     OW32989   6.810   6.267   4.309
10697SOL    HW132990   6.870   6.187   4.314
10697SOL    HW232991   6.801   6.295   4.213
10698SOL     OW32992   3.302   6.571   4.425
10698SOL    HW132993   3.344   6.480   4.418
10698SOL    HW232994   3.207   6.566   4.394
10699SOL     OW32995   4.255   1.759   2.644
10699SOL    HW132996   4.283   1.754   2.548
10699SOL    HW232997   4.172   1.704   2.657
10700SOL     OW32998   1.009   0.311   0.394
10700SOL    HW132999   1.098   0.311   0.440
10700SOL    HW233000   0.953   0.386   0.430
10701SOL     OW33001   3.946   5.947   0.006
10701SOL    HW133002   3.869   5.934   0.069
10701SOL    HW233003   3.934   6.033   6.982
10702SOL     OW33004   6.110   2.689   2.160
10702SOL    HW133005   6.074   2.778   2.131
10702SOL    HW233006   6.191   2.702   2.216
10703SOL     OW33007   3.895   2.992   4.059
10703SOL    HW133008   3.868   2.969   4.152
10703SOL    HW233009   3.895   3.091   4.047
10704SOL     OW33010   4.983   5.820   1.826
10704SOL    HW133011   4.896   5.863   1.801
10704SOL    HW233012   5.057   5.886   1.818
10705SOL     OW33013   0.386   3.693   1.339
10705SOL    HW133014   0.447   3.630   1.389
10705SOL    HW233015   0.441   3.756   1.285
10706SOL     OW33016   4.537   6.600   2.525
10706SOL    HW133017   4.544   6.700   2.524
10706SOL    HW233018   4.441   6.574   2.528
10707SOL     OW33019   0.613   0.237   4.808
10707SOL    HW133020   0.624   0.139   4.822
10707SOL    HW233021   0.517   0.262   4.822
10708SOL     OW33022   4.984   0.808   2.019
10708SOL    HW133023   4.885   0.819   2.025
10708SOL    HW233024   5.023   0.882   1.963
10709SOL     OW33025   6.691   1.285   5.148
10709SOL    HW133026   6.707   1.187   5.157
10709SOL    HW233027   6.645   1.304   5.061
10710SOL     OW33028   1.065   6.774   4.813
10710SOL    HW133029   1.034   6.867   4.834
10710SOL    HW233030   1.074   6.722   4.897
10711SOL     OW33031   1.991   6.769   3.431
10711SOL    HW133032   2.068   6.706   3.421
10711SOL    HW233033   1.907   6.716   3.441
10712SOL     OW33034   3.628   0.949   3.130
10712SOL    HW133035   3.688   1.028   3.116
10712SOL    HW233036   3.534   0.975   3.108
10713SOL     OW33037   1.841   4.589   1.804
10713SOL    HW133038   1.915   4.537   1.761
10713SOL    HW233039   1.880   4.658   1.865
10714SOL     OW33040   6.767   3.301   5.151
10714SOL    HW133041   6.750   3.399   5.138
10714SOL    HW233042   6.750   3.276   5.246
10715SOL     OW33043   4.734   0.574   2.999
10715SOL    HW133044   4.825   0.535   2.982
10715SOL    HW233045   4.691   0.526   3.075
10716SOL     OW33046   0.250   2.305   3.273
10716SOL    HW133047   0.264   2.398   3.238
10716SOL    HW233048   0.273   2.239   3.201
10717SOL     OW33049   0.572   1.710   0.798
10717SOL    HW133050   0.545   1.663   0.882
10717SOL    HW233051   0.524   1.671   0.720
10718SOL     OW33052   6.462   5.007   0.072
10718SOL    HW133053   6.433   5.055   7.015
10718SOL    HW233054   6.411   5.043   0.151
10719SOL     OW33055   4.289   6.005   1.722
10719SOL    HW133056   4.365   6.014   1.658
10719SOL    HW233057   4.271   6.093   1.765
10720SOL     OW33058   6.633   3.840   6.176
10720SOL    HW133059   6.556   3.854   6.114
10720SOL    HW233060   6.668   3.746   6.165
10721SOL     OW33061   6.740   2.378   4.414
10721SOL    HW133062   6.719   2.404   4.319
10721SOL    HW233063   6.750   2.279   4.420
10722SOL     OW33064   6.984   3.526   0.019
10722SOL    HW133065   6.913   3.538   0.088
10722SOL    HW233066   0.048   3.526   0.063
10723SOL     OW33067   5.418   3.982   6.706
10723SOL    HW133068   5.376   4.057   6.756
10723SOL    HW233069   5.347   3.929   6.659
10724SOL     OW33070   3.733   6.772   5.882
10724SOL    HW133071   3.705   6.801   5.790
10724SOL    HW233072   3.747   6.673   5.882
10725SOL     OW33073   6.872   5.556   4.289
10725SOL    HW133074   6.900   5.467   4.325
10725SOL    HW233075   6.886   5.626   4.359
10726SOL     OW33076   6.200   6.866   5.266
10726SOL    HW133077   6.224   6.774   5.234
10726SOL    HW233078   6.124   6.902   5.211
10727SOL     OW33079   1.895   5.399   5.399
10727SOL    HW133080   1.855   5.443   5.480
10727SOL    HW233081   1.917   5.469   5.331
10728SOL     OW33082   5.981   6.900   2.227
10728SOL    HW133083   6.020   6.951   2.303
10728SOL    HW233084   6.045   6.901   2.150
10729SOL     OW33085   6.545   1.491   2.410
10729SOL    HW133086   6.607   1.544   2.353
10729SOL    HW233087   6.460   1.473   2.360
10730SOL     OW33088   2.765   6.595   2.002
10730SOL    HW133089   2.781   6.557   1.911
10730SOL    HW233090   2.705   6.534   2.054
10731SOL     OW33091   2.428   5.426   0.217
10731SOL    HW133092   2.493   5.350   0.217
10731SOL    HW233093   2.478   5.513   0.215
10732SOL     OW33094   6.899   0.303   2.933
10732SOL    HW133095   6.810   0.320   2.890
10732SOL    HW233096   6.886   0.248   3.016
10733SOL     OW33097   5.843   2.191   0.156
10733SOL    HW133098   5.744   2.197   0.146
10733SOL    HW233099   5.882   2.283   0.158
10734SOL     OW33100   0.985   0.615   6.453
10734SOL    HW133101   0.989   0.680   6.529
10734SOL    HW233102   0.971   0.665   6.368
10735SOL     OW33103   1.129   4.871   2.450
10735SOL    HW133104   1.116   4.968   2.433
10735SOL    HW233105   1.046   4.821   2.426
10736SOL     OW33106   0.677   1.251   3.100
10736SOL    HW133107   0.590   1.277   3.057
10736SOL    HW233108   0.665   1.243   3.199
10737SOL     OW33109   0.855   1.875   0.637
10737SOL    HW133110   0.815   1.894   0.727
10737SOL    HW233111   0.810   1.930   0.568
10738SOL     OW33112   2.653   0.147   2.542
10738SOL    HW133113   2.649   0.048   2.532
10738SOL    HW233114   2.725   0.171   2.608
10739SOL     OW33115   6.950   1.747   2.694
10739SOL    HW133116   6.882   1.793   2.637
10739SOL    HW233117   0.016   1.770   2.661
10740SOL     OW33118   1.589   5.823   5.797
10740SOL    HW133119   1.554   5.914   5.776
10740SOL    HW233120   1.513   5.758   5.805
10741SOL     OW33121   1.780   1.759   3.492
10741SOL    HW133122   1.786   1.833   3.425
10741SOL    HW233123   1.864   1.758   3.547
10742SOL     OW33124   5.806   0.022   2.504
10742SOL    HW133125   5.902   0.049   2.494
10742SOL    HW233126   5.747   0.092   2.465
10743SOL     OW33127   2.793   1.687   4.455
10743SOL    HW133128   2.733   1.751   4.408
10743SOL    HW233129   2.872   1.737   4.492
10744SOL     OW33130   3.118   1.178   2.100
10744SOL    HW133131   3.190   1.121   2.141
10744SOL    HW233132   3.069   1.227   2.172
10745SOL     OW33133   2.086   4.765   0.341
10745SOL    HW133134   2.181   4.733   0.347
10745SOL    HW233135   2.084   4.857   0.303
10746SOL     OW33136   1.800   5.674   1.388
10746SOL    HW133137   1.725   5.612   1.411
10746SOL    HW233138   1.840   5.710   1.472
10747SOL     OW33139   5.490   1.439   3.320
10747SOL    HW133140   5.528   1.402   3.405
10747SOL    HW233141   5.564   1.463   3.257
10748SOL     OW33142   5.361   5.708   1.361
10748SOL    HW133143   5.277   5.683   1.312
10748SOL    HW233144   5.439   5.706   1.298
10749SOL     OW33145   6.927   5.298   2.639
10749SOL    HW133146   6.962   5.322   2.729
10749SOL    HW233147   6.838   5.341   2.625
10750SOL     OW33148   4.844   4.053   4.634
10750SOL    HW133149   4.846   3.995   4.716
10750SOL    HW233150   4.843   3.995   4.552
10751SOL     OW33151   1.070   2.971   4.964
10751SOL    HW133152   1.169   2.967   4.978
10751SOL    HW233153   1.023   2.933   5.043
10752SOL     OW33154   5.820   4.650   6.753
10752SOL    HW133155   5.784   4.618   6.841
10752SOL    HW233156   5.889   4.585   6.720
10753SOL     OW33157   5.527   0.252   3.971
10753SOL    HW133158   5.552   0.211   4.058
10753SOL    HW233159   5.608   0.295   3.930
10754SOL     OW33160   1.748   2.588   2.406
10754SOL    HW133161   1.716   2.570   2.313
10754SOL    HW233162   1.670   2.586   2.469
10755SOL     OW33163   6.945   2.253   0.535
10755SOL    HW133164   6.941   2.196   0.453
10755SOL    HW233165   6.858   2.301   0.546
10756SOL     OW33166   6.129   2.801   0.196
10756SOL    HW133167   6.124   2.885   0.251
10756SOL    HW233168   6.124   2.722   0.256
10757SOL     OW33169   0.146   3.991   0.677
10757SOL    HW133170   0.156   3.917   0.611
10757SOL    HW233171   0.075   3.967   0.744
10758SOL     OW33172   0.453   5.462   5.653
10758SOL    HW133173   0.467   5.481   5.750
10758SOL    HW233174   0.510   5.524   5.598
10759SOL     OW33175   1.819   3.381   6.384
10759SOL    HW133176   1.897   3.443   6.385
10759SOL    HW233177   1.789   3.367   6.290
10760SOL     OW33178   0.137   5.887   1.356
10760SOL    HW133179   0.182   5.800   1.375
10760SOL    HW233180   0.200   5.962   1.378
10761SOL     OW33181   1.178   2.815   6.446
10761SOL    HW133182   1.082   2.787   6.444
10761SOL    HW233183   1.203   2.843   6.539
10762SOL     OW33184   5.037   0.919   5.242
10762SOL    HW133185   4.999   0.829   5.219
10762SOL    HW233186   5.076   0.961   5.160
10763SOL     OW33187   4.468   0.312   1.584
10763SOL    HW133188   4.433   0.402   1.558
10763SOL    HW233189   4.561   0.321   1.619
10764SOL     OW33190   5.236   1.609   6.260
10764SOL    HW133191   5.300   1.655   6.322
10764SOL    HW233192   5.283   1.586   6.175
10765SOL     OW33193   5.947   0.919   1.835
10765SOL    HW133194   6.007   0.918   1.915
10765SOL    HW233195   5.972   0.845   1.773
10766SOL     OW33196   2.158   3.453   0.259
10766SOL    HW133197   2.224   3.481   0.189
10766SOL    HW233198   2.095   3.385   0.222
10767SOL     OW33199   1.652   6.593   0.557
10767SOL    HW133200   1.724   6.620   0.621
10767SOL    HW233201   1.576   6.658   0.565
10768SOL     OW33202   5.525   5.634   7.004
10768SOL    HW133203   5.601   5.585   0.020
10768SOL    HW233204   5.542   5.732   7.008
10769SOL     OW33205   2.733   4.560   5.368
10769SOL    HW133206   2.801   4.550   5.294
10769SOL    HW233207   2.714   4.471   5.408
10770SOL     OW33208   5.519   0.129   4.608
10770SOL    HW133209   5.553   0.066   4.678
10770SOL    HW233210   5.477   0.208   4.652
10771SOL     OW33211   4.546   0.104   4.899
10771SOL    HW133212   4.576   0.068   4.987
10771SOL    HW233213   4.626   0.129   4.844
10772SOL     OW33214   6.884   6.710   3.712
10772SOL    HW133215   6.894   6.677   3.618
10772SOL    HW233216   6.963   6.766   3.736
10773SOL     OW33217   6.940   4.902   6.957
10773SOL    HW133218   6.963   4.845   6.878
10773SOL    HW233219   6.864   4.962   6.934
10774SOL     OW33220   1.520   2.433   1.052
10774SOL    HW133221   1.425   2.461   1.043
10774SOL    HW233222   1.525   2.340   1.089
10775SOL     OW33223   2.450   4.246   0.769
10775SOL    HW133224   2.441   4.292   0.857
10775SOL    HW233225   2.411   4.154   0.775
10776SOL     OW33226   7.007   6.542   2.095
10776SOL    HW133227   6.946   6.477   2.048
10776SOL    HW233228   0.008   6.614   2.032
10777SOL     OW33229   3.825   0.332   3.284
10777SOL    HW133230   3.765   0.366   3.211
10777SOL    HW233231   3.771   0.319   3.368
10778SOL     OW33232   6.846   0.056   4.922
10778SOL    HW133233   6.834   0.045   4.823
10778SOL    HW233234   6.765   0.101   4.960
10779SOL     OW33235   0.259   4.866   2.425
10779SOL    HW133236   0.349   4.870   2.469
10779SOL    HW233237   0.189   4.896   2.490
10780SOL     OW33238   0.427   5.753   3.868
10780SOL    HW133239   0.358   5.683   3.851
10780SOL    HW233240   0.398   5.839   3.828
10781SOL     OW33241   4.792   1.386   4.345
10781SOL    HW133242   4.778   1.485   4.344
10781SOL    HW233243   4.711   1.340   4.309
10782SOL     OW33244   6.100   2.479   3.699
10782SOL    HW133245   6.010   2.522   3.704
10782SOL    HW233246   6.128   2.472   3.603
10783SOL     OW33247   2.073   3.105   2.407
10783SOL    HW133248   2.107   3.017   2.375
10783SOL    HW233249   2.096   3.176   2.341
10784SOL     OW33250   2.805   6.710   1.560
10784SOL    HW133251   2.880   6.757   1.607
10784SOL    HW233252   2.838   6.673   1.473
10785SOL     OW33253   1.595   4.553   1.673
10785SOL    HW133254   1.662   4.588   1.737
10785SOL    HW233255   1.634   4.551   1.581
10786SOL     OW33256   5.298   2.322   2.085
10786SOL    HW133257   5.249   2.275   2.011
10786SOL    HW233258   5.342   2.404   2.049
10787SOL     OW33259   3.684   1.396   4.264
10787SOL    HW133260   3.635   1.403   4.177
10787SOL    HW233261   3.620   1.406   4.340
10788SOL     OW33262   1.885   4.179   0.529
10788SOL    HW133263   1.932   4.268   0.529
10788SOL    HW233264   1.794   4.190   0.568
10789SOL     OW33265   5.977   0.492   0.282
10789SOL    HW133266   6.075   0.511   0.279
10789SOL    HW233267   5.961   0.398   0.253
10790SOL     OW33268   0.438   0.777   5.643
10790SOL    HW133269   0.358   0.741   5.596
10790SOL    HW233270   0.520   0.761   5.587
10791SOL     OW33271   1.446   1.558   1.766
10791SOL    HW133272   1.465   1.636   1.826
10791SOL    HW233273   1.425   1.591   1.674
10792SOL     OW33274   3.157   3.196   1.813
10792SOL    HW133275   3.069   3.218   1.855
10792SOL    HW233276   3.183   3.102   1.836
10793SOL     OW33277   5.480   2.173   4.321
10793SOL    HW133278   5.443   2.208   4.234
10793SOL    HW233279   5.571   2.137   4.306
10794SOL     OW33280   3.581   4.092   2.203
10794SOL    HW133281   3.598   4.109   2.300
10794SOL    HW233282   3.658   4.043   2.164
10795SOL     OW33283   6.187   4.000   2.623
10795SOL    HW133284   6.238   3.991   2.537
10795SOL    HW233285   6.111   3.936   2.623
10796SOL     OW33286   3.104   6.989   6.786
10796SOL    HW133287   3.167   0.023   6.834
10796SOL    HW233288   3.075   6.915   6.847
10797SOL     OW33289   3.919   2.604   0.613
10797SOL    HW133290   4.006   2.643   0.582
10797SOL    HW233291   3.864   2.576   0.534
10798SOL     OW33292   2.126   0.270   0.160
10798SOL    HW133293   2.210   0.247   0.111
10798SOL    HW233294   2.066   0.323   0.100
10799SOL     OW33295   3.467   1.844   2.757
10799SOL    HW133296   3.420   1.906   2.694
10799SOL    HW233297   3.557   1.820   2.719
10800SOL     OW33298   2.067   6.143   0.702
10800SOL    HW133299   2.155   6.190   0.696
10800SOL    HW233300   2.077   6.057   0.752
10801SOL     OW33301   1.807   0.060   4.054
10801SOL    HW133302   1.759   0.104   3.979
10801SOL    HW233303   1.746   0.055   4.134
10802SOL     OW33304   2.376   2.780   4.593
10802SOL    HW133305   2.398   2.861   4.539
10802SOL    HW233306   2.278   2.780   4.615
10803SOL     OW33307   5.024   4.722   5.549
10803SOL    HW133308   4.971   4.807   5.549
10803SOL    HW233309   5.113   4.739   5.509
10804SOL     OW33310   0.070   4.363   0.687
10804SOL    HW133311   0.077   4.455   0.725
10804SOL    HW233312   0.141   4.304   0.727
10805SOL     OW33313   3.710   0.688   0.042
10805SOL    HW133314   3.671   0.728   6.984
10805SOL    HW233315   3.680   0.742   0.121
10806SOL     OW33316   5.407   4.468   0.124
10806SOL    HW133317   5.445   4.428   0.207
10806SOL    HW233318   5.451   4.427   0.044
10807SOL     OW33319   3.350   6.894   3.530
10807SOL    HW133320   3.266   6.844   3.511
10807SOL    HW233321   3.347   6.931   3.623
10808SOL     OW33322   0.112   3.925   0.174
10808SOL    HW133323   0.166   3.999   0.212
10808SOL    HW233324   0.016   3.953   0.169
10809SOL     OW33325   2.640   0.447   4.380
10809SOL    HW133326   2.697   0.371   4.410
10809SOL    HW233327   2.595   0.424   4.294
10810SOL     OW33328   0.788   1.726   5.556
10810SOL    HW133329   0.874   1.676   5.564
10810SOL    HW233330   0.720   1.667   5.513
10811SOL     OW33331   3.836   5.147   5.534
10811SOL    HW133332   3.821   5.203   5.616
10811SOL    HW233333   3.837   5.206   5.453
10812SOL     OW33334   0.675   3.285   2.199
10812SOL    HW133335   0.719   3.254   2.114
10812SOL    HW233336   0.694   3.219   2.272
10813SOL     OW33337   2.933   6.331   1.075
10813SOL    HW133338   2.973   6.321   1.166
10813SOL    HW233339   2.837   6.358   1.084
10814SOL     OW33340   1.562   0.416   5.591
10814SOL    HW133341   1.611   0.363   5.521
10814SOL    HW233342   1.508   0.353   5.648
10815SOL     OW33343   4.955   4.734   3.561
10815SOL    HW133344   4.911   4.696   3.480
10815SOL    HW233345   4.905   4.816   3.590
10816SOL     OW33346   2.024   1.045   1.998
10816SOL    HW133347   2.063   0.965   2.044
10816SOL    HW233348   1.945   1.078   2.050
10817SOL     OW33349   5.681   6.655   2.855
10817SOL    HW133350   5.592   6.616   2.879
10817SOL    HW233351   5.671   6.711   2.773
10818SOL     OW33352   5.879   2.409   5.726
10818SOL    HW133353   5.975   2.402   5.754
10818SOL    HW233354   5.874   2.422   5.627
10819SOL     OW33355   0.502   3.804   6.712
10819SOL    HW133356   0.411   3.843   6.697
10819SOL    HW233357   0.534   3.759   6.628
10820SOL     OW33358   6.802   6.945   4.298
10820SOL    HW133359   6.824   6.859   4.343
10820SOL    HW233360   6.821   6.938   4.200
10821SOL     OW33361   5.971   6.348   3.071
10821SOL    HW133362   6.053   6.290   3.066
10821SOL    HW233363   5.998   6.442   3.088
10822SOL     OW33364   1.411   3.154   2.661
10822SOL    HW133365   1.323   3.118   2.694
10822SOL    HW233366   1.408   3.164   2.562
10823SOL     OW33367   1.722   4.931   1.356
10823SOL    HW133368   1.755   4.954   1.265
10823SOL    HW233369   1.636   4.979   1.374
10824SOL     OW33370   4.939   6.584   3.563
10824SOL    HW133371   4.938   6.684   3.575
10824SOL    HW233372   5.002   6.544   3.629
10825SOL     OW33373   2.711   0.913   0.575
10825SOL    HW133374   2.712   0.908   0.475
10825SOL    HW233375   2.618   0.932   0.607
10826SOL     OW33376   6.437   3.492   2.762
10826SOL    HW133377   6.435   3.582   2.718
10826SOL    HW233378   6.531   3.469   2.787
10827SOL     OW33379   5.864   3.563   3.610
10827SOL    HW133380   5.863   3.479   3.555
10827SOL    HW233381   5.955   3.603   3.608
10828SOL     OW33382   0.954   6.084   1.902
10828SOL    HW133383   0.854   6.083   1.903
10828SOL    HW233384   0.986   6.030   1.825
10829SOL     OW33385   2.746   3.154   1.058
10829SOL    HW133386   2.753   3.253   1.051
10829SOL    HW233387   2.652   3.127   1.077
10830SOL     OW33388   5.514   2.470   3.788
10830SOL    HW133389   5.486   2.406   3.716
10830SOL    HW233390   5.594   2.434   3.835
10831SOL     OW33391   5.196   0.264   1.830
10831SOL    HW133392   5.148   0.246   1.916
10831SOL    HW233393   5.201   0.363   1.815
10832SOL     OW33394   0.773   2.180   0.731
10832SOL    HW133395   0.750   2.125   0.650
10832SOL    HW233396   0.872   2.189   0.738
10833SOL     OW33397   2.143   0.311   3.771
10833SOL    HW133398   2.127   0.213   3.772
10833SOL    HW233399   2.057   0.359   3.753
10834SOL     OW33400   0.774   1.097   5.494
10834SOL    HW133401   0.700   1.160   5.470
10834SOL    HW233402   0.749   1.044   5.575
10835SOL     OW33403   5.869   1.334   1.172
10835SOL    HW133404   5.824   1.390   1.241
10835SOL    HW233405   5.947   1.287   1.212
10836SOL     OW33406   6.713   1.711   5.607
10836SOL    HW133407   6.745   1.620   5.633
10836SOL    HW233408   6.791   1.773   5.600
10837SOL     OW33409   6.560   4.517   0.081
10837SOL    HW133410   6.575   4.615   0.099
10837SOL    HW233411   6.524   4.473   0.163
10838SOL     OW33412   5.959   0.609   4.990
10838SOL    HW133413   5.911   0.646   5.070
10838SOL    HW233414   5.916   0.523   4.963
10839SOL     OW33415   2.593   3.147   0.147
10839SOL    HW133416   2.635   3.061   0.117
10839SOL    HW233417   2.576   3.143   0.246
10840SOL     OW33418   3.709   5.711   1.412
10840SOL    HW133419   3.654   5.705   1.328
10840SOL    HW233420   3.801   5.678   1.394
10841SOL     OW33421   3.058   5.904   5.607
10841SOL    HW133422   2.975   5.906   5.552
10841SOL    HW233423   3.087   5.998   5.628
10842SOL     OW33424   6.140   3.203   0.982
10842SOL    HW133425   6.170   3.113   1.013
10842SOL    HW233426   6.079   3.192   0.904
10843SOL     OW33427   0.549   1.479   1.611
10843SOL    HW133428   0.511   1.555   1.558
10843SOL    HW233429   0.550   1.396   1.554
10844SOL     OW33430   0.047   6.382   4.429
10844SOL    HW133431   6.986   6.387   4.380
10844SOL    HW233432   0.032   6.393   4.527
10845SOL     OW33433   2.178   0.944   1.151
10845SOL    HW133434   2.198   0.855   1.109
10845SOL    HW233435   2.250   1.009   1.128
10846SOL     OW33436   4.942   2.114   0.934
10846SOL    HW133437   4.907   2.023   0.957
10846SOL    HW233438   4.880   2.184   0.970
10847SOL     OW33439   2.944   1.829   6.079
10847SOL    HW133440   2.864   1.777   6.048
10847SOL    HW233441   3.005   1.769   6.130
10848SOL     OW33442   2.741   1.788   6.954
10848SOL    HW133443   2.755   1.821   0.022
10848SOL    HW233444   2.767   1.691   6.950
10849SOL     OW33445   4.070   4.850   3.763
10849SOL    HW133446   3.987   4.886   3.805
10849SOL    HW233447   4.136   4.924   3.749
10850SOL     OW33448   3.584   6.975   6.952
10850SOL    HW133449   3.497   6.998   6.996
10850SOL    HW233450   3.587   7.014   6.860
10851SOL     OW33451   3.250   2.664   5.879
10851SOL    HW133452   3.332   2.697   5.831
10851SOL    HW233453   3.169   2.689   5.826
10852SOL     OW33454   0.241   0.212   6.722
10852SOL    HW133455   0.220   0.240   6.816
10852SOL    HW233456   0.158   0.176   6.679
10853SOL     OW33457   3.787   1.865   4.460
10853SOL    HW133458   3.813   1.842   4.366
10853SOL    HW233459   3.712   1.807   4.489
10854SOL     OW33460   6.023   0.030   6.462
10854SOL    HW133461   5.937   0.081   6.471
10854SOL    HW233462   6.100   0.094   6.461
10855SOL     OW33463   2.683   6.438   2.569
10855SOL    HW133464   2.704   6.390   2.654
10855SOL    HW233465   2.671   6.371   2.495
10856SOL     OW33466   5.902   0.507   0.827
10856SOL    HW133467   5.979   0.570   0.840
10856SOL    HW233468   5.887   0.493   0.730
10857SOL     OW33469   6.196   3.170   3.281
10857SOL    HW133470   6.166   3.263   3.258
10857SOL    HW233471   6.179   3.109   3.203
10858SOL     OW33472   2.016   2.886   6.357
10858SOL    HW133473   1.956   2.955   6.316
10858SOL    HW233474   2.039   2.912   6.450
10859SOL     OW33475   1.634   3.840   3.579
10859SOL    HW133476   1.665   3.745   3.573
10859SOL    HW233477   1.712   3.901   3.562
10860SOL     OW33478   6.424   1.163   6.552
10860SOL    HW133479   6.520   1.150   6.529
10860SOL    HW233480   6.415   1.239   6.617
10861SOL     OW33481   3.745   2.544   1.721
10861SOL    HW133482   3.752   2.637   1.755
10861SOL    HW233483   3.724   2.482   1.797
10862SOL     OW33484   2.310   1.643   6.208
10862SOL    HW133485   2.404   1.635   6.176
10862SOL    HW233486   2.310   1.651   6.308
10863SOL     OW33487   3.389   0.782   2.675
10863SOL    HW133488   3.419   0.694   2.711
10863SOL    HW233489   3.289   0.783   2.666
10864SOL     OW33490   2.025   4.645   1.380
10864SOL    HW133491   1.951   4.631   1.447
10864SOL    HW233492   2.105   4.683   1.427
10865SOL     OW33493   5.928   2.783   3.483
10865SOL    HW133494   5.951   2.738   3.570
10865SOL    HW233495   5.856   2.851   3.499
10866SOL     OW33496   5.755   3.265   1.128
10866SOL    HW133497   5.777   3.193   1.062
10866SOL    HW233498   5.726   3.347   1.080
10867SOL     OW33499   2.432   2.645   0.116
10867SOL    HW133500   2.417   2.591   0.033
10867SOL    HW233501   2.344   2.663   0.160
10868SOL     OW33502   1.201   2.360   2.937
10868SOL    HW133503   1.261   2.324   2.866
10868SOL    HW233504   1.113   2.312   2.933
10869NA      NA33505   0.761   2.220   6.422
10870NA      NA33506   4.425   4.597   5.227
10871NA      NA33507   2.099   4.707   2.618
10872NA      NA33508   5.306   4.576   3.991
10873NA      NA33509   4.406   2.458   5.207
10874NA      NA33510   3.184   4.302   1.575
10875NA      NA33511   0.934   4.641   0.042
10876NA      NA33512   4.081   4.234   1.536
10877NA      NA33513   4.475   4.062   0.783
10878NA      NA33514   3.699   1.109   5.606
10879NA      NA33515   5.030   5.583   1.744
10880NA      NA33516   1.661   0.615   5.691
10881NA      NA33517   4.920   4.883   2.099
10882NA      NA33518   3.563   3.441   0.643
   7.02582   7.02582   7.02582
