Generated by trjconv : CNT in water t= 175.00000
33518
    1C        C    1   2.849   2.771   4.743
    1C        C    2   2.897   2.718   4.864
    1C        C    3   2.842   2.771   4.982
    1C        C    4   2.855   2.773   4.260
    1C        C    5   2.904   2.722   4.382
    1C        C    6   2.851   2.774   4.502
    1C        C    7   3.015   2.636   4.623
    1C        C    8   2.902   2.721   4.623
    1C        C    9   3.082   2.609   4.744
    1C        C   10   3.012   2.635   4.863
    1C        C   11   3.181   2.490   4.973
    1C        C   12   3.060   2.560   4.972
    1C        C   13   2.858   2.778   3.772
    1C        C   14   2.906   2.728   3.895
    1C        C   15   2.855   2.778   4.016
    1C        C   16   3.018   2.638   4.138
    1C        C   17   2.908   2.727   4.137
    1C        C   18   3.079   2.602   4.260
    1C        C   19   3.019   2.640   4.382
    1C        C   20   3.210   2.546   4.504
    1C        C   21   3.079   2.599   4.503
    1C        C   22   3.280   2.528   4.626
    1C        C   23   3.210   2.547   4.747
    1C        C   24   3.416   2.478   4.866
    1C        C   25   3.274   2.499   4.865
    1C        C   26   3.492   2.473   4.984
    1C        C   27   2.853   2.772   3.285
    1C        C   28   2.906   2.723   3.406
    1C        C   29   2.859   2.777   3.528
    1C        C   30   3.022   2.641   3.650
    1C        C   31   2.913   2.731   3.650
    1C        C   32   3.078   2.604   3.774
    1C        C   33   3.016   2.639   3.897
    1C        C   34   3.209   2.546   4.017
    1C        C   35   3.078   2.598   4.017
    1C        C   36   3.277   2.522   4.139
    1C        C   37   3.210   2.548   4.260
    1C        C   38   3.418   2.502   4.382
    1C        C   39   3.279   2.527   4.382
    1C        C   40   3.488   2.492   4.504
    1C        C   41   3.419   2.502   4.627
    1C        C   42   3.633   2.478   4.745
    1C        C   43   3.491   2.478   4.746
    1C        C   44   3.706   2.486   4.865
    1C        C   45   3.631   2.481   4.983
    1C        C   46   2.840   2.754   2.797
    1C        C   47   2.899   2.711   2.919
    1C        C   48   2.844   2.759   3.040
    1C        C   49   3.017   2.637   3.163
    1C        C   50   2.903   2.721   3.163
    1C        C   51   3.080   2.603   3.285
    1C        C   52   3.019   2.638   3.408
    1C        C   53   3.209   2.541   3.529
    1C        C   54   3.080   2.599   3.529
    1C        C   55   3.275   2.526   3.653
    1C        C   56   3.208   2.551   3.774
    1C        C   57   3.417   2.503   3.894
    1C        C   58   3.279   2.532   3.895
    1C        C   59   3.487   2.497   4.017
    1C        C   60   3.417   2.498   4.139
    1C        C   61   3.630   2.489   4.259
    1C        C   62   3.489   2.489   4.260
    1C        C   63   3.701   2.502   4.381
    1C        C   64   3.629   2.495   4.502
    1C        C   65   3.836   2.543   4.621
    1C        C   66   3.702   2.497   4.623
    1C        C   67   3.906   2.561   4.742
    1C        C   68   3.841   2.526   4.863
    1C        C   69   4.052   2.585   4.980
    1C        C   70   3.924   2.528   4.977
    1C        C   71   2.821   2.731   2.311
    1C        C   72   2.882   2.692   2.432
    1C        C   73   2.835   2.747   2.554
    1C        C   74   3.010   2.627   2.673
    1C        C   75   2.891   2.704   2.676
    1C        C   76   3.073   2.595   2.795
    1C        C   77   3.015   2.631   2.919
    1C        C   78   3.208   2.543   3.038
    1C        C   79   3.078   2.598   3.041
    1C        C   80   3.276   2.528   3.161
    1C        C   81   3.209   2.546   3.284
    1C        C   82   3.414   2.494   3.404
    1C        C   83   3.275   2.520   3.406
    1C        C   84   3.484   2.494   3.526
    1C        C   85   3.415   2.503   3.649
    1C        C   86   3.627   2.494   3.769
    1C        C   87   3.486   2.495   3.771
    1C        C   88   3.697   2.501   3.891
    1C        C   89   3.629   2.494   4.014
    1C        C   90   3.832   2.547   4.135
    1C        C   91   3.699   2.502   4.136
    1C        C   92   3.901   2.575   4.255
    1C        C   93   3.835   2.547   4.377
    1C        C   94   4.027   2.634   4.500
    1C        C   95   3.902   2.567   4.499
    1C        C   96   4.091   2.671   4.620
    1C        C   97   4.032   2.627   4.741
    1C        C   98   4.186   2.768   4.861
    1C        C   99   4.094   2.658   4.864
    1C        C  100   4.215   2.841   4.977
    1C        C  101   2.825   2.731   2.072
    1C        C  102   2.984   2.585   2.193
    1C        C  103   2.871   2.673   2.191
    1C        C  104   3.061   2.569   2.311
    1C        C  105   3.002   2.617   2.430
    1C        C  106   3.201   2.534   2.552
    1C        C  107   3.069   2.586   2.551
    1C        C  108   3.270   2.516   2.673
    1C        C  109   3.202   2.538   2.795
    1C        C  110   3.411   2.486   2.914
    1C        C  111   3.272   2.515   2.915
    1C        C  112   3.483   2.486   3.035
    1C        C  113   3.413   2.494   3.157
    1C        C  114   3.623   2.494   3.280
    1C        C  115   3.482   2.485   3.280
    1C        C  116   3.694   2.504   3.402
    1C        C  117   3.625   2.496   3.525
    1C        C  118   3.834   2.537   3.646
    1C        C  119   3.697   2.502   3.646
    1C        C  120   3.899   2.565   3.769
    1C        C  121   3.833   2.540   3.891
    1C        C  122   4.021   2.641   4.011
    1C        C  123   3.900   2.570   4.012
    1C        C  124   4.083   2.678   4.133
    1C        C  125   4.027   2.639   4.257
    1C        C  126   4.193   2.769   4.377
    1C        C  127   4.086   2.677   4.379
    1C        C  128   4.241   2.824   4.498
    1C        C  129   4.193   2.768   4.619
    1C        C  130   4.319   2.941   4.740
    1C        C  131   4.235   2.827   4.741
    1C        C  132   4.354   3.006   4.860
    1C        C  133   4.289   2.958   4.975
    1C        C  134   3.171   2.464   2.084
    1C        C  135   3.037   2.506   2.086
    1C        C  136   3.259   2.479   2.191
    1C        C  137   3.195   2.522   2.309
    1C        C  138   3.405   2.476   2.429
    1C        C  139   3.267   2.506   2.430
    1C        C  140   3.479   2.472   2.549
    1C        C  141   3.409   2.492   2.670
    1C        C  142   3.622   2.487   2.793
    1C        C  143   3.481   2.481   2.792
    1C        C  144   3.695   2.498   2.913
    1C        C  145   3.625   2.489   3.035
    1C        C  146   3.831   2.537   3.156
    1C        C  147   3.694   2.500   3.158
    1C        C  148   3.896   2.564   3.278
    1C        C  149   3.831   2.540   3.401
    1C        C  150   4.023   2.628   3.524
    1C        C  151   3.898   2.563   3.523
    1C        C  152   4.081   2.672   3.645
    1C        C  153   4.022   2.636   3.768
    1C        C  154   4.190   2.768   3.887
    1C        C  155   4.081   2.678   3.889
    1C        C  156   4.242   2.817   4.009
    1C        C  157   4.193   2.767   4.132
    1C        C  158   4.336   2.924   4.253
    1C        C  159   4.245   2.815   4.254
    1C        C  160   4.376   2.985   4.374
    1C        C  161   4.328   2.935   4.497
    1C        C  162   4.430   3.124   4.617
    1C        C  163   4.360   3.001   4.618
    1C        C  164   4.464   3.190   4.737
    1C        C  165   4.434   3.123   4.857
    1C        C  166   4.523   3.316   4.971
    1C        C  167   4.482   3.184   4.974
    1C        C  168   3.478   2.441   2.072
    1C        C  169   3.399   2.460   2.187
    1C        C  170   3.617   2.468   2.306
    1C        C  171   3.474   2.462   2.307
    1C        C  172   3.692   2.486   2.424
    1C        C  173   3.620   2.482   2.545
    1C        C  174   3.824   2.535   2.667
    1C        C  175   3.688   2.496   2.668
    1C        C  176   3.894   2.558   2.787
    1C        C  177   3.831   2.536   2.912
    1C        C  178   4.023   2.627   3.034
    1C        C  179   3.897   2.562   3.034
    1C        C  180   4.083   2.663   3.157
    1C        C  181   4.024   2.624   3.280
    1C        C  182   4.193   2.753   3.397
    1C        C  183   4.084   2.662   3.402
    1C        C  184   4.242   2.805   3.519
    1C        C  185   4.191   2.761   3.643
    1C        C  186   4.333   2.920   3.761
    1C        C  187   4.243   2.812   3.764
    1C        C  188   4.373   2.981   3.883
    1C        C  189   4.330   2.927   4.006
    1C        C  190   4.434   3.110   4.130
    1C        C  191   4.370   2.984   4.130
    1C        C  192   4.467   3.174   4.251
    1C        C  193   4.441   3.110   4.374
    1C        C  194   4.503   3.319   4.492
    1C        C  195   4.461   3.184   4.493
    1C        C  196   4.521   3.389   4.613
    1C        C  197   4.511   3.324   4.738
    1C        C  198   4.556   3.539   4.850
    1C        C  199   4.533   3.398   4.858
    1C        C  200   4.589   3.624   4.960
    1C        C  201   3.616   2.420   2.073
    1C        C  202   3.828   2.509   2.185
    1C        C  203   3.692   2.465   2.186
    1C        C  204   3.901   2.534   2.304
    1C        C  205   3.830   2.516   2.425
    1C        C  206   4.021   2.615   2.545
    1C        C  207   3.895   2.550   2.546
    1C        C  208   4.081   2.655   2.666
    1C        C  209   4.020   2.622   2.789
    1C        C  210   4.193   2.748   2.905
    1C        C  211   4.081   2.663   2.910
    1C        C  212   4.237   2.803   3.027
    1C        C  213   4.191   2.754   3.151
    1C        C  214   4.325   2.916   3.270
    1C        C  215   4.240   2.803   3.274
    1C        C  216   4.363   2.976   3.392
    1C        C  217   4.326   2.919   3.516
    1C        C  218   4.432   3.104   3.638
    1C        C  219   4.370   2.977   3.637
    1C        C  220   4.457   3.171   3.760
    1C        C  221   4.436   3.107   3.884
    1C        C  222   4.507   3.306   4.001
    1C        C  223   4.468   3.170   4.007
    1C        C  224   4.521   3.378   4.122
    1C        C  225   4.505   3.310   4.245
    1C        C  226   4.518   3.523   4.365
    1C        C  227   4.511   3.382   4.366
    1C        C  228   4.523   3.599   4.484
    1C        C  229   4.523   3.530   4.608
    1C        C  230   4.506   3.744   4.726
    1C        C  231   4.540   3.606   4.726
    1C        C  232   4.498   3.822   4.843
    1C        C  233   4.544   3.757   4.959
    1C        C  234   4.014   2.621   2.063
    1C        C  235   3.895   2.549   2.069
    1C        C  236   4.082   2.652   2.182
    1C        C  237   4.022   2.609   2.302
    1C        C  238   4.199   2.731   2.421
    1C        C  239   4.085   2.646   2.423
    1C        C  240   4.253   2.781   2.541
    1C        C  241   4.194   2.741   2.663
    1C        C  242   4.334   2.905   2.782
    1C        C  243   4.250   2.791   2.783
    1C        C  244   4.369   2.967   2.904
    1C        C  245   4.327   2.912   3.027
    1C        C  246   4.436   3.097   3.146
    1C        C  247   4.368   2.972   3.148
    1C        C  248   4.461   3.161   3.269
    1C        C  249   4.430   3.100   3.393
    1C        C  250   4.490   3.305   3.512
    1C        C  251   4.456   3.168   3.514
    1C        C  252   4.507   3.375   3.634
    1C        C  253   4.498   3.306   3.757
    1C        C  254   4.527   3.516   3.877
    1C        C  255   4.514   3.375   3.879
    1C        C  256   4.527   3.591   3.997
    1C        C  257   4.525   3.519   4.119
    1C        C  258   4.497   3.730   4.240
    1C        C  259   4.517   3.591   4.241
    1C        C  260   4.477   3.803   4.360
    1C        C  261   4.496   3.738   4.484
    1C        C  262   4.424   3.940   4.602
    1C        C  263   4.478   3.809   4.604
    1C        C  264   4.398   4.009   4.723
    1C        C  265   4.431   3.946   4.845
    1C        C  266   4.313   4.128   4.959
    1C        C  267   4.392   4.014   4.961
    1C        C  268   4.261   2.779   2.065
    1C        C  269   4.195   2.737   2.182
    1C        C  270   4.345   2.892   2.300
    1C        C  271   4.254   2.783   2.302
    1C        C  272   4.380   2.954   2.422
    1C        C  273   4.341   2.892   2.543
    1C        C  274   4.450   3.082   2.659
    1C        C  275   4.381   2.959   2.660
    1C        C  276   4.477   3.152   2.779
    1C        C  277   4.440   3.089   2.899
    1C        C  278   4.499   3.294   3.023
    1C        C  279   4.463   3.157   3.021
    1C        C  280   4.510   3.364   3.145
    1C        C  281   4.497   3.298   3.269
    1C        C  282   4.520   3.512   3.385
    1C        C  283   4.511   3.371   3.389
    1C        C  284   4.522   3.582   3.508
    1C        C  285   4.521   3.516   3.632
    1C        C  286   4.498   3.725   3.750
    1C        C  287   4.522   3.586   3.755
    1C        C  288   4.479   3.793   3.872
    1C        C  289   4.501   3.730   3.997
    1C        C  290   4.429   3.930   4.115
    1C        C  291   4.484   3.800   4.118
    1C        C  292   4.394   3.997   4.235
    1C        C  293   4.429   3.936   4.358
    1C        C  294   4.329   4.126   4.480
    1C        C  295   4.400   4.004   4.478
    1C        C  296   4.285   4.189   4.599
    1C        C  297   4.330   4.133   4.721
    1C        C  298   4.199   4.311   4.836
    1C        C  299   4.285   4.196   4.841
    1C        C  300   4.166   4.397   4.945
    1C        C  301   4.346   2.888   2.060
    1C        C  302   4.467   3.069   2.176
    1C        C  303   4.396   2.945   2.178
    1C        C  304   4.478   3.144   2.297
    1C        C  305   4.443   3.080   2.418
    1C        C  306   4.510   3.286   2.533
    1C        C  307   4.472   3.150   2.537
    1C        C  308   4.517   3.358   2.654
    1C        C  309   4.505   3.291   2.777
    1C        C  310   4.529   3.501   2.896
    1C        C  311   4.519   3.360   2.900
    1C        C  312   4.521   3.573   3.017
    1C        C  313   4.520   3.505   3.141
    1C        C  314   4.489   3.718   3.262
    1C        C  315   4.515   3.579   3.261
    1C        C  316   4.474   3.789   3.383
    1C        C  317   4.498   3.721   3.504
    1C        C  318   4.434   3.924   3.626
    1C        C  319   4.483   3.792   3.626
    1C        C  320   4.396   3.987   3.747
    1C        C  321   4.425   3.924   3.870
    1C        C  322   4.316   4.106   3.988
    1C        C  323   4.396   3.990   3.992
    1C        C  324   4.274   4.164   4.110
    1C        C  325   4.321   4.117   4.235
    1C        C  326   4.190   4.283   4.352
    1C        C  327   4.288   4.181   4.357
    1C        C  328   4.135   4.336   4.471
    1C        C  329   4.192   4.295   4.594
    1C        C  330   4.027   4.435   4.710
    1C        C  331   4.142   4.353   4.713
    1C        C  332   3.970   4.494   4.826
    1C        C  333   4.055   4.483   4.937
    1C        C  334   4.555   3.264   2.062
    1C        C  335   4.533   3.126   2.062
    1C        C  336   4.539   3.350   2.172
    1C        C  337   4.520   3.280   2.293
    1C        C  338   4.529   3.497   2.409
    1C        C  339   4.527   3.356   2.412
    1C        C  340   4.522   3.570   2.530
    1C        C  341   4.523   3.500   2.652
    1C        C  342   4.496   3.710   2.773
    1C        C  343   4.524   3.571   2.774
    1C        C  344   4.475   3.779   2.894
    1C        C  345   4.496   3.712   3.017
    1C        C  346   4.428   3.916   3.138
    1C        C  347   4.472   3.782   3.137
    1C        C  348   4.398   3.985   3.258
    1C        C  349   4.428   3.923   3.381
    1C        C  350   4.324   4.106   3.500
    1C        C  351   4.402   3.987   3.504
    1C        C  352   4.278   4.163   3.620
    1C        C  353   4.318   4.105   3.743
    1C        C  354   4.177   4.262   3.866
    1C        C  355   4.274   4.160   3.865
    1C        C  356   4.121   4.309   3.987
    1C        C  357   4.174   4.264   4.110
    1C        C  358   4.014   4.402   4.230
    1C        C  359   4.132   4.325   4.231
    1C        C  360   3.953   4.447   4.349
    1C        C  361   4.021   4.419   4.470
    1C        C  362   3.827   4.514   4.590
    1C        C  363   3.957   4.457   4.590
    1C        C  364   3.758   4.543   4.710
    1C        C  365   3.836   4.538   4.827
    1C        C  366   3.630   4.589   4.948
    1C        C  367   3.769   4.572   4.945
    1C        C  368   4.500   3.563   2.050
    1C        C  369   4.527   3.490   2.167
    1C        C  370   4.506   3.706   2.288
    1C        C  371   4.527   3.566   2.286
    1C        C  372   4.486   3.777   2.408
    1C        C  373   4.503   3.710   2.532
    1C        C  374   4.421   3.909   2.649
    1C        C  375   4.476   3.779   2.652
    1C        C  376   4.394   3.978   2.769
    1C        C  377   4.429   3.913   2.890
    1C        C  378   4.321   4.094   3.010
    1C        C  379   4.397   3.975   3.013
    1C        C  380   4.272   4.150   3.130
    1C        C  381   4.316   4.100   3.254
    1C        C  382   4.177   4.257   3.378
    1C        C  383   4.280   4.159   3.377
    1C        C  384   4.121   4.306   3.498
    1C        C  385   4.176   4.261   3.620
    1C        C  386   4.004   4.383   3.743
    1C        C  387   4.122   4.304   3.743
    1C        C  388   3.945   4.423   3.865
    1C        C  389   4.006   4.391   3.988
    1C        C  390   3.819   4.492   4.107
    1C        C  391   3.949   4.435   4.109
    1C        C  392   3.750   4.516   4.228
    1C        C  393   3.824   4.505   4.348
    1C        C  394   3.617   4.556   4.471
    1C        C  395   3.755   4.526   4.469
    1C        C  396   3.548   4.569   4.593
    1C        C  397   3.619   4.565   4.715
    1C        C  398   3.407   4.555   4.838
    1C        C  399   3.547   4.574   4.837
    1C        C  400   3.344   4.514   4.956
    1C        C  401   4.505   3.702   2.052
    1C        C  402   4.459   3.916   2.167
    1C        C  403   4.500   3.781   2.168
    1C        C  404   4.411   3.977   2.285
    1C        C  405   4.437   3.909   2.406
    1C        C  406   4.325   4.095   2.522
    1C        C  407   4.397   3.974   2.525
    1C        C  408   4.281   4.152   2.644
    1C        C  409   4.318   4.097   2.769
    1C        C  410   4.173   4.251   2.887
    1C        C  411   4.273   4.152   2.891
    1C        C  412   4.121   4.295   3.011
    1C        C  413   4.173   4.251   3.135
    1C        C  414   4.002   4.378   3.253
    1C        C  415   4.121   4.301   3.256
    1C        C  416   3.941   4.410   3.376
    1C        C  417   4.001   4.381   3.500
    1C        C  418   3.812   4.479   3.618
    1C        C  419   3.940   4.418   3.622
    1C        C  420   3.747   4.504   3.741
    1C        C  421   3.816   4.481   3.862
    1C        C  422   3.612   4.535   3.984
    1C        C  423   3.751   4.509   3.985
    1C        C  424   3.541   4.540   4.106
    1C        C  425   3.611   4.539   4.229
    1C        C  426   3.400   4.545   4.353
    1C        C  427   3.541   4.554   4.351
    1C        C  428   3.331   4.538   4.476
    1C        C  429   3.408   4.553   4.594
    1C        C  430   3.197   4.520   4.721
    1C        C  431   3.337   4.545   4.716
    1C        C  432   3.129   4.488   4.842
    1C        C  433   3.206   4.493   4.958
    1C        C  434   4.382   4.120   2.047
    1C        C  435   4.445   3.995   2.052
    1C        C  436   4.301   4.159   2.159
    1C        C  437   4.333   4.096   2.282
    1C        C  438   4.186   4.256   2.398
    1C        C  439   4.285   4.155   2.401
    1C        C  440   4.128   4.299   2.519
    1C        C  441   4.175   4.246   2.642
    1C        C  442   4.005   4.374   2.763
    1C        C  443   4.117   4.288   2.763
    1C        C  444   3.943   4.411   2.885
    1C        C  445   4.004   4.374   3.008
    1C        C  446   3.813   4.469   3.129
    1C        C  447   3.941   4.409   3.129
    1C        C  448   3.748   4.493   3.252
    1C        C  449   3.812   4.467   3.375
    1C        C  450   3.609   4.532   3.494
    1C        C  451   3.747   4.504   3.495
    1C        C  452   3.540   4.543   3.617
    1C        C  453   3.609   4.536   3.740
    1C        C  454   3.400   4.538   3.863
    1C        C  455   3.541   4.547   3.863
    1C        C  456   3.330   4.526   3.985
    1C        C  457   3.400   4.534   4.108
    1C        C  458   3.194   4.498   4.233
    1C        C  459   3.331   4.531   4.231
    1C        C  460   3.127   4.484   4.356
    1C        C  461   3.193   4.509   4.479
    1C        C  462   2.998   4.435   4.602
    1C        C  463   3.125   4.496   4.602
    1C        C  464   2.933   4.398   4.722
    1C        C  465   2.993   4.443   4.843
    1C        C  466   2.806   4.338   4.955
    1C        C  467   2.911   4.431   4.960
    1C        C  468   4.124   4.289   2.040
    1C        C  469   4.188   4.246   2.158
    1C        C  470   4.007   4.370   2.277
    1C        C  471   4.132   4.302   2.276
    1C        C  472   3.943   4.401   2.399
    1C        C  473   4.009   4.373   2.521
    1C        C  474   3.815   4.468   2.640
    1C        C  475   3.946   4.413   2.641
    1C        C  476   3.748   4.493   2.762
    1C        C  477   3.815   4.470   2.884
    1C        C  478   3.607   4.516   3.007
    1C        C  479   3.746   4.488   3.006
    1C        C  480   3.537   4.523   3.129
    1C        C  481   3.610   4.523   3.250
    1C        C  482   3.398   4.530   3.377
    1C        C  483   3.539   4.531   3.371
    1C        C  484   3.327   4.528   3.499
    1C        C  485   3.399   4.544   3.620
    1C        C  486   3.192   4.496   3.743
    1C        C  487   3.328   4.536   3.742
    1C        C  488   3.125   4.473   3.865
    1C        C  489   3.192   4.498   3.988
    1C        C  490   3.000   4.414   4.115
    1C        C  491   3.125   4.480   4.111
    1C        C  492   2.946   4.375   4.239
    1C        C  493   3.002   4.418   4.361
    1C        C  494   2.825   4.303   4.482
    1C        C  495   2.939   4.386   4.483
    1C        C  496   2.773   4.255   4.604
    1C        C  497   2.820   4.312   4.724
    1C        C  498   2.668   4.161   4.847
    1C        C  499   2.755   4.271   4.843
    1C        C  500   2.598   4.116   4.960
    1C        C  501   4.001   4.354   2.039
    1C        C  502   3.813   4.462   2.154
    1C        C  503   3.941   4.401   2.156
    1C        C  504   3.744   4.476   2.276
    1C        C  505   3.812   4.452   2.397
    1C        C  506   3.606   4.503   2.521
    1C        C  507   3.745   4.478   2.518
    1C        C  508   3.534   4.510   2.643
    1C        C  509   3.608   4.514   2.763
    1C        C  510   3.397   4.520   2.884
    1C        C  511   3.538   4.527   2.884
    1C        C  512   3.325   4.518   3.006
    1C        C  513   3.395   4.526   3.129
    1C        C  514   3.192   4.490   3.255
    1C        C  515   3.329   4.524   3.253
    1C        C  516   3.124   4.469   3.377
    1C        C  517   3.189   4.497   3.499
    1C        C  518   2.997   4.410   3.622
    1C        C  519   3.122   4.476   3.622
    1C        C  520   2.940   4.369   3.745
    1C        C  521   3.001   4.407   3.867
    1C        C  522   2.838   4.279   3.996
    1C        C  523   2.946   4.370   3.992
    1C        C  524   2.793   4.230   4.120
    1C        C  525   2.838   4.283   4.243
    1C        C  526   2.685   4.135   4.362
    1C        C  527   2.775   4.245   4.363
    1C        C  528   2.650   4.077   4.486
    1C        C  529   2.689   4.142   4.606
    1C        C  530   2.586   3.958   4.735
    1C        C  531   2.641   4.089   4.728
    1C        C  532   2.543   3.899   4.857
    1C        C  533   2.527   3.995   4.962
    1C        C  534   3.616   4.554   2.039
    1C        C  535   3.752   4.523   2.043
    1C        C  536   3.536   4.536   2.156
    1C        C  537   3.605   4.508   2.277
    1C        C  538   3.393   4.513   2.400
    1C        C  539   3.534   4.510   2.400
    1C        C  540   3.320   4.508   2.521
    1C        C  541   3.393   4.512   2.642
    1C        C  542   3.183   4.484   2.766
    1C        C  543   3.322   4.508   2.765
    1C        C  544   3.119   4.462   2.890
    1C        C  545   3.189   4.482   3.011
    1C        C  546   2.996   4.399   3.134
    1C        C  547   3.122   4.463   3.135
    1C        C  548   2.940   4.362   3.257
    1C        C  549   2.998   4.405   3.379
    1C        C  550   2.831   4.276   3.505
    1C        C  551   2.938   4.368   3.501
    1C        C  552   2.780   4.228   3.628
    1C        C  553   2.831   4.279   3.749
    1C        C  554   2.698   4.120   3.878
    1C        C  555   2.785   4.231   3.874
    1C        C  556   2.658   4.063   4.001
    1C        C  557   2.695   4.128   4.121
    1C        C  558   2.591   3.942   4.248
    1C        C  559   2.651   4.070   4.242
    1C        C  560   2.560   3.881   4.371
    1C        C  561   2.589   3.950   4.491
    1C        C  562   2.530   3.750   4.617
    1C        C  563   2.567   3.886   4.615
    1C        C  564   2.516   3.679   4.739
    1C        C  565   2.521   3.758   4.857
    1C        C  566   2.527   3.545   4.978
    1C        C  567   2.534   3.684   4.975
    1C        C  568   3.326   4.478   2.043
    1C        C  569   3.395   4.518   2.158
    1C        C  570   3.183   4.473   2.280
    1C        C  571   3.320   4.508   2.279
    1C        C  572   3.113   4.456   2.401
    1C        C  573   3.183   4.475   2.522
    1C        C  574   2.986   4.399   2.645
    1C        C  575   3.115   4.457   2.645
    1C        C  576   2.931   4.361   2.769
    1C        C  577   2.992   4.402   2.889
    1C        C  578   2.829   4.268   3.017
    1C        C  579   2.935   4.361   3.012
    1C        C  580   2.778   4.218   3.139
    1C        C  581   2.831   4.271   3.258
    1C        C  582   2.695   4.114   3.384
    1C        C  583   2.782   4.225   3.383
    1C        C  584   2.659   4.057   3.508
    1C        C  585   2.696   4.114   3.632
    1C        C  586   2.590   3.936   3.755
    1C        C  587   2.658   4.060   3.757
    1C        C  588   2.565   3.872   3.879
    1C        C  589   2.595   3.936   4.001
    1C        C  590   2.532   3.738   4.129
    1C        C  591   2.569   3.875   4.125
    1C        C  592   2.523   3.670   4.253
    1C        C  593   2.526   3.744   4.373
    1C        C  594   2.515   3.535   4.498
    1C        C  595   2.519   3.677   4.497
    1C        C  596   2.519   3.463   4.620
    1C        C  597   2.519   3.537   4.740
    1C        C  598   2.536   3.325   4.865
    1C        C  599   2.524   3.466   4.862
    1C        C  600   2.529   3.245   4.979
    1C        C  601   3.193   4.441   2.043
    1C        C  602   2.980   4.391   2.158
    1C        C  603   3.116   4.437   2.159
    1C        C  604   2.920   4.359   2.282
    1C        C  605   2.986   4.394   2.402
    1C        C  606   2.814   4.272   2.526
    1C        C  607   2.922   4.362   2.524
    1C        C  608   2.771   4.218   2.650
    1C        C  609   2.824   4.268   2.770
    1C        C  610   2.686   4.112   2.896
    1C        C  611   2.777   4.219   2.895
    1C        C  612   2.645   4.054   3.018
    1C        C  613   2.689   4.109   3.140
    1C        C  614   2.586   3.927   3.266
    1C        C  615   2.652   4.052   3.264
    1C        C  616   2.561   3.867   3.391
    1C        C  617   2.588   3.935   3.512
    1C        C  618   2.526   3.733   3.637
    1C        C  619   2.561   3.869   3.634
    1C        C  620   2.518   3.666   3.762
    1C        C  621   2.534   3.734   3.885
    1C        C  622   2.509   3.526   4.008
    1C        C  623   2.522   3.666   4.008
    1C        C  624   2.514   3.457   4.132
    1C        C  625   2.515   3.529   4.253
    1C        C  626   2.539   3.323   4.381
    1C        C  627   2.516   3.462   4.377
    1C        C  628   2.555   3.251   4.501
    1C        C  629   2.534   3.323   4.621
    1C        C  630   2.598   3.120   4.742
    1C        C  631   2.552   3.254   4.744
    1C        C  632   2.619   3.051   4.865
    1C        C  633   2.561   3.109   4.982
    1C        C  634   2.778   4.303   2.055
    1C        C  635   2.888   4.390   2.048
    1C        C  636   2.742   4.230   2.169
    1C        C  637   2.803   4.278   2.287
    1C        C  638   2.675   4.108   2.408
    1C        C  639   2.754   4.225   2.408
    1C        C  640   2.637   4.050   2.531
    1C        C  641   2.682   4.108   2.652
    1C        C  642   2.584   3.922   2.773
    1C        C  643   2.645   4.050   2.775
    1C        C  644   2.559   3.860   2.897
    1C        C  645   2.586   3.925   3.020
    1C        C  646   2.526   3.724   3.148
    1C        C  647   2.560   3.861   3.143
    1C        C  648   2.516   3.657   3.271
    1C        C  649   2.528   3.729   3.392
    1C        C  650   2.508   3.521   3.518
    1C        C  651   2.517   3.662   3.516
    1C        C  652   2.513   3.455   3.643
    1C        C  653   2.513   3.525   3.766
    1C        C  654   2.535   3.314   3.891
    1C        C  655   2.511   3.453   3.887
    1C        C  656   2.551   3.249   4.015
    1C        C  657   2.536   3.318   4.138
    1C        C  658   2.606   3.118   4.259
    1C        C  659   2.557   3.251   4.260
    1C        C  660   2.639   3.054   4.380
    1C        C  661   2.604   3.119   4.501
    1C        C  662   2.718   2.942   4.625
    1C        C  663   2.632   3.053   4.622
    1C        C  664   2.757   2.880   4.746
    1C        C  665   2.701   2.934   4.865
    1C        C  666   2.745   2.870   4.982
    1C        C  667   2.684   4.023   2.052
    1C        C  668   2.679   4.104   2.166
    1C        C  669   2.584   3.913   2.291
    1C        C  670   2.638   4.044   2.287
    1C        C  671   2.552   3.850   2.414
    1C        C  672   2.577   3.922   2.532
    1C        C  673   2.515   3.717   2.657
    1C        C  674   2.553   3.854   2.654
    1C        C  675   2.501   3.652   2.782
    1C        C  676   2.518   3.725   2.902
    1C        C  677   2.503   3.515   3.030
    1C        C  678   2.517   3.655   3.025
    1C        C  679   2.509   3.444   3.152
    1C        C  680   2.510   3.516   3.273
    1C        C  681   2.534   3.309   3.399
    1C        C  682   2.509   3.448   3.397
    1C        C  683   2.551   3.244   3.524
    1C        C  684   2.531   3.315   3.645
    1C        C  685   2.602   3.117   3.771
    1C        C  686   2.544   3.246   3.767
    1C        C  687   2.639   3.054   3.892
    1C        C  688   2.604   3.118   4.013
    1C        C  689   2.716   2.938   4.140
    1C        C  690   2.638   3.056   4.136
    1C        C  691   2.766   2.883   4.259
    1C        C  692   2.721   2.939   4.381
    1C        C  693   2.761   2.882   4.504
    1C        C  694   2.631   3.894   2.058
    1C        C  695   2.527   3.704   2.177
    1C        C  696   2.573   3.837   2.172
    1C        C  697   2.506   3.636   2.299
    1C        C  698   2.512   3.714   2.416
    1C        C  699   2.488   3.503   2.543
    1C        C  700   2.498   3.644   2.538
    1C        C  701   2.502   3.437   2.668
    1C        C  702   2.501   3.511   2.788
    1C        C  703   2.531   3.301   2.912
    1C        C  704   2.503   3.439   2.910
    1C        C  705   2.550   3.232   3.034
    1C        C  706   2.533   3.304   3.154
    1C        C  707   2.597   3.105   3.282
    1C        C  708   2.548   3.237   3.278
    1C        C  709   2.633   3.046   3.405
    1C        C  710   2.603   3.113   3.526
    1C        C  711   2.720   2.939   3.650
    1C        C  712   2.639   3.055   3.650
    1C        C  713   2.764   2.884   3.772
    1C        C  714   2.719   2.937   3.894
    1C        C  715   2.761   2.883   4.018
    1C        C  716   2.454   3.495   2.061
    1C        C  717   2.497   3.629   2.062
    1C        C  718   2.466   3.419   2.182
    1C        C  719   2.481   3.496   2.301
    1C        C  720   2.513   3.288   2.427
    1C        C  721   2.488   3.428   2.424
    1C        C  722   2.542   3.224   2.550
    1C        C  723   2.528   3.298   2.669
    1C        C  724   2.597   3.097   2.793
    1C        C  725   2.549   3.230   2.791
    1C        C  726   2.626   3.034   2.916
    1C        C  727   2.595   3.099   3.038
    1C        C  728   2.705   2.921   3.159
    1C        C  729   2.624   3.037   3.161
    1C        C  730   2.755   2.873   3.282
    1C        C  731   2.718   2.933   3.405
    1C        C  732   2.764   2.882   3.528
    1C        C  733   2.488   3.196   2.071
    1C        C  734   2.487   3.278   2.186
    1C        C  735   2.574   3.082   2.308
    1C        C  736   2.520   3.213   2.308
    1C        C  737   2.615   3.020   2.429
    1C        C  738   2.590   3.091   2.549
    1C        C  739   2.690   2.906   2.672
    1C        C  740   2.619   3.028   2.672
    1C        C  741   2.739   2.853   2.793
    1C        C  742   2.704   2.917   2.914
    1C        C  743   2.751   2.865   3.037
    1C        C  744   2.538   3.067   2.075
    1C        C  745   2.685   2.900   2.187
    1C        C  746   2.599   3.011   2.188
    1C        C  747   2.733   2.842   2.307
    1C        C  748   2.689   2.900   2.428
    1C        C  749   2.740   2.852   2.551
    1C        C  750   2.739   2.840   2.072
    1C        C  751   3.670   2.337   1.963
    1C        O  752   3.703   2.216   1.978
    1C        O  753   3.660   2.368   1.827
    1C        C  754   4.618   3.043   1.974
    1C        O  755   4.587   3.024   1.853
    1C        O  756   4.747   3.001   2.008
    1C        C  757   4.445   4.226   1.964
    1C        O  758   4.523   4.312   2.012
    1C        O  759   4.463   4.215   1.826
    1C        C  760   3.574   4.642   1.927
    1C        O  761   3.598   4.766   1.926
    1C        O  762   3.547   4.601   1.796
    1C        C  763   2.856   4.520   1.985
    1C        O  764   2.838   4.536   1.861
    1C        O  765   2.792   4.624   2.053
    1C        C  766   2.376   3.454   1.943
    1C        O  767   2.411   3.435   1.823
    1C        O  768   2.238   3.478   1.938
    1C        C  769   4.704   3.597   5.050
    1C        O  770   4.698   3.611   5.175
    1C        O  771   4.816   3.523   5.009
    1C        C  772   4.277   4.455   5.025
    1C        O  773   4.284   4.425   5.147
    1C        O  774   4.372   4.552   4.995
    1C        C  775   4.153   2.506   5.053
    1C        O  776   4.209   2.402   5.010
    1C        O  777   4.235   2.554   5.156
    1C        C  778   2.876   4.556   5.032
    1C        O  779   2.811   4.641   4.966
    1C        O  780   2.883   4.558   5.171
    1C        C  781   2.483   3.037   5.085
    1C        O  782   2.424   2.928   5.062
    1C        O  783   2.459   3.086   5.213
    1C        C  784   2.398   4.009   5.032
    1C        O  785   2.292   3.991   4.967
    1C        O  786   2.395   3.955   5.162
    1C        C  787   2.949   2.424   2.000
    1C        O  788   2.881   2.465   1.902
    1C        O  789   2.906   2.294   2.024
    1C        C  790   3.180   2.377   5.069
    1C        O  791   3.151   2.260   5.035
    1C        O  792   3.205   2.389   5.206
    1C        H  793   4.298   3.010   5.068
    1C        H  794   4.218   2.790   5.071
    1C        H  795   4.524   3.120   5.049
    1C        H  796   4.585   3.347   5.053
    1C        H  797   4.603   3.817   5.025
    1C        H  798   4.416   3.971   5.056
    1C        H  799   4.248   4.138   5.044
    1C        H  800   4.065   4.574   4.992
    1C        H  801   3.827   4.604   5.029
    1C        H  802   3.588   4.650   5.025
    1C        H  803   3.405   4.471   5.033
    1C        H  804   3.161   4.488   5.055
    1C        H  805   3.898   2.454   5.050
    1C        H  806   3.680   2.426   5.061
    1C        H  807   2.985   2.536   5.044
    1C        H  808   3.449   2.502   5.078
    1C        H  809   2.914   2.789   5.060
    1C        H  810   2.665   2.849   5.051
    1C        H  811   2.499   3.291   5.071
    1C        H  812   2.461   3.511   5.055
    1C        H  813   2.499   3.735   5.063
    1C        H  814   2.622   4.164   5.053
    1C        H  815   2.734   4.352   5.033
    1C        H  816   2.711   2.886   1.979
    1C        H  817   2.880   2.711   1.982
    1C        H  818   3.207   2.428   1.989
    1C        H  819   3.426   2.442   1.978
    1C        H  820   3.858   2.514   1.975
    1C        H  821   4.035   2.671   1.971
    1C        H  822   4.249   2.726   1.973
    1C        H  823   4.323   2.957   1.981
    1C        H  824   4.588   3.301   1.967
    1C        H  825   4.521   3.515   1.957
    1C        H  826   4.541   3.754   1.965
    1C        H  827   3.811   4.581   1.976
    1C        H  828   3.958   4.384   1.946
    1C        H  829   4.154   4.240   1.950
    1C        H  830   4.502   3.963   1.967
    1C        H  831   2.645   3.838   1.967
    1C        H  832   2.738   4.059   1.967
    1C        H  833   2.724   4.291   1.963
    1C        H  834   3.361   4.506   1.946
    1C        H  835   3.161   4.382   1.960
    1C        H  836   2.534   3.005   1.988
    1C        H  837   2.425   3.222   1.989
    1C        H  838   2.492   3.682   1.969
    2V3OU   H29  839   2.800   3.551   1.742
    2V3OU   C27  840   2.780   3.508   1.843
    2V3OU   H27  841   2.719   3.570   1.913
    2V3OU   H28  842   2.737   3.407   1.824
    2V3OU   O11  843   2.906   3.484   1.906
    2V3OU   C15  844   2.921   3.397   2.012
    2V3OU   C13  845   3.050   3.375   2.066
    2V3OU   C14  846   3.072   3.271   2.157
    2V3OU   C16  847   2.969   3.188   2.199
    2V3OU    H6  848   2.986   3.100   2.262
    2V3OU   C12  849   3.210   3.235   2.196
    2V3OU    O2  850   3.235   3.127   2.253
    2V3OU   C10  851   3.326   3.309   2.143
    2V3OU    C8  852   3.455   3.271   2.177
    2V3OU   O10  853   3.489   3.153   2.236
    2V3OU   H26  854   3.404   3.107   2.248
    2V3OU    C6  855   3.564   3.352   2.131
    2V3OU    C5  856   3.538   3.467   2.057
    2V3OU    C4  857   3.701   3.296   2.132
    2V3OU    H4  858   3.723   3.225   2.217
    2V3OU    H5  859   3.711   3.232   2.039
    2V3OU    C2  860   3.815   3.398   2.128
    2V3OU    O6  861   3.807   3.471   2.251
    2V3OU   H21  862   3.761   3.552   2.225
    2V3OU    C3  863   3.784   3.498   2.015
    2V3OU    H2  864   3.863   3.577   2.020
    2V3OU    H3  865   3.781   3.444   1.917
    2V3OU   C25  866   3.950   3.328   2.115
    2V3OU    O7  867   4.000   3.292   2.008
    2V3OU   C26  868   4.028   3.292   2.241
    2V3OU   H22  869   4.058   3.388   2.290
    2V3OU   H23  870   4.119   3.233   2.215
    2V3OU    O8  871   3.958   3.205   2.326
    2V3OU   H24  872   3.928   3.266   2.396
    2V3OU    C1  873   3.649   3.565   2.032
    2V3OU    H1  874   3.623   3.624   1.940
    2V3OU    O3  875   3.657   3.652   2.146
    2V3OU   C19  876   3.622   3.790   2.129
    2V3OU    H9  877   3.523   3.804   2.076
    2V3OU    O4  878   3.715   3.845   2.038
    2V3OU   C20  879   3.843   3.874   2.093
    2V3OU   H10  880   3.897   3.777   2.115
    2V3OU   C24  881   3.612   3.853   2.268
    2V3OU   H16  882   3.548   3.788   2.333
    2V3OU   H17  883   3.561   3.949   2.243
    2V3OU   C23  884   3.751   3.874   2.330
    2V3OU   H15  885   3.789   3.771   2.359
    2V3OU    N1  886   3.737   3.958   2.447
    2V3OU   H19  887   3.808   3.929   2.512
    2V3OU   H20  888   3.647   3.933   2.483
    2V3OU   C21  889   3.848   3.943   2.230
    2V3OU   H11  890   3.950   3.924   2.274
    2V3OU    O5  891   3.828   4.084   2.228
    2V3OU   H18  892   3.780   4.100   2.310
    2V3OU   C22  893   3.910   3.953   1.982
    2V3OU   H12  894   3.857   4.050   1.966
    2V3OU   H13  895   3.907   3.894   1.887
    2V3OU   H14  896   4.021   3.956   1.999
    2V3OU   C11  897   3.162   3.463   2.029
    2V3OU    O1  898   3.131   3.575   1.984
    2V3OU    C9  899   3.301   3.423   2.063
    2V3OU    C7  900   3.405   3.506   2.022
    2V3OU    O9  901   3.386   3.622   1.949
    2V3OU   H25  902   3.289   3.630   1.945
    2V3OU   C17  903   2.815   3.316   2.055
    2V3OU    H7  904   2.712   3.344   2.031
    2V3OU   C18  905   2.843   3.213   2.144
    2V3OU    H8  906   2.768   3.161   2.205
    3SOL     OW  907   2.609   4.210   0.666
    3SOL    HW1  908   2.627   4.113   0.648
    3SOL    HW2  909   2.670   4.267   0.611
    4SOL     OW  910   6.315   5.626   1.845
    4SOL    HW1  911   6.269   5.697   1.792
    4SOL    HW2  912   6.294   5.536   1.807
    5SOL     OW  913   3.599   1.346   3.121
    5SOL    HW1  914   3.623   1.275   3.188
    5SOL    HW2  915   3.641   1.432   3.149
    6SOL     OW  916   4.941   1.586   1.708
    6SOL    HW1  917   4.883   1.504   1.715
    6SOL    HW2  918   4.885   1.667   1.727
    7SOL     OW  919   6.191   3.467   2.416
    7SOL    HW1  920   6.156   3.421   2.335
    7SOL    HW2  921   6.264   3.530   2.390
    8SOL     OW  922   2.705   0.206   5.571
    8SOL    HW1  923   2.621   0.169   5.532
    8SOL    HW2  924   2.730   0.153   5.652
    9SOL     OW  925   6.911   5.177   5.732
    9SOL    HW1  926   6.898   5.078   5.726
    9SOL    HW2  927   6.916   5.216   5.640
   10SOL     OW  928   1.210   4.515   5.776
   10SOL    HW1  929   1.243   4.530   5.869
   10SOL    HW2  930   1.126   4.461   5.779
   11SOL     OW  931   2.942   0.439   0.103
   11SOL    HW1  932   2.976   0.470   0.014
   11SOL    HW2  933   3.001   0.474   0.175
   12SOL     OW  934   4.204   6.353   3.971
   12SOL    HW1  935   4.231   6.358   4.068
   12SOL    HW2  936   4.123   6.409   3.956
   13SOL     OW  937   3.178   5.659   4.328
   13SOL    HW1  938   3.243   5.640   4.255
   13SOL    HW2  939   3.107   5.588   4.329
   14SOL     OW  940   4.718   5.563   6.296
   14SOL    HW1  941   4.713   5.555   6.395
   14SOL    HW2  942   4.769   5.486   6.258
   15SOL     OW  943   0.845   5.032   0.521
   15SOL    HW1  944   0.941   5.007   0.534
   15SOL    HW2  945   0.796   5.024   0.607
   16SOL     OW  946   5.686   2.919   5.635
   16SOL    HW1  947   5.605   2.861   5.640
   16SOL    HW2  948   5.728   2.909   5.545
   17SOL     OW  949   5.290   5.955   5.116
   17SOL    HW1  950   5.370   5.999   5.077
   17SOL    HW2  951   5.247   6.017   5.182
   18SOL     OW  952   3.035   1.311   6.344
   18SOL    HW1  953   3.036   1.321   6.245
   18SOL    HW2  954   2.996   1.223   6.369
   19SOL     OW  955   0.102   7.008   3.081
   19SOL    HW1  956   0.066   0.046   3.010
   19SOL    HW2  957   0.202   7.014   3.082
   20SOL     OW  958   4.635   1.757   4.352
   20SOL    HW1  959   4.562   1.756   4.421
   20SOL    HW2  960   4.673   1.849   4.345
   21SOL     OW  961   3.270   2.024   2.194
   21SOL    HW1  962   3.216   2.066   2.121
   21SOL    HW2  963   3.366   2.023   2.167
   22SOL     OW  964   2.414   7.016   0.339
   22SOL    HW1  965   2.361   6.931   0.342
   22SOL    HW2  966   2.497   7.005   0.394
   23SOL     OW  967   4.680   6.597   3.366
   23SOL    HW1  968   4.658   6.510   3.410
   23SOL    HW2  969   4.703   6.664   3.435
   24SOL     OW  970   5.235   0.978   2.868
   24SOL    HW1  971   5.166   1.049   2.851
   24SOL    HW2  972   5.254   0.974   2.966
   25SOL     OW  973   3.789   6.479   5.996
   25SOL    HW1  974   3.787   6.439   6.088
   25SOL    HW2  975   3.817   6.575   6.002
   26SOL     OW  976   6.207   0.945   0.356
   26SOL    HW1  977   6.150   0.993   0.289
   26SOL    HW2  978   6.263   0.877   0.309
   27SOL     OW  979   0.397   1.512   1.634
   27SOL    HW1  980   0.400   1.565   1.719
   27SOL    HW2  981   0.302   1.495   1.609
   28SOL     OW  982   3.672   1.459   0.176
   28SOL    HW1  983   3.645   1.528   0.109
   28SOL    HW2  984   3.612   1.379   0.167
   29SOL     OW  985   5.570   2.844   1.852
   29SOL    HW1  986   5.478   2.844   1.892
   29SOL    HW2  987   5.612   2.934   1.867
   30SOL     OW  988   3.786   0.795   4.930
   30SOL    HW1  989   3.882   0.774   4.908
   30SOL    HW2  990   3.778   0.891   4.955
   31SOL     OW  991   0.835   1.744   6.099
   31SOL    HW1  992   0.742   1.778   6.112
   31SOL    HW2  993   0.900   1.817   6.117
   32SOL     OW  994   6.757   1.238   3.115
   32SOL    HW1  995   6.668   1.229   3.070
   32SOL    HW2  996   6.830   1.231   3.047
   33SOL     OW  997   2.321   3.407   0.093
   33SOL    HW1  998   2.395   3.451   0.043
   33SOL    HW2  999   2.291   3.325   0.045
   34SOL     OW 1000   1.885   1.491   3.951
   34SOL    HW1 1001   1.904   1.516   3.856
   34SOL    HW2 1002   1.863   1.573   4.004
   35SOL     OW 1003   3.417   2.099   0.080
   35SOL    HW1 1004   3.428   2.199   0.078
   35SOL    HW2 1005   3.365   2.070   7.022
   36SOL     OW 1006   6.986   0.962   6.271
   36SOL    HW1 1007   0.048   1.015   6.263
   36SOL    HW2 1008   6.966   0.945   6.368
   37SOL     OW 1009   1.533   0.254   0.633
   37SOL    HW1 1010   1.441   0.263   0.670
   37SOL    HW2 1011   1.590   0.202   0.696
   38SOL     OW 1012   0.387   4.457   2.149
   38SOL    HW1 1013   0.356   4.516   2.075
   38SOL    HW2 1014   0.443   4.511   2.213
   39SOL     OW 1015   6.710   5.218   6.544
   39SOL    HW1 1016   6.691   5.302   6.494
   39SOL    HW2 1017   6.756   5.240   6.630
   40SOL     OW 1018   5.684   2.407   1.316
   40SOL    HW1 1019   5.677   2.318   1.272
   40SOL    HW2 1020   5.594   2.435   1.351
   41SOL     OW 1021   0.676   6.411   4.070
   41SOL    HW1 1022   0.610   6.454   4.009
   41SOL    HW2 1023   0.748   6.477   4.093
   42SOL     OW 1024   2.204   5.430   6.066
   42SOL    HW1 1025   2.270   5.431   6.141
   42SOL    HW2 1026   2.252   5.429   5.979
   43SOL     OW 1027   5.465   6.500   5.379
   43SOL    HW1 1028   5.467   6.597   5.354
   43SOL    HW2 1029   5.374   6.476   5.414
   44SOL     OW 1030   5.645   2.235   6.265
   44SOL    HW1 1031   5.720   2.169   6.270
   44SOL    HW2 1032   5.674   2.313   6.209
   45SOL     OW 1033   3.616   6.948   3.210
   45SOL    HW1 1034   3.653   6.880   3.273
   45SOL    HW2 1035   3.518   6.961   3.228
   46SOL     OW 1036   1.220   3.328   4.088
   46SOL    HW1 1037   1.219   3.305   4.186
   46SOL    HW2 1038   1.157   3.404   4.072
   47SOL     OW 1039   5.038   4.284   2.011
   47SOL    HW1 1040   4.959   4.224   2.023
   47SOL    HW2 1041   5.071   4.315   2.100
   48SOL     OW 1042   0.023   3.074   5.795
   48SOL    HW1 1043   7.015   2.982   5.818
   48SOL    HW2 1044   6.992   3.141   5.846
   49SOL     OW 1045   4.654   4.066   1.739
   49SOL    HW1 1046   4.573   4.122   1.757
   49SOL    HW2 1047   4.626   3.978   1.701
   50SOL     OW 1048   6.500   2.585   5.961
   50SOL    HW1 1049   6.530   2.547   5.873
   50SOL    HW2 1050   6.404   2.614   5.954
   51SOL     OW 1051   2.938   6.121   2.296
   51SOL    HW1 1052   2.954   6.034   2.343
   51SOL    HW2 1053   3.012   6.185   2.317
   52SOL     OW 1054   5.065   2.618   3.430
   52SOL    HW1 1055   5.089   2.643   3.336
   52SOL    HW2 1056   5.135   2.557   3.467
   53SOL     OW 1057   3.863   0.300   4.679
   53SOL    HW1 1058   3.792   0.270   4.615
   53SOL    HW2 1059   3.851   0.397   4.698
   54SOL     OW 1060   3.781   4.686   0.393
   54SOL    HW1 1061   3.858   4.710   0.333
   54SOL    HW2 1062   3.743   4.598   0.365
   55SOL     OW 1063   3.674   1.412   6.328
   55SOL    HW1 1064   3.701   1.497   6.373
   55SOL    HW2 1065   3.683   1.422   6.229
   56SOL     OW 1066   0.447   6.970   0.990
   56SOL    HW1 1067   0.474   6.970   0.893
   56SOL    HW2 1068   0.444   0.041   1.024
   57SOL     OW 1069   5.552   0.657   0.881
   57SOL    HW1 1070   5.630   0.677   0.940
   57SOL    HW2 1071   5.516   0.566   0.902
   58SOL     OW 1072   6.418   6.865   5.426
   58SOL    HW1 1073   6.443   6.769   5.441
   58SOL    HW2 1074   6.441   6.891   5.332
   59SOL     OW 1075   1.712   1.356   6.289
   59SOL    HW1 1076   1.790   1.295   6.274
   59SOL    HW2 1077   1.632   1.321   6.241
   60SOL     OW 1078   5.892   1.149   6.221
   60SOL    HW1 1079   5.831   1.190   6.290
   60SOL    HW2 1080   5.869   1.053   6.208
   61SOL     OW 1081   5.190   1.673   4.936
   61SOL    HW1 1082   5.155   1.580   4.949
   61SOL    HW2 1083   5.290   1.672   4.940
   62SOL     OW 1084   0.102   0.586   3.581
   62SOL    HW1 1085   0.054   0.670   3.605
   62SOL    HW2 1086   0.194   0.607   3.549
   63SOL     OW 1087   6.152   1.630   3.837
   63SOL    HW1 1088   6.180   1.725   3.828
   63SOL    HW2 1089   6.052   1.625   3.848
   64SOL     OW 1090   0.216   4.059   6.537
   64SOL    HW1 1091   0.235   3.989   6.469
   64SOL    HW2 1092   0.283   4.133   6.530
   65SOL     OW 1093   0.187   4.355   5.544
   65SOL    HW1 1094   0.272   4.372   5.495
   65SOL    HW2 1095   0.132   4.289   5.493
   66SOL     OW 1096   3.771   0.748   6.496
   66SOL    HW1 1097   3.691   0.746   6.555
   66SOL    HW2 1098   3.742   0.759   6.401
   67SOL     OW 1099   5.169   4.285   5.495
   67SOL    HW1 1100   5.192   4.378   5.523
   67SOL    HW2 1101   5.108   4.288   5.417
   68SOL     OW 1102   5.718   0.539   6.660
   68SOL    HW1 1103   5.737   0.519   6.756
   68SOL    HW2 1104   5.728   0.637   6.644
   69SOL     OW 1105   0.666   3.312   6.989
   69SOL    HW1 1106   0.704   3.249   6.922
   69SOL    HW2 1107   0.645   3.263   0.051
   70SOL     OW 1108   5.815   4.831   3.572
   70SOL    HW1 1109   5.742   4.769   3.603
   70SOL    HW2 1110   5.894   4.777   3.544
   71SOL     OW 1111   4.142   1.688   2.402
   71SOL    HW1 1112   4.227   1.639   2.421
   71SOL    HW2 1113   4.065   1.638   2.442
   72SOL     OW 1114   2.923   6.077   5.266
   72SOL    HW1 1115   2.954   6.169   5.291
   72SOL    HW2 1116   2.970   6.047   5.183
   73SOL     OW 1117   3.832   1.058   0.955
   73SOL    HW1 1118   3.899   1.069   1.029
   73SOL    HW2 1119   3.741   1.047   0.995
   74SOL     OW 1120   4.586   6.252   5.838
   74SOL    HW1 1121   4.605   6.189   5.914
   74SOL    HW2 1122   4.664   6.253   5.775
   75SOL     OW 1123   4.185   0.647   6.663
   75SOL    HW1 1124   4.194   0.556   6.624
   75SOL    HW2 1125   4.097   0.657   6.708
   76SOL     OW 1126   2.305   2.513   1.550
   76SOL    HW1 1127   2.298   2.426   1.598
   76SOL    HW2 1128   2.284   2.500   1.453
   77SOL     OW 1129   5.789   6.322   4.083
   77SOL    HW1 1130   5.830   6.298   4.171
   77SOL    HW2 1131   5.709   6.264   4.068
   78SOL     OW 1132   5.856   0.867   5.788
   78SOL    HW1 1133   5.917   0.930   5.836
   78SOL    HW2 1134   5.903   0.780   5.775
   79SOL     OW 1135   3.281   6.793   0.467
   79SOL    HW1 1136   3.278   6.698   0.437
   79SOL    HW2 1137   3.305   6.797   0.564
   80SOL     OW 1138   5.398   1.771   4.218
   80SOL    HW1 1139   5.379   1.781   4.315
   80SOL    HW2 1140   5.433   1.857   4.181
   81SOL     OW 1141   1.783   0.358   2.946
   81SOL    HW1 1142   1.811   0.454   2.947
   81SOL    HW2 1143   1.829   0.311   2.871
   82SOL     OW 1144   6.243   5.063   0.852
   82SOL    HW1 1145   6.158   5.106   0.824
   82SOL    HW2 1146   6.291   5.028   0.771
   83SOL     OW 1147   6.994   0.621   0.548
   83SOL    HW1 1148   0.012   0.614   0.639
   83SOL    HW2 1149   0.042   0.602   0.479
   84SOL     OW 1150   5.318   3.629   3.647
   84SOL    HW1 1151   5.240   3.677   3.608
   84SOL    HW2 1152   5.382   3.604   3.575
   85SOL     OW 1153   1.979   2.030   5.013
   85SOL    HW1 1154   2.019   1.957   4.958
   85SOL    HW2 1155   1.925   2.090   4.954
   86SOL     OW 1156   0.477   0.435   5.662
   86SOL    HW1 1157   0.575   0.429   5.643
   86SOL    HW2 1158   0.447   0.530   5.655
   87SOL     OW 1159   5.080   3.411   0.541
   87SOL    HW1 1160   5.122   3.478   0.602
   87SOL    HW2 1161   5.141   3.394   0.463
   88SOL     OW 1162   3.664   1.901   6.208
   88SOL    HW1 1163   3.755   1.887   6.169
   88SOL    HW2 1164   3.622   1.982   6.168
   89SOL     OW 1165   1.003   2.638   5.687
   89SOL    HW1 1166   1.078   2.611   5.748
   89SOL    HW2 1167   0.967   2.727   5.715
   90SOL     OW 1168   3.898   6.139   3.094
   90SOL    HW1 1169   3.943   6.224   3.068
   90SOL    HW2 1170   3.837   6.155   3.171
   91SOL     OW 1171   4.758   4.324   4.981
   91SOL    HW1 1172   4.760   4.364   5.073
   91SOL    HW2 1173   4.675   4.353   4.933
   92SOL     OW 1174   3.037   4.083   0.441
   92SOL    HW1 1175   3.070   4.171   0.408
   92SOL    HW2 1176   3.060   4.012   0.374
   93SOL     OW 1177   2.275   3.762   6.569
   93SOL    HW1 1178   2.221   3.706   6.506
   93SOL    HW2 1179   2.357   3.795   6.523
   94SOL     OW 1180   2.239   6.178   5.937
   94SOL    HW1 1181   2.288   6.098   5.902
   94SOL    HW2 1182   2.141   6.158   5.942
   95SOL     OW 1183   1.018   0.925   3.297
   95SOL    HW1 1184   0.991   1.020   3.313
   95SOL    HW2 1185   1.082   0.897   3.369
   96SOL     OW 1186   4.146   0.359   5.113
   96SOL    HW1 1187   4.105   0.283   5.063
   96SOL    HW2 1188   4.089   0.382   5.191
   97SOL     OW 1189   1.438   3.411   6.209
   97SOL    HW1 1190   1.516   3.409   6.146
   97SOL    HW2 1191   1.364   3.354   6.173
   98SOL     OW 1192   6.287   3.766   0.396
   98SOL    HW1 1193   6.318   3.751   0.490
   98SOL    HW2 1194   6.366   3.775   0.336
   99SOL     OW 1195   4.660   3.587   1.424
   99SOL    HW1 1196   4.671   3.626   1.333
   99SOL    HW2 1197   4.747   3.551   1.456
  100SOL     OW 1198   0.108   0.250   5.524
  100SOL    HW1 1199   0.206   0.264   5.513
  100SOL    HW2 1200   0.075   0.185   5.455
  101SOL     OW 1201   1.778   5.771   2.428
  101SOL    HW1 1202   1.834   5.789   2.509
  101SOL    HW2 1203   1.683   5.799   2.447
  102SOL     OW 1204   4.231   0.119   2.285
  102SOL    HW1 1205   4.218   0.217   2.299
  102SOL    HW2 1206   4.162   0.085   2.221
  103SOL     OW 1207   3.271   1.369   2.377
  103SOL    HW1 1208   3.301   1.326   2.462
  103SOL    HW2 1209   3.297   1.311   2.300
  104SOL     OW 1210   0.401   5.093   2.249
  104SOL    HW1 1211   0.501   5.081   2.248
  104SOL    HW2 1212   0.378   5.181   2.206
  105SOL     OW 1213   6.688   3.063   6.599
  105SOL    HW1 1214   6.708   3.151   6.555
  105SOL    HW2 1215   6.691   2.991   6.530
  106SOL     OW 1216   3.568   6.017   4.594
  106SOL    HW1 1217   3.647   5.956   4.590
  106SOL    HW2 1218   3.587   6.099   4.541
  107SOL     OW 1219   1.604   1.350   1.978
  107SOL    HW1 1220   1.677   1.418   1.985
  107SOL    HW2 1221   1.606   1.292   2.059
  108SOL     OW 1222   3.882   5.209   5.465
  108SOL    HW1 1223   3.842   5.120   5.446
  108SOL    HW2 1224   3.980   5.207   5.442
  109SOL     OW 1225   0.532   0.809   1.642
  109SOL    HW1 1226   0.603   0.778   1.578
  109SOL    HW2 1227   0.490   0.892   1.607
  110SOL     OW 1228   3.665   6.056   5.541
  110SOL    HW1 1229   3.583   6.102   5.577
  110SOL    HW2 1230   3.711   6.008   5.615
  111SOL     OW 1231   3.405   0.615   4.692
  111SOL    HW1 1232   3.496   0.642   4.724
  111SOL    HW2 1233   3.339   0.685   4.717
  112SOL     OW 1234   5.438   6.731   6.167
  112SOL    HW1 1235   5.351   6.706   6.210
  112SOL    HW2 1236   5.433   6.712   6.069
  113SOL     OW 1237   5.768   5.053   3.378
  113SOL    HW1 1238   5.764   4.976   3.441
  113SOL    HW2 1239   5.855   5.101   3.389
  114SOL     OW 1240   0.801   6.871   0.968
  114SOL    HW1 1241   0.853   6.884   0.884
  114SOL    HW2 1242   0.733   6.798   0.954
  115SOL     OW 1243   3.786   1.548   3.191
  115SOL    HW1 1244   3.746   1.604   3.264
  115SOL    HW2 1245   3.877   1.517   3.219
  116SOL     OW 1246   6.035   5.307   1.909
  116SOL    HW1 1247   5.981   5.390   1.927
  116SOL    HW2 1248   6.065   5.268   1.996
  117SOL     OW 1249   1.507   1.334   0.501
  117SOL    HW1 1250   1.416   1.362   0.470
  117SOL    HW2 1251   1.534   1.250   0.453
  118SOL     OW 1252   1.580   1.512   3.092
  118SOL    HW1 1253   1.553   1.487   3.185
  118SOL    HW2 1254   1.646   1.587   3.095
  119SOL     OW 1255   0.979   1.390   6.629
  119SOL    HW1 1256   0.941   1.471   6.673
  119SOL    HW2 1257   1.078   1.389   6.638
  120SOL     OW 1258   6.552   6.684   0.169
  120SOL    HW1 1259   6.517   6.738   0.245
  120SOL    HW2 1260   6.633   6.633   0.198
  121SOL     OW 1261   2.096   3.577   6.419
  121SOL    HW1 1262   2.150   3.552   6.339
  121SOL    HW2 1263   2.081   3.496   6.475
  122SOL     OW 1264   1.605   4.424   6.830
  122SOL    HW1 1265   1.683   4.471   6.788
  122SOL    HW2 1266   1.590   4.461   6.922
  123SOL     OW 1267   0.170   1.520   1.499
  123SOL    HW1 1268   0.186   1.541   1.402
  123SOL    HW2 1269   0.077   1.485   1.510
  124SOL     OW 1270   5.101   2.998   0.744
  124SOL    HW1 1271   5.093   3.060   0.666
  124SOL    HW2 1272   5.135   3.049   0.823
  125SOL     OW 1273   2.823   1.425   2.337
  125SOL    HW1 1274   2.789   1.425   2.243
  125SOL    HW2 1275   2.895   1.494   2.346
  126SOL     OW 1276   2.641   3.737   1.242
  126SOL    HW1 1277   2.615   3.661   1.301
  126SOL    HW2 1278   2.685   3.808   1.296
  127SOL     OW 1279   0.219   5.451   5.835
  127SOL    HW1 1280   0.193   5.446   5.931
  127SOL    HW2 1281   0.138   5.470   5.779
  128SOL     OW 1282   4.752   2.354   0.975
  128SOL    HW1 1283   4.757   2.298   1.058
  128SOL    HW2 1284   4.734   2.296   0.896
  129SOL     OW 1285   3.411   2.732   5.819
  129SOL    HW1 1286   3.355   2.689   5.749
  129SOL    HW2 1287   3.352   2.774   5.888
  130SOL     OW 1288   0.648   0.903   4.083
  130SOL    HW1 1289   0.642   0.807   4.057
  130SOL    HW2 1290   0.742   0.925   4.110
  131SOL     OW 1291   4.964   2.008   3.601
  131SOL    HW1 1292   5.036   1.964   3.655
  131SOL    HW2 1293   4.874   1.974   3.632
  132SOL     OW 1294   2.506   2.719   0.946
  132SOL    HW1 1295   2.452   2.676   0.873
  132SOL    HW2 1296   2.488   2.817   0.947
  133SOL     OW 1297   4.889   6.687   4.214
  133SOL    HW1 1298   4.877   6.735   4.301
  133SOL    HW2 1299   4.969   6.627   4.220
  134SOL     OW 1300   6.170   1.412   2.231
  134SOL    HW1 1301   6.124   1.394   2.145
  134SOL    HW2 1302   6.224   1.332   2.259
  135SOL     OW 1303   5.692   3.704   3.060
  135SOL    HW1 1304   5.779   3.752   3.046
  135SOL    HW2 1305   5.663   3.663   2.974
  136SOL     OW 1306   3.307   3.982   6.381
  136SOL    HW1 1307   3.367   3.902   6.377
  136SOL    HW2 1308   3.360   4.062   6.408
  137SOL     OW 1309   5.363   1.422   4.962
  137SOL    HW1 1310   5.271   1.386   4.948
  137SOL    HW2 1311   5.366   1.471   5.049
  138SOL     OW 1312   0.427   4.763   3.172
  138SOL    HW1 1313   0.486   4.781   3.093
  138SOL    HW2 1314   0.339   4.808   3.159
  139SOL     OW 1315   2.136   6.633   5.020
  139SOL    HW1 1316   2.040   6.644   4.995
  139SOL    HW2 1317   2.187   6.716   4.998
  140SOL     OW 1318   0.858   5.718   3.328
  140SOL    HW1 1319   0.774   5.667   3.341
  140SOL    HW2 1320   0.922   5.664   3.273
  141SOL     OW 1321   6.043   3.431   4.768
  141SOL    HW1 1322   5.988   3.387   4.697
  141SOL    HW2 1323   6.123   3.475   4.727
  142SOL     OW 1324   1.938   4.148   0.776
  142SOL    HW1 1325   1.974   4.135   0.868
  142SOL    HW2 1326   1.906   4.061   0.740
  143SOL     OW 1327   5.525   4.427   1.546
  143SOL    HW1 1328   5.591   4.440   1.472
  143SOL    HW2 1329   5.438   4.470   1.521
  144SOL     OW 1330   1.559   6.055   6.563
  144SOL    HW1 1331   1.658   6.054   6.576
  144SOL    HW2 1332   1.537   6.077   6.468
  145SOL     OW 1333   0.252   5.567   0.427
  145SOL    HW1 1334   0.153   5.567   0.443
  145SOL    HW2 1335   0.272   5.516   0.343
  146SOL     OW 1336   5.113   0.551   6.550
  146SOL    HW1 1337   5.186   0.483   6.542
  146SOL    HW2 1338   5.025   0.509   6.526
  147SOL     OW 1339   6.079   4.001   6.288
  147SOL    HW1 1340   6.065   3.902   6.283
  147SOL    HW2 1341   5.991   4.047   6.277
  148SOL     OW 1342   0.141   5.634   6.336
  148SOL    HW1 1343   0.217   5.588   6.289
  148SOL    HW2 1344   0.096   5.570   6.397
  149SOL     OW 1345   2.946   1.921   4.848
  149SOL    HW1 1346   3.010   1.861   4.799
  149SOL    HW2 1347   2.940   2.009   4.800
  150SOL     OW 1348   5.979   5.753   6.460
  150SOL    HW1 1349   5.948   5.701   6.381
  150SOL    HW2 1350   5.902   5.772   6.521
  151SOL     OW 1351   3.514   2.536   1.117
  151SOL    HW1 1352   3.495   2.525   1.214
  151SOL    HW2 1353   3.505   2.447   1.071
  152SOL     OW 1354   1.485   0.984   3.190
  152SOL    HW1 1355   1.418   1.034   3.135
  152SOL    HW2 1356   1.496   1.030   3.279
  153SOL     OW 1357   3.233   0.370   1.598
  153SOL    HW1 1358   3.242   0.436   1.673
  153SOL    HW2 1359   3.145   0.322   1.606
  154SOL     OW 1360   0.534   1.980   2.947
  154SOL    HW1 1361   0.468   1.922   2.899
  154SOL    HW2 1362   0.506   1.989   3.043
  155SOL     OW 1363   6.409   1.505   3.577
  155SOL    HW1 1364   6.312   1.483   3.569
  155SOL    HW2 1365   6.453   1.495   3.487
  156SOL     OW 1366   0.014   2.136   0.587
  156SOL    HW1 1367   0.062   2.156   0.502
  156SOL    HW2 1368   0.079   2.106   0.657
  157SOL     OW 1369   6.146   3.446   1.299
  157SOL    HW1 1370   6.240   3.418   1.281
  157SOL    HW2 1371   6.099   3.375   1.351
  158SOL     OW 1372   2.419   6.191   2.211
  158SOL    HW1 1373   2.361   6.215   2.289
  158SOL    HW2 1374   2.408   6.094   2.190
  159SOL     OW 1375   4.396   4.552   2.003
  159SOL    HW1 1376   4.456   4.472   2.006
  159SOL    HW2 1377   4.432   4.624   2.061
  160SOL     OW 1378   6.508   5.490   0.419
  160SOL    HW1 1379   6.494   5.530   0.328
  160SOL    HW2 1380   6.558   5.404   0.409
  161SOL     OW 1381   2.029   5.720   4.591
  161SOL    HW1 1382   2.087   5.645   4.560
  161SOL    HW2 1383   1.965   5.686   4.660
  162SOL     OW 1384   3.984   6.825   7.017
  162SOL    HW1 1385   4.023   6.860   6.932
  162SOL    HW2 1386   4.035   6.743   0.023
  163SOL     OW 1387   5.585   6.185   0.966
  163SOL    HW1 1388   5.551   6.098   1.002
  163SOL    HW2 1389   5.679   6.173   0.933
  164SOL     OW 1390   6.428   4.392   7.002
  164SOL    HW1 1391   6.487   4.467   0.008
  164SOL    HW2 1392   6.451   4.364   6.909
  165SOL     OW 1393   5.140   2.706   1.532
  165SOL    HW1 1394   5.043   2.684   1.542
  165SOL    HW2 1395   5.186   2.689   1.620
  166SOL     OW 1396   6.700   5.053   3.666
  166SOL    HW1 1397   6.612   5.005   3.665
  166SOL    HW2 1398   6.719   5.090   3.575
  167SOL     OW 1399   5.687   2.684   6.687
  167SOL    HW1 1400   5.722   2.670   6.780
  167SOL    HW2 1401   5.591   2.711   6.693
  168SOL     OW 1402   2.312   3.209   1.317
  168SOL    HW1 1403   2.382   3.246   1.256
  168SOL    HW2 1404   2.252   3.283   1.347
  169SOL     OW 1405   4.239   0.634   1.630
  169SOL    HW1 1406   4.234   0.653   1.532
  169SOL    HW2 1407   4.210   0.714   1.682
  170SOL     OW 1408   0.815   0.908   3.550
  170SOL    HW1 1409   0.831   0.944   3.458
  170SOL    HW2 1410   0.752   0.830   3.545
  171SOL     OW 1411   3.570   4.813   0.265
  171SOL    HW1 1412   3.627   4.779   0.340
  171SOL    HW2 1413   3.476   4.782   0.279
  172SOL     OW 1414   5.858   1.787   4.202
  172SOL    HW1 1415   5.762   1.777   4.178
  172SOL    HW2 1416   5.902   1.697   4.203
  173SOL     OW 1417   6.888   2.246   4.413
  173SOL    HW1 1418   6.815   2.249   4.482
  173SOL    HW2 1419   6.945   2.165   4.429
  174SOL     OW 1420   3.611   5.417   4.744
  174SOL    HW1 1421   3.618   5.509   4.705
  174SOL    HW2 1422   3.685   5.402   4.809
  175SOL     OW 1423   2.294   7.017   2.179
  175SOL    HW1 1424   2.280   0.093   2.173
  175SOL    HW2 1425   2.226   6.977   2.241
  176SOL     OW 1426   1.233   4.170   1.225
  176SOL    HW1 1427   1.271   4.081   1.253
  176SOL    HW2 1428   1.164   4.155   1.154
  177SOL     OW 1429   5.923   3.113   2.691
  177SOL    HW1 1430   5.980   3.031   2.697
  177SOL    HW2 1431   5.976   3.193   2.722
  178SOL     OW 1432   2.882   2.864   6.328
  178SOL    HW1 1433   2.804   2.856   6.265
  178SOL    HW2 1434   2.888   2.957   6.362
  179SOL     OW 1435   2.455   1.459   6.109
  179SOL    HW1 1436   2.470   1.419   6.019
  179SOL    HW2 1437   2.543   1.471   6.156
  180SOL     OW 1438   1.540   6.941   6.841
  180SOL    HW1 1439   1.626   6.898   6.868
  180SOL    HW2 1440   1.504   6.893   6.760
  181SOL     OW 1441   3.258   1.955   5.937
  181SOL    HW1 1442   3.187   1.965   6.007
  181SOL    HW2 1443   3.278   2.044   5.897
  182SOL     OW 1444   3.408   1.258   3.929
  182SOL    HW1 1445   3.351   1.320   3.984
  182SOL    HW2 1446   3.476   1.215   3.988
  183SOL     OW 1447   3.682   2.128   3.428
  183SOL    HW1 1448   3.653   2.193   3.358
  183SOL    HW2 1449   3.602   2.082   3.467
  184SOL     OW 1450   2.049   6.257   4.210
  184SOL    HW1 1451   2.075   6.172   4.164
  184SOL    HW2 1452   2.108   6.332   4.178
  185SOL     OW 1453   0.212   1.599   6.275
  185SOL    HW1 1454   0.174   1.620   6.365
  185SOL    HW2 1455   0.157   1.529   6.231
  186SOL     OW 1456   6.012   1.049   4.019
  186SOL    HW1 1457   5.978   0.962   3.982
  186SOL    HW2 1458   6.012   1.118   3.948
  187SOL     OW 1459   4.777   0.444   2.908
  187SOL    HW1 1460   4.700   0.415   2.965
  187SOL    HW2 1461   4.752   0.525   2.856
  188SOL     OW 1462   6.833   2.147   2.500
  188SOL    HW1 1463   6.904   2.084   2.469
  188SOL    HW2 1464   6.747   2.097   2.512
  189SOL     OW 1465   2.352   5.404   1.738
  189SOL    HW1 1466   2.422   5.354   1.789
  189SOL    HW2 1467   2.396   5.456   1.665
  190SOL     OW 1468   4.582   1.507   4.215
  190SOL    HW1 1469   4.579   1.509   4.115
  190SOL    HW2 1470   4.665   1.552   4.247
  191SOL     OW 1471   5.401   5.720   6.528
  191SOL    HW1 1472   5.427   5.679   6.441
  191SOL    HW2 1473   5.347   5.654   6.581
  192SOL     OW 1474   0.321   5.754   1.724
  192SOL    HW1 1475   0.402   5.803   1.692
  192SOL    HW2 1476   0.338   5.719   1.816
  193SOL     OW 1477   4.639   2.931   5.580
  193SOL    HW1 1478   4.561   2.886   5.623
  193SOL    HW2 1479   4.632   2.922   5.481
  194SOL     OW 1480   4.091   0.651   2.598
  194SOL    HW1 1481   4.060   0.717   2.666
  194SOL    HW2 1482   4.069   0.684   2.506
  195SOL     OW 1483   1.658   6.957   4.875
  195SOL    HW1 1484   1.621   6.954   4.782
  195SOL    HW2 1485   1.758   6.949   4.872
  196SOL     OW 1486   2.512   1.206   6.484
  196SOL    HW1 1487   2.476   1.299   6.491
  196SOL    HW2 1488   2.591   1.205   6.422
  197SOL     OW 1489   2.397   0.274   0.777
  197SOL    HW1 1490   2.426   0.235   0.690
  197SOL    HW2 1491   2.335   0.209   0.823
  198SOL     OW 1492   4.669   0.671   2.804
  198SOL    HW1 1493   4.642   0.761   2.839
  198SOL    HW2 1494   4.719   0.682   2.719
  199SOL     OW 1495   0.785   2.282   4.106
  199SOL    HW1 1496   0.800   2.254   4.200
  199SOL    HW2 1497   0.839   2.225   4.045
  200SOL     OW 1498   1.422   3.711   0.627
  200SOL    HW1 1499   1.424   3.688   0.724
  200SOL    HW2 1500   1.368   3.795   0.614
  201SOL     OW 1501   0.419   6.548   5.931
  201SOL    HW1 1502   0.357   6.485   5.884
  201SOL    HW2 1503   0.494   6.497   5.971
  202SOL     OW 1504   3.811   1.785   6.654
  202SOL    HW1 1505   3.865   1.712   6.695
  202SOL    HW2 1506   3.784   1.851   6.724
  203SOL     OW 1507   6.254   2.185   5.141
  203SOL    HW1 1508   6.226   2.132   5.061
  203SOL    HW2 1509   6.270   2.123   5.218
  204SOL     OW 1510   0.693   0.109   4.577
  204SOL    HW1 1511   0.694   0.019   4.534
  204SOL    HW2 1512   0.687   0.098   4.677
  205SOL     OW 1513   0.845   2.744   3.145
  205SOL    HW1 1514   0.886   2.809   3.208
  205SOL    HW2 1515   0.825   2.659   3.193
  206SOL     OW 1516   0.616   3.863   1.125
  206SOL    HW1 1517   0.633   3.928   1.051
  206SOL    HW2 1518   0.697   3.857   1.184
  207SOL     OW 1519   5.703   1.214   4.261
  207SOL    HW1 1520   5.680   1.168   4.175
  207SOL    HW2 1521   5.767   1.288   4.243
  208SOL     OW 1522   0.160   4.563   5.932
  208SOL    HW1 1523   0.105   4.521   5.860
  208SOL    HW2 1524   0.257   4.546   5.915
  209SOL     OW 1525   0.157   4.856   3.620
  209SOL    HW1 1526   0.188   4.931   3.562
  209SOL    HW2 1527   0.082   4.887   3.678
  210SOL     OW 1528   4.313   2.004   0.305
  210SOL    HW1 1529   4.388   2.069   0.310
  210SOL    HW2 1530   4.239   2.033   0.366
  211SOL     OW 1531   1.353   6.202   1.726
  211SOL    HW1 1532   1.384   6.155   1.808
  211SOL    HW2 1533   1.279   6.265   1.748
  212SOL     OW 1534   1.493   3.480   2.128
  212SOL    HW1 1535   1.471   3.385   2.150
  212SOL    HW2 1536   1.460   3.539   2.202
  213SOL     OW 1537   2.919   6.565   0.786
  213SOL    HW1 1538   2.918   6.589   0.689
  213SOL    HW2 1539   3.013   6.573   0.821
  214SOL     OW 1540   3.521   5.829   3.102
  214SOL    HW1 1541   3.459   5.756   3.130
  214SOL    HW2 1542   3.510   5.846   3.004
  215SOL     OW 1543   2.995   3.935   0.839
  215SOL    HW1 1544   2.995   3.838   0.864
  215SOL    HW2 1545   3.037   3.947   0.749
  216SOL     OW 1546   0.479   5.787   3.161
  216SOL    HW1 1547   0.546   5.858   3.184
  216SOL    HW2 1548   0.392   5.806   3.206
  217SOL     OW 1549   1.397   2.747   4.589
  217SOL    HW1 1550   1.359   2.839   4.583
  217SOL    HW2 1551   1.496   2.751   4.571
  218SOL     OW 1552   1.024   2.676   4.378
  218SOL    HW1 1553   0.972   2.718   4.304
  218SOL    HW2 1554   1.017   2.734   4.460
  219SOL     OW 1555   4.331   6.937   0.069
  219SOL    HW1 1556   4.418   6.929   0.021
  219SOL    HW2 1557   4.277   6.854   0.056
  220SOL     OW 1558   2.875   6.863   1.493
  220SOL    HW1 1559   2.882   6.813   1.406
  220SOL    HW2 1560   2.817   6.943   1.481
  221SOL     OW 1561   5.530   4.126   0.996
  221SOL    HW1 1562   5.510   4.173   1.083
  221SOL    HW2 1563   5.549   4.194   0.925
  222SOL     OW 1564   1.265   5.268   5.498
  222SOL    HW1 1565   1.265   5.169   5.481
  222SOL    HW2 1566   1.285   5.316   5.412
  223SOL     OW 1567   6.958   3.424   5.951
  223SOL    HW1 1568   6.894   3.500   5.950
  223SOL    HW2 1569   6.988   3.406   6.044
  224SOL     OW 1570   3.081   1.760   6.211
  224SOL    HW1 1571   2.999   1.731   6.260
  224SOL    HW2 1572   3.062   1.845   6.162
  225SOL     OW 1573   4.441   4.014   6.453
  225SOL    HW1 1574   4.400   3.987   6.541
  225SOL    HW2 1575   4.395   4.096   6.420
  226SOL     OW 1576   0.464   1.525   5.782
  226SOL    HW1 1577   0.435   1.497   5.874
  226SOL    HW2 1578   0.540   1.468   5.752
  227SOL     OW 1579   0.847   3.718   2.143
  227SOL    HW1 1580   0.897   3.647   2.094
  227SOL    HW2 1581   0.861   3.707   2.241
  228SOL     OW 1582   2.073   0.119   2.521
  228SOL    HW1 1583   2.029   0.209   2.516
  228SOL    HW2 1584   2.172   0.130   2.523
  229SOL     OW 1585   5.862   5.925   5.982
  229SOL    HW1 1586   5.788   5.858   5.980
  229SOL    HW2 1587   5.831   6.007   6.030
  230SOL     OW 1588   3.804   5.733   4.088
  230SOL    HW1 1589   3.893   5.759   4.126
  230SOL    HW2 1590   3.731   5.785   4.133
  231SOL     OW 1591   6.224   0.881   6.677
  231SOL    HW1 1592   6.268   0.931   6.602
  231SOL    HW2 1593   6.231   0.783   6.660
  232SOL     OW 1594   0.142   3.343   6.924
  232SOL    HW1 1595   0.075   3.387   6.984
  232SOL    HW2 1596   0.121   3.367   6.829
  233SOL     OW 1597   3.701   1.056   2.730
  233SOL    HW1 1598   3.791   1.038   2.770
  233SOL    HW2 1599   3.649   1.116   2.791
  234SOL     OW 1600   5.159   1.041   6.341
  234SOL    HW1 1601   5.104   1.121   6.363
  234SOL    HW2 1602   5.117   0.991   6.265
  235SOL     OW 1603   4.855   2.986   2.254
  235SOL    HW1 1604   4.950   3.018   2.252
  235SOL    HW2 1605   4.819   2.987   2.160
  236SOL     OW 1606   5.398   3.107   6.897
  236SOL    HW1 1607   5.310   3.062   6.914
  236SOL    HW2 1608   5.448   3.114   6.983
  237SOL     OW 1609   0.287   4.224   2.205
  237SOL    HW1 1610   0.211   4.194   2.148
  237SOL    HW2 1611   0.315   4.316   2.178
  238SOL     OW 1612   5.574   1.633   0.306
  238SOL    HW1 1613   5.518   1.604   0.228
  238SOL    HW2 1614   5.671   1.619   0.285
  239SOL     OW 1615   0.688   4.043   6.605
  239SOL    HW1 1616   0.762   3.982   6.632
  239SOL    HW2 1617   0.600   3.997   6.618
  240SOL     OW 1618   0.515   2.802   3.217
  240SOL    HW1 1619   0.436   2.744   3.199
  240SOL    HW2 1620   0.593   2.745   3.243
  241SOL     OW 1621   2.914   2.203   4.888
  241SOL    HW1 1622   2.867   2.264   4.825
  241SOL    HW2 1623   3.002   2.242   4.913
  242SOL     OW 1624   3.438   4.193   4.510
  242SOL    HW1 1625   3.533   4.183   4.542
  242SOL    HW2 1626   3.375   4.178   4.586
  243SOL     OW 1627   4.883   0.761   0.160
  243SOL    HW1 1628   4.792   0.722   0.147
  243SOL    HW2 1629   4.876   0.844   0.214
  244SOL     OW 1630   6.339   3.776   5.752
  244SOL    HW1 1631   6.272   3.717   5.799
  244SOL    HW2 1632   6.428   3.730   5.750
  245SOL     OW 1633   4.767   1.986   4.312
  245SOL    HW1 1634   4.807   1.949   4.228
  245SOL    HW2 1635   4.824   2.061   4.346
  246SOL     OW 1636   4.654   2.268   3.467
  246SOL    HW1 1637   4.692   2.286   3.558
  246SOL    HW2 1638   4.663   2.171   3.445
  247SOL     OW 1639   2.694   2.008   0.741
  247SOL    HW1 1640   2.697   1.914   0.773
  247SOL    HW2 1641   2.784   2.035   0.707
  248SOL     OW 1642   3.550   1.249   2.851
  248SOL    HW1 1643   3.568   1.273   2.947
  248SOL    HW2 1644   3.596   1.314   2.791
  249SOL     OW 1645   5.430   0.030   5.108
  249SOL    HW1 1646   5.512   0.030   5.165
  249SOL    HW2 1647   5.456   0.034   5.011
  250SOL     OW 1648   4.878   3.316   0.028
  250SOL    HW1 1649   4.972   3.298   0.057
  250SOL    HW2 1650   4.830   3.365   0.100
  251SOL     OW 1651   4.593   3.408   5.396
  251SOL    HW1 1652   4.500   3.444   5.393
  251SOL    HW2 1653   4.650   3.453   5.328
  252SOL     OW 1654   6.784   6.468   5.037
  252SOL    HW1 1655   6.869   6.516   5.018
  252SOL    HW2 1656   6.796   6.410   5.118
  253SOL     OW 1657   2.946   5.326   5.928
  253SOL    HW1 1658   2.877   5.258   5.904
  253SOL    HW2 1659   2.915   5.379   6.007
  254SOL     OW 1660   6.374   2.583   4.062
  254SOL    HW1 1661   6.349   2.493   4.098
  254SOL    HW2 1662   6.302   2.649   4.085
  255SOL     OW 1663   2.102   5.074   5.553
  255SOL    HW1 1664   2.096   5.171   5.533
  255SOL    HW2 1665   2.034   5.050   5.622
  256SOL     OW 1666   5.969   4.092   5.800
  256SOL    HW1 1667   6.015   4.167   5.753
  256SOL    HW2 1668   5.872   4.113   5.810
  257SOL     OW 1669   4.909   0.511   3.507
  257SOL    HW1 1670   4.991   0.505   3.451
  257SOL    HW2 1671   4.845   0.576   3.466
  258SOL     OW 1672   2.167   4.962   5.113
  258SOL    HW1 1673   2.229   4.885   5.099
  258SOL    HW2 1674   2.128   4.956   5.205
  259SOL     OW 1675   6.463   1.341   2.990
  259SOL    HW1 1676   6.394   1.348   2.918
  259SOL    HW2 1677   6.473   1.245   3.018
  260SOL     OW 1678   4.225   6.523   2.541
  260SOL    HW1 1679   4.285   6.517   2.620
  260SOL    HW2 1680   4.166   6.442   2.537
  261SOL     OW 1681   6.131   3.332   0.777
  261SOL    HW1 1682   6.093   3.410   0.728
  261SOL    HW2 1683   6.076   3.251   0.760
  262SOL     OW 1684   0.660   3.737   0.091
  262SOL    HW1 1685   0.568   3.761   0.059
  262SOL    HW2 1686   0.686   3.797   0.166
  263SOL     OW 1687   2.368   0.580   4.921
  263SOL    HW1 1688   2.352   0.482   4.936
  263SOL    HW2 1689   2.287   0.631   4.949
  264SOL     OW 1690   6.065   3.147   6.543
  264SOL    HW1 1691   6.105   3.238   6.557
  264SOL    HW2 1692   6.064   3.126   6.445
  265SOL     OW 1693   5.785   6.406   2.800
  265SOL    HW1 1694   5.862   6.347   2.826
  265SOL    HW2 1695   5.768   6.398   2.702
  266SOL     OW 1696   3.676   2.726   5.774
  266SOL    HW1 1697   3.723   2.812   5.754
  266SOL    HW2 1698   3.579   2.744   5.789
  267SOL     OW 1699   0.905   1.587   6.314
  267SOL    HW1 1700   0.875   1.629   6.228
  267SOL    HW2 1701   0.845   1.616   6.388
  268SOL     OW 1702   3.338   1.310   6.230
  268SOL    HW1 1703   3.295   1.231   6.187
  268SOL    HW2 1704   3.318   1.393   6.177
  269SOL     OW 1705   1.634   3.663   1.153
  269SOL    HW1 1706   1.677   3.628   1.237
  269SOL    HW2 1707   1.705   3.688   1.087
  270SOL     OW 1708   1.579   5.926   0.551
  270SOL    HW1 1709   1.561   6.021   0.577
  270SOL    HW2 1710   1.612   5.876   0.631
  271SOL     OW 1711   6.916   1.457   6.646
  271SOL    HW1 1712   6.852   1.402   6.592
  271SOL    HW2 1713   6.874   1.482   6.733
  272SOL     OW 1714   3.450   5.689   3.918
  272SOL    HW1 1715   3.532   5.634   3.901
  272SOL    HW2 1716   3.413   5.720   3.830
  273SOL     OW 1717   2.683   4.745   4.459
  273SOL    HW1 1718   2.726   4.764   4.548
  273SOL    HW2 1719   2.584   4.747   4.469
  274SOL     OW 1720   4.096   1.821   3.143
  274SOL    HW1 1721   4.037   1.901   3.137
  274SOL    HW2 1722   4.083   1.763   3.062
  275SOL     OW 1723   6.793   5.544   3.804
  275SOL    HW1 1724   6.722   5.614   3.812
  275SOL    HW2 1725   6.774   5.469   3.868
  276SOL     OW 1726   6.943   6.449   2.421
  276SOL    HW1 1727   6.964   6.356   2.450
  276SOL    HW2 1728   6.862   6.482   2.471
  277SOL     OW 1729   1.310   4.044   0.592
  277SOL    HW1 1730   1.301   3.994   0.506
  277SOL    HW2 1731   1.247   4.121   0.593
  278SOL     OW 1732   0.462   4.513   1.724
  278SOL    HW1 1733   0.440   4.585   1.789
  278SOL    HW2 1734   0.501   4.435   1.772
  279SOL     OW 1735   5.707   3.186   4.384
  279SOL    HW1 1736   5.614   3.218   4.371
  279SOL    HW2 1737   5.717   3.094   4.345
  280SOL     OW 1738   2.864   6.212   3.170
  280SOL    HW1 1739   2.873   6.114   3.190
  280SOL    HW2 1740   2.872   6.264   3.255
  281SOL     OW 1741   2.543   4.519   1.824
  281SOL    HW1 1742   2.642   4.523   1.819
  281SOL    HW2 1743   2.514   4.432   1.863
  282SOL     OW 1744   3.034   1.307   5.620
  282SOL    HW1 1745   3.040   1.369   5.697
  282SOL    HW2 1746   3.124   1.297   5.578
  283SOL     OW 1747   5.788   2.496   6.488
  283SOL    HW1 1748   5.761   2.553   6.566
  283SOL    HW2 1749   5.875   2.527   6.452
  284SOL     OW 1750   1.353   4.158   3.682
  284SOL    HW1 1751   1.349   4.115   3.772
  284SOL    HW2 1752   1.265   4.202   3.662
  285SOL     OW 1753   5.832   5.032   4.255
  285SOL    HW1 1754   5.892   4.957   4.284
  285SOL    HW2 1755   5.746   4.994   4.221
  286SOL     OW 1756   3.560   4.913   6.235
  286SOL    HW1 1757   3.644   4.929   6.182
  286SOL    HW2 1758   3.579   4.924   6.332
  287SOL     OW 1759   0.757   3.473   1.346
  287SOL    HW1 1760   0.686   3.531   1.307
  287SOL    HW2 1761   0.759   3.385   1.298
  288SOL     OW 1762   2.997   1.285   6.902
  288SOL    HW1 1763   2.984   1.367   6.957
  288SOL    HW2 1764   3.090   1.282   6.867
  289SOL     OW 1765   2.053   4.482   5.923
  289SOL    HW1 1766   2.111   4.421   5.870
  289SOL    HW2 1767   2.009   4.548   5.863
  290SOL     OW 1768   6.441   1.868   4.686
  290SOL    HW1 1769   6.412   1.959   4.656
  290SOL    HW2 1770   6.400   1.848   4.775
  291SOL     OW 1771   1.208   2.365   4.868
  291SOL    HW1 1772   1.197   2.444   4.808
  291SOL    HW2 1773   1.212   2.281   4.813
  292SOL     OW 1774   1.552   2.200   3.386
  292SOL    HW1 1775   1.548   2.161   3.478
  292SOL    HW2 1776   1.461   2.198   3.345
  293SOL     OW 1777   4.117   6.143   2.782
  293SOL    HW1 1778   4.025   6.170   2.810
  293SOL    HW2 1779   4.127   6.044   2.793
  294SOL     OW 1780   0.333   6.207   6.822
  294SOL    HW1 1781   0.432   6.202   6.812
  294SOL    HW2 1782   0.298   6.120   6.856
  295SOL     OW 1783   3.680   0.992   3.658
  295SOL    HW1 1784   3.585   0.990   3.690
  295SOL    HW2 1785   3.682   0.975   3.559
  296SOL     OW 1786   3.898   2.003   3.212
  296SOL    HW1 1787   3.849   1.983   3.127
  296SOL    HW2 1788   3.846   1.967   3.290
  297SOL     OW 1789   2.818   4.789   3.583
  297SOL    HW1 1790   2.851   4.744   3.499
  297SOL    HW2 1791   2.733   4.746   3.612
  298SOL     OW 1792   3.489   5.544   1.866
  298SOL    HW1 1793   3.450   5.629   1.900
  298SOL    HW2 1794   3.417   5.478   1.849
  299SOL     OW 1795   5.881   3.505   6.343
  299SOL    HW1 1796   5.824   3.423   6.348
  299SOL    HW2 1797   5.948   3.494   6.269
  300SOL     OW 1798   6.339   0.936   2.512
  300SOL    HW1 1799   6.274   0.958   2.440
  300SOL    HW2 1800   6.385   0.850   2.491
  301SOL     OW 1801   4.841   3.302   1.357
  301SOL    HW1 1802   4.907   3.293   1.431
  301SOL    HW2 1803   4.883   3.350   1.280
  302SOL     OW 1804   1.343   0.199   3.124
  302SOL    HW1 1805   1.422   0.160   3.076
  302SOL    HW2 1806   1.315   0.283   3.078
  303SOL     OW 1807   6.053   0.522   2.072
  303SOL    HW1 1808   5.999   0.557   2.149
  303SOL    HW2 1809   6.005   0.445   2.030
  304SOL     OW 1810   2.203   0.107   3.510
  304SOL    HW1 1811   2.232   0.192   3.554
  304SOL    HW2 1812   2.275   0.038   3.519
  305SOL     OW 1813   0.232   3.585   0.268
  305SOL    HW1 1814   0.230   3.619   0.174
  305SOL    HW2 1815   0.326   3.589   0.302
  306SOL     OW 1816   1.648   0.424   3.968
  306SOL    HW1 1817   1.723   0.366   3.999
  306SOL    HW2 1818   1.671   0.463   3.878
  307SOL     OW 1819   4.744   6.898   0.560
  307SOL    HW1 1820   4.664   6.932   0.609
  307SOL    HW2 1821   4.822   6.894   0.622
  308SOL     OW 1822   6.427   3.782   4.942
  308SOL    HW1 1823   6.421   3.871   4.896
  308SOL    HW2 1824   6.349   3.725   4.915
  309SOL     OW 1825   4.232   3.858   6.130
  309SOL    HW1 1826   4.275   3.773   6.161
  309SOL    HW2 1827   4.288   3.900   6.059
  310SOL     OW 1828   6.640   6.760   5.860
  310SOL    HW1 1829   6.689   6.673   5.855
  310SOL    HW2 1830   6.697   6.832   5.822
  311SOL     OW 1831   6.681   5.005   1.935
  311SOL    HW1 1832   6.673   5.090   1.883
  311SOL    HW2 1833   6.750   5.016   2.007
  312SOL     OW 1834   4.571   2.178   5.905
  312SOL    HW1 1835   4.582   2.244   5.830
  312SOL    HW2 1836   4.476   2.148   5.909
  313SOL     OW 1837   2.865   4.313   1.671
  313SOL    HW1 1838   2.871   4.391   1.733
  313SOL    HW2 1839   2.921   4.331   1.589
  314SOL     OW 1840   3.205   5.682   0.287
  314SOL    HW1 1841   3.177   5.734   0.367
  314SOL    HW2 1842   3.145   5.603   0.276
  315SOL     OW 1843   1.109   2.433   3.451
  315SOL    HW1 1844   1.114   2.368   3.528
  315SOL    HW2 1845   1.042   2.504   3.472
  316SOL     OW 1846   2.161   2.385   4.422
  316SOL    HW1 1847   2.104   2.303   4.422
  316SOL    HW2 1848   2.107   2.464   4.449
  317SOL     OW 1849   1.027   1.229   0.505
  317SOL    HW1 1850   1.017   1.241   0.603
  317SOL    HW2 1851   0.973   1.298   0.457
  318SOL     OW 1852   0.990   5.148   0.889
  318SOL    HW1 1853   0.911   5.133   0.830
  318SOL    HW2 1854   1.012   5.064   0.939
  319SOL     OW 1855   0.244   0.300   2.293
  319SOL    HW1 1856   0.186   0.247   2.231
  319SOL    HW2 1857   0.196   0.316   2.379
  320SOL     OW 1858   5.059   2.632   6.464
  320SOL    HW1 1859   5.031   2.711   6.518
  320SOL    HW2 1860   4.980   2.575   6.443
  321SOL     OW 1861   2.849   1.130   2.358
  321SOL    HW1 1862   2.832   1.228   2.348
  321SOL    HW2 1863   2.766   1.080   2.336
  322SOL     OW 1864   3.289   3.643   4.305
  322SOL    HW1 1865   3.281   3.698   4.222
  322SOL    HW2 1866   3.200   3.638   4.351
  323SOL     OW 1867   0.543   4.176   6.950
  323SOL    HW1 1868   0.477   4.138   7.014
  323SOL    HW2 1869   0.589   4.102   6.901
  324SOL     OW 1870   1.659   3.037   3.824
  324SOL    HW1 1871   1.641   3.122   3.873
  324SOL    HW2 1872   1.687   3.057   3.730
  325SOL     OW 1873   1.908   3.110   1.365
  325SOL    HW1 1874   1.850   3.042   1.320
  325SOL    HW2 1875   1.995   3.068   1.390
  326SOL     OW 1876   1.717   5.687   6.807
  326SOL    HW1 1877   1.659   5.726   6.878
  326SOL    HW2 1878   1.802   5.653   6.848
  327SOL     OW 1879   1.102   5.493   3.762
  327SOL    HW1 1880   1.050   5.412   3.737
  327SOL    HW2 1881   1.076   5.569   3.703
  328SOL     OW 1882   3.297   5.065   2.669
  328SOL    HW1 1883   3.300   5.073   2.569
  328SOL    HW2 1884   3.388   5.040   2.703
  329SOL     OW 1885   3.494   4.148   4.234
  329SOL    HW1 1886   3.462   4.173   4.325
  329SOL    HW2 1887   3.555   4.219   4.200
  330SOL     OW 1888   3.369   5.979   2.160
  330SOL    HW1 1889   3.272   5.955   2.160
  330SOL    HW2 1890   3.380   6.072   2.124
  331SOL     OW 1891   4.794   5.079   6.829
  331SOL    HW1 1892   4.717   5.138   6.855
  331SOL    HW2 1893   4.775   5.038   6.740
  332SOL     OW 1894   3.436   2.045   4.209
  332SOL    HW1 1895   3.458   2.043   4.111
  332SOL    HW2 1896   3.516   2.016   4.261
  333SOL     OW 1897   3.740   6.966   7.005
  333SOL    HW1 1898   3.824   6.922   0.013
  333SOL    HW2 1899   3.755   0.043   7.000
  334SOL     OW 1900   2.961   6.947   1.115
  334SOL    HW1 1901   2.925   6.866   1.161
  334SOL    HW2 1902   3.030   6.919   1.047
  335SOL     OW 1903   3.189   6.625   3.803
  335SOL    HW1 1904   3.150   6.633   3.895
  335SOL    HW2 1905   3.145   6.549   3.755
  336SOL     OW 1906   2.194   0.535   3.862
  336SOL    HW1 1907   2.223   0.519   3.956
  336SOL    HW2 1908   2.275   0.549   3.804
  337SOL     OW 1909   0.110   3.441   0.864
  337SOL    HW1 1910   0.014   3.470   0.862
  337SOL    HW2 1911   0.130   3.397   0.951
  338SOL     OW 1912   2.564   2.814   1.187
  338SOL    HW1 1913   2.556   2.730   1.133
  338SOL    HW2 1914   2.570   2.791   1.284
  339SOL     OW 1915   3.806   6.805   3.863
  339SOL    HW1 1916   3.773   6.855   3.783
  339SOL    HW2 1917   3.906   6.810   3.866
  340SOL     OW 1918   5.309   4.386   4.765
  340SOL    HW1 1919   5.351   4.464   4.812
  340SOL    HW2 1920   5.374   4.349   4.697
  341SOL     OW 1921   6.331   6.746   4.027
  341SOL    HW1 1922   6.363   6.840   4.034
  341SOL    HW2 1923   6.235   6.745   4.000
  342SOL     OW 1924   5.759   4.205   7.000
  342SOL    HW1 1925   5.687   4.198   6.932
  342SOL    HW2 1926   5.848   4.205   6.954
  343SOL     OW 1927   2.578   5.664   1.163
  343SOL    HW1 1928   2.658   5.607   1.183
  343SOL    HW2 1929   2.520   5.669   1.244
  344SOL     OW 1930   2.114   5.532   1.686
  344SOL    HW1 1931   2.166   5.485   1.757
  344SOL    HW2 1932   2.160   5.617   1.661
  345SOL     OW 1933   6.769   0.741   5.608
  345SOL    HW1 1934   6.816   0.734   5.520
  345SOL    HW2 1935   6.702   0.667   5.616
  346SOL     OW 1936   2.200   6.887   1.959
  346SOL    HW1 1937   2.110   6.859   1.993
  346SOL    HW2 1938   2.246   6.942   2.028
  347SOL     OW 1939   4.889   0.387   6.569
  347SOL    HW1 1940   4.859   0.356   6.478
  347SOL    HW2 1941   4.961   0.326   6.602
  348SOL     OW 1942   4.679   4.947   1.575
  348SOL    HW1 1943   4.663   4.960   1.477
  348SOL    HW2 1944   4.692   4.849   1.593
  349SOL     OW 1945   0.241   4.594   1.919
  349SOL    HW1 1946   0.266   4.674   1.864
  349SOL    HW2 1947   0.158   4.614   1.971
  350SOL     OW 1948   3.847   3.663   1.747
  350SOL    HW1 1949   3.783   3.590   1.772
  350SOL    HW2 1950   3.799   3.750   1.744
  351SOL     OW 1951   2.457   2.667   0.584
  351SOL    HW1 1952   2.463   2.762   0.613
  351SOL    HW2 1953   2.441   2.608   0.664
  352SOL     OW 1954   3.849   6.938   4.882
  352SOL    HW1 1955   3.885   6.939   4.789
  352SOL    HW2 1956   3.840   6.844   4.914
  353SOL     OW 1957   2.783   0.027   0.954
  353SOL    HW1 1958   2.823   0.017   0.863
  353SOL    HW2 1959   2.836   6.997   1.021
  354SOL     OW 1960   4.078   2.585   0.103
  354SOL    HW1 1961   4.109   2.635   0.184
  354SOL    HW2 1962   4.112   2.631   0.020
  355SOL     OW 1963   6.521   2.998   2.584
  355SOL    HW1 1964   6.581   2.964   2.512
  355SOL    HW2 1965   6.573   3.057   2.646
  356SOL     OW 1966   4.069   5.528   4.605
  356SOL    HW1 1967   3.980   5.558   4.638
  356SOL    HW2 1968   4.061   5.499   4.509
  357SOL     OW 1969   6.897   6.833   5.260
  357SOL    HW1 1970   6.854   6.805   5.346
  357SOL    HW2 1971   6.831   6.823   5.186
  358SOL     OW 1972   6.395   0.136   1.199
  358SOL    HW1 1973   6.437   0.223   1.173
  358SOL    HW2 1974   6.310   0.123   1.147
  359SOL     OW 1975   1.782   2.493   2.461
  359SOL    HW1 1976   1.811   2.398   2.473
  359SOL    HW2 1977   1.759   2.509   2.365
  360SOL     OW 1978   2.620   6.220   6.289
  360SOL    HW1 1979   2.667   6.175   6.213
  360SOL    HW2 1980   2.521   6.211   6.277
  361SOL     OW 1981   5.522   5.475   2.922
  361SOL    HW1 1982   5.620   5.455   2.926
  361SOL    HW2 1983   5.509   5.572   2.905
  362SOL     OW 1984   3.378   3.713   0.418
  362SOL    HW1 1985   3.398   3.732   0.322
  362SOL    HW2 1986   3.433   3.635   0.449
  363SOL     OW 1987   3.514   5.006   3.735
  363SOL    HW1 1988   3.471   5.076   3.792
  363SOL    HW2 1989   3.610   5.030   3.719
  364SOL     OW 1990   0.230   5.516   5.003
  364SOL    HW1 1991   0.146   5.496   4.952
  364SOL    HW2 1992   0.293   5.439   4.997
  365SOL     OW 1993   4.227   6.436   2.836
  365SOL    HW1 1994   4.273   6.518   2.871
  365SOL    HW2 1995   4.295   6.365   2.818
  366SOL     OW 1996   5.540   0.919   0.136
  366SOL    HW1 1997   5.573   0.952   0.047
  366SOL    HW2 1998   5.617   0.911   0.199
  367SOL     OW 1999   5.069   2.592   0.981
  367SOL    HW1 2000   5.152   2.635   0.945
  367SOL    HW2 2001   5.013   2.559   0.905
  368SOL     OW 2002   1.571   4.357   5.155
  368SOL    HW1 2003   1.551   4.324   5.063
  368SOL    HW2 2004   1.624   4.288   5.204
  369SOL     OW 2005   6.436   4.333   1.893
  369SOL    HW1 2006   6.471   4.299   1.981
  369SOL    HW2 2007   6.480   4.283   1.818
  370SOL     OW 2008   2.380   1.321   5.107
  370SOL    HW1 2009   2.459   1.269   5.075
  370SOL    HW2 2010   2.355   1.391   5.040
  371SOL     OW 2011   1.998   3.810   6.181
  371SOL    HW1 2012   1.960   3.792   6.090
  371SOL    HW2 2013   2.094   3.836   6.173
  372SOL     OW 2014   0.117   0.446   5.290
  372SOL    HW1 2015   0.117   0.346   5.292
  372SOL    HW2 2016   0.027   0.480   5.263
  373SOL     OW 2017   6.816   6.769   5.502
  373SOL    HW1 2018   6.776   6.678   5.491
  373SOL    HW2 2019   6.910   6.760   5.537
  374SOL     OW 2020   4.353   6.925   2.415
  374SOL    HW1 2021   4.313   7.006   2.373
  374SOL    HW2 2022   4.431   6.951   2.471
  375SOL     OW 2023   0.071   4.465   3.616
  375SOL    HW1 2024   7.009   4.446   3.567
  375SOL    HW2 2025   0.133   4.517   3.556
  376SOL     OW 2026   1.739   3.547   3.445
  376SOL    HW1 2027   1.717   3.525   3.350
  376SOL    HW2 2028   1.677   3.497   3.506
  377SOL     OW 2029   5.976   2.876   2.517
  377SOL    HW1 2030   5.975   2.932   2.434
  377SOL    HW2 2031   6.041   2.801   2.506
  378SOL     OW 2032   3.857   2.918   5.706
  378SOL    HW1 2033   3.902   2.930   5.617
  378SOL    HW2 2034   3.902   2.975   5.774
  379SOL     OW 2035   5.776   3.235   1.382
  379SOL    HW1 2036   5.781   3.257   1.480
  379SOL    HW2 2037   5.706   3.166   1.366
  380SOL     OW 2038   2.291   1.619   1.977
  380SOL    HW1 2039   2.271   1.588   1.884
  380SOL    HW2 2040   2.390   1.631   1.988
  381SOL     OW 2041   1.884   4.562   1.623
  381SOL    HW1 2042   1.977   4.550   1.659
  381SOL    HW2 2043   1.836   4.475   1.626
  382SOL     OW 2044   3.882   5.666   6.899
  382SOL    HW1 2045   3.978   5.643   6.879
  382SOL    HW2 2046   3.879   5.751   6.952
  383SOL     OW 2047   6.414   2.868   6.148
  383SOL    HW1 2048   6.321   2.834   6.140
  383SOL    HW2 2049   6.478   2.799   6.116
  384SOL     OW 2050   1.233   4.149   4.866
  384SOL    HW1 2051   1.302   4.124   4.934
  384SOL    HW2 2052   1.276   4.151   4.775
  385SOL     OW 2053   4.879   6.574   0.241
  385SOL    HW1 2054   4.793   6.556   0.289
  385SOL    HW2 2055   4.933   6.640   0.292
  386SOL     OW 2056   4.099   6.701   5.377
  386SOL    HW1 2057   4.189   6.701   5.421
  386SOL    HW2 2058   4.037   6.641   5.428
  387SOL     OW 2059   0.343   6.738   3.899
  387SOL    HW1 2060   0.317   6.800   3.826
  387SOL    HW2 2061   0.265   6.720   3.958
  388SOL     OW 2062   0.086   2.073   5.123
  388SOL    HW1 2063   0.060   2.112   5.211
  388SOL    HW2 2064   0.058   1.977   5.120
  389SOL     OW 2065   4.264   4.146   1.676
  389SOL    HW1 2066   4.230   4.051   1.675
  389SOL    HW2 2067   4.349   4.150   1.728
  390SOL     OW 2068   3.394   1.273   0.559
  390SOL    HW1 2069   3.488   1.245   0.537
  390SOL    HW2 2070   3.345   1.297   0.476
  391SOL     OW 2071   2.574   4.189   5.649
  391SOL    HW1 2072   2.573   4.283   5.682
  391SOL    HW2 2073   2.545   4.186   5.554
  392SOL     OW 2074   1.250   3.369   1.998
  392SOL    HW1 2075   1.265   3.362   1.899
  392SOL    HW2 2076   1.329   3.413   2.040
  393SOL     OW 2077   1.328   4.322   0.904
  393SOL    HW1 2078   1.246   4.379   0.894
  393SOL    HW2 2079   1.398   4.375   0.953
  394SOL     OW 2080   0.278   3.143   0.041
  394SOL    HW1 2081   0.258   3.068   7.001
  394SOL    HW2 2082   0.254   3.230   7.022
  395SOL     OW 2083   5.591   4.256   2.239
  395SOL    HW1 2084   5.616   4.172   2.287
  395SOL    HW2 2085   5.638   4.333   2.281
  396SOL     OW 2086   2.570   2.169   2.198
  396SOL    HW1 2087   2.670   2.162   2.201
  396SOL    HW2 2088   2.542   2.188   2.104
  397SOL     OW 2089   4.656   1.253   5.671
  397SOL    HW1 2090   4.646   1.339   5.622
  397SOL    HW2 2091   4.676   1.180   5.605
  398SOL     OW 2092   1.240   6.897   4.551
  398SOL    HW1 2093   1.317   6.945   4.593
  398SOL    HW2 2094   1.273   6.845   4.472
  399SOL     OW 2095   6.008   6.260   3.917
  399SOL    HW1 2096   6.027   6.162   3.906
  399SOL    HW2 2097   5.918   6.272   3.958
  400SOL     OW 2098   6.487   0.145   4.606
  400SOL    HW1 2099   6.405   0.199   4.627
  400SOL    HW2 2100   6.461   0.048   4.597
  401SOL     OW 2101   6.400   1.180   6.092
  401SOL    HW1 2102   6.366   1.133   6.010
  401SOL    HW2 2103   6.453   1.116   6.147
  402SOL     OW 2104   6.161   0.611   2.524
  402SOL    HW1 2105   6.150   0.512   2.537
  402SOL    HW2 2106   6.072   0.656   2.527
  403SOL     OW 2107   2.836   0.191   6.021
  403SOL    HW1 2108   2.788   0.130   6.084
  403SOL    HW2 2109   2.912   0.234   6.070
  404SOL     OW 2110   3.604   6.401   5.795
  404SOL    HW1 2111   3.678   6.426   5.858
  404SOL    HW2 2112   3.578   6.306   5.811
  405SOL     OW 2113   1.896   3.737   3.142
  405SOL    HW1 2114   1.955   3.818   3.147
  405SOL    HW2 2115   1.816   3.752   3.200
  406SOL     OW 2116   0.872   4.973   4.946
  406SOL    HW1 2117   0.866   4.919   5.030
  406SOL    HW2 2118   0.963   4.964   4.907
  407SOL     OW 2119   1.595   3.401   3.631
  407SOL    HW1 2120   1.518   3.439   3.682
  407SOL    HW2 2121   1.571   3.310   3.598
  408SOL     OW 2122   3.748   1.961   2.971
  408SOL    HW1 2123   3.826   1.954   2.909
  408SOL    HW2 2124   3.664   1.974   2.918
  409SOL     OW 2125   0.320   3.515   1.875
  409SOL    HW1 2126   0.375   3.431   1.877
  409SOL    HW2 2127   0.273   3.521   1.787
  410SOL     OW 2128   1.677   2.281   1.291
  410SOL    HW1 2129   1.727   2.334   1.360
  410SOL    HW2 2130   1.643   2.343   1.220
  411SOL     OW 2131   0.197   2.246   1.897
  411SOL    HW1 2132   0.245   2.170   1.854
  411SOL    HW2 2133   0.236   2.263   1.988
  412SOL     OW 2134   2.601   4.557   2.916
  412SOL    HW1 2135   2.671   4.600   2.860
  412SOL    HW2 2136   2.643   4.488   2.975
  413SOL     OW 2137   3.381   5.045   2.424
  413SOL    HW1 2138   3.427   5.131   2.402
  413SOL    HW2 2139   3.363   4.994   2.340
  414SOL     OW 2140   3.022   6.894   3.868
  414SOL    HW1 2141   3.103   6.849   3.829
  414SOL    HW2 2142   3.033   6.993   3.862
  415SOL     OW 2143   6.596   1.379   0.326
  415SOL    HW1 2144   6.560   1.293   0.362
  415SOL    HW2 2145   6.694   1.369   0.307
  416SOL     OW 2146   5.219   3.808   4.982
  416SOL    HW1 2147   5.184   3.715   4.972
  416SOL    HW2 2148   5.144   3.874   4.968
  417SOL     OW 2149   2.524   1.875   0.009
  417SOL    HW1 2150   2.604   1.832   6.990
  417SOL    HW2 2151   2.539   1.886   0.107
  418SOL     OW 2152   3.405   6.879   4.455
  418SOL    HW1 2153   3.453   6.831   4.528
  418SOL    HW2 2154   3.385   6.972   4.483
  419SOL     OW 2155   0.154   6.938   1.582
  419SOL    HW1 2156   0.204   6.903   1.503
  419SOL    HW2 2157   0.217   6.957   1.657
  420SOL     OW 2158   5.326   0.755   6.794
  420SOL    HW1 2159   5.275   0.741   6.879
  420SOL    HW2 2160   5.375   0.671   6.770
  421SOL     OW 2161   5.196   4.423   4.517
  421SOL    HW1 2162   5.169   4.327   4.508
  421SOL    HW2 2163   5.238   4.437   4.607
  422SOL     OW 2164   4.745   2.136   1.160
  422SOL    HW1 2165   4.650   2.124   1.189
  422SOL    HW2 2166   4.806   2.109   1.234
  423SOL     OW 2167   2.774   0.878   6.294
  423SOL    HW1 2168   2.750   0.785   6.268
  423SOL    HW2 2169   2.803   0.929   6.213
  424SOL     OW 2170   1.404   4.789   2.868
  424SOL    HW1 2171   1.362   4.699   2.867
  424SOL    HW2 2172   1.348   4.852   2.922
  425SOL     OW 2173   4.805   1.274   4.578
  425SOL    HW1 2174   4.713   1.289   4.542
  425SOL    HW2 2175   4.834   1.181   4.557
  426SOL     OW 2176   2.447   2.296   4.893
  426SOL    HW1 2177   2.434   2.393   4.912
  426SOL    HW2 2178   2.489   2.252   4.973
  427SOL     OW 2179   4.574   1.481   3.623
  427SOL    HW1 2180   4.617   1.406   3.672
  427SOL    HW2 2181   4.642   1.529   3.568
  428SOL     OW 2182   3.149   0.951   4.894
  428SOL    HW1 2183   3.067   1.008   4.886
  428SOL    HW2 2184   3.175   0.917   4.804
  429SOL     OW 2185   0.945   6.018   4.048
  429SOL    HW1 2186   0.888   5.944   4.013
  429SOL    HW2 2187   1.041   6.000   4.027
  430SOL     OW 2188   1.623   7.016   3.818
  430SOL    HW1 2189   1.676   0.077   3.833
  430SOL    HW2 2190   1.525   0.014   3.820
  431SOL     OW 2191   3.148   2.067   1.292
  431SOL    HW1 2192   3.243   2.085   1.315
  431SOL    HW2 2193   3.098   2.153   1.288
  432SOL     OW 2194   4.625   2.351   1.405
  432SOL    HW1 2195   4.583   2.437   1.434
  432SOL    HW2 2196   4.603   2.333   1.309
  433SOL     OW 2197   3.077   6.485   6.538
  433SOL    HW1 2198   3.147   6.556   6.524
  433SOL    HW2 2199   3.017   6.512   6.614
  434SOL     OW 2200   3.653   6.552   3.615
  434SOL    HW1 2201   3.585   6.501   3.563
  434SOL    HW2 2202   3.614   6.583   3.701
  435SOL     OW 2203   3.472   1.663   5.681
  435SOL    HW1 2204   3.563   1.646   5.643
  435SOL    HW2 2205   3.452   1.761   5.678
  436SOL     OW 2206   3.525   5.956   3.520
  436SOL    HW1 2207   3.619   5.931   3.541
  436SOL    HW2 2208   3.518   5.983   3.424
  437SOL     OW 2209   7.012   0.596   4.441
  437SOL    HW1 2210   6.959   0.579   4.358
  437SOL    HW2 2211   0.085   0.575   4.424
  438SOL     OW 2212   0.721   5.141   3.253
  438SOL    HW1 2213   0.680   5.050   3.249
  438SOL    HW2 2214   0.781   5.147   3.334
  439SOL     OW 2215   5.777   0.204   2.488
  439SOL    HW1 2216   5.763   0.290   2.441
  439SOL    HW2 2217   5.871   0.172   2.472
  440SOL     OW 2218   3.872   0.656   0.273
  440SOL    HW1 2219   3.828   0.740   0.240
  440SOL    HW2 2220   3.946   0.679   0.336
  441SOL     OW 2221   6.293   4.757   2.867
  441SOL    HW1 2222   6.219   4.691   2.853
  441SOL    HW2 2223   6.327   4.750   2.960
  442SOL     OW 2224   4.932   4.093   5.609
  442SOL    HW1 2225   4.926   4.193   5.603
  442SOL    HW2 2226   5.027   4.066   5.618
  443SOL     OW 2227   4.898   4.268   3.099
  443SOL    HW1 2228   4.869   4.193   3.039
  443SOL    HW2 2229   4.874   4.246   3.193
  444SOL     OW 2230   3.997   1.045   1.173
  444SOL    HW1 2231   4.002   0.984   1.252
  444SOL    HW2 2232   4.085   1.091   1.162
  445SOL     OW 2233   2.693   5.816   2.939
  445SOL    HW1 2234   2.712   5.722   2.914
  445SOL    HW2 2235   2.609   5.847   2.894
  446SOL     OW 2236   5.485   5.759   2.889
  446SOL    HW1 2237   5.477   5.835   2.824
  446SOL    HW2 2238   5.450   5.787   2.978
  447SOL     OW 2239   5.875   4.469   6.482
  447SOL    HW1 2240   5.957   4.455   6.537
  447SOL    HW2 2241   5.882   4.556   6.433
  448SOL     OW 2242   3.176   1.602   2.463
  448SOL    HW1 2243   3.093   1.641   2.423
  448SOL    HW2 2244   3.211   1.530   2.403
  449SOL     OW 2245   1.653   2.755   3.891
  449SOL    HW1 2246   1.616   2.715   3.808
  449SOL    HW2 2247   1.646   2.855   3.886
  450SOL     OW 2248   0.648   4.735   2.953
  450SOL    HW1 2249   0.627   4.711   2.859
  450SOL    HW2 2250   0.717   4.807   2.955
  451SOL     OW 2251   0.210   2.208   3.529
  451SOL    HW1 2252   0.284   2.142   3.543
  451SOL    HW2 2253   0.177   2.240   3.618
  452SOL     OW 2254   3.784   6.548   2.982
  452SOL    HW1 2255   3.863   6.559   2.922
  452SOL    HW2 2256   3.758   6.451   2.986
  453SOL     OW 2257   4.061   0.118   0.052
  453SOL    HW1 2258   4.136   0.161   0.001
  453SOL    HW2 2259   4.079   0.020   0.060
  454SOL     OW 2260   0.122   4.597   6.250
  454SOL    HW1 2261   0.179   4.526   6.208
  454SOL    HW2 2262   0.149   4.686   6.215
  455SOL     OW 2263   6.642   4.195   5.760
  455SOL    HW1 2264   6.586   4.170   5.839
  455SOL    HW2 2265   6.738   4.179   5.781
  456SOL     OW 2266   2.144   1.155   3.098
  456SOL    HW1 2267   2.155   1.107   3.011
  456SOL    HW2 2268   2.231   1.194   3.127
  457SOL     OW 2269   2.036   6.018   6.087
  457SOL    HW1 2270   2.131   5.996   6.110
  457SOL    HW2 2271   1.975   5.946   6.123
  458SOL     OW 2272   2.380   1.551   3.566
  458SOL    HW1 2273   2.449   1.552   3.493
  458SOL    HW2 2274   2.297   1.508   3.533
  459SOL     OW 2275   2.332   6.989   5.198
  459SOL    HW1 2276   2.397   7.009   5.125
  459SOL    HW2 2277   2.280   6.907   5.174
  460SOL     OW 2278   1.204   1.709   5.369
  460SOL    HW1 2279   1.299   1.679   5.378
  460SOL    HW2 2280   1.174   1.696   5.274
  461SOL     OW 2281   0.110   4.733   5.338
  461SOL    HW1 2282   0.011   4.728   5.333
  461SOL    HW2 2283   0.141   4.697   5.426
  462SOL     OW 2284   3.643   3.700   4.228
  462SOL    HW1 2285   3.609   3.791   4.254
  462SOL    HW2 2286   3.584   3.662   4.157
  463SOL     OW 2287   6.516   6.423   2.516
  463SOL    HW1 2288   6.600   6.413   2.570
  463SOL    HW2 2289   6.505   6.344   2.456
  464SOL     OW 2290   3.363   6.049   6.089
  464SOL    HW1 2291   3.455   6.077   6.119
  464SOL    HW2 2292   3.367   6.020   5.994
  465SOL     OW 2293   1.118   2.106   0.850
  465SOL    HW1 2294   1.168   2.101   0.764
  465SOL    HW2 2295   1.026   2.140   0.832
  466SOL     OW 2296   3.367   6.237   5.079
  466SOL    HW1 2297   3.457   6.195   5.083
  466SOL    HW2 2298   3.317   6.203   4.999
  467SOL     OW 2299   6.945   1.599   3.001
  467SOL    HW1 2300   6.931   1.612   3.099
  467SOL    HW2 2301   6.896   1.670   2.951
  468SOL     OW 2302   4.299   0.802   6.253
  468SOL    HW1 2303   4.334   0.875   6.312
  468SOL    HW2 2304   4.232   0.747   6.303
  469SOL     OW 2305   2.703   4.420   6.100
  469SOL    HW1 2306   2.776   4.398   6.034
  469SOL    HW2 2307   2.681   4.338   6.152
  470SOL     OW 2308   2.429   5.363   3.250
  470SOL    HW1 2309   2.429   5.296   3.324
  470SOL    HW2 2310   2.412   5.317   3.163
  471SOL     OW 2311   2.600   2.337   3.869
  471SOL    HW1 2312   2.638   2.264   3.926
  471SOL    HW2 2313   2.656   2.349   3.788
  472SOL     OW 2314   6.488   4.449   6.050
  472SOL    HW1 2315   6.488   4.349   6.044
  472SOL    HW2 2316   6.557   4.478   6.117
  473SOL     OW 2317   0.052   2.449   2.828
  473SOL    HW1 2318   0.055   2.373   2.893
  473SOL    HW2 2319   7.020   2.422   2.749
  474SOL     OW 2320   6.406   6.112   4.750
  474SOL    HW1 2321   6.348   6.179   4.705
  474SOL    HW2 2322   6.467   6.159   4.814
  475SOL     OW 2323   5.926   1.802   0.300
  475SOL    HW1 2324   5.923   1.898   0.328
  475SOL    HW2 2325   5.963   1.795   0.208
  476SOL     OW 2326   0.882   3.937   1.929
  476SOL    HW1 2327   0.934   3.901   1.852
  476SOL    HW2 2328   0.886   3.872   2.005
  477SOL     OW 2329   2.189   5.938   3.461
  477SOL    HW1 2330   2.208   6.014   3.399
  477SOL    HW2 2331   2.160   5.858   3.409
  478SOL     OW 2332   4.418   5.695   2.859
  478SOL    HW1 2333   4.355   5.711   2.935
  478SOL    HW2 2334   4.392   5.753   2.782
  479SOL     OW 2335   3.989   3.481   3.549
  479SOL    HW1 2336   3.995   3.488   3.649
  479SOL    HW2 2337   4.007   3.570   3.508
  480SOL     OW 2338   1.181   6.810   2.745
  480SOL    HW1 2339   1.107   6.877   2.737
  480SOL    HW2 2340   1.153   6.737   2.806
  481SOL     OW 2341   0.723   6.293   0.357
  481SOL    HW1 2342   0.819   6.288   0.330
  481SOL    HW2 2343   0.688   6.384   0.335
  482SOL     OW 2344   5.341   4.677   2.214
  482SOL    HW1 2345   5.414   4.638   2.159
  482SOL    HW2 2346   5.353   4.650   2.309
  483SOL     OW 2347   5.846   2.396   3.387
  483SOL    HW1 2348   5.855   2.304   3.349
  483SOL    HW2 2349   5.936   2.429   3.415
  484SOL     OW 2350   2.391   4.444   4.447
  484SOL    HW1 2351   2.411   4.542   4.437
  484SOL    HW2 2352   2.415   4.415   4.540
  485SOL     OW 2353   5.479   3.365   2.927
  485SOL    HW1 2354   5.543   3.288   2.932
  485SOL    HW2 2355   5.483   3.418   3.012
  486SOL     OW 2356   6.334   6.401   5.756
  486SOL    HW1 2357   6.396   6.329   5.788
  486SOL    HW2 2358   6.376   6.490   5.772
  487SOL     OW 2359   0.362   6.277   4.045
  487SOL    HW1 2360   0.301   6.250   4.119
  487SOL    HW2 2361   0.457   6.263   4.073
  488SOL     OW 2362   1.749   6.810   3.431
  488SOL    HW1 2363   1.782   6.764   3.348
  488SOL    HW2 2364   1.709   6.742   3.493
  489SOL     OW 2365   6.783   5.774   4.707
  489SOL    HW1 2366   6.699   5.743   4.750
  489SOL    HW2 2367   6.827   5.843   4.766
  490SOL     OW 2368   1.518   4.895   6.019
  490SOL    HW1 2369   1.515   4.888   6.118
  490SOL    HW2 2370   1.470   4.978   5.990
  491SOL     OW 2371   0.499   2.752   0.878
  491SOL    HW1 2372   0.503   2.661   0.836
  491SOL    HW2 2373   0.451   2.815   0.816
  492SOL     OW 2374   1.266   1.395   5.512
  492SOL    HW1 2375   1.349   1.432   5.555
  492SOL    HW2 2376   1.239   1.310   5.558
  493SOL     OW 2377   2.352   6.278   5.146
  493SOL    HW1 2378   2.403   6.194   5.125
  493SOL    HW2 2379   2.413   6.357   5.134
  494SOL     OW 2380   2.404   0.414   5.328
  494SOL    HW1 2381   2.402   0.513   5.317
  494SOL    HW2 2382   2.483   0.376   5.279
  495SOL     OW 2383   4.175   6.056   5.736
  495SOL    HW1 2384   4.184   5.960   5.708
  495SOL    HW2 2385   4.079   6.075   5.759
  496SOL     OW 2386   5.770   2.292   2.802
  496SOL    HW1 2387   5.739   2.210   2.851
  496SOL    HW2 2388   5.812   2.264   2.716
  497SOL     OW 2389   3.280   1.239   6.501
  497SOL    HW1 2390   3.239   1.148   6.510
  497SOL    HW2 2391   3.219   1.297   6.447
  498SOL     OW 2392   0.607   5.637   2.176
  498SOL    HW1 2393   0.526   5.690   2.201
  498SOL    HW2 2394   0.687   5.697   2.173
  499SOL     OW 2395   3.737   4.988   6.919
  499SOL    HW1 2396   3.648   5.010   6.958
  499SOL    HW2 2397   3.766   4.897   6.949
  500SOL     OW 2398   5.825   2.230   6.562
  500SOL    HW1 2399   5.785   2.312   6.520
  500SOL    HW2 2400   5.795   2.223   6.657
  501SOL     OW 2401   0.997   6.688   3.100
  501SOL    HW1 2402   0.957   6.779   3.102
  501SOL    HW2 2403   1.056   6.675   3.180
  502SOL     OW 2404   1.886   4.179   6.751
  502SOL    HW1 2405   1.912   4.263   6.704
  502SOL    HW2 2406   1.793   4.186   6.785
  503SOL     OW 2407   3.630   4.853   6.495
  503SOL    HW1 2408   3.656   4.757   6.507
  503SOL    HW2 2409   3.555   4.875   6.557
  504SOL     OW 2410   6.538   6.189   1.935
  504SOL    HW1 2411   6.610   6.247   1.972
  504SOL    HW2 2412   6.520   6.114   1.998
  505SOL     OW 2413   5.189   6.472   5.382
  505SOL    HW1 2414   5.168   6.522   5.467
  505SOL    HW2 2415   5.170   6.530   5.303
  506SOL     OW 2416   2.894   5.944   3.249
  506SOL    HW1 2417   2.966   5.922   3.182
  506SOL    HW2 2418   2.832   5.866   3.257
  507SOL     OW 2419   4.209   1.244   1.923
  507SOL    HW1 2420   4.169   1.171   1.978
  507SOL    HW2 2421   4.159   1.329   1.937
  508SOL     OW 2422   0.363   4.446   4.694
  508SOL    HW1 2423   0.290   4.494   4.645
  508SOL    HW2 2424   0.440   4.508   4.708
  509SOL     OW 2425   4.359   0.980   6.465
  509SOL    HW1 2426   4.449   0.951   6.497
  509SOL    HW2 2427   4.296   0.984   6.543
  510SOL     OW 2428   6.423   4.675   5.904
  510SOL    HW1 2429   6.323   4.671   5.903
  510SOL    HW2 2430   6.460   4.585   5.925
  511SOL     OW 2431   1.417   1.766   0.729
  511SOL    HW1 2432   1.317   1.762   0.726
  511SOL    HW2 2433   1.446   1.796   0.820
  512SOL     OW 2434   5.472   2.483   0.340
  512SOL    HW1 2435   5.411   2.536   0.281
  512SOL    HW2 2436   5.425   2.401   0.372
  513SOL     OW 2437   5.731   0.513   2.778
  513SOL    HW1 2438   5.795   0.588   2.759
  513SOL    HW2 2439   5.734   0.490   2.875
  514SOL     OW 2440   0.072   6.782   4.052
  514SOL    HW1 2441   0.035   6.812   3.965
  514SOL    HW2 2442   0.002   6.791   4.123
  515SOL     OW 2443   3.341   0.445   6.749
  515SOL    HW1 2444   3.344   0.444   6.649
  515SOL    HW2 2445   3.431   0.424   6.786
  516SOL     OW 2446   2.974   4.905   1.351
  516SOL    HW1 2447   3.068   4.931   1.327
  516SOL    HW2 2448   2.976   4.823   1.407
  517SOL     OW 2449   3.039   5.139   2.487
  517SOL    HW1 2450   3.059   5.151   2.585
  517SOL    HW2 2451   3.014   5.044   2.470
  518SOL     OW 2452   2.229   2.987   3.692
  518SOL    HW1 2453   2.224   2.927   3.612
  518SOL    HW2 2454   2.279   2.940   3.765
  519SOL     OW 2455   6.832   6.577   3.391
  519SOL    HW1 2456   6.839   6.583   3.490
  519SOL    HW2 2457   6.792   6.489   3.365
  520SOL     OW 2458   0.786   2.991   7.020
  520SOL    HW1 2459   0.782   3.021   6.924
  520SOL    HW2 2460   0.700   2.946   0.022
  521SOL     OW 2461   4.965   5.113   4.770
  521SOL    HW1 2462   4.922   5.167   4.843
  521SOL    HW2 2463   4.932   5.019   4.775
  522SOL     OW 2464   4.534   3.592   1.129
  522SOL    HW1 2465   4.589   3.509   1.141
  522SOL    HW2 2466   4.583   3.670   1.168
  523SOL     OW 2467   0.216   6.175   1.477
  523SOL    HW1 2468   0.308   6.159   1.513
  523SOL    HW2 2469   0.172   6.248   1.531
  524SOL     OW 2470   0.464   2.655   2.359
  524SOL    HW1 2471   0.418   2.741   2.381
  524SOL    HW2 2472   0.425   2.617   2.275
  525SOL     OW 2473   0.919   3.615   0.285
  525SOL    HW1 2474   0.881   3.606   0.193
  525SOL    HW2 2475   1.006   3.565   0.290
  526SOL     OW 2476   3.497   0.376   4.847
  526SOL    HW1 2477   3.456   0.443   4.786
  526SOL    HW2 2478   3.433   0.301   4.863
  527SOL     OW 2479   1.423   2.089   6.729
  527SOL    HW1 2480   1.506   2.036   6.748
  527SOL    HW2 2481   1.430   2.179   6.772
  528SOL     OW 2482   0.407   3.543   4.209
  528SOL    HW1 2483   0.380   3.450   4.188
  528SOL    HW2 2484   0.348   3.607   4.159
  529SOL     OW 2485   2.550   6.672   5.545
  529SOL    HW1 2486   2.559   6.707   5.452
  529SOL    HW2 2487   2.475   6.606   5.548
  530SOL     OW 2488   3.799   3.347   1.592
  530SOL    HW1 2489   3.737   3.417   1.626
  530SOL    HW2 2490   3.887   3.354   1.640
  531SOL     OW 2491   2.770   0.806   2.104
  531SOL    HW1 2492   2.763   0.743   2.028
  531SOL    HW2 2493   2.841   0.774   2.167
  532SOL     OW 2494   2.504   3.002   0.070
  532SOL    HW1 2495   2.542   3.075   0.127
  532SOL    HW2 2496   2.576   2.961   0.015
  533SOL     OW 2497   4.121   0.363   3.404
  533SOL    HW1 2498   4.163   0.336   3.490
  533SOL    HW2 2499   4.070   0.286   3.366
  534SOL     OW 2500   0.919   5.454   0.960
  534SOL    HW1 2501   0.968   5.484   1.042
  534SOL    HW2 2502   0.963   5.372   0.923
  535SOL     OW 2503   5.204   4.247   3.063
  535SOL    HW1 2504   5.211   4.303   2.981
  535SOL    HW2 2505   5.295   4.236   3.103
  536SOL     OW 2506   6.683   6.195   2.898
  536SOL    HW1 2507   6.590   6.208   2.865
  536SOL    HW2 2508   6.698   6.099   2.919
  537SOL     OW 2509   3.298   0.139   3.979
  537SOL    HW1 2510   3.388   0.164   4.015
  537SOL    HW2 2511   3.297   0.151   3.879
  538SOL     OW 2512   2.483   5.038   5.310
  538SOL    HW1 2513   2.490   4.963   5.376
  538SOL    HW2 2514   2.427   5.008   5.232
  539SOL     OW 2515   1.186   5.484   0.618
  539SOL    HW1 2516   1.135   5.441   0.544
  539SOL    HW2 2517   1.283   5.489   0.593
  540SOL     OW 2518   1.569   0.785   3.970
  540SOL    HW1 2519   1.652   0.822   4.011
  540SOL    HW2 2520   1.503   0.761   4.041
  541SOL     OW 2521   4.259   6.380   4.248
  541SOL    HW1 2522   4.319   6.457   4.267
  541SOL    HW2 2523   4.302   6.296   4.281
  542SOL     OW 2524   3.126   5.828   6.533
  542SOL    HW1 2525   3.087   5.777   6.457
  542SOL    HW2 2526   3.208   5.875   6.503
  543SOL     OW 2527   5.876   3.383   4.310
  543SOL    HW1 2528   5.808   3.316   4.341
  543SOL    HW2 2529   5.873   3.388   4.210
  544SOL     OW 2530   6.695   4.795   6.927
  544SOL    HW1 2531   6.684   4.699   6.953
  544SOL    HW2 2532   6.737   4.800   6.836
  545SOL     OW 2533   5.174   1.508   0.877
  545SOL    HW1 2534   5.119   1.569   0.820
  545SOL    HW2 2535   5.268   1.507   0.843
  546SOL     OW 2536   0.531   4.206   2.364
  546SOL    HW1 2537   0.505   4.207   2.460
  546SOL    HW2 2538   0.503   4.293   2.322
  547SOL     OW 2539   3.644   1.735   0.407
  547SOL    HW1 2540   3.674   1.830   0.399
  547SOL    HW2 2541   3.723   1.675   0.400
  548SOL     OW 2542   3.800   2.877   0.724
  548SOL    HW1 2543   3.701   2.868   0.728
  548SOL    HW2 2544   3.825   2.973   0.709
  549SOL     OW 2545   5.725   2.593   0.794
  549SOL    HW1 2546   5.742   2.689   0.776
  549SOL    HW2 2547   5.656   2.558   0.730
  550SOL     OW 2548   0.074   4.536   3.065
  550SOL    HW1 2549   7.015   4.518   3.012
  550SOL    HW2 2550   0.147   4.569   3.005
  551SOL     OW 2551   0.073   1.140   0.398
  551SOL    HW1 2552   0.106   1.222   0.351
  551SOL    HW2 2553   0.121   1.059   0.362
  552SOL     OW 2554   5.247   5.635   5.840
  552SOL    HW1 2555   5.317   5.651   5.771
  552SOL    HW2 2556   5.160   5.611   5.795
  553SOL     OW 2557   3.240   0.863   4.614
  553SOL    HW1 2558   3.187   0.802   4.554
  553SOL    HW2 2559   3.250   0.952   4.570
  554SOL     OW 2560   5.506   5.801   0.518
  554SOL    HW1 2561   5.598   5.774   0.545
  554SOL    HW2 2562   5.457   5.837   0.598
  555SOL     OW 2563   3.209   5.522   5.471
  555SOL    HW1 2564   3.151   5.559   5.398
  555SOL    HW2 2565   3.153   5.504   5.552
  556SOL     OW 2566   5.244   2.200   4.099
  556SOL    HW1 2567   5.296   2.152   4.169
  556SOL    HW2 2568   5.190   2.273   4.141
  557SOL     OW 2569   0.190   4.688   5.594
  557SOL    HW1 2570   0.188   4.768   5.655
  557SOL    HW2 2571   0.136   4.614   5.634
  558SOL     OW 2572   4.093   3.659   3.136
  558SOL    HW1 2573   4.164   3.716   3.094
  558SOL    HW2 2574   4.009   3.666   3.083
  559SOL     OW 2575   6.542   6.023   5.574
  559SOL    HW1 2576   6.603   6.101   5.562
  559SOL    HW2 2577   6.520   6.012   5.670
  560SOL     OW 2578   6.672   3.310   3.687
  560SOL    HW1 2579   6.671   3.312   3.787
  560SOL    HW2 2580   6.711   3.394   3.651
  561SOL     OW 2581   0.059   3.401   6.668
  561SOL    HW1 2582   0.100   3.370   6.582
  561SOL    HW2 2583   0.030   3.496   6.658
  562SOL     OW 2584   5.126   6.639   5.587
  562SOL    HW1 2585   5.041   6.689   5.573
  562SOL    HW2 2586   5.203   6.704   5.590
  563SOL     OW 2587   1.387   1.948   4.240
  563SOL    HW1 2588   1.294   1.954   4.278
  563SOL    HW2 2589   1.453   1.965   4.313
  564SOL     OW 2590   0.126   1.183   6.161
  564SOL    HW1 2591   0.189   1.177   6.239
  564SOL    HW2 2592   0.073   1.268   6.168
  565SOL     OW 2593   3.087   3.099   3.778
  565SOL    HW1 2594   3.118   3.030   3.842
  565SOL    HW2 2595   3.047   3.176   3.828
  566SOL     OW 2596   2.838   5.126   3.090
  566SOL    HW1 2597   2.762   5.129   3.025
  566SOL    HW2 2598   2.868   5.219   3.112
  567SOL     OW 2599   2.749   2.611   0.824
  567SOL    HW1 2600   2.801   2.528   0.843
  567SOL    HW2 2601   2.683   2.627   0.898
  568SOL     OW 2602   5.577   6.868   0.646
  568SOL    HW1 2603   5.583   6.881   0.745
  568SOL    HW2 2604   5.668   6.880   0.605
  569SOL     OW 2605   0.416   2.301   0.039
  569SOL    HW1 2606   0.398   2.396   0.067
  569SOL    HW2 2607   0.515   2.288   0.030
  570SOL     OW 2608   3.081   0.294   6.128
  570SOL    HW1 2609   3.061   0.369   6.064
  570SOL    HW2 2610   3.093   0.331   6.220
  571SOL     OW 2611   2.793   5.038   3.495
  571SOL    HW1 2612   2.781   5.015   3.398
  571SOL    HW2 2613   2.814   4.955   3.546
  572SOL     OW 2614   1.577   5.914   4.699
  572SOL    HW1 2615   1.643   5.971   4.650
  572SOL    HW2 2616   1.624   5.864   4.771
  573SOL     OW 2617   6.487   1.901   5.862
  573SOL    HW1 2618   6.575   1.855   5.851
  573SOL    HW2 2619   6.502   1.993   5.898
  574SOL     OW 2620   3.362   1.257   4.722
  574SOL    HW1 2621   3.363   1.351   4.755
  574SOL    HW2 2622   3.339   1.195   4.798
  575SOL     OW 2623   3.917   2.692   0.900
  575SOL    HW1 2624   3.838   2.678   0.959
  575SOL    HW2 2625   3.897   2.766   0.834
  576SOL     OW 2626   2.211   2.762   2.693
  576SOL    HW1 2627   2.145   2.763   2.618
  576SOL    HW2 2628   2.292   2.710   2.666
  577SOL     OW 2629   0.422   0.796   2.086
  577SOL    HW1 2630   0.343   0.854   2.108
  577SOL    HW2 2631   0.401   0.701   2.111
  578SOL     OW 2632   1.620   5.336   0.279
  578SOL    HW1 2633   1.697   5.399   0.274
  578SOL    HW2 2634   1.535   5.387   0.274
  579SOL     OW 2635   2.356   4.803   2.640
  579SOL    HW1 2636   2.378   4.896   2.608
  579SOL    HW2 2637   2.295   4.759   2.574
  580SOL     OW 2638   4.539   5.191   5.016
  580SOL    HW1 2639   4.609   5.123   5.042
  580SOL    HW2 2640   4.533   5.261   5.086
  581SOL     OW 2641   0.692   3.131   3.827
  581SOL    HW1 2642   0.614   3.105   3.769
  581SOL    HW2 2643   0.764   3.063   3.819
  582SOL     OW 2644   4.800   5.751   3.478
  582SOL    HW1 2645   4.705   5.760   3.449
  582SOL    HW2 2646   4.838   5.665   3.444
  583SOL     OW 2647   2.974   5.073   5.457
  583SOL    HW1 2648   3.027   5.132   5.518
  583SOL    HW2 2649   2.979   4.978   5.491
  584SOL     OW 2650   3.339   0.257   6.400
  584SOL    HW1 2651   3.319   0.160   6.411
  584SOL    HW2 2652   3.430   0.276   6.436
  585SOL     OW 2653   3.576   6.786   1.393
  585SOL    HW1 2654   3.539   6.735   1.471
  585SOL    HW2 2655   3.676   6.788   1.399
  586SOL     OW 2656   4.164   0.065   1.150
  586SOL    HW1 2657   4.230   0.111   1.209
  586SOL    HW2 2658   4.162   6.990   1.170
  587SOL     OW 2659   5.473   2.160   1.825
  587SOL    HW1 2660   5.423   2.084   1.784
  587SOL    HW2 2661   5.556   2.126   1.869
  588SOL     OW 2662   1.700   5.103   0.872
  588SOL    HW1 2663   1.767   5.082   0.801
  588SOL    HW2 2664   1.614   5.133   0.830
  589SOL     OW 2665   3.348   5.726   1.358
  589SOL    HW1 2666   3.423   5.790   1.377
  589SOL    HW2 2667   3.263   5.778   1.345
  590SOL     OW 2668   5.611   1.536   0.587
  590SOL    HW1 2669   5.558   1.531   0.502
  590SOL    HW2 2670   5.700   1.578   0.568
  591SOL     OW 2671   4.316   5.857   3.916
  591SOL    HW1 2672   4.275   5.948   3.900
  591SOL    HW2 2673   4.344   5.818   3.828
  592SOL     OW 2674   4.871   0.941   3.675
  592SOL    HW1 2675   4.802   1.007   3.646
  592SOL    HW2 2676   4.962   0.973   3.648
  593SOL     OW 2677   3.979   2.215   4.681
  593SOL    HW1 2678   3.992   2.210   4.781
  593SOL    HW2 2679   4.067   2.232   4.637
  594SOL     OW 2680   5.959   2.088   1.267
  594SOL    HW1 2681   5.989   2.178   1.299
  594SOL    HW2 2682   5.917   2.097   1.176
  595SOL     OW 2683   5.253   6.700   3.444
  595SOL    HW1 2684   5.162   6.666   3.465
  595SOL    HW2 2685   5.249   6.799   3.428
  596SOL     OW 2686   0.067   4.688   3.317
  596SOL    HW1 2687   0.056   4.656   3.223
  596SOL    HW2 2688   0.165   4.690   3.339
  597SOL     OW 2689   3.261   0.064   5.816
  597SOL    HW1 2690   3.264   7.010   5.752
  597SOL    HW2 2691   3.275   0.031   5.909
  598SOL     OW 2692   2.903   3.758   4.845
  598SOL    HW1 2693   2.978   3.697   4.870
  598SOL    HW2 2694   2.822   3.703   4.824
  599SOL     OW 2695   1.771   6.193   2.008
  599SOL    HW1 2696   1.870   6.209   2.011
  599SOL    HW2 2697   1.739   6.162   2.098
  600SOL     OW 2698   0.113   3.480   5.465
  600SOL    HW1 2699   0.192   3.529   5.503
  600SOL    HW2 2700   0.054   3.449   5.539
  601SOL     OW 2701   1.646   1.049   5.240
  601SOL    HW1 2702   1.727   1.073   5.185
  601SOL    HW2 2703   1.612   1.131   5.285
  602SOL     OW 2704   3.274   6.806   5.420
  602SOL    HW1 2705   3.189   6.828   5.469
  602SOL    HW2 2706   3.326   6.890   5.404
  603SOL     OW 2707   1.740   1.072   5.956
  603SOL    HW1 2708   1.757   1.118   5.869
  603SOL    HW2 2709   1.822   1.078   6.014
  604SOL     OW 2710   7.017   2.255   1.714
  604SOL    HW1 2711   0.069   2.241   1.780
  604SOL    HW2 2712   0.002   2.187   1.641
  605SOL     OW 2713   0.694   4.865   2.480
  605SOL    HW1 2714   0.727   4.771   2.488
  605SOL    HW2 2715   0.617   4.879   2.542
  606SOL     OW 2716   4.890   6.736   5.546
  606SOL    HW1 2717   4.820   6.718   5.476
  606SOL    HW2 2718   4.846   6.769   5.629
  607SOL     OW 2719   0.837   5.343   5.517
  607SOL    HW1 2720   0.873   5.276   5.452
  607SOL    HW2 2721   0.775   5.297   5.581
  608SOL     OW 2722   4.077   0.119   6.548
  608SOL    HW1 2723   4.089   0.109   6.449
  608SOL    HW2 2724   3.990   0.078   6.576
  609SOL     OW 2725   3.918   2.329   1.746
  609SOL    HW1 2726   3.960   2.295   1.831
  609SOL    HW2 2727   3.820   2.345   1.762
  610SOL     OW 2728   4.512   2.212   0.289
  610SOL    HW1 2729   4.578   2.280   0.323
  610SOL    HW2 2730   4.430   2.259   0.256
  611SOL     OW 2731   4.053   6.906   2.433
  611SOL    HW1 2732   4.152   6.905   2.438
  611SOL    HW2 2733   4.024   6.931   2.340
  612SOL     OW 2734   2.651   4.763   5.640
  612SOL    HW1 2735   2.639   4.677   5.689
  612SOL    HW2 2736   2.701   4.747   5.555
  613SOL     OW 2737   5.513   5.375   5.142
  613SOL    HW1 2738   5.518   5.413   5.050
  613SOL    HW2 2739   5.603   5.338   5.168
  614SOL     OW 2740   4.851   5.321   5.271
  614SOL    HW1 2741   4.880   5.395   5.333
  614SOL    HW2 2742   4.761   5.288   5.299
  615SOL     OW 2743   6.903   4.269   0.478
  615SOL    HW1 2744   6.926   4.172   0.491
  615SOL    HW2 2745   6.823   4.292   0.534
  616SOL     OW 2746   6.492   3.292   3.297
  616SOL    HW1 2747   6.449   3.382   3.303
  616SOL    HW2 2748   6.512   3.258   3.389
  617SOL     OW 2749   1.772   5.167   6.524
  617SOL    HW1 2750   1.820   5.247   6.487
  617SOL    HW2 2751   1.736   5.112   6.449
  618SOL     OW 2752   1.652   2.048   1.765
  618SOL    HW1 2753   1.748   2.024   1.747
  618SOL    HW2 2754   1.648   2.137   1.811
  619SOL     OW 2755   1.705   1.796   0.664
  619SOL    HW1 2756   1.608   1.807   0.640
  619SOL    HW2 2757   1.731   1.867   0.729
  620SOL     OW 2758   4.782   1.770   0.395
  620SOL    HW1 2759   4.872   1.812   0.387
  620SOL    HW2 2760   4.714   1.827   0.348
  621SOL     OW 2761   6.257   5.227   6.582
  621SOL    HW1 2762   6.278   5.325   6.579
  621SOL    HW2 2763   6.342   5.175   6.576
  622SOL     OW 2764   1.851   1.138   0.307
  622SOL    HW1 2765   1.831   1.087   0.224
  622SOL    HW2 2766   1.932   1.099   0.351
  623SOL     OW 2767   0.466   5.635   5.950
  623SOL    HW1 2768   0.368   5.658   5.948
  623SOL    HW2 2769   0.519   5.719   5.938
  624SOL     OW 2770   0.641   2.779   2.172
  624SOL    HW1 2771   0.561   2.837   2.159
  624SOL    HW2 2772   0.623   2.712   2.244
  625SOL     OW 2773   3.394   1.545   1.749
  625SOL    HW1 2774   3.357   1.552   1.841
  625SOL    HW2 2775   3.413   1.636   1.713
  626SOL     OW 2776   1.809   5.860   3.608
  626SOL    HW1 2777   1.769   5.769   3.602
  626SOL    HW2 2778   1.890   5.866   3.550
  627SOL     OW 2779   5.481   0.416   0.522
  627SOL    HW1 2780   5.524   0.479   0.457
  627SOL    HW2 2781   5.385   0.404   0.498
  628SOL     OW 2782   4.940   5.479   4.760
  628SOL    HW1 2783   4.983   5.402   4.714
  628SOL    HW2 2784   5.000   5.513   4.832
  629SOL     OW 2785   0.428   0.093   1.420
  629SOL    HW1 2786   0.408   0.008   1.372
  629SOL    HW2 2787   0.343   0.133   1.453
  630SOL     OW 2788   4.789   2.154   2.032
  630SOL    HW1 2789   4.723   2.215   1.989
  630SOL    HW2 2790   4.839   2.205   2.103
  631SOL     OW 2791   3.258   0.590   5.045
  631SOL    HW1 2792   3.316   0.668   5.022
  631SOL    HW2 2793   3.162   0.616   5.035
  632SOL     OW 2794   2.216   0.953   0.216
  632SOL    HW1 2795   2.300   0.921   0.172
  632SOL    HW2 2796   2.202   1.050   0.195
  633SOL     OW 2797   3.276   5.292   0.575
  633SOL    HW1 2798   3.183   5.272   0.543
  633SOL    HW2 2799   3.288   5.254   0.667
  634SOL     OW 2800   4.271   4.840   1.670
  634SOL    HW1 2801   4.249   4.778   1.746
  634SOL    HW2 2802   4.186   4.871   1.627
  635SOL     OW 2803   4.455   6.769   3.551
  635SOL    HW1 2804   4.397   6.690   3.565
  635SOL    HW2 2805   4.550   6.747   3.576
  636SOL     OW 2806   4.986   5.615   6.065
  636SOL    HW1 2807   4.954   5.544   6.128
  636SOL    HW2 2808   5.071   5.585   6.022
  637SOL     OW 2809   5.316   4.917   1.898
  637SOL    HW1 2810   5.308   4.818   1.883
  637SOL    HW2 2811   5.412   4.941   1.911
  638SOL     OW 2812   5.054   1.299   2.500
  638SOL    HW1 2813   4.994   1.226   2.532
  638SOL    HW2 2814   5.022   1.334   2.412
  639SOL     OW 2815   4.684   4.918   2.075
  639SOL    HW1 2816   4.724   5.000   2.035
  639SOL    HW2 2817   4.750   4.877   2.138
  640SOL     OW 2818   2.239   4.270   5.829
  640SOL    HW1 2819   2.229   4.279   5.730
  640SOL    HW2 2820   2.309   4.202   5.850
  641SOL     OW 2821   0.663   5.287   4.050
  641SOL    HW1 2822   0.707   5.372   4.081
  641SOL    HW2 2823   0.695   5.211   4.107
  642SOL     OW 2824   0.107   4.760   4.376
  642SOL    HW1 2825   0.203   4.765   4.346
  642SOL    HW2 2826   0.098   4.803   4.466
  643SOL     OW 2827   5.803   5.931   4.575
  643SOL    HW1 2828   5.846   5.884   4.652
  643SOL    HW2 2829   5.849   5.903   4.490
  644SOL     OW 2830   0.781   6.264   2.888
  644SOL    HW1 2831   0.870   6.226   2.865
  644SOL    HW2 2832   0.737   6.206   2.957
  645SOL     OW 2833   4.733   2.441   4.476
  645SOL    HW1 2834   4.663   2.474   4.539
  645SOL    HW2 2835   4.788   2.518   4.443
  646SOL     OW 2836   1.919   1.767   3.593
  646SOL    HW1 2837   1.935   1.682   3.644
  646SOL    HW2 2838   2.006   1.799   3.555
  647SOL     OW 2839   6.015   2.856   6.613
  647SOL    HW1 2840   6.046   2.902   6.530
  647SOL    HW2 2841   6.043   2.909   6.693
  648SOL     OW 2842   5.877   3.927   2.709
  648SOL    HW1 2843   5.892   3.873   2.626
  648SOL    HW2 2844   5.962   3.973   2.735
  649SOL     OW 2845   4.023   4.192   0.531
  649SOL    HW1 2846   4.037   4.095   0.512
  649SOL    HW2 2847   4.102   4.227   0.581
  650SOL     OW 2848   4.922   4.446   0.523
  650SOL    HW1 2849   4.971   4.503   0.456
  650SOL    HW2 2850   4.892   4.503   0.599
  651SOL     OW 2851   0.576   6.117   0.821
  651SOL    HW1 2852   0.615   6.135   0.730
  651SOL    HW2 2853   0.544   6.203   0.860
  652SOL     OW 2854   4.950   6.778   3.461
  652SOL    HW1 2855   4.904   6.705   3.512
  652SOL    HW2 2856   4.886   6.854   3.448
  653SOL     OW 2857   3.165   5.592   4.861
  653SOL    HW1 2858   3.246   5.571   4.915
  653SOL    HW2 2859   3.186   5.580   4.764
  654SOL     OW 2860   0.017   5.162   5.972
  654SOL    HW1 2861   6.964   5.191   6.030
  654SOL    HW2 2862   7.014   5.173   5.876
  655SOL     OW 2863   0.531   6.971   2.082
  655SOL    HW1 2864   0.604   6.921   2.036
  655SOL    HW2 2865   0.525   0.041   2.046
  656SOL     OW 2866   1.971   6.059   2.369
  656SOL    HW1 2867   1.999   5.984   2.309
  656SOL    HW2 2868   1.917   6.125   2.317
  657SOL     OW 2869   2.114   1.785   1.397
  657SOL    HW1 2870   2.177   1.736   1.337
  657SOL    HW2 2871   2.042   1.723   1.428
  658SOL     OW 2872   3.420   3.614   6.998
  658SOL    HW1 2873   3.365   3.644   6.920
  658SOL    HW2 2874   3.423   3.687   0.044
  659SOL     OW 2875   2.992   6.732   6.216
  659SOL    HW1 2876   3.025   6.647   6.175
  659SOL    HW2 2877   2.901   6.717   6.254
  660SOL     OW 2878   3.871   5.848   1.991
  660SOL    HW1 2879   3.959   5.813   2.021
  660SOL    HW2 2880   3.812   5.772   1.965
  661SOL     OW 2881   4.143   6.253   3.550
  661SOL    HW1 2882   4.195   6.246   3.635
  661SOL    HW2 2883   4.081   6.174   3.542
  662SOL     OW 2884   3.520   0.985   5.115
  662SOL    HW1 2885   3.482   1.057   5.057
  662SOL    HW2 2886   3.619   0.978   5.099
  663SOL     OW 2887   1.898   4.039   4.934
  663SOL    HW1 2888   1.956   3.958   4.941
  663SOL    HW2 2889   1.809   4.014   4.897
  664SOL     OW 2890   0.040   6.713   5.716
  664SOL    HW1 2891   0.136   6.705   5.691
  664SOL    HW2 2892   0.032   6.724   5.815
  665SOL     OW 2893   3.628   5.453   3.780
  665SOL    HW1 2894   3.536   5.427   3.810
  665SOL    HW2 2895   3.683   5.479   3.860
  666SOL     OW 2896   4.340   0.616   1.897
  666SOL    HW1 2897   4.304   0.612   1.804
  666SOL    HW2 2898   4.359   0.523   1.929
  667SOL     OW 2899   1.008   5.153   1.794
  667SOL    HW1 2900   0.916   5.173   1.826
  667SOL    HW2 2901   1.005   5.128   1.697
  668SOL     OW 2902   5.801   5.367   6.053
  668SOL    HW1 2903   5.881   5.313   6.028
  668SOL    HW2 2904   5.831   5.457   6.086
  669SOL     OW 2905   5.766   1.318   3.093
  669SOL    HW1 2906   5.844   1.273   3.050
  669SOL    HW2 2907   5.797   1.393   3.150
  670SOL     OW 2908   2.151   1.670   2.590
  670SOL    HW1 2909   2.079   1.734   2.565
  670SOL    HW2 2910   2.230   1.685   2.530
  671SOL     OW 2911   3.253   6.002   1.581
  671SOL    HW1 2912   3.207   6.046   1.657
  671SOL    HW2 2913   3.343   6.044   1.567
  672SOL     OW 2914   0.067   4.987   1.881
  672SOL    HW1 2915   0.039   4.893   1.897
  672SOL    HW2 2916   0.140   5.011   1.946
  673SOL     OW 2917   5.549   6.877   1.312
  673SOL    HW1 2918   5.542   6.923   1.224
  673SOL    HW2 2919   5.613   6.927   1.371
  674SOL     OW 2920   0.507   2.048   5.052
  674SOL    HW1 2921   0.519   2.135   5.004
  674SOL    HW2 2922   0.495   2.066   5.150
  675SOL     OW 2923   6.080   2.496   2.214
  675SOL    HW1 2924   5.999   2.437   2.222
  675SOL    HW2 2925   6.068   2.558   2.137
  676SOL     OW 2926   2.441   4.731   4.676
  676SOL    HW1 2927   2.441   4.804   4.744
  676SOL    HW2 2928   2.417   4.768   4.586
  677SOL     OW 2929   5.121   0.946   1.500
  677SOL    HW1 2930   5.029   0.944   1.539
  677SOL    HW2 2931   5.166   0.858   1.516
  678SOL     OW 2932   2.549   4.584   4.898
  678SOL    HW1 2933   2.643   4.603   4.924
  678SOL    HW2 2934   2.527   4.636   4.815
  679SOL     OW 2935   5.137   1.851   5.160
  679SOL    HW1 2936   5.122   1.812   5.069
  679SOL    HW2 2937   5.204   1.925   5.154
  680SOL     OW 2938   4.972   6.268   4.698
  680SOL    HW1 2939   4.915   6.191   4.668
  680SOL    HW2 2940   4.959   6.282   4.796
  681SOL     OW 2941   4.656   5.753   2.094
  681SOL    HW1 2942   4.684   5.829   2.035
  681SOL    HW2 2943   4.632   5.787   2.184
  682SOL     OW 2944   6.954   1.452   1.611
  682SOL    HW1 2945   6.904   1.366   1.621
  682SOL    HW2 2946   6.902   1.526   1.655
  683SOL     OW 2947   4.501   3.176   1.063
  683SOL    HW1 2948   4.411   3.220   1.068
  683SOL    HW2 2949   4.496   3.096   1.003
  684SOL     OW 2950   6.254   0.336   6.636
  684SOL    HW1 2951   6.188   0.303   6.569
  684SOL    HW2 2952   6.310   0.259   6.667
  685SOL     OW 2953   3.109   1.862   3.644
  685SOL    HW1 2954   3.131   1.818   3.731
  685SOL    HW2 2955   3.193   1.890   3.598
  686SOL     OW 2956   4.642   1.220   3.769
  686SOL    HW1 2957   4.546   1.215   3.797
  686SOL    HW2 2958   4.695   1.263   3.843
  687SOL     OW 2959   0.941   1.524   4.668
  687SOL    HW1 2960   0.937   1.538   4.569
  687SOL    HW2 2961   0.883   1.446   4.693
  688SOL     OW 2962   6.984   0.877   5.772
  688SOL    HW1 2963   0.039   0.822   5.744
  688SOL    HW2 2964   6.900   0.841   5.730
  689SOL     OW 2965   1.522   4.414   6.226
  689SOL    HW1 2966   1.496   4.320   6.248
  689SOL    HW2 2967   1.621   4.425   6.235
  690SOL     OW 2968   6.904   3.718   3.406
  690SOL    HW1 2969   6.997   3.687   3.385
  690SOL    HW2 2970   6.887   3.804   3.359
  691SOL     OW 2971   4.234   1.337   0.746
  691SOL    HW1 2972   4.182   1.421   0.724
  691SOL    HW2 2973   4.206   1.264   0.684
  692SOL     OW 2974   3.278   1.596   5.162
  692SOL    HW1 2975   3.264   1.628   5.256
  692SOL    HW2 2976   3.275   1.674   5.099
  693SOL     OW 2977   4.753   6.409   3.716
  693SOL    HW1 2978   4.771   6.364   3.803
  693SOL    HW2 2979   4.655   6.403   3.695
  694SOL     OW 2980   4.277   5.932   4.170
  694SOL    HW1 2981   4.306   5.896   4.081
  694SOL    HW2 2982   4.178   5.920   4.179
  695SOL     OW 2983   3.540   5.729   4.792
  695SOL    HW1 2984   3.521   5.682   4.878
  695SOL    HW2 2985   3.491   5.816   4.790
  696SOL     OW 2986   4.786   4.007   3.680
  696SOL    HW1 2987   4.779   4.060   3.596
  696SOL    HW2 2988   4.879   4.013   3.716
  697SOL     OW 2989   1.031   3.311   2.157
  697SOL    HW1 2990   0.959   3.250   2.126
  697SOL    HW2 2991   1.110   3.304   2.095
  698SOL     OW 2992   4.776   6.608   1.904
  698SOL    HW1 2993   4.683   6.576   1.884
  698SOL    HW2 2994   4.790   6.608   2.003
  699SOL     OW 2995   2.135   3.493   6.873
  699SOL    HW1 2996   2.138   3.407   6.925
  699SOL    HW2 2997   2.042   3.529   6.874
  700SOL     OW 2998   2.947   0.093   1.869
  700SOL    HW1 2999   2.984   0.007   1.834
  700SOL    HW2 3000   3.012   0.135   1.932
  701SOL     OW 3001   6.446   4.757   1.050
  701SOL    HW1 3002   6.352   4.791   1.037
  701SOL    HW2 3003   6.493   4.816   1.116
  702SOL     OW 3004   2.267   6.986   4.384
  702SOL    HW1 3005   2.255   0.047   4.331
  702SOL    HW2 3006   2.344   6.934   4.347
  703SOL     OW 3007   3.124   3.400   5.472
  703SOL    HW1 3008   3.060   3.328   5.447
  703SOL    HW2 3009   3.170   3.433   5.390
  704SOL     OW 3010   2.071   2.657   6.072
  704SOL    HW1 3011   2.016   2.706   6.140
  704SOL    HW2 3012   2.161   2.638   6.110
  705SOL     OW 3013   6.860   6.044   3.645
  705SOL    HW1 3014   6.951   6.048   3.688
  705SOL    HW2 3015   6.864   6.086   3.555
  706SOL     OW 3016   4.139   1.776   5.307
  706SOL    HW1 3017   4.069   1.715   5.269
  706SOL    HW2 3018   4.112   1.871   5.292
  707SOL     OW 3019   4.021   5.598   3.333
  707SOL    HW1 3020   4.006   5.506   3.369
  707SOL    HW2 3021   4.039   5.594   3.235
  708SOL     OW 3022   2.444   1.821   3.707
  708SOL    HW1 3023   2.420   1.729   3.676
  708SOL    HW2 3024   2.541   1.838   3.686
  709SOL     OW 3025   1.576   6.862   1.592
  709SOL    HW1 3026   1.522   6.782   1.568
  709SOL    HW2 3027   1.672   6.836   1.602
  710SOL     OW 3028   5.007   2.434   1.925
  710SOL    HW1 3029   4.931   2.386   1.881
  710SOL    HW2 3030   5.000   2.532   1.905
  711SOL     OW 3031   0.019   3.067   6.271
  711SOL    HW1 3032   0.113   3.074   6.239
  711SOL    HW2 3033   0.019   3.036   6.366
  712SOL     OW 3034   4.997   2.282   0.821
  712SOL    HW1 3035   4.947   2.311   0.903
  712SOL    HW2 3036   4.987   2.183   0.809
  713SOL     OW 3037   4.387   2.700   5.305
  713SOL    HW1 3038   4.396   2.651   5.392
  713SOL    HW2 3039   4.342   2.640   5.238
  714SOL     OW 3040   6.131   5.189   3.932
  714SOL    HW1 3041   6.105   5.172   3.837
  714SOL    HW2 3042   6.218   5.144   3.952
  715SOL     OW 3043   6.518   4.794   5.392
  715SOL    HW1 3044   6.541   4.723   5.458
  715SOL    HW2 3045   6.514   4.882   5.438
  716SOL     OW 3046   2.080   0.978   3.286
  716SOL    HW1 3047   2.099   1.057   3.227
  716SOL    HW2 3048   2.031   0.908   3.234
  717SOL     OW 3049   6.158   4.807   4.106
  717SOL    HW1 3050   6.256   4.789   4.117
  717SOL    HW2 3051   6.115   4.814   4.196
  718SOL     OW 3052   5.079   3.086   4.767
  718SOL    HW1 3053   5.034   3.166   4.807
  718SOL    HW2 3054   5.029   3.003   4.793
  719SOL     OW 3055   6.098   0.141   2.230
  719SOL    HW1 3056   6.059   0.111   2.317
  719SOL    HW2 3057   6.197   0.149   2.239
  720SOL     OW 3058   2.737   0.418   5.800
  720SOL    HW1 3059   2.738   0.371   5.888
  720SOL    HW2 3060   2.816   0.390   5.746
  721SOL     OW 3061   0.662   1.415   2.248
  721SOL    HW1 3062   0.658   1.378   2.155
  721SOL    HW2 3063   0.756   1.408   2.283
  722SOL     OW 3064   3.447   0.930   6.519
  722SOL    HW1 3065   3.348   0.918   6.512
  722SOL    HW2 3066   3.480   0.887   6.604
  723SOL     OW 3067   1.923   6.335   3.657
  723SOL    HW1 3068   1.877   6.363   3.572
  723SOL    HW2 3069   2.020   6.356   3.651
  724SOL     OW 3070   6.799   0.954   3.625
  724SOL    HW1 3071   6.779   1.020   3.698
  724SOL    HW2 3072   6.863   0.996   3.560
  725SOL     OW 3073   1.784   4.626   2.294
  725SOL    HW1 3074   1.702   4.580   2.330
  725SOL    HW2 3075   1.801   4.595   2.201
  726SOL     OW 3076   2.597   5.309   1.187
  726SOL    HW1 3077   2.694   5.288   1.190
  726SOL    HW2 3078   2.551   5.270   1.267
  727SOL     OW 3079   4.806   5.263   5.972
  727SOL    HW1 3080   4.833   5.184   5.915
  727SOL    HW2 3081   4.800   5.344   5.914
  728SOL     OW 3082   0.013   3.170   4.765
  728SOL    HW1 3083   0.023   3.134   4.857
  728SOL    HW2 3084   7.004   3.265   4.769
  729SOL     OW 3085   0.693   2.918   1.170
  729SOL    HW1 3086   0.602   2.955   1.153
  729SOL    HW2 3087   0.728   2.954   1.256
  730SOL     OW 3088   5.545   0.758   3.050
  730SOL    HW1 3089   5.515   0.775   2.956
  730SOL    HW2 3090   5.465   0.747   3.109
  731SOL     OW 3091   4.740   4.358   6.470
  731SOL    HW1 3092   4.686   4.348   6.553
  731SOL    HW2 3093   4.811   4.288   6.467
  732SOL     OW 3094   5.276   1.996   2.460
  732SOL    HW1 3095   5.203   2.054   2.424
  732SOL    HW2 3096   5.321   2.042   2.536
  733SOL     OW 3097   5.637   0.585   4.390
  733SOL    HW1 3098   5.704   0.630   4.331
  733SOL    HW2 3099   5.562   0.550   4.334
  734SOL     OW 3100   6.297   4.419   2.756
  734SOL    HW1 3101   6.231   4.473   2.809
  734SOL    HW2 3102   6.390   4.438   2.789
  735SOL     OW 3103   5.270   0.602   1.760
  735SOL    HW1 3104   5.357   0.648   1.780
  735SOL    HW2 3105   5.281   0.503   1.768
  736SOL     OW 3106   1.308   1.576   3.958
  736SOL    HW1 3107   1.335   1.483   3.984
  736SOL    HW2 3108   1.372   1.612   3.890
  737SOL     OW 3109   5.792   2.020   5.740
  737SOL    HW1 3110   5.768   2.028   5.644
  737SOL    HW2 3111   5.768   1.929   5.774
  738SOL     OW 3112   2.717   3.948   1.380
  738SOL    HW1 3113   2.799   3.999   1.354
  738SOL    HW2 3114   2.643   4.012   1.401
  739SOL     OW 3115   3.766   0.287   5.241
  739SOL    HW1 3116   3.788   0.237   5.157
  739SOL    HW2 3117   3.849   0.323   5.282
  740SOL     OW 3118   5.943   1.936   2.638
  740SOL    HW1 3119   5.969   1.844   2.669
  740SOL    HW2 3120   5.909   1.989   2.715
  741SOL     OW 3121   1.837   1.164   4.820
  741SOL    HW1 3122   1.847   1.230   4.746
  741SOL    HW2 3123   1.904   1.091   4.810
  742SOL     OW 3124   2.422   5.794   1.399
  742SOL    HW1 3125   2.458   5.887   1.400
  742SOL    HW2 3126   2.354   5.783   1.471
  743SOL     OW 3127   0.445   6.475   3.193
  743SOL    HW1 3128   0.410   6.383   3.174
  743SOL    HW2 3129   0.399   6.510   3.275
  744SOL     OW 3130   6.610   0.645   0.328
  744SOL    HW1 3131   6.525   0.691   0.354
  744SOL    HW2 3132   6.683   0.713   0.318
  745SOL     OW 3133   2.119   6.312   5.347
  745SOL    HW1 3134   2.114   6.225   5.298
  745SOL    HW2 3135   2.181   6.374   5.298
  746SOL     OW 3136   5.773   4.163   5.054
  746SOL    HW1 3137   5.757   4.081   5.000
  746SOL    HW2 3138   5.686   4.209   5.074
  747SOL     OW 3139   5.348   5.569   4.130
  747SOL    HW1 3140   5.428   5.533   4.177
  747SOL    HW2 3141   5.275   5.585   4.196
  748SOL     OW 3142   5.073   4.885   2.433
  748SOL    HW1 3143   5.003   4.957   2.436
  748SOL    HW2 3144   5.134   4.900   2.356
  749SOL     OW 3145   5.230   3.412   3.392
  749SOL    HW1 3146   5.259   3.319   3.370
  749SOL    HW2 3147   5.310   3.465   3.423
  750SOL     OW 3148   3.549   0.681   1.328
  750SOL    HW1 3149   3.493   0.762   1.312
  750SOL    HW2 3150   3.489   0.603   1.346
  751SOL     OW 3151   5.201   1.938   0.906
  751SOL    HW1 3152   5.156   2.012   0.957
  751SOL    HW2 3153   5.299   1.940   0.924
  752SOL     OW 3154   3.748   2.468   6.157
  752SOL    HW1 3155   3.668   2.462   6.098
  752SOL    HW2 3156   3.776   2.376   6.186
  753SOL     OW 3157   2.719   3.391   5.313
  753SOL    HW1 3158   2.736   3.485   5.341
  753SOL    HW2 3159   2.654   3.348   5.377
  754SOL     OW 3160   5.236   0.971   0.128
  754SOL    HW1 3161   5.335   0.966   0.138
  754SOL    HW2 3162   5.193   0.941   0.214
  755SOL     OW 3163   3.017   4.381   5.335
  755SOL    HW1 3164   3.052   4.446   5.402
  755SOL    HW2 3165   2.964   4.429   5.265
  756SOL     OW 3166   3.483   4.989   7.017
  756SOL    HW1 3167   3.487   4.921   0.068
  756SOL    HW2 3168   3.445   5.074   0.029
  757SOL     OW 3169   2.119   6.892   2.665
  757SOL    HW1 3170   2.208   6.897   2.618
  757SOL    HW2 3171   2.071   6.979   2.653
  758SOL     OW 3172   3.373   1.116   3.713
  758SOL    HW1 3173   3.295   1.135   3.653
  758SOL    HW2 3174   3.366   1.171   3.796
  759SOL     OW 3175   0.403   2.089   3.177
  759SOL    HW1 3176   0.436   2.182   3.193
  759SOL    HW2 3177   0.305   2.091   3.157
  760SOL     OW 3178   6.371   6.558   3.794
  760SOL    HW1 3179   6.445   6.620   3.768
  760SOL    HW2 3180   6.353   6.568   3.892
  761SOL     OW 3181   5.714   4.825   5.427
  761SOL    HW1 3182   5.678   4.763   5.358
  761SOL    HW2 3183   5.811   4.804   5.443
  762SOL     OW 3184   2.720   6.510   5.852
  762SOL    HW1 3185   2.627   6.483   5.824
  762SOL    HW2 3186   2.744   6.463   5.937
  763SOL     OW 3187   5.239   0.350   6.422
  763SOL    HW1 3188   5.257   0.375   6.327
  763SOL    HW2 3189   5.154   0.299   6.428
  764SOL     OW 3190   5.984   1.324   5.265
  764SOL    HW1 3191   5.896   1.296   5.227
  764SOL    HW2 3192   6.022   1.249   5.320
  765SOL     OW 3193   1.259   6.543   0.609
  765SOL    HW1 3194   1.317   6.582   0.537
  765SOL    HW2 3195   1.313   6.481   0.666
  766SOL     OW 3196   2.572   2.153   5.390
  766SOL    HW1 3197   2.655   2.127   5.342
  766SOL    HW2 3198   2.504   2.080   5.384
  767SOL     OW 3199   6.595   6.699   3.716
  767SOL    HW1 3200   6.625   6.793   3.703
  767SOL    HW2 3201   6.676   6.639   3.723
  768SOL     OW 3202   1.983   6.667   3.056
  768SOL    HW1 3203   1.929   6.749   3.037
  768SOL    HW2 3204   2.050   6.654   2.983
  769SOL     OW 3205   3.788   1.405   5.171
  769SOL    HW1 3206   3.691   1.417   5.150
  769SOL    HW2 3207   3.831   1.348   5.101
  770SOL     OW 3208   1.830   4.659   4.578
  770SOL    HW1 3209   1.906   4.698   4.526
  770SOL    HW2 3210   1.828   4.699   4.669
  771SOL     OW 3211   0.890   5.931   3.136
  771SOL    HW1 3212   0.890   5.847   3.189
  771SOL    HW2 3213   0.919   6.008   3.193
  772SOL     OW 3214   5.596   4.991   6.695
  772SOL    HW1 3215   5.597   4.920   6.766
  772SOL    HW2 3216   5.503   5.006   6.663
  773SOL     OW 3217   1.417   3.549   2.873
  773SOL    HW1 3218   1.381   3.545   2.779
  773SOL    HW2 3219   1.496   3.488   2.880
  774SOL     OW 3220   2.182   1.692   3.338
  774SOL    HW1 3221   2.184   1.773   3.396
  774SOL    HW2 3222   2.261   1.692   3.276
  775SOL     OW 3223   1.884   3.117   4.132
  775SOL    HW1 3224   1.942   3.069   4.067
  775SOL    HW2 3225   1.806   3.158   4.084
  776SOL     OW 3226   6.900   6.297   6.172
  776SOL    HW1 3227   6.854   6.214   6.139
  776SOL    HW2 3228   6.895   6.301   6.271
  777SOL     OW 3229   1.502   3.486   0.445
  777SOL    HW1 3230   1.476   3.567   0.497
  777SOL    HW2 3231   1.458   3.406   0.484
  778SOL     OW 3232   2.682   6.888   1.712
  778SOL    HW1 3233   2.707   6.843   1.626
  778SOL    HW2 3234   2.704   6.986   1.705
  779SOL     OW 3235   0.296   2.614   1.709
  779SOL    HW1 3236   0.374   2.676   1.701
  779SOL    HW2 3237   0.216   2.665   1.741
  780SOL     OW 3238   1.266   2.581   4.371
  780SOL    HW1 3239   1.171   2.610   4.362
  780SOL    HW2 3240   1.320   2.655   4.412
  781SOL     OW 3241   6.482   5.070   6.613
  781SOL    HW1 3242   6.530   5.058   6.700
  781SOL    HW2 3243   6.549   5.090   6.541
  782SOL     OW 3244   2.168   4.256   5.573
  782SOL    HW1 3245   2.120   4.171   5.552
  782SOL    HW2 3246   2.180   4.309   5.489
  783SOL     OW 3247   5.696   5.590   6.733
  783SOL    HW1 3248   5.705   5.511   6.672
  783SOL    HW2 3249   5.605   5.590   6.774
  784SOL     OW 3250   2.426   5.878   2.241
  784SOL    HW1 3251   2.481   5.830   2.172
  784SOL    HW2 3252   2.484   5.902   2.319
  785SOL     OW 3253   0.070   0.529   3.844
  785SOL    HW1 3254   0.136   0.580   3.899
  785SOL    HW2 3255   0.083   0.550   3.748
  786SOL     OW 3256   6.381   0.543   3.325
  786SOL    HW1 3257   6.307   0.490   3.284
  786SOL    HW2 3258   6.424   0.491   3.399
  787SOL     OW 3259   2.271   0.534   0.077
  787SOL    HW1 3260   2.263   0.602   0.150
  787SOL    HW2 3261   2.367   0.525   0.050
  788SOL     OW 3262   3.767   2.985   1.511
  788SOL    HW1 3263   3.833   2.979   1.585
  788SOL    HW2 3264   3.690   2.924   1.529
  789SOL     OW 3265   4.460   5.541   1.836
  789SOL    HW1 3266   4.487   5.527   1.931
  789SOL    HW2 3267   4.403   5.623   1.829
  790SOL     OW 3268   1.205   2.165   1.697
  790SOL    HW1 3269   1.167   2.225   1.627
  790SOL    HW2 3270   1.298   2.139   1.672
  791SOL     OW 3271   2.688   6.000   5.797
  791SOL    HW1 3272   2.725   5.927   5.740
  791SOL    HW2 3273   2.690   6.086   5.746
  792SOL     OW 3274   0.485   1.487   0.924
  792SOL    HW1 3275   0.472   1.422   0.999
  792SOL    HW2 3276   0.561   1.548   0.947
  793SOL     OW 3277   4.997   5.955   4.415
  793SOL    HW1 3278   4.918   6.013   4.432
  793SOL    HW2 3279   4.972   5.859   4.427
  794SOL     OW 3280   3.482   3.217   4.676
  794SOL    HW1 3281   3.564   3.264   4.709
  794SOL    HW2 3282   3.416   3.284   4.642
  795SOL     OW 3283   3.732   0.545   5.549
  795SOL    HW1 3284   3.744   0.640   5.580
  795SOL    HW2 3285   3.815   0.493   5.568
  796SOL     OW 3286   1.614   2.826   6.528
  796SOL    HW1 3287   1.605   2.870   6.439
  796SOL    HW2 3288   1.711   2.806   6.545
  797SOL     OW 3289   4.012   0.074   0.718
  797SOL    HW1 3290   3.999   0.099   0.814
  797SOL    HW2 3291   4.008   6.997   0.708
  798SOL     OW 3292   2.999   6.237   1.620
  798SOL    HW1 3293   3.079   6.261   1.675
  798SOL    HW2 3294   3.011   6.271   1.527
  799SOL     OW 3295   0.040   2.265   6.401
  799SOL    HW1 3296   0.096   2.347   6.395
  799SOL    HW2 3297   7.011   2.266   6.486
  800SOL     OW 3298   6.692   1.152   2.005
  800SOL    HW1 3299   6.694   1.113   1.913
  800SOL    HW2 3300   6.622   1.223   2.010
  801SOL     OW 3301   2.467   5.306   5.342
  801SOL    HW1 3302   2.470   5.206   5.337
  801SOL    HW2 3303   2.397   5.334   5.407
  802SOL     OW 3304   4.627   2.307   6.196
  802SOL    HW1 3305   4.664   2.255   6.119
  802SOL    HW2 3306   4.611   2.402   6.169
  803SOL     OW 3307   2.543   6.856   6.019
  803SOL    HW1 3308   2.519   6.953   6.024
  803SOL    HW2 3309   2.574   6.834   5.926
  804SOL     OW 3310   6.110   6.805   1.216
  804SOL    HW1 3311   6.037   6.738   1.220
  804SOL    HW2 3312   6.175   6.788   1.291
  805SOL     OW 3313   2.109   0.165   3.931
  805SOL    HW1 3314   2.207   0.188   3.926
  805SOL    HW2 3315   2.099   0.066   3.941
  806SOL     OW 3316   0.365   0.364   5.914
  806SOL    HW1 3317   0.398   0.273   5.938
  806SOL    HW2 3318   0.370   0.376   5.815
  807SOL     OW 3319   0.659   6.784   4.278
  807SOL    HW1 3320   0.623   6.875   4.262
  807SOL    HW2 3321   0.590   6.727   4.323
  808SOL     OW 3322   5.914   2.707   0.560
  808SOL    HW1 3323   5.911   2.703   0.460
  808SOL    HW2 3324   5.832   2.752   0.594
  809SOL     OW 3325   0.355   5.464   6.844
  809SOL    HW1 3326   0.257   5.473   6.856
  809SOL    HW2 3327   0.396   5.430   6.929
  810SOL     OW 3328   2.775   3.596   0.837
  810SOL    HW1 3329   2.868   3.618   0.809
  810SOL    HW2 3330   2.711   3.627   0.766
  811SOL     OW 3331   5.463   4.971   4.794
  811SOL    HW1 3332   5.547   4.990   4.844
  811SOL    HW2 3333   5.387   5.023   4.835
  812SOL     OW 3334   0.476   2.092   2.452
  812SOL    HW1 3335   0.380   2.096   2.480
  812SOL    HW2 3336   0.489   2.017   2.387
  813SOL     OW 3337   2.276   0.445   4.117
  813SOL    HW1 3338   2.365   0.427   4.158
  813SOL    HW2 3339   2.204   0.402   4.172
  814SOL     OW 3340   6.632   5.680   2.118
  814SOL    HW1 3341   6.584   5.611   2.173
  814SOL    HW2 3342   6.566   5.732   2.064
  815SOL     OW 3343   4.786   2.818   3.580
  815SOL    HW1 3344   4.736   2.877   3.644
  815SOL    HW2 3345   4.884   2.836   3.589
  816SOL     OW 3346   5.206   4.070   0.473
  816SOL    HW1 3347   5.123   4.114   0.507
  816SOL    HW2 3348   5.259   4.136   0.420
  817SOL     OW 3349   1.391   5.403   1.012
  817SOL    HW1 3350   1.423   5.338   1.080
  817SOL    HW2 3351   1.348   5.354   0.936
  818SOL     OW 3352   5.647   2.805   3.560
  818SOL    HW1 3353   5.571   2.741   3.548
  818SOL    HW2 3354   5.612   2.899   3.562
  819SOL     OW 3355   5.760   2.647   1.190
  819SOL    HW1 3356   5.839   2.670   1.247
  819SOL    HW2 3357   5.709   2.572   1.231
  820SOL     OW 3358   2.760   2.040   4.596
  820SOL    HW1 3359   2.827   2.066   4.526
  820SOL    HW2 3360   2.744   2.118   4.656
  821SOL     OW 3361   5.938   5.054   4.559
  821SOL    HW1 3362   6.028   5.097   4.564
  821SOL    HW2 3363   5.895   5.079   4.472
  822SOL     OW 3364   0.188   4.374   3.304
  822SOL    HW1 3365   0.244   4.453   3.328
  822SOL    HW2 3366   0.111   4.404   3.248
  823SOL     OW 3367   0.244   4.044   5.661
  823SOL    HW1 3368   0.308   3.971   5.682
  823SOL    HW2 3369   0.294   4.123   5.626
  824SOL     OW 3370   5.523   1.427   5.226
  824SOL    HW1 3371   5.523   1.347   5.285
  824SOL    HW2 3372   5.548   1.401   5.133
  825SOL     OW 3373   6.295   6.059   0.730
  825SOL    HW1 3374   6.283   6.148   0.687
  825SOL    HW2 3375   6.336   6.071   0.821
  826SOL     OW 3376   3.809   2.211   6.163
  826SOL    HW1 3377   3.773   2.214   6.070
  826SOL    HW2 3378   3.895   2.160   6.164
  827SOL     OW 3379   3.004   3.973   5.039
  827SOL    HW1 3380   3.085   3.978   4.981
  827SOL    HW2 3381   2.957   3.886   5.024
  828SOL     OW 3382   6.123   5.543   4.766
  828SOL    HW1 3383   6.222   5.529   4.755
  828SOL    HW2 3384   6.096   5.512   4.857
  829SOL     OW 3385   3.707   2.875   1.890
  829SOL    HW1 3386   3.744   2.959   1.849
  829SOL    HW2 3387   3.783   2.817   1.919
  830SOL     OW 3388   5.843   4.956   6.515
  830SOL    HW1 3389   5.759   4.984   6.561
  830SOL    HW2 3390   5.921   4.977   6.574
  831SOL     OW 3391   5.616   6.680   1.592
  831SOL    HW1 3392   5.630   6.769   1.549
  831SOL    HW2 3393   5.631   6.608   1.524
  832SOL     OW 3394   4.300   1.590   4.276
  832SOL    HW1 3395   4.278   1.510   4.331
  832SOL    HW2 3396   4.399   1.596   4.263
  833SOL     OW 3397   1.043   3.666   6.657
  833SOL    HW1 3398   1.070   3.572   6.679
  833SOL    HW2 3399   1.125   3.718   6.631
  834SOL     OW 3400   4.627   3.450   6.624
  834SOL    HW1 3401   4.657   3.427   6.531
  834SOL    HW2 3402   4.588   3.543   6.624
  835SOL     OW 3403   2.167   0.733   5.046
  835SOL    HW1 3404   2.116   0.669   5.103
  835SOL    HW2 3405   2.197   0.810   5.101
  836SOL     OW 3406   3.053   1.600   5.688
  836SOL    HW1 3407   3.133   1.542   5.669
  836SOL    HW2 3408   3.037   1.661   5.611
  837SOL     OW 3409   1.346   0.257   1.442
  837SOL    HW1 3410   1.333   0.161   1.418
  837SOL    HW2 3411   1.444   0.279   1.439
  838SOL     OW 3412   1.868   6.108   4.384
  838SOL    HW1 3413   1.908   6.183   4.331
  838SOL    HW2 3414   1.931   6.031   4.387
  839SOL     OW 3415   2.671   1.365   1.672
  839SOL    HW1 3416   2.641   1.460   1.678
  839SOL    HW2 3417   2.761   1.361   1.628
  840SOL     OW 3418   5.934   5.793   0.224
  840SOL    HW1 3419   5.910   5.889   0.233
  840SOL    HW2 3420   5.910   5.745   0.309
  841SOL     OW 3421   4.187   5.464   5.965
  841SOL    HW1 3422   4.241   5.474   5.881
  841SOL    HW2 3423   4.245   5.485   6.044
  842SOL     OW 3424   3.320   6.601   6.983
  842SOL    HW1 3425   3.376   6.670   0.006
  842SOL    HW2 3426   3.228   6.637   6.969
  843SOL     OW 3427   2.223   2.042   1.866
  843SOL    HW1 3428   2.183   1.952   1.887
  843SOL    HW2 3429   2.171   2.113   1.915
  844SOL     OW 3430   0.397   6.376   1.306
  844SOL    HW1 3431   0.480   6.414   1.347
  844SOL    HW2 3432   0.320   6.435   1.328
  845SOL     OW 3433   4.385   2.222   3.147
  845SOL    HW1 3434   4.287   2.209   3.165
  845SOL    HW2 3435   4.398   2.304   3.092
  846SOL     OW 3436   2.894   1.448   5.852
  846SOL    HW1 3437   2.814   1.453   5.793
  846SOL    HW2 3438   2.964   1.511   5.819
  847SOL     OW 3439   2.316   3.192   1.606
  847SOL    HW1 3440   2.407   3.229   1.622
  847SOL    HW2 3441   2.303   3.175   1.508
  848SOL     OW 3442   6.408   6.657   5.787
  848SOL    HW1 3443   6.323   6.703   5.810
  848SOL    HW2 3444   6.485   6.711   5.820
  849SOL     OW 3445   6.176   3.345   0.457
  849SOL    HW1 3446   6.152   3.422   0.515
  849SOL    HW2 3447   6.142   3.260   0.498
  850SOL     OW 3448   0.376   0.732   4.995
  850SOL    HW1 3449   0.359   0.827   4.969
  850SOL    HW2 3450   0.339   0.714   5.086
  851SOL     OW 3451   6.804   3.362   6.794
  851SOL    HW1 3452   6.900   3.338   6.779
  851SOL    HW2 3453   6.755   3.281   6.827
  852SOL     OW 3454   0.183   4.761   0.828
  852SOL    HW1 3455   0.093   4.740   0.790
  852SOL    HW2 3456   0.241   4.679   0.824
  853SOL     OW 3457   2.182   4.119   6.347
  853SOL    HW1 3458   2.237   4.103   6.429
  853SOL    HW2 3459   2.161   4.032   6.304
  854SOL     OW 3460   6.059   6.530   6.958
  854SOL    HW1 3461   6.101   6.546   0.024
  854SOL    HW2 3462   5.987   6.598   6.942
  855SOL     OW 3463   6.855   0.616   7.012
  855SOL    HW1 3464   6.866   0.535   0.048
  855SOL    HW2 3465   6.760   0.622   6.981
  856SOL     OW 3466   1.364   6.639   6.214
  856SOL    HW1 3467   1.312   6.654   6.130
  856SOL    HW2 3468   1.353   6.543   6.243
  857SOL     OW 3469   0.178   4.706   2.677
  857SOL    HW1 3470   0.216   4.650   2.603
  857SOL    HW2 3471   0.088   4.741   2.651
  858SOL     OW 3472   3.085   3.697   1.376
  858SOL    HW1 3473   3.007   3.709   1.438
  858SOL    HW2 3474   3.089   3.601   1.347
  859SOL     OW 3475   4.660   6.102   5.436
  859SOL    HW1 3476   4.579   6.160   5.428
  859SOL    HW2 3477   4.711   6.128   5.518
  860SOL     OW 3478   5.573   3.046   6.397
  860SOL    HW1 3479   5.630   2.983   6.449
  860SOL    HW2 3480   5.478   3.017   6.402
  861SOL     OW 3481   1.829   5.474   2.991
  861SOL    HW1 3482   1.730   5.468   2.979
  861SOL    HW2 3483   1.874   5.460   2.902
  862SOL     OW 3484   2.036   5.005   3.818
  862SOL    HW1 3485   1.957   4.952   3.847
  862SOL    HW2 3486   2.117   4.977   3.871
  863SOL     OW 3487   6.205   0.863   6.056
  863SOL    HW1 3488   6.288   0.862   6.000
  863SOL    HW2 3489   6.129   0.897   6.003
  864SOL     OW 3490   5.049   0.331   5.343
  864SOL    HW1 3491   5.106   0.276   5.281
  864SOL    HW2 3492   5.085   0.424   5.347
  865SOL     OW 3493   1.888   6.967   5.552
  865SOL    HW1 3494   1.951   6.979   5.629
  865SOL    HW2 3495   1.938   6.980   5.466
  866SOL     OW 3496   3.554   6.460   0.900
  866SOL    HW1 3497   3.584   6.536   0.843
  866SOL    HW2 3498   3.546   6.378   0.845
  867SOL     OW 3499   5.705   2.839   0.675
  867SOL    HW1 3500   5.679   2.893   0.594
  867SOL    HW2 3501   5.693   2.895   0.757
  868SOL     OW 3502   0.194   2.378   2.454
  868SOL    HW1 3503   0.259   2.316   2.497
  868SOL    HW2 3504   0.209   2.471   2.489
  869SOL     OW 3505   0.256   3.720   4.029
  869SOL    HW1 3506   0.315   3.747   3.954
  869SOL    HW2 3507   0.230   3.802   4.081
  870SOL     OW 3508   4.125   4.553   1.110
  870SOL    HW1 3509   4.203   4.578   1.052
  870SOL    HW2 3510   4.066   4.489   1.060
  871SOL     OW 3511   5.153   1.878   4.073
  871SOL    HW1 3512   5.118   1.853   4.163
  871SOL    HW2 3513   5.198   1.967   4.078
  872SOL     OW 3514   0.023   2.031   4.378
  872SOL    HW1 3515   0.015   1.991   4.287
  872SOL    HW2 3516   0.030   1.958   4.446
  873SOL     OW 3517   4.496   6.519   5.559
  873SOL    HW1 3518   4.481   6.432   5.513
  873SOL    HW2 3519   4.591   6.548   5.544
  874SOL     OW 3520   5.818   4.257   6.650
  874SOL    HW1 3521   5.822   4.334   6.588
  874SOL    HW2 3522   5.892   4.264   6.718
  875SOL     OW 3523   5.365   6.123   0.695
  875SOL    HW1 3524   5.370   6.025   0.715
  875SOL    HW2 3525   5.375   6.175   0.780
  876SOL     OW 3526   0.746   5.169   1.886
  876SOL    HW1 3527   0.664   5.118   1.861
  876SOL    HW2 3528   0.723   5.239   1.954
  877SOL     OW 3529   3.159   4.283   6.400
  877SOL    HW1 3530   3.127   4.189   6.387
  877SOL    HW2 3531   3.205   4.291   6.489
  878SOL     OW 3532   4.495   6.986   3.875
  878SOL    HW1 3533   4.521   6.901   3.921
  878SOL    HW2 3534   4.562   7.005   3.802
  879SOL     OW 3535   3.562   0.306   1.552
  879SOL    HW1 3536   3.651   0.309   1.507
  879SOL    HW2 3537   3.508   0.385   1.524
  880SOL     OW 3538   4.057   3.763   3.914
  880SOL    HW1 3539   4.106   3.706   3.849
  880SOL    HW2 3540   3.980   3.808   3.868
  881SOL     OW 3541   4.949   3.377   4.847
  881SOL    HW1 3542   4.898   3.433   4.912
  881SOL    HW2 3543   4.893   3.363   4.765
  882SOL     OW 3544   1.053   2.990   4.029
  882SOL    HW1 3545   1.135   3.045   4.013
  882SOL    HW2 3546   1.077   2.893   4.024
  883SOL     OW 3547   3.353   1.017   1.975
  883SOL    HW1 3548   3.382   0.922   1.962
  883SOL    HW2 3549   3.429   1.070   2.014
  884SOL     OW 3550   5.502   3.445   6.178
  884SOL    HW1 3551   5.512   3.539   6.145
  884SOL    HW2 3552   5.575   3.388   6.140
  885SOL     OW 3553   3.509   1.429   5.091
  885SOL    HW1 3554   3.524   1.354   5.156
  885SOL    HW2 3555   3.437   1.489   5.126
  886SOL     OW 3556   3.765   0.294   0.274
  886SOL    HW1 3557   3.696   0.334   0.335
  886SOL    HW2 3558   3.833   0.245   0.329
  887SOL     OW 3559   3.657   7.016   4.215
  887SOL    HW1 3560   3.695   6.997   4.305
  887SOL    HW2 3561   3.564   0.028   4.225
  888SOL     OW 3562   0.120   6.249   2.862
  888SOL    HW1 3563   0.165   6.328   2.822
  888SOL    HW2 3564   0.042   6.279   2.916
  889SOL     OW 3565   0.123   3.794   0.761
  889SOL    HW1 3566   0.076   3.716   0.720
  889SOL    HW2 3567   0.114   3.790   0.861
  890SOL     OW 3568   1.211   5.649   3.080
  890SOL    HW1 3569   1.140   5.581   3.099
  890SOL    HW2 3570   1.221   5.658   2.980
  891SOL     OW 3571   5.510   5.465   0.454
  891SOL    HW1 3572   5.560   5.379   0.445
  891SOL    HW2 3573   5.435   5.468   0.387
  892SOL     OW 3574   2.260   3.761   5.248
  892SOL    HW1 3575   2.315   3.826   5.197
  892SOL    HW2 3576   2.318   3.685   5.279
  893SOL     OW 3577   1.938   6.654   2.552
  893SOL    HW1 3578   1.889   6.617   2.630
  893SOL    HW2 3579   1.920   6.753   2.546
  894SOL     OW 3580   0.968   3.106   1.939
  894SOL    HW1 3581   1.020   3.038   1.887
  894SOL    HW2 3582   0.913   3.059   2.009
  895SOL     OW 3583   0.414   4.563   3.762
  895SOL    HW1 3584   0.466   4.484   3.795
  895SOL    HW2 3585   0.318   4.552   3.789
  896SOL     OW 3586   5.485   5.000   0.468
  896SOL    HW1 3587   5.485   4.903   0.443
  896SOL    HW2 3588   5.451   5.011   0.561
  897SOL     OW 3589   4.254   1.680   6.961
  897SOL    HW1 3590   4.319   1.675   0.014
  897SOL    HW2 3591   4.169   1.633   6.986
  898SOL     OW 3592   2.976   6.251   2.638
  898SOL    HW1 3593   2.905   6.314   2.606
  898SOL    HW2 3594   2.996   6.269   2.734
  899SOL     OW 3595   0.222   6.267   6.420
  899SOL    HW1 3596   0.245   6.348   6.474
  899SOL    HW2 3597   0.305   6.221   6.392
  900SOL     OW 3598   5.869   6.885   0.601
  900SOL    HW1 3599   5.896   6.977   0.575
  900SOL    HW2 3600   5.913   6.859   0.686
  901SOL     OW 3601   2.211   6.791   3.272
  901SOL    HW1 3602   2.291   6.841   3.238
  901SOL    HW2 3603   2.135   6.802   3.209
  902SOL     OW 3604   0.836   2.622   0.653
  902SOL    HW1 3605   0.846   2.704   0.595
  902SOL    HW2 3606   0.831   2.650   0.749
  903SOL     OW 3607   0.143   2.630   0.017
  903SOL    HW1 3608   0.107   2.703   0.075
  903SOL    HW2 3609   0.091   2.626   6.954
  904SOL     OW 3610   2.648   2.132   2.694
  904SOL    HW1 3611   2.608   2.097   2.609
  904SOL    HW2 3612   2.745   2.150   2.680
  905SOL     OW 3613   5.381   1.720   6.765
  905SOL    HW1 3614   5.337   1.731   6.676
  905SOL    HW2 3615   5.314   1.737   6.837
  906SOL     OW 3616   0.096   2.116   6.193
  906SOL    HW1 3617   0.050   2.030   6.212
  906SOL    HW2 3618   0.075   2.182   6.266
  907SOL     OW 3619   5.286   3.541   0.718
  907SOL    HW1 3620   5.343   3.530   0.637
  907SOL    HW2 3621   5.270   3.638   0.735
  908SOL     OW 3622   2.603   4.634   2.517
  908SOL    HW1 3623   2.544   4.691   2.574
  908SOL    HW2 3624   2.649   4.691   2.449
  909SOL     OW 3625   4.806   5.589   0.935
  909SOL    HW1 3626   4.731   5.651   0.958
  909SOL    HW2 3627   4.809   5.578   0.835
  910SOL     OW 3628   2.949   2.305   1.278
  910SOL    HW1 3629   2.920   2.383   1.334
  910SOL    HW2 3630   2.872   2.273   1.223
  911SOL     OW 3631   0.966   5.827   6.522
  911SOL    HW1 3632   0.871   5.806   6.545
  911SOL    HW2 3633   1.016   5.849   6.606
  912SOL     OW 3634   6.314   1.689   2.839
  912SOL    HW1 3635   6.331   1.711   2.743
  912SOL    HW2 3636   6.308   1.773   2.892
  913SOL     OW 3637   4.580   6.816   3.166
  913SOL    HW1 3638   4.621   6.776   3.084
  913SOL    HW2 3639   4.628   6.784   3.247
  914SOL     OW 3640   2.402   6.963   6.763
  914SOL    HW1 3641   2.374   6.878   6.717
  914SOL    HW2 3642   2.493   6.952   6.801
  915SOL     OW 3643   6.013   4.484   6.725
  915SOL    HW1 3644   5.959   4.568   6.720
  915SOL    HW2 3645   6.034   4.464   6.821
  916SOL     OW 3646   1.796   2.615   2.175
  916SOL    HW1 3647   1.877   2.644   2.124
  916SOL    HW2 3648   1.756   2.535   2.130
  917SOL     OW 3649   0.355   6.345   0.492
  917SOL    HW1 3650   0.437   6.398   0.517
  917SOL    HW2 3651   0.353   6.332   0.393
  918SOL     OW 3652   3.042   0.265   0.614
  918SOL    HW1 3653   3.049   0.166   0.603
  918SOL    HW2 3654   3.132   0.302   0.637
  919SOL     OW 3655   5.573   1.534   3.362
  919SOL    HW1 3656   5.475   1.537   3.379
  919SOL    HW2 3657   5.591   1.557   3.266
  920SOL     OW 3658   2.542   4.065   1.731
  920SOL    HW1 3659   2.531   4.088   1.634
  920SOL    HW2 3660   2.511   4.142   1.787
  921SOL     OW 3661   4.742   6.297   3.956
  921SOL    HW1 3662   4.713   6.257   4.043
  921SOL    HW2 3663   4.791   6.228   3.903
  922SOL     OW 3664   3.833   3.706   4.410
  922SOL    HW1 3665   3.763   3.695   4.339
  922SOL    HW2 3666   3.851   3.618   4.454
  923SOL     OW 3667   2.716   3.162   6.832
  923SOL    HW1 3668   2.774   3.209   6.898
  923SOL    HW2 3669   2.632   3.214   6.818
  924SOL     OW 3670   6.158   3.983   1.900
  924SOL    HW1 3671   6.064   3.964   1.872
  924SOL    HW2 3672   6.206   4.030   1.826
  925SOL     OW 3673   7.001   2.833   0.144
  925SOL    HW1 3674   6.956   2.756   0.191
  925SOL    HW2 3675   0.024   2.891   0.211
  926SOL     OW 3676   6.863   0.960   0.808
  926SOL    HW1 3677   6.784   0.976   0.866
  926SOL    HW2 3678   6.863   1.027   0.733
  927SOL     OW 3679   5.583   3.731   3.867
  927SOL    HW1 3680   5.521   3.810   3.876
  927SOL    HW2 3681   5.543   3.653   3.915
  928SOL     OW 3682   2.717   6.035   0.699
  928SOL    HW1 3683   2.766   5.956   0.661
  928SOL    HW2 3684   2.619   6.014   0.704
  929SOL     OW 3685   0.084   0.256   6.679
  929SOL    HW1 3686   0.026   0.174   6.669
  929SOL    HW2 3687   0.026   0.335   6.700
  930SOL     OW 3688   4.490   5.378   6.489
  930SOL    HW1 3689   4.427   5.352   6.416
  930SOL    HW2 3690   4.525   5.470   6.471
  931SOL     OW 3691   6.452   1.937   4.341
  931SOL    HW1 3692   6.450   2.010   4.410
  931SOL    HW2 3693   6.544   1.899   4.336
  932SOL     OW 3694   2.420   1.701   3.208
  932SOL    HW1 3695   2.442   1.746   3.122
  932SOL    HW2 3696   2.496   1.713   3.272
  933SOL     OW 3697   1.403   5.246   2.978
  933SOL    HW1 3698   1.442   5.160   2.945
  933SOL    HW2 3699   1.440   5.268   3.068
  934SOL     OW 3700   2.433   5.990   5.854
  934SOL    HW1 3701   2.436   5.920   5.925
  934SOL    HW2 3702   2.522   5.995   5.808
  935SOL     OW 3703   5.034   4.235   3.970
  935SOL    HW1 3704   4.974   4.310   3.941
  935SOL    HW2 3705   4.977   4.159   4.003
  936SOL     OW 3706   1.167   6.973   6.388
  936SOL    HW1 3707   1.158   0.044   6.422
  936SOL    HW2 3708   1.080   6.925   6.399
  937SOL     OW 3709   4.972   1.775   5.641
  937SOL    HW1 3710   5.029   1.812   5.567
  937SOL    HW2 3711   4.946   1.681   5.618
  938SOL     OW 3712   6.093   5.460   4.230
  938SOL    HW1 3713   6.009   5.493   4.273
  938SOL    HW2 3714   6.098   5.360   4.238
  939SOL     OW 3715   0.546   0.000   4.213
  939SOL    HW1 3716   0.546   0.098   4.232
  939SOL    HW2 3717   0.591   7.006   4.125
  940SOL     OW 3718   0.490   4.336   0.622
  940SOL    HW1 3719   0.539   4.256   0.588
  940SOL    HW2 3720   0.530   4.418   0.581
  941SOL     OW 3721   5.013   0.612   6.813
  941SOL    HW1 3722   4.919   0.613   6.778
  941SOL    HW2 3723   5.075   0.582   6.741
  942SOL     OW 3724   6.387   6.232   1.382
  942SOL    HW1 3725   6.329   6.272   1.453
  942SOL    HW2 3726   6.482   6.263   1.395
  943SOL     OW 3727   1.950   4.919   2.676
  943SOL    HW1 3728   1.976   4.827   2.645
  943SOL    HW2 3729   1.997   4.987   2.621
  944SOL     OW 3730   0.675   4.937   4.480
  944SOL    HW1 3731   0.700   5.024   4.523
  944SOL    HW2 3732   0.600   4.952   4.415
  945SOL     OW 3733   0.611   4.955   5.379
  945SOL    HW1 3734   0.573   4.980   5.467
  945SOL    HW2 3735   0.553   4.885   5.336
  946SOL     OW 3736   4.700   4.929   4.482
  946SOL    HW1 3737   4.793   4.896   4.464
  946SOL    HW2 3738   4.666   4.977   4.402
  947SOL     OW 3739   3.624   3.246   3.335
  947SOL    HW1 3740   3.683   3.181   3.383
  947SOL    HW2 3741   3.645   3.339   3.365
  948SOL     OW 3742   5.166   0.774   2.373
  948SOL    HW1 3743   5.094   0.823   2.323
  948SOL    HW2 3744   5.194   0.828   2.452
  949SOL     OW 3745   3.285   6.389   0.159
  949SOL    HW1 3746   3.280   6.446   0.077
  949SOL    HW2 3747   3.262   6.295   0.134
  950SOL     OW 3748   5.546   5.838   2.466
  950SOL    HW1 3749   5.466   5.811   2.520
  950SOL    HW2 3750   5.619   5.867   2.527
  951SOL     OW 3751   1.045   0.243   3.591
  951SOL    HW1 3752   1.022   0.308   3.663
  951SOL    HW2 3753   1.127   0.273   3.543
  952SOL     OW 3754   4.310   1.860   2.780
  952SOL    HW1 3755   4.214   1.881   2.765
  952SOL    HW2 3756   4.324   1.761   2.771
  953SOL     OW 3757   5.955   5.899   4.973
  953SOL    HW1 3758   5.869   5.848   4.978
  953SOL    HW2 3759   5.943   5.988   5.016
  954SOL     OW 3760   4.331   5.938   2.403
  954SOL    HW1 3761   4.294   6.029   2.384
  954SOL    HW2 3762   4.261   5.869   2.387
  955SOL     OW 3763   1.570   4.447   0.085
  955SOL    HW1 3764   1.541   4.390   0.161
  955SOL    HW2 3765   1.613   4.530   0.121
  956SOL     OW 3766   0.042   0.930   1.014
  956SOL    HW1 3767   7.011   0.933   0.930
  956SOL    HW2 3768   0.077   1.021   1.035
  957SOL     OW 3769   6.210   1.189   1.990
  957SOL    HW1 3770   6.307   1.215   1.994
  957SOL    HW2 3771   6.198   1.118   1.920
  958SOL     OW 3772   5.025   6.220   2.249
  958SOL    HW1 3773   5.113   6.268   2.251
  958SOL    HW2 3774   4.972   6.244   2.330
  959SOL     OW 3775   3.630   6.458   4.617
  959SOL    HW1 3776   3.607   6.550   4.648
  959SOL    HW2 3777   3.566   6.429   4.546
  960SOL     OW 3778   1.295   0.658   0.990
  960SOL    HW1 3779   1.219   0.594   0.976
  960SOL    HW2 3780   1.347   0.666   0.905
  961SOL     OW 3781   3.853   6.695   3.213
  961SOL    HW1 3782   3.925   6.759   3.186
  961SOL    HW2 3783   3.821   6.645   3.133
  962SOL     OW 3784   6.000   0.927   4.707
  962SOL    HW1 3785   5.950   0.989   4.647
  962SOL    HW2 3786   5.945   0.846   4.724
  963SOL     OW 3787   4.741   1.347   1.020
  963SOL    HW1 3788   4.735   1.438   0.979
  963SOL    HW2 3789   4.827   1.304   0.992
  964SOL     OW 3790   4.723   4.968   5.337
  964SOL    HW1 3791   4.682   5.049   5.380
  964SOL    HW2 3792   4.822   4.968   5.354
  965SOL     OW 3793   6.237   1.906   2.107
  965SOL    HW1 3794   6.156   1.949   2.147
  965SOL    HW2 3795   6.210   1.827   2.052
  966SOL     OW 3796   4.932   2.374   3.329
  966SOL    HW1 3797   4.991   2.440   3.376
  966SOL    HW2 3798   4.837   2.407   3.333
  967SOL     OW 3799   3.180   4.990   6.496
  967SOL    HW1 3800   3.209   5.074   6.541
  967SOL    HW2 3801   3.242   4.969   6.420
  968SOL     OW 3802   3.818   7.019   1.431
  968SOL    HW1 3803   3.757   7.006   1.509
  968SOL    HW2 3804   3.900   0.046   1.461
  969SOL     OW 3805   2.645   5.448   5.707
  969SOL    HW1 3806   2.580   5.374   5.722
  969SOL    HW2 3807   2.697   5.430   5.623
  970SOL     OW 3808   5.992   1.027   5.955
  970SOL    HW1 3809   6.080   1.063   5.923
  970SOL    HW2 3810   5.961   1.081   6.033
  971SOL     OW 3811   6.833   3.305   3.079
  971SOL    HW1 3812   6.833   3.344   3.171
  971SOL    HW2 3813   6.782   3.219   3.078
  972SOL     OW 3814   6.767   2.518   1.597
  972SOL    HW1 3815   6.716   2.604   1.598
  972SOL    HW2 3816   6.770   2.480   1.689
  973SOL     OW 3817   0.269   4.500   6.626
  973SOL    HW1 3818   0.230   4.585   6.662
  973SOL    HW2 3819   0.262   4.429   6.695
  974SOL     OW 3820   0.920   5.207   2.294
  974SOL    HW1 3821   0.970   5.143   2.351
  974SOL    HW2 3822   0.945   5.301   2.319
  975SOL     OW 3823   2.867   6.940   0.713
  975SOL    HW1 3824   2.882   6.843   0.735
  975SOL    HW2 3825   2.955   6.983   0.693
  976SOL     OW 3826   6.333   3.838   1.562
  976SOL    HW1 3827   6.317   3.933   1.588
  976SOL    HW2 3828   6.309   3.825   1.466
  977SOL     OW 3829   0.942   1.035   2.283
  977SOL    HW1 3830   0.990   0.952   2.256
  977SOL    HW2 3831   0.845   1.013   2.298
  978SOL     OW 3832   5.474   1.820   1.206
  978SOL    HW1 3833   5.380   1.817   1.240
  978SOL    HW2 3834   5.478   1.876   1.123
  979SOL     OW 3835   0.353   2.858   6.577
  979SOL    HW1 3836   0.436   2.909   6.557
  979SOL    HW2 3837   0.366   2.804   6.660
  980SOL     OW 3838   4.012   0.934   4.600
  980SOL    HW1 3839   4.037   0.948   4.696
  980SOL    HW2 3840   4.054   0.850   4.567
  981SOL     OW 3841   0.337   0.187   5.400
  981SOL    HW1 3842   0.303   0.239   5.322
  981SOL    HW2 3843   0.435   0.168   5.387
  982SOL     OW 3844   0.690   1.735   5.622
  982SOL    HW1 3845   0.745   1.656   5.597
  982SOL    HW2 3846   0.616   1.747   5.556
  983SOL     OW 3847   6.716   3.059   3.241
  983SOL    HW1 3848   6.672   2.978   3.281
  983SOL    HW2 3849   6.647   3.114   3.194
  984SOL     OW 3850   1.684   2.272   3.165
  984SOL    HW1 3851   1.688   2.369   3.186
  984SOL    HW2 3852   1.668   2.220   3.249
  985SOL     OW 3853   6.485   4.300   4.472
  985SOL    HW1 3854   6.547   4.292   4.551
  985SOL    HW2 3855   6.472   4.210   4.431
  986SOL     OW 3856   4.850   4.725   1.165
  986SOL    HW1 3857   4.870   4.818   1.195
  986SOL    HW2 3858   4.750   4.712   1.162
  987SOL     OW 3859   5.671   6.338   3.499
  987SOL    HW1 3860   5.761   6.311   3.535
  987SOL    HW2 3861   5.681   6.368   3.404
  988SOL     OW 3862   3.259   3.639   2.308
  988SOL    HW1 3863   3.267   3.717   2.369
  988SOL    HW2 3864   3.234   3.671   2.216
  989SOL     OW 3865   6.807   2.275   0.452
  989SOL    HW1 3866   6.824   2.287   0.354
  989SOL    HW2 3867   6.883   2.224   0.493
  990SOL     OW 3868   3.428   0.175   2.931
  990SOL    HW1 3869   3.482   0.093   2.948
  990SOL    HW2 3870   3.372   0.195   3.012
  991SOL     OW 3871   6.721   4.522   3.190
  991SOL    HW1 3872   6.688   4.579   3.265
  991SOL    HW2 3873   6.725   4.426   3.219
  992SOL     OW 3874   0.912   2.792   1.378
  992SOL    HW1 3875   0.869   2.878   1.404
  992SOL    HW2 3876   0.998   2.810   1.332
  993SOL     OW 3877   0.664   4.020   0.918
  993SOL    HW1 3878   0.738   3.971   0.873
  993SOL    HW2 3879   0.584   4.021   0.859
  994SOL     OW 3880   3.846   5.541   1.175
  994SOL    HW1 3881   3.804   5.552   1.085
  994SOL    HW2 3882   3.809   5.460   1.219
  995SOL     OW 3883   4.373   3.466   5.625
  995SOL    HW1 3884   4.329   3.465   5.535
  995SOL    HW2 3885   4.391   3.372   5.654
  996SOL     OW 3886   3.997   5.427   5.258
  996SOL    HW1 3887   4.066   5.371   5.304
  996SOL    HW2 3888   3.933   5.368   5.209
  997SOL     OW 3889   1.053   6.824   3.575
  997SOL    HW1 3890   1.014   6.755   3.637
  997SOL    HW2 3891   1.092   6.898   3.628
  998SOL     OW 3892   6.451   0.533   5.948
  998SOL    HW1 3893   6.541   0.509   5.985
  998SOL    HW2 3894   6.380   0.504   6.013
  999SOL     OW 3895   4.799   3.711   1.737
  999SOL    HW1 3896   4.834   3.667   1.654
  999SOL    HW2 3897   4.869   3.772   1.774
 1000SOL     OW 3898   4.741   1.399   1.695
 1000SOL    HW1 3899   4.769   1.303   1.697
 1000SOL    HW2 3900   4.704   1.422   1.605
 1001SOL     OW 3901   2.845   6.040   2.057
 1001SOL    HW1 3902   2.916   6.012   1.993
 1001SOL    HW2 3903   2.886   6.086   2.135
 1002SOL     OW 3904   5.821   1.895   1.392
 1002SOL    HW1 3905   5.732   1.911   1.435
 1002SOL    HW2 3906   5.851   1.978   1.345
 1003SOL     OW 3907   1.679   6.058   2.601
 1003SOL    HW1 3908   1.726   6.146   2.601
 1003SOL    HW2 3909   1.718   6.000   2.673
 1004SOL     OW 3910   6.146   0.846   2.287
 1004SOL    HW1 3911   6.122   0.778   2.356
 1004SOL    HW2 3912   6.076   0.918   2.286
 1005SOL     OW 3913   1.621   4.793   3.954
 1005SOL    HW1 3914   1.706   4.831   3.989
 1005SOL    HW2 3915   1.611   4.817   3.857
 1006SOL     OW 3916   2.448   3.955   0.260
 1006SOL    HW1 3917   2.361   4.005   0.260
 1006SOL    HW2 3918   2.460   3.909   0.172
 1007SOL     OW 3919   4.800   1.516   6.603
 1007SOL    HW1 3920   4.828   1.523   6.699
 1007SOL    HW2 3921   4.719   1.572   6.588
 1008SOL     OW 3922   0.494   3.722   5.191
 1008SOL    HW1 3923   0.590   3.747   5.198
 1008SOL    HW2 3924   0.472   3.701   5.096
 1009SOL     OW 3925   6.179   4.820   5.254
 1009SOL    HW1 3926   6.271   4.814   5.291
 1009SOL    HW2 3927   6.156   4.916   5.237
 1010SOL     OW 3928   2.788   2.318   1.668
 1010SOL    HW1 3929   2.800   2.263   1.751
 1010SOL    HW2 3930   2.749   2.407   1.692
 1011SOL     OW 3931   0.145   5.461   2.785
 1011SOL    HW1 3932   0.175   5.554   2.803
 1011SOL    HW2 3933   0.216   5.397   2.815
 1012SOL     OW 3934   6.624   0.164   2.608
 1012SOL    HW1 3935   6.656   0.142   2.700
 1012SOL    HW2 3936   6.685   0.121   2.541
 1013SOL     OW 3937   6.814   1.357   6.243
 1013SOL    HW1 3938   6.737   1.374   6.304
 1013SOL    HW2 3939   6.790   1.286   6.177
 1014SOL     OW 3940   1.027   4.066   4.592
 1014SOL    HW1 3941   1.047   3.998   4.662
 1014SOL    HW2 3942   0.928   4.083   4.588
 1015SOL     OW 3943   2.940   0.891   6.516
 1015SOL    HW1 3944   2.924   0.819   6.583
 1015SOL    HW2 3945   2.866   0.891   6.449
 1016SOL     OW 3946   4.947   4.588   1.456
 1016SOL    HW1 3947   4.973   4.492   1.455
 1016SOL    HW2 3948   4.957   4.626   1.364
 1017SOL     OW 3949   3.108   1.696   1.545
 1017SOL    HW1 3950   3.123   1.600   1.568
 1017SOL    HW2 3951   3.186   1.730   1.491
 1018SOL     OW 3952   6.844   4.345   3.492
 1018SOL    HW1 3953   6.772   4.343   3.423
 1018SOL    HW2 3954   6.907   4.270   3.476
 1019SOL     OW 3955   6.759   4.896   0.185
 1019SOL    HW1 3956   6.682   4.841   0.217
 1019SOL    HW2 3957   6.756   4.903   0.085
 1020SOL     OW 3958   6.380   0.911   1.005
 1020SOL    HW1 3959   6.384   1.003   1.042
 1020SOL    HW2 3960   6.287   0.892   0.973
 1021SOL     OW 3961   6.441   5.801   2.439
 1021SOL    HW1 3962   6.423   5.718   2.493
 1021SOL    HW2 3963   6.372   5.808   2.367
 1022SOL     OW 3964   2.705   6.039   6.113
 1022SOL    HW1 3965   2.652   5.961   6.078
 1022SOL    HW2 3966   2.785   6.053   6.055
 1023SOL     OW 3967   6.979   0.306   2.160
 1023SOL    HW1 3968   6.890   0.352   2.165
 1023SOL    HW2 3969   6.989   0.245   2.239
 1024SOL     OW 3970   0.510   1.314   3.982
 1024SOL    HW1 3971   0.481   1.349   3.893
 1024SOL    HW2 3972   0.577   1.377   4.022
 1025SOL     OW 3973   4.676   3.316   0.510
 1025SOL    HW1 3974   4.700   3.277   0.599
 1025SOL    HW2 3975   4.745   3.384   0.485
 1026SOL     OW 3976   3.075   2.374   1.701
 1026SOL    HW1 3977   2.992   2.414   1.739
 1026SOL    HW2 3978   3.052   2.322   1.618
 1027SOL     OW 3979   1.852   6.491   1.735
 1027SOL    HW1 3980   1.923   6.529   1.794
 1027SOL    HW2 3981   1.762   6.519   1.769
 1028SOL     OW 3982   1.508   6.302   3.230
 1028SOL    HW1 3983   1.414   6.335   3.239
 1028SOL    HW2 3984   1.554   6.307   3.318
 1029SOL     OW 3985   1.418   1.905   6.090
 1029SOL    HW1 3986   1.503   1.948   6.122
 1029SOL    HW2 3987   1.386   1.954   6.009
 1030SOL     OW 3988   3.485   3.286   1.764
 1030SOL    HW1 3989   3.503   3.289   1.666
 1030SOL    HW2 3990   3.510   3.196   1.800
 1031SOL     OW 3991   4.111   3.302   1.335
 1031SOL    HW1 3992   4.015   3.271   1.337
 1031SOL    HW2 3993   4.156   3.277   1.420
 1032SOL     OW 3994   2.511   0.960   4.968
 1032SOL    HW1 3995   2.569   0.908   5.030
 1032SOL    HW2 3996   2.525   1.058   4.982
 1033SOL     OW 3997   1.792   6.382   2.390
 1033SOL    HW1 3998   1.869   6.445   2.384
 1033SOL    HW2 3999   1.751   6.388   2.482
 1034SOL     OW 4000   2.221   6.252   4.450
 1034SOL    HW1 4001   2.258   6.340   4.480
 1034SOL    HW2 4002   2.161   6.266   4.371
 1035SOL     OW 4003   0.665   2.235   6.201
 1035SOL    HW1 4004   0.722   2.316   6.210
 1035SOL    HW2 4005   0.707   2.158   6.250
 1036SOL     OW 4006   4.765   1.118   1.614
 1036SOL    HW1 4007   4.670   1.087   1.617
 1036SOL    HW2 4008   4.825   1.043   1.641
 1037SOL     OW 4009   1.045   1.868   2.851
 1037SOL    HW1 4010   1.023   1.961   2.822
 1037SOL    HW2 4011   1.043   1.807   2.772
 1038SOL     OW 4012   1.488   1.422   6.764
 1038SOL    HW1 4013   1.507   1.376   6.851
 1038SOL    HW2 4014   1.552   1.389   6.695
 1039SOL     OW 4015   2.954   3.393   3.594
 1039SOL    HW1 4016   2.923   3.368   3.685
 1039SOL    HW2 4017   2.986   3.312   3.546
 1040SOL     OW 4018   5.051   1.067   3.126
 1040SOL    HW1 4019   5.025   1.005   3.200
 1040SOL    HW2 4020   4.973   1.082   3.066
 1041SOL     OW 4021   6.851   6.611   3.690
 1041SOL    HW1 4022   6.875   6.706   3.710
 1041SOL    HW2 4023   6.924   6.550   3.722
 1042SOL     OW 4024   4.824   5.196   3.018
 1042SOL    HW1 4025   4.875   5.123   2.971
 1042SOL    HW2 4026   4.821   5.175   3.116
 1043SOL     OW 4027   3.938   2.198   3.477
 1043SOL    HW1 4028   3.839   2.184   3.478
 1043SOL    HW2 4029   3.977   2.160   3.394
 1044SOL     OW 4030   6.101   5.700   1.430
 1044SOL    HW1 4031   6.033   5.725   1.360
 1044SOL    HW2 4032   6.068   5.621   1.481
 1045SOL     OW 4033   2.976   0.062   2.890
 1045SOL    HW1 4034   2.994   0.159   2.874
 1045SOL    HW2 4035   2.882   0.040   2.863
 1046SOL     OW 4036   2.429   1.219   0.764
 1046SOL    HW1 4037   2.453   1.123   0.781
 1046SOL    HW2 4038   2.455   1.274   0.844
 1047SOL     OW 4039   3.225   0.140   4.293
 1047SOL    HW1 4040   3.202   0.068   4.228
 1047SOL    HW2 4041   3.199   0.229   4.254
 1048SOL     OW 4042   3.062   5.149   2.753
 1048SOL    HW1 4043   3.155   5.125   2.727
 1048SOL    HW2 4044   3.037   5.100   2.837
 1049SOL     OW 4045   4.727   0.001   3.724
 1049SOL    HW1 4046   4.787   6.983   3.793
 1049SOL    HW2 4047   4.749   0.098   3.714
 1050SOL     OW 4048   3.904   5.575   2.821
 1050SOL    HW1 4049   3.858   5.646   2.874
 1050SOL    HW2 4050   3.852   5.490   2.827
 1051SOL     OW 4051   0.363   5.752   0.573
 1051SOL    HW1 4052   0.454   5.767   0.534
 1051SOL    HW2 4053   0.308   5.698   0.510
 1052SOL     OW 4054   5.033   0.977   5.261
 1052SOL    HW1 4055   5.034   1.020   5.351
 1052SOL    HW2 4056   4.942   0.942   5.242
 1053SOL     OW 4057   6.170   3.854   2.296
 1053SOL    HW1 4058   6.139   3.813   2.210
 1053SOL    HW2 4059   6.270   3.856   2.299
 1054SOL     OW 4060   2.961   3.462   1.126
 1054SOL    HW1 4061   2.978   3.453   1.224
 1054SOL    HW2 4062   2.868   3.495   1.112
 1055SOL     OW 4063   4.986   6.157   6.480
 1055SOL    HW1 4064   4.975   6.246   6.525
 1055SOL    HW2 4065   4.945   6.086   6.537
 1056SOL     OW 4066   1.362   3.908   0.307
 1056SOL    HW1 4067   1.288   3.906   0.239
 1056SOL    HW2 4068   1.434   3.844   0.280
 1057SOL     OW 4069   3.821   2.024   1.843
 1057SOL    HW1 4070   3.897   1.987   1.898
 1057SOL    HW2 4071   3.785   2.106   1.888
 1058SOL     OW 4072   4.430   2.471   3.033
 1058SOL    HW1 4073   4.476   2.477   2.944
 1058SOL    HW2 4074   4.334   2.496   3.022
 1059SOL     OW 4075   2.336   6.629   2.341
 1059SOL    HW1 4076   2.283   6.549   2.371
 1059SOL    HW2 4077   2.274   6.699   2.305
 1060SOL     OW 4078   7.001   4.641   3.830
 1060SOL    HW1 4079   0.029   4.591   3.759
 1060SOL    HW2 4080   0.043   4.671   3.901
 1061SOL     OW 4081   6.649   3.530   6.630
 1061SOL    HW1 4082   6.667   3.502   6.536
 1061SOL    HW2 4083   6.704   3.475   6.693
 1062SOL     OW 4084   3.802   6.303   5.536
 1062SOL    HW1 4085   3.784   6.205   5.550
 1062SOL    HW2 4086   3.853   6.338   5.614
 1063SOL     OW 4087   0.415   6.893   6.507
 1063SOL    HW1 4088   0.386   6.962   6.573
 1063SOL    HW2 4089   0.419   6.804   6.552
 1064SOL     OW 4090   0.453   4.026   2.061
 1064SOL    HW1 4091   0.455   4.049   1.964
 1064SOL    HW2 4092   0.446   4.110   2.115
 1065SOL     OW 4093   3.162   0.702   3.927
 1065SOL    HW1 4094   3.229   0.728   3.858
 1065SOL    HW2 4095   3.095   0.775   3.938
 1066SOL     OW 4096   4.561   6.732   2.161
 1066SOL    HW1 4097   4.498   6.695   2.229
 1066SOL    HW2 4098   4.533   6.824   2.136
 1067SOL     OW 4099   2.616   1.435   6.797
 1067SOL    HW1 4100   2.540   1.443   6.733
 1067SOL    HW2 4101   2.689   1.382   6.755
 1068SOL     OW 4102   5.790   3.944   1.251
 1068SOL    HW1 4103   5.855   4.011   1.286
 1068SOL    HW2 4104   5.700   3.961   1.290
 1069SOL     OW 4105   5.429   5.313   1.133
 1069SOL    HW1 4106   5.445   5.340   1.228
 1069SOL    HW2 4107   5.427   5.213   1.127
 1070SOL     OW 4108   2.343   0.097   2.466
 1070SOL    HW1 4109   2.437   0.122   2.444
 1070SOL    HW2 4110   2.336   7.021   2.474
 1071SOL     OW 4111   0.620   1.766   4.558
 1071SOL    HW1 4112   0.627   1.806   4.649
 1071SOL    HW2 4113   0.625   1.666   4.565
 1072SOL     OW 4114   1.897   0.578   1.561
 1072SOL    HW1 4115   1.898   0.577   1.661
 1072SOL    HW2 4116   1.822   0.636   1.529
 1073SOL     OW 4117   5.844   2.093   3.315
 1073SOL    HW1 4118   5.835   2.090   3.414
 1073SOL    HW2 4119   5.937   2.066   3.289
 1074SOL     OW 4120   2.830   5.152   1.141
 1074SOL    HW1 4121   2.822   5.104   1.229
 1074SOL    HW2 4122   2.775   5.104   1.072
 1075SOL     OW 4123   6.415   1.309   4.457
 1075SOL    HW1 4124   6.508   1.347   4.461
 1075SOL    HW2 4125   6.367   1.327   4.542
 1076SOL     OW 4126   1.732   3.302   5.784
 1076SOL    HW1 4127   1.714   3.274   5.690
 1076SOL    HW2 4128   1.816   3.258   5.816
 1077SOL     OW 4129   0.005   6.624   0.223
 1077SOL    HW1 4130   0.101   6.605   0.244
 1077SOL    HW2 4131   7.015   6.628   0.124
 1078SOL     OW 4132   6.390   0.231   2.930
 1078SOL    HW1 4133   6.441   0.147   2.945
 1078SOL    HW2 4134   6.342   0.227   2.842
 1079SOL     OW 4135   1.730   5.668   1.892
 1079SOL    HW1 4136   1.675   5.642   1.971
 1079SOL    HW2 4137   1.753   5.765   1.899
 1080SOL     OW 4138   2.303   5.687   5.259
 1080SOL    HW1 4139   2.373   5.724   5.199
 1080SOL    HW2 4140   2.213   5.719   5.229
 1081SOL     OW 4141   0.187   5.684   4.014
 1081SOL    HW1 4142   0.173   5.698   3.916
 1081SOL    HW2 4143   0.187   5.772   4.061
 1082SOL     OW 4144   6.122   1.702   6.068
 1082SOL    HW1 4145   6.210   1.690   6.022
 1082SOL    HW2 4146   6.134   1.758   6.150
 1083SOL     OW 4147   4.851   3.523   0.425
 1083SOL    HW1 4148   4.872   3.548   0.330
 1083SOL    HW2 4149   4.935   3.491   0.470
 1084SOL     OW 4150   6.961   6.528   6.436
 1084SOL    HW1 4151   0.036   6.550   6.432
 1084SOL    HW2 4152   6.917   6.562   6.352
 1085SOL     OW 4153   2.156   3.485   3.770
 1085SOL    HW1 4154   2.114   3.576   3.768
 1085SOL    HW2 4155   2.252   3.492   3.742
 1086SOL     OW 4156   6.667   5.027   6.317
 1086SOL    HW1 4157   6.715   5.097   6.371
 1086SOL    HW2 4158   6.585   5.067   6.276
 1087SOL     OW 4159   1.069   1.620   5.564
 1087SOL    HW1 4160   1.138   1.645   5.497
 1087SOL    HW2 4161   1.016   1.701   5.590
 1088SOL     OW 4162   0.036   5.148   3.146
 1088SOL    HW1 4163   6.973   5.100   3.165
 1088SOL    HW2 4164   0.022   5.210   3.069
 1089SOL     OW 4165   0.558   5.738   5.014
 1089SOL    HW1 4166   0.592   5.657   4.966
 1089SOL    HW2 4167   0.460   5.748   4.996
 1090SOL     OW 4168   5.202   1.874   3.429
 1090SOL    HW1 4169   5.204   1.914   3.338
 1090SOL    HW2 4170   5.108   1.849   3.452
 1091SOL     OW 4171   1.992   3.448   3.439
 1091SOL    HW1 4172   1.897   3.476   3.450
 1091SOL    HW2 4173   2.011   3.368   3.497
 1092SOL     OW 4174   0.675   4.800   0.466
 1092SOL    HW1 4175   0.655   4.860   0.389
 1092SOL    HW2 4176   0.763   4.826   0.507
 1093SOL     OW 4177   3.107   0.007   1.559
 1093SOL    HW1 4178   3.172   7.010   1.632
 1093SOL    HW2 4179   3.045   6.952   1.548
 1094SOL     OW 4180   0.963   6.997   2.753
 1094SOL    HW1 4181   0.989   0.068   2.731
 1094SOL    HW2 4182   0.873   6.977   2.713
 1095SOL     OW 4183   0.902   2.628   6.566
 1095SOL    HW1 4184   0.825   2.666   6.617
 1095SOL    HW2 4185   0.930   2.692   6.494
 1096SOL     OW 4186   3.063   4.654   0.992
 1096SOL    HW1 4187   3.017   4.567   1.003
 1096SOL    HW2 4188   3.013   4.725   1.042
 1097SOL     OW 4189   2.132   5.685   3.005
 1097SOL    HW1 4190   2.151   5.589   2.985
 1097SOL    HW2 4191   2.043   5.693   3.049
 1098SOL     OW 4192   5.551   4.152   6.820
 1098SOL    HW1 4193   5.549   4.072   6.879
 1098SOL    HW2 4194   5.576   4.124   6.727
 1099SOL     OW 4195   4.838   1.236   6.536
 1099SOL    HW1 4196   4.823   1.334   6.525
 1099SOL    HW2 4197   4.909   1.220   6.605
 1100SOL     OW 4198   3.526   0.972   4.030
 1100SOL    HW1 4199   3.617   0.942   4.002
 1100SOL    HW2 4200   3.493   0.912   4.103
 1101SOL     OW 4201   5.462   3.714   5.077
 1101SOL    HW1 4202   5.368   3.738   5.052
 1101SOL    HW2 4203   5.498   3.646   5.013
 1102SOL     OW 4204   2.550   0.872   4.353
 1102SOL    HW1 4205   2.594   0.854   4.264
 1102SOL    HW2 4206   2.563   0.968   4.378
 1103SOL     OW 4207   2.372   1.360   0.210
 1103SOL    HW1 4208   2.388   1.457   0.230
 1103SOL    HW2 4209   2.438   1.329   0.142
 1104SOL     OW 4210   1.454   4.576   3.524
 1104SOL    HW1 4211   1.541   4.530   3.505
 1104SOL    HW2 4212   1.448   4.597   3.621
 1105SOL     OW 4213   5.000   2.654   4.376
 1105SOL    HW1 4214   5.084   2.707   4.362
 1105SOL    HW2 4215   4.925   2.716   4.397
 1106SOL     OW 4216   0.314   1.574   0.440
 1106SOL    HW1 4217   0.391   1.512   0.424
 1106SOL    HW2 4218   0.306   1.592   0.538
 1107SOL     OW 4219   0.854   0.305   0.266
 1107SOL    HW1 4220   0.927   0.267   0.323
 1107SOL    HW2 4221   0.893   0.335   0.179
 1108SOL     OW 4222   3.925   6.258   4.866
 1108SOL    HW1 4223   4.020   6.286   4.882
 1108SOL    HW2 4224   3.904   6.266   4.769
 1109SOL     OW 4225   5.652   1.917   3.824
 1109SOL    HW1 4226   5.683   1.880   3.736
 1109SOL    HW2 4227   5.577   1.861   3.859
 1110SOL     OW 4228   3.458   0.655   2.986
 1110SOL    HW1 4229   3.488   0.721   3.055
 1110SOL    HW2 4230   3.420   0.704   2.907
 1111SOL     OW 4231   5.480   4.091   6.129
 1111SOL    HW1 4232   5.403   4.156   6.131
 1111SOL    HW2 4233   5.451   4.005   6.170
 1112SOL     OW 4234   6.497   0.119   3.466
 1112SOL    HW1 4235   6.473   0.215   3.475
 1112SOL    HW2 4236   6.546   0.105   3.380
 1113SOL     OW 4237   6.252   4.447   1.462
 1113SOL    HW1 4238   6.230   4.520   1.397
 1113SOL    HW2 4239   6.297   4.486   1.542
 1114SOL     OW 4240   3.911   2.595   5.800
 1114SOL    HW1 4241   3.921   2.659   5.876
 1114SOL    HW2 4242   3.832   2.621   5.745
 1115SOL     OW 4243   4.286   4.090   5.468
 1115SOL    HW1 4244   4.271   4.062   5.563
 1115SOL    HW2 4245   4.279   4.010   5.408
 1116SOL     OW 4246   5.264   0.238   0.075
 1116SOL    HW1 4247   5.187   0.200   0.126
 1116SOL    HW2 4248   5.342   0.252   0.136
 1117SOL     OW 4249   1.084   2.290   1.488
 1117SOL    HW1 4250   1.142   2.300   1.408
 1117SOL    HW2 4251   0.988   2.280   1.459
 1118SOL     OW 4252   2.273   5.425   0.057
 1118SOL    HW1 4253   2.323   5.343   0.029
 1118SOL    HW2 4254   2.280   5.494   7.007
 1119SOL     OW 4255   4.151   4.695   1.950
 1119SOL    HW1 4256   4.122   4.765   2.016
 1119SOL    HW2 4257   4.226   4.642   1.988
 1120SOL     OW 4258   6.311   6.019   1.238
 1120SOL    HW1 4259   6.329   6.106   1.283
 1120SOL    HW2 4260   6.339   5.944   1.299
 1121SOL     OW 4261   0.975   4.554   4.566
 1121SOL    HW1 4262   0.968   4.647   4.601
 1121SOL    HW2 4263   0.905   4.540   4.495
 1122SOL     OW 4264   6.289   2.739   2.184
 1122SOL    HW1 4265   6.301   2.708   2.089
 1122SOL    HW2 4266   6.338   2.677   2.245
 1123SOL     OW 4267   4.389   2.290   3.840
 1123SOL    HW1 4268   4.379   2.370   3.900
 1123SOL    HW2 4269   4.336   2.305   3.756
 1124SOL     OW 4270   0.865   3.557   5.860
 1124SOL    HW1 4271   0.844   3.598   5.772
 1124SOL    HW2 4272   0.954   3.512   5.856
 1125SOL     OW 4273   1.570   3.044   4.511
 1125SOL    HW1 4274   1.635   2.970   4.530
 1125SOL    HW2 4275   1.619   3.130   4.501
 1126SOL     OW 4276   4.363   5.850   5.351
 1126SOL    HW1 4277   4.453   5.864   5.394
 1126SOL    HW2 4278   4.314   5.937   5.350
 1127SOL     OW 4279   5.478   6.734   4.739
 1127SOL    HW1 4280   5.496   6.733   4.837
 1127SOL    HW2 4281   5.444   6.645   4.711
 1128SOL     OW 4282   5.846   1.574   4.926
 1128SOL    HW1 4283   5.844   1.621   5.014
 1128SOL    HW2 4284   5.800   1.630   4.857
 1129SOL     OW 4285   1.649   0.019   0.411
 1129SOL    HW1 4286   1.590   6.964   0.388
 1129SOL    HW2 4287   1.603   0.075   0.480
 1130SOL     OW 4288   1.842   5.533   1.660
 1130SOL    HW1 4289   1.940   5.527   1.680
 1130SOL    HW2 4290   1.799   5.596   1.724
 1131SOL     OW 4291   1.825   0.757   4.786
 1131SOL    HW1 4292   1.770   0.829   4.745
 1131SOL    HW2 4293   1.891   0.723   4.719
 1132SOL     OW 4294   4.629   0.454   2.631
 1132SOL    HW1 4295   4.715   0.474   2.585
 1132SOL    HW2 4296   4.633   0.486   2.726
 1133SOL     OW 4297   1.214   0.372   6.989
 1133SOL    HW1 4298   1.294   0.396   0.022
 1133SOL    HW2 4299   1.238   0.298   6.927
 1134SOL     OW 4300   5.643   6.744   2.226
 1134SOL    HW1 4301   5.545   6.739   2.248
 1134SOL    HW2 4302   5.669   6.840   2.213
 1135SOL     OW 4303   2.388   6.368   3.793
 1135SOL    HW1 4304   2.368   6.306   3.717
 1135SOL    HW2 4305   2.358   6.327   3.879
 1136SOL     OW 4306   3.404   5.111   3.329
 1136SOL    HW1 4307   3.384   5.048   3.405
 1136SOL    HW2 4308   3.390   5.064   3.242
 1137SOL     OW 4309   0.930   6.227   6.535
 1137SOL    HW1 4310   0.831   6.229   6.526
 1137SOL    HW2 4311   0.969   6.174   6.459
 1138SOL     OW 4312   1.568   2.264   5.160
 1138SOL    HW1 4313   1.527   2.216   5.238
 1138SOL    HW2 4314   1.667   2.270   5.173
 1139SOL     OW 4315   2.611   4.549   3.956
 1139SOL    HW1 4316   2.579   4.643   3.968
 1139SOL    HW2 4317   2.704   4.540   3.994
 1140SOL     OW 4318   2.292   0.599   2.301
 1140SOL    HW1 4319   2.289   0.499   2.308
 1140SOL    HW2 4320   2.317   0.625   2.208
 1141SOL     OW 4321   6.367   5.475   6.506
 1141SOL    HW1 4322   6.324   5.469   6.416
 1141SOL    HW2 4323   6.359   5.569   6.540
 1142SOL     OW 4324   2.443   6.998   3.540
 1142SOL    HW1 4325   2.432   6.900   3.522
 1142SOL    HW2 4326   2.496   7.011   3.623
 1143SOL     OW 4327   1.529   2.728   2.335
 1143SOL    HW1 4328   1.443   2.742   2.386
 1143SOL    HW2 4329   1.606   2.744   2.396
 1144SOL     OW 4330   5.336   4.568   2.445
 1144SOL    HW1 4331   5.247   4.577   2.489
 1144SOL    HW2 4332   5.351   4.473   2.417
 1145SOL     OW 4333   1.132   2.738   0.478
 1145SOL    HW1 4334   1.101   2.651   0.439
 1145SOL    HW2 4335   1.174   2.721   0.567
 1146SOL     OW 4336   0.514   2.267   1.236
 1146SOL    HW1 4337   0.549   2.348   1.284
 1146SOL    HW2 4338   0.424   2.244   1.272
 1147SOL     OW 4339   3.091   6.139   0.669
 1147SOL    HW1 4340   3.096   6.054   0.618
 1147SOL    HW2 4341   3.056   6.211   0.610
 1148SOL     OW 4342   4.148   6.092   1.503
 1148SOL    HW1 4343   4.062   6.143   1.495
 1148SOL    HW2 4344   4.129   6.001   1.538
 1149SOL     OW 4345   6.212   3.196   1.734
 1149SOL    HW1 4346   6.155   3.199   1.652
 1149SOL    HW2 4347   6.258   3.107   1.739
 1150SOL     OW 4348   0.846   4.232   0.091
 1150SOL    HW1 4349   0.827   4.226   0.189
 1150SOL    HW2 4350   0.760   4.238   0.040
 1151SOL     OW 4351   5.622   5.213   4.460
 1151SOL    HW1 4352   5.633   5.166   4.372
 1151SOL    HW2 4353   5.524   5.227   4.477
 1152SOL     OW 4354   4.353   6.460   6.534
 1152SOL    HW1 4355   4.384   6.507   6.452
 1152SOL    HW2 4356   4.301   6.522   6.591
 1153SOL     OW 4357   6.968   0.138   1.263
 1153SOL    HW1 4358   6.967   0.232   1.229
 1153SOL    HW2 4359   0.025   0.090   1.227
 1154SOL     OW 4360   0.805   3.969   1.328
 1154SOL    HW1 4361   0.768   4.061   1.338
 1154SOL    HW2 4362   0.797   3.921   1.416
 1155SOL     OW 4363   2.269   6.546   5.230
 1155SOL    HW1 4364   2.366   6.540   5.206
 1155SOL    HW2 4365   2.216   6.576   5.151
 1156SOL     OW 4366   4.288   1.598   4.987
 1156SOL    HW1 4367   4.195   1.565   4.970
 1156SOL    HW2 4368   4.351   1.555   4.923
 1157SOL     OW 4369   5.479   1.249   5.699
 1157SOL    HW1 4370   5.464   1.277   5.604
 1157SOL    HW2 4371   5.404   1.191   5.730
 1158SOL     OW 4372   6.207   6.089   4.367
 1158SOL    HW1 4373   6.214   5.998   4.408
 1158SOL    HW2 4374   6.267   6.095   4.287
 1159SOL     OW 4375   5.974   6.695   3.377
 1159SOL    HW1 4376   5.928   6.631   3.438
 1159SOL    HW2 4377   5.909   6.731   3.310
 1160SOL     OW 4378   3.989   5.532   1.815
 1160SOL    HW1 4379   3.950   5.493   1.899
 1160SOL    HW2 4380   3.918   5.583   1.766
 1161SOL     OW 4381   6.734   5.691   6.238
 1161SOL    HW1 4382   6.697   5.731   6.155
 1161SOL    HW2 4383   6.727   5.758   6.313
 1162SOL     OW 4384   2.443   2.269   6.054
 1162SOL    HW1 4385   2.373   2.212   6.096
 1162SOL    HW2 4386   2.525   2.269   6.111
 1163SOL     OW 4387   6.050   4.888   1.642
 1163SOL    HW1 4388   6.144   4.907   1.671
 1163SOL    HW2 4389   6.051   4.857   1.547
 1164SOL     OW 4390   5.326   2.622   5.053
 1164SOL    HW1 4391   5.251   2.576   5.006
 1164SOL    HW2 4392   5.374   2.681   4.988
 1165SOL     OW 4393   4.148   5.989   3.106
 1165SOL    HW1 4394   4.061   6.038   3.101
 1165SOL    HW2 4395   4.217   6.037   3.052
 1166SOL     OW 4396   1.819   6.127   6.912
 1166SOL    HW1 4397   1.831   6.221   6.943
 1166SOL    HW2 4398   1.722   6.103   6.914
 1167SOL     OW 4399   4.965   4.314   1.453
 1167SOL    HW1 4400   4.978   4.255   1.373
 1167SOL    HW2 4401   5.021   4.280   1.528
 1168SOL     OW 4402   6.133   2.494   1.634
 1168SOL    HW1 4403   6.105   2.398   1.628
 1168SOL    HW2 4404   6.151   2.530   1.542
 1169SOL     OW 4405   5.649   1.982   5.428
 1169SOL    HW1 4406   5.553   1.953   5.432
 1169SOL    HW2 4407   5.708   1.902   5.417
 1170SOL     OW 4408   4.717   0.059   2.789
 1170SOL    HW1 4409   4.649   0.048   2.861
 1170SOL    HW2 4410   4.795   0.110   2.824
 1171SOL     OW 4411   2.458   0.336   0.238
 1171SOL    HW1 4412   2.514   0.365   0.316
 1171SOL    HW2 4413   2.498   0.255   0.196
 1172SOL     OW 4414   4.850   4.229   1.012
 1172SOL    HW1 4415   4.850   4.150   0.950
 1172SOL    HW2 4416   4.843   4.197   1.106
 1173SOL     OW 4417   2.620   1.197   1.856
 1173SOL    HW1 4418   2.641   1.280   1.805
 1173SOL    HW2 4419   2.528   1.166   1.833
 1174SOL     OW 4420   3.391   3.995   1.950
 1174SOL    HW1 4421   3.473   4.037   1.989
 1174SOL    HW2 4422   3.353   3.930   2.015
 1175SOL     OW 4423   4.797   3.317   5.843
 1175SOL    HW1 4424   4.797   3.336   5.744
 1175SOL    HW2 4425   4.732   3.244   5.863
 1176SOL     OW 4426   5.225   3.593   6.519
 1176SOL    HW1 4427   5.177   3.505   6.523
 1176SOL    HW2 4428   5.323   3.577   6.504
 1177SOL     OW 4429   0.072   4.204   4.664
 1177SOL    HW1 4430   0.115   4.115   4.650
 1177SOL    HW2 4431   0.128   4.258   4.727
 1178SOL     OW 4432   2.822   3.354   0.526
 1178SOL    HW1 4433   2.749   3.418   0.499
 1178SOL    HW2 4434   2.781   3.266   0.550
 1179SOL     OW 4435   2.585   5.542   0.628
 1179SOL    HW1 4436   2.635   5.577   0.549
 1179SOL    HW2 4437   2.489   5.530   0.603
 1180SOL     OW 4438   2.455   5.845   3.429
 1180SOL    HW1 4439   2.497   5.766   3.474
 1180SOL    HW2 4440   2.366   5.864   3.471
 1181SOL     OW 4441   0.612   5.406   5.748
 1181SOL    HW1 4442   0.563   5.455   5.677
 1181SOL    HW2 4443   0.549   5.379   5.820
 1182SOL     OW 4444   3.880   5.293   3.415
 1182SOL    HW1 4445   3.876   5.297   3.515
 1182SOL    HW2 4446   3.943   5.220   3.388
 1183SOL     OW 4447   2.434   4.295   0.146
 1183SOL    HW1 4448   2.516   4.249   0.113
 1183SOL    HW2 4449   2.397   4.353   0.073
 1184SOL     OW 4450   0.245   0.896   4.824
 1184SOL    HW1 4451   0.279   0.987   4.801
 1184SOL    HW2 4452   0.250   0.837   4.743
 1185SOL     OW 4453   0.055   1.519   0.394
 1185SOL    HW1 4454   0.038   1.604   0.345
 1185SOL    HW2 4455   0.152   1.511   0.415
 1186SOL     OW 4456   5.158   6.223   5.773
 1186SOL    HW1 4457   5.210   6.198   5.855
 1186SOL    HW2 4458   5.096   6.149   5.749
 1187SOL     OW 4459   6.297   6.588   6.548
 1187SOL    HW1 4460   6.307   6.671   6.494
 1187SOL    HW2 4461   6.299   6.610   6.645
 1188SOL     OW 4462   3.567   5.871   5.358
 1188SOL    HW1 4463   3.542   5.801   5.425
 1188SOL    HW2 4464   3.628   5.938   5.402
 1189SOL     OW 4465   6.334   2.249   2.610
 1189SOL    HW1 4466   6.303   2.319   2.676
 1189SOL    HW2 4467   6.335   2.288   2.518
 1190SOL     OW 4468   2.787   5.850   4.170
 1190SOL    HW1 4469   2.723   5.785   4.211
 1190SOL    HW2 4470   2.749   5.943   4.177
 1191SOL     OW 4471   4.611   5.100   3.985
 1191SOL    HW1 4472   4.569   5.018   4.023
 1191SOL    HW2 4473   4.612   5.094   3.885
 1192SOL     OW 4474   4.074   5.566   3.065
 1192SOL    HW1 4475   4.098   5.472   3.089
 1192SOL    HW2 4476   4.054   5.572   2.967
 1193SOL     OW 4477   6.743   3.421   4.607
 1193SOL    HW1 4478   6.755   3.407   4.705
 1193SOL    HW2 4479   6.689   3.346   4.569
 1194SOL     OW 4480   5.592   0.033   1.806
 1194SOL    HW1 4481   5.524   0.018   1.879
 1194SOL    HW2 4482   5.651   6.975   1.798
 1195SOL     OW 4483   6.576   4.280   1.043
 1195SOL    HW1 4484   6.613   4.246   1.129
 1195SOL    HW2 4485   6.503   4.346   1.062
 1196SOL     OW 4486   6.808   5.609   2.701
 1196SOL    HW1 4487   6.853   5.583   2.786
 1196SOL    HW2 4488   6.754   5.532   2.667
 1197SOL     OW 4489   4.290   0.809   5.479
 1197SOL    HW1 4490   4.286   0.892   5.424
 1197SOL    HW2 4491   4.302   0.832   5.575
 1198SOL     OW 4492   1.157   2.860   2.342
 1198SOL    HW1 4493   1.126   2.806   2.264
 1198SOL    HW2 4494   1.103   2.943   2.350
 1199SOL     OW 4495   3.966   4.649   1.750
 1199SOL    HW1 4496   4.020   4.619   1.671
 1199SOL    HW2 4497   4.026   4.659   1.830
 1200SOL     OW 4498   3.225   3.497   3.746
 1200SOL    HW1 4499   3.178   3.482   3.659
 1200SOL    HW2 4500   3.323   3.508   3.729
 1201SOL     OW 4501   1.120   0.858   4.526
 1201SOL    HW1 4502   1.122   0.772   4.577
 1201SOL    HW2 4503   1.025   0.887   4.513
 1202SOL     OW 4504   0.616   5.866   5.903
 1202SOL    HW1 4505   0.693   5.862   5.967
 1202SOL    HW2 4506   0.588   5.962   5.892
 1203SOL     OW 4507   5.944   6.504   0.386
 1203SOL    HW1 4508   5.942   6.484   0.288
 1203SOL    HW2 4509   5.863   6.557   0.412
 1204SOL     OW 4510   3.232   6.657   1.504
 1204SOL    HW1 4511   3.325   6.662   1.543
 1204SOL    HW2 4512   3.219   6.734   1.441
 1205SOL     OW 4513   5.246   3.718   1.220
 1205SOL    HW1 4514   5.305   3.641   1.247
 1205SOL    HW2 4515   5.236   3.780   1.298
 1206SOL     OW 4516   2.982   2.731   5.350
 1206SOL    HW1 4517   2.934   2.781   5.422
 1206SOL    HW2 4518   2.915   2.696   5.284
 1207SOL     OW 4519   2.145   6.302   1.834
 1207SOL    HW1 4520   2.236   6.312   1.876
 1207SOL    HW2 4521   2.142   6.353   1.749
 1208SOL     OW 4522   3.031   3.660   0.896
 1208SOL    HW1 4523   3.000   3.585   0.954
 1208SOL    HW2 4524   3.131   3.656   0.888
 1209SOL     OW 4525   4.620   0.810   4.491
 1209SOL    HW1 4526   4.680   0.839   4.566
 1209SOL    HW2 4527   4.542   0.872   4.486
 1210SOL     OW 4528   2.956   0.524   3.362
 1210SOL    HW1 4529   2.865   0.490   3.386
 1210SOL    HW2 4530   2.954   0.565   3.271
 1211SOL     OW 4531   0.898   3.336   1.780
 1211SOL    HW1 4532   0.899   3.273   1.858
 1211SOL    HW2 4533   0.947   3.420   1.803
 1212SOL     OW 4534   6.498   0.167   6.648
 1212SOL    HW1 4535   6.500   0.135   6.553
 1212SOL    HW2 4536   6.576   0.129   6.698
 1213SOL     OW 4537   6.614   2.012   0.592
 1213SOL    HW1 4538   6.633   2.010   0.493
 1213SOL    HW2 4539   6.551   1.938   0.615
 1214SOL     OW 4540   0.415   3.061   0.430
 1214SOL    HW1 4541   0.361   3.141   0.454
 1214SOL    HW2 4542   0.358   2.995   0.382
 1215SOL     OW 4543   1.510   4.539   3.985
 1215SOL    HW1 4544   1.598   4.585   3.980
 1215SOL    HW2 4545   1.459   4.554   3.900
 1216SOL     OW 4546   4.792   0.717   1.210
 1216SOL    HW1 4547   4.822   0.791   1.271
 1216SOL    HW2 4548   4.832   0.729   1.120
 1217SOL     OW 4549   1.498   4.904   0.408
 1217SOL    HW1 4550   1.554   4.907   0.326
 1217SOL    HW2 4551   1.410   4.948   0.391
 1218SOL     OW 4552   2.284   4.235   4.163
 1218SOL    HW1 4553   2.339   4.316   4.140
 1218SOL    HW2 4554   2.302   4.164   4.095
 1219SOL     OW 4555   5.626   5.877   1.545
 1219SOL    HW1 4556   5.647   5.800   1.486
 1219SOL    HW2 4557   5.689   5.952   1.526
 1220SOL     OW 4558   0.992   4.885   3.136
 1220SOL    HW1 4559   0.893   4.896   3.128
 1220SOL    HW2 4560   1.011   4.812   3.202
 1221SOL     OW 4561   5.854   3.825   5.983
 1221SOL    HW1 4562   5.807   3.750   5.937
 1221SOL    HW2 4563   5.807   3.911   5.963
 1222SOL     OW 4564   6.335   6.815   6.387
 1222SOL    HW1 4565   6.405   6.816   6.316
 1222SOL    HW2 4566   6.250   6.854   6.351
 1223SOL     OW 4567   4.169   0.620   0.627
 1223SOL    HW1 4568   4.209   0.543   0.577
 1223SOL    HW2 4569   4.109   0.586   0.700
 1224SOL     OW 4570   2.727   6.275   0.478
 1224SOL    HW1 4571   2.731   6.225   0.565
 1224SOL    HW2 4572   2.673   6.359   0.490
 1225SOL     OW 4573   3.637   3.754   6.724
 1225SOL    HW1 4574   3.568   3.824   6.740
 1225SOL    HW2 4575   3.603   3.688   6.656
 1226SOL     OW 4576   2.374   5.480   1.083
 1226SOL    HW1 4577   2.450   5.528   1.126
 1226SOL    HW2 4578   2.350   5.525   0.997
 1227SOL     OW 4579   6.669   3.782   6.978
 1227SOL    HW1 4580   6.651   3.841   0.034
 1227SOL    HW2 4581   6.690   3.690   7.011
 1228SOL     OW 4582   4.579   2.954   0.042
 1228SOL    HW1 4583   4.599   3.049   0.065
 1228SOL    HW2 4584   4.606   2.895   0.119
 1229SOL     OW 4585   3.350   4.679   5.917
 1229SOL    HW1 4586   3.369   4.754   5.854
 1229SOL    HW2 4587   3.420   4.679   5.989
 1230SOL     OW 4588   4.381   0.019   3.510
 1230SOL    HW1 4589   4.433   0.104   3.524
 1230SOL    HW2 4590   4.438   6.963   3.533
 1231SOL     OW 4591   1.517   3.707   4.388
 1231SOL    HW1 4592   1.547   3.675   4.298
 1231SOL    HW2 4593   1.573   3.785   4.415
 1232SOL     OW 4594   0.727   2.423   6.427
 1232SOL    HW1 4595   0.727   2.344   6.488
 1232SOL    HW2 4596   0.820   2.460   6.420
 1233SOL     OW 4597   0.898   3.071   4.249
 1233SOL    HW1 4598   0.949   3.043   4.168
 1233SOL    HW2 4599   0.898   3.170   4.257
 1234SOL     OW 4600   6.320   4.177   4.910
 1234SOL    HW1 4601   6.244   4.234   4.881
 1234SOL    HW2 4602   6.406   4.228   4.900
 1235SOL     OW 4603   6.860   5.774   2.470
 1235SOL    HW1 4604   6.955   5.763   2.442
 1235SOL    HW2 4605   6.846   5.727   2.557
 1236SOL     OW 4606   5.038   1.333   6.753
 1236SOL    HW1 4607   5.018   1.424   6.788
 1236SOL    HW2 4608   5.053   1.270   6.830
 1237SOL     OW 4609   2.742   5.159   5.894
 1237SOL    HW1 4610   2.668   5.208   5.847
 1237SOL    HW2 4611   2.744   5.064   5.864
 1238SOL     OW 4612   2.037   0.962   0.449
 1238SOL    HW1 4613   2.003   0.869   0.454
 1238SOL    HW2 4614   2.108   0.968   0.378
 1239SOL     OW 4615   0.210   6.682   6.443
 1239SOL    HW1 4616   0.272   6.611   6.478
 1239SOL    HW2 4617   0.215   6.762   6.502
 1240SOL     OW 4618   5.473   5.675   2.193
 1240SOL    HW1 4619   5.482   5.614   2.114
 1240SOL    HW2 4620   5.548   5.659   2.257
 1241SOL     OW 4621   6.483   3.917   3.971
 1241SOL    HW1 4622   6.526   4.001   3.937
 1241SOL    HW2 4623   6.538   3.879   4.045
 1242SOL     OW 4624   0.953   3.624   1.432
 1242SOL    HW1 4625   1.033   3.636   1.373
 1242SOL    HW2 4626   0.882   3.574   1.382
 1243SOL     OW 4627   0.971   6.401   5.308
 1243SOL    HW1 4628   0.896   6.458   5.275
 1243SOL    HW2 4629   1.047   6.404   5.243
 1244SOL     OW 4630   0.292   6.255   3.433
 1244SOL    HW1 4631   0.231   6.331   3.412
 1244SOL    HW2 4632   0.341   6.274   3.518
 1245SOL     OW 4633   4.679   3.979   6.346
 1245SOL    HW1 4634   4.594   3.993   6.395
 1245SOL    HW2 4635   4.668   4.008   6.251
 1246SOL     OW 4636   2.190   6.242   2.373
 1246SOL    HW1 4637   2.106   6.194   2.395
 1246SOL    HW2 4638   2.171   6.340   2.362
 1247SOL     OW 4639   2.750   0.325   6.791
 1247SOL    HW1 4640   2.656   0.320   6.826
 1247SOL    HW2 4641   2.775   0.420   6.776
 1248SOL     OW 4642   2.578   6.863   4.403
 1248SOL    HW1 4643   2.537   6.783   4.358
 1248SOL    HW2 4644   2.588   6.845   4.500
 1249SOL     OW 4645   5.415   2.217   2.184
 1249SOL    HW1 4646   5.316   2.213   2.175
 1249SOL    HW2 4647   5.456   2.141   2.133
 1250SOL     OW 4648   6.986   4.690   4.753
 1250SOL    HW1 4649   6.983   4.741   4.840
 1250SOL    HW2 4650   0.049   4.709   4.707
 1251SOL     OW 4651   3.124   6.985   4.532
 1251SOL    HW1 4652   3.214   0.005   4.525
 1251SOL    HW2 4653   3.104   6.933   4.449
 1252SOL     OW 4654   3.666   3.909   6.231
 1252SOL    HW1 4655   3.759   3.873   6.223
 1252SOL    HW2 4656   3.635   3.941   6.142
 1253SOL     OW 4657   3.527   5.511   1.329
 1253SOL    HW1 4658   3.483   5.441   1.274
 1253SOL    HW2 4659   3.466   5.590   1.338
 1254SOL     OW 4660   6.256   3.075   2.507
 1254SOL    HW1 4661   6.348   3.036   2.507
 1254SOL    HW2 4662   6.201   3.029   2.438
 1255SOL     OW 4663   6.675   1.412   4.426
 1255SOL    HW1 4664   6.738   1.428   4.350
 1255SOL    HW2 4665   6.650   1.500   4.468
 1256SOL     OW 4666   6.914   6.843   2.800
 1256SOL    HW1 4667   7.011   6.830   2.776
 1256SOL    HW2 4668   6.873   6.755   2.822
 1257SOL     OW 4669   6.513   6.755   3.446
 1257SOL    HW1 4670   6.556   6.746   3.535
 1257SOL    HW2 4671   6.571   6.809   3.385
 1258SOL     OW 4672   0.469   5.220   3.385
 1258SOL    HW1 4673   0.547   5.207   3.324
 1258SOL    HW2 4674   0.384   5.221   3.332
 1259SOL     OW 4675   3.517   2.022   4.547
 1259SOL    HW1 4676   3.569   2.065   4.620
 1259SOL    HW2 4677   3.567   2.030   4.461
 1260SOL     OW 4678   0.900   1.604   6.779
 1260SOL    HW1 4679   0.925   1.551   6.860
 1260SOL    HW2 4680   0.891   1.700   6.803
 1261SOL     OW 4681   0.056   5.872   6.245
 1261SOL    HW1 4682   0.086   5.786   6.287
 1261SOL    HW2 4683   0.031   5.937   6.317
 1262SOL     OW 4684   5.607   5.224   1.894
 1262SOL    HW1 4685   5.581   5.210   1.989
 1262SOL    HW2 4686   5.654   5.143   1.860
 1263SOL     OW 4687   0.164   1.172   2.737
 1263SOL    HW1 4688   0.086   1.125   2.695
 1263SOL    HW2 4689   0.247   1.154   2.684
 1264SOL     OW 4690   0.532   3.792   6.664
 1264SOL    HW1 4691   0.550   3.812   6.760
 1264SOL    HW2 4692   0.618   3.778   6.616
 1265SOL     OW 4693   6.535   5.274   4.526
 1265SOL    HW1 4694   6.614   5.310   4.575
 1265SOL    HW2 4695   6.558   5.187   4.483
 1266SOL     OW 4696   0.793   0.383   4.385
 1266SOL    HW1 4697   0.833   0.331   4.309
 1266SOL    HW2 4698   0.781   0.323   4.464
 1267SOL     OW 4699   5.138   0.785   1.969
 1267SOL    HW1 4700   5.038   0.790   1.969
 1267SOL    HW2 4701   5.167   0.711   1.908
 1268SOL     OW 4702   3.535   2.514   5.952
 1268SOL    HW1 4703   3.532   2.599   5.899
 1268SOL    HW2 4704   3.555   2.438   5.890
 1269SOL     OW 4705   5.400   3.014   4.199
 1269SOL    HW1 4706   5.411   3.024   4.100
 1269SOL    HW2 4707   5.490   3.014   4.242
 1270SOL     OW 4708   1.992   4.818   2.098
 1270SOL    HW1 4709   1.972   4.905   2.054
 1270SOL    HW2 4710   1.908   4.778   2.134
 1271SOL     OW 4711   2.771   0.881   1.418
 1271SOL    HW1 4712   2.724   0.963   1.449
 1271SOL    HW2 4713   2.705   0.819   1.376
 1272SOL     OW 4714   6.427   4.402   6.376
 1272SOL    HW1 4715   6.353   4.468   6.364
 1272SOL    HW2 4716   6.389   4.312   6.397
 1273SOL     OW 4717   1.749   3.950   5.267
 1273SOL    HW1 4718   1.742   4.009   5.187
 1273SOL    HW2 4719   1.704   3.863   5.248
 1274SOL     OW 4720   0.194   4.749   1.569
 1274SOL    HW1 4721   0.282   4.726   1.528
 1274SOL    HW2 4722   0.136   4.793   1.501
 1275SOL     OW 4723   2.844   0.037   3.448
 1275SOL    HW1 4724   2.780   0.085   3.389
 1275SOL    HW2 4725   2.892   0.103   3.506
 1276SOL     OW 4726   5.168   4.759   4.582
 1276SOL    HW1 4727   5.245   4.822   4.569
 1276SOL    HW2 4728   5.127   4.738   4.493
 1277SOL     OW 4729   1.289   5.094   0.041
 1277SOL    HW1 4730   1.266   4.997   0.032
 1277SOL    HW2 4731   1.357   5.119   6.995
 1278SOL     OW 4732   1.447   6.988   4.161
 1278SOL    HW1 4733   1.388   0.024   4.215
 1278SOL    HW2 4734   1.423   6.995   4.064
 1279SOL     OW 4735   2.310   3.631   6.050
 1279SOL    HW1 4736   2.263   3.562   6.105
 1279SOL    HW2 4737   2.250   3.662   5.977
 1280SOL     OW 4738   3.621   0.649   3.539
 1280SOL    HW1 4739   3.600   0.623   3.445
 1280SOL    HW2 4740   3.542   0.629   3.597
 1281SOL     OW 4741   3.079   5.874   4.196
 1281SOL    HW1 4742   2.980   5.868   4.186
 1281SOL    HW2 4743   3.112   5.795   4.248
 1282SOL     OW 4744   0.255   2.656   0.652
 1282SOL    HW1 4745   0.235   2.627   0.746
 1282SOL    HW2 4746   0.250   2.755   0.646
 1283SOL     OW 4747   6.711   4.392   5.242
 1283SOL    HW1 4748   6.749   4.333   5.171
 1283SOL    HW2 4749   6.746   4.363   5.331
 1284SOL     OW 4750   4.068   0.466   1.302
 1284SOL    HW1 4751   4.017   0.394   1.255
 1284SOL    HW2 4752   4.031   0.478   1.394
 1285SOL     OW 4753   3.607   1.225   5.642
 1285SOL    HW1 4754   3.654   1.285   5.706
 1285SOL    HW2 4755   3.672   1.194   5.572
 1286SOL     OW 4756   4.910   2.612   0.751
 1286SOL    HW1 4757   4.859   2.531   0.722
 1286SOL    HW2 4758   4.848   2.677   0.795
 1287SOL     OW 4759   5.252   4.562   5.555
 1287SOL    HW1 4760   5.192   4.631   5.514
 1287SOL    HW2 4761   5.346   4.597   5.558
 1288SOL     OW 4762   4.352   4.276   5.981
 1288SOL    HW1 4763   4.427   4.236   6.034
 1288SOL    HW2 4764   4.379   4.283   5.885
 1289SOL     OW 4765   6.801   0.659   1.949
 1289SOL    HW1 4766   6.780   0.742   1.897
 1289SOL    HW2 4767   6.900   0.645   1.951
 1290SOL     OW 4768   1.274   0.451   1.286
 1290SOL    HW1 4769   1.302   0.533   1.337
 1290SOL    HW2 4770   1.306   0.369   1.334
 1291SOL     OW 4771   6.540   5.032   4.357
 1291SOL    HW1 4772   6.529   4.944   4.403
 1291SOL    HW2 4773   6.450   5.075   4.345
 1292SOL     OW 4774   0.397   5.767   2.266
 1292SOL    HW1 4775   0.298   5.775   2.251
 1292SOL    HW2 4776   0.431   5.852   2.305
 1293SOL     OW 4777   2.125   2.390   0.559
 1293SOL    HW1 4778   2.217   2.357   0.579
 1293SOL    HW2 4779   2.127   2.448   0.478
 1294SOL     OW 4780   1.509   4.147   6.298
 1294SOL    HW1 4781   1.587   4.132   6.237
 1294SOL    HW2 4782   1.535   4.124   6.391
 1295SOL     OW 4783   7.001   3.650   1.297
 1295SOL    HW1 4784   0.033   3.579   1.341
 1295SOL    HW2 4785   6.914   3.610   1.266
 1296SOL     OW 4786   4.962   0.069   5.700
 1296SOL    HW1 4787   4.908   0.058   5.617
 1296SOL    HW2 4788   4.931   0.004   5.769
 1297SOL     OW 4789   0.961   6.334   1.429
 1297SOL    HW1 4790   1.049   6.289   1.439
 1297SOL    HW2 4791   0.895   6.270   1.388
 1298SOL     OW 4792   5.017   6.384   3.421
 1298SOL    HW1 4793   5.056   6.413   3.509
 1298SOL    HW2 4794   5.077   6.414   3.347
 1299SOL     OW 4795   2.026   3.042   3.924
 1299SOL    HW1 4796   1.993   3.134   3.902
 1299SOL    HW2 4797   2.110   3.023   3.874
 1300SOL     OW 4798   1.985   3.730   1.354
 1300SOL    HW1 4799   1.990   3.763   1.448
 1300SOL    HW2 4800   1.923   3.651   1.349
 1301SOL     OW 4801   0.434   6.893   1.724
 1301SOL    HW1 4802   0.487   6.976   1.704
 1301SOL    HW2 4803   0.470   6.817   1.670
 1302SOL     OW 4804   5.632   0.474   5.372
 1302SOL    HW1 4805   5.696   0.445   5.300
 1302SOL    HW2 4806   5.674   0.547   5.426
 1303SOL     OW 4807   4.494   0.110   1.635
 1303SOL    HW1 4808   4.557   0.074   1.704
 1303SOL    HW2 4809   4.540   0.180   1.580
 1304SOL     OW 4810   1.834   1.270   1.261
 1304SOL    HW1 4811   1.903   1.316   1.316
 1304SOL    HW2 4812   1.849   1.291   1.164
 1305SOL     OW 4813   5.547   4.481   6.127
 1305SOL    HW1 4814   5.476   4.413   6.109
 1305SOL    HW2 4815   5.518   4.540   6.202
 1306SOL     OW 4816   0.927   5.432   4.427
 1306SOL    HW1 4817   0.841   5.470   4.462
 1306SOL    HW2 4818   0.990   5.506   4.405
 1307SOL     OW 4819   1.786   3.456   3.821
 1307SOL    HW1 4820   1.776   3.553   3.845
 1307SOL    HW2 4821   1.718   3.431   3.753
 1308SOL     OW 4822   6.658   6.694   6.184
 1308SOL    HW1 4823   6.631   6.618   6.243
 1308SOL    HW2 4824   6.584   6.718   6.122
 1309SOL     OW 4825   5.383   4.426   5.766
 1309SOL    HW1 4826   5.307   4.368   5.796
 1309SOL    HW2 4827   5.346   4.503   5.712
 1310SOL     OW 4828   0.742   4.153   3.780
 1310SOL    HW1 4829   0.811   4.097   3.733
 1310SOL    HW2 4830   0.743   4.132   3.877
 1311SOL     OW 4831   6.428   5.757   6.271
 1311SOL    HW1 4832   6.473   5.838   6.310
 1311SOL    HW2 4833   6.332   5.756   6.298
 1312SOL     OW 4834   1.767   0.697   6.598
 1312SOL    HW1 4835   1.818   0.695   6.684
 1312SOL    HW2 4836   1.767   0.790   6.560
 1313SOL     OW 4837   6.521   5.261   2.910
 1313SOL    HW1 4838   6.433   5.303   2.933
 1313SOL    HW2 4839   6.557   5.212   2.990
 1314SOL     OW 4840   3.016   1.733   4.378
 1314SOL    HW1 4841   3.034   1.802   4.308
 1314SOL    HW2 4842   2.922   1.740   4.410
 1315SOL     OW 4843   6.954   1.035   4.181
 1315SOL    HW1 4844   6.975   0.977   4.102
 1315SOL    HW2 4845   6.856   1.030   4.200
 1316SOL     OW 4846   4.027   0.144   4.960
 1316SOL    HW1 4847   3.948   0.089   4.931
 1316SOL    HW2 4848   4.110   0.105   4.921
 1317SOL     OW 4849   2.135   4.601   5.396
 1317SOL    HW1 4850   2.041   4.614   5.366
 1317SOL    HW2 4851   2.190   4.564   5.321
 1318SOL     OW 4852   1.415   2.710   6.689
 1318SOL    HW1 4853   1.488   2.753   6.637
 1318SOL    HW2 4854   1.393   2.621   6.649
 1319SOL     OW 4855   0.109   5.920   6.686
 1319SOL    HW1 4856   0.101   5.961   6.595
 1319SOL    HW2 4857   0.075   5.985   6.754
 1320SOL     OW 4858   3.108   3.008   6.653
 1320SOL    HW1 4859   3.131   2.968   6.564
 1320SOL    HW2 4860   3.013   3.041   6.652
 1321SOL     OW 4861   4.837   2.404   6.715
 1321SOL    HW1 4862   4.930   2.431   6.691
 1321SOL    HW2 4863   4.818   2.314   6.676
 1322SOL     OW 4864   3.611   1.203   4.180
 1322SOL    HW1 4865   3.573   1.123   4.135
 1322SOL    HW2 4866   3.662   1.175   4.262
 1323SOL     OW 4867   3.850   6.244   0.839
 1323SOL    HW1 4868   3.756   6.212   0.837
 1323SOL    HW2 4869   3.854   6.340   0.811
 1324SOL     OW 4870   1.124   3.726   0.538
 1324SOL    HW1 4871   1.209   3.728   0.486
 1324SOL    HW2 4872   1.049   3.698   0.479
 1325SOL     OW 4873   4.354   6.548   5.281
 1325SOL    HW1 4874   4.369   6.645   5.301
 1325SOL    HW2 4875   4.256   6.533   5.266
 1326SOL     OW 4876   4.591   4.030   5.320
 1326SOL    HW1 4877   4.532   4.108   5.297
 1326SOL    HW2 4878   4.686   4.052   5.298
 1327SOL     OW 4879   0.285   6.399   1.034
 1327SOL    HW1 4880   0.327   6.460   0.967
 1327SOL    HW2 4881   0.340   6.398   1.117
 1328SOL     OW 4882   1.477   3.176   6.364
 1328SOL    HW1 4883   1.482   3.267   6.322
 1328SOL    HW2 4884   1.394   3.129   6.333
 1329SOL     OW 4885   0.275   1.822   2.838
 1329SOL    HW1 4886   0.192   1.839   2.891
 1329SOL    HW2 4887   0.278   1.725   2.812
 1330SOL     OW 4888   0.407   2.073   0.977
 1330SOL    HW1 4889   0.479   2.059   0.909
 1330SOL    HW2 4890   0.437   2.142   1.043
 1331SOL     OW 4891   4.295   2.299   2.328
 1331SOL    HW1 4892   4.209   2.253   2.305
 1331SOL    HW2 4893   4.304   2.306   2.427
 1332SOL     OW 4894   2.229   6.700   0.400
 1332SOL    HW1 4895   2.221   6.641   0.480
 1332SOL    HW2 4896   2.139   6.733   0.373
 1333SOL     OW 4897   2.984   3.872   2.831
 1333SOL    HW1 4898   2.977   3.823   2.743
 1333SOL    HW2 4899   2.942   3.817   2.903
 1334SOL     OW 4900   6.400   2.220   3.432
 1334SOL    HW1 4901   6.486   2.220   3.483
 1334SOL    HW2 4902   6.391   2.306   3.381
 1335SOL     OW 4903   1.954   2.070   2.256
 1335SOL    HW1 4904   1.927   1.983   2.297
 1335SOL    HW2 4905   1.897   2.089   2.176
 1336SOL     OW 4906   3.894   1.911   5.630
 1336SOL    HW1 4907   3.842   1.949   5.554
 1336SOL    HW2 4908   3.949   1.834   5.598
 1337SOL     OW 4909   6.639   1.395   2.736
 1337SOL    HW1 4910   6.739   1.391   2.739
 1337SOL    HW2 4911   6.602   1.385   2.828
 1338SOL     OW 4912   6.941   4.601   4.284
 1338SOL    HW1 4913   6.987   4.687   4.307
 1338SOL    HW2 4914   6.891   4.567   4.363
 1339SOL     OW 4915   7.012   0.510   6.791
 1339SOL    HW1 4916   6.944   0.546   6.854
 1339SOL    HW2 4917   0.081   0.521   6.830
 1340SOL     OW 4918   5.471   1.861   2.889
 1340SOL    HW1 4919   5.392   1.850   2.829
 1340SOL    HW2 4920   5.542   1.796   2.864
 1341SOL     OW 4921   4.318   6.507   0.519
 1341SOL    HW1 4922   4.301   6.604   0.539
 1341SOL    HW2 4923   4.231   6.462   0.499
 1342SOL     OW 4924   3.302   4.962   6.234
 1342SOL    HW1 4925   3.293   5.056   6.268
 1342SOL    HW2 4926   3.399   4.940   6.222
 1343SOL     OW 4927   5.778   5.399   2.865
 1343SOL    HW1 4928   5.859   5.372   2.917
 1343SOL    HW2 4929   5.730   5.317   2.835
 1344SOL     OW 4930   0.866   6.175   4.483
 1344SOL    HW1 4931   0.894   6.254   4.427
 1344SOL    HW2 4932   0.901   6.091   4.442
 1345SOL     OW 4933   0.766   4.500   2.229
 1345SOL    HW1 4934   0.839   4.557   2.268
 1345SOL    HW2 4935   0.679   4.547   2.237
 1346SOL     OW 4936   1.608   5.249   6.104
 1346SOL    HW1 4937   1.548   5.311   6.154
 1346SOL    HW2 4938   1.632   5.172   6.162
 1347SOL     OW 4939   1.485   6.777   6.610
 1347SOL    HW1 4940   1.524   6.686   6.602
 1347SOL    HW2 4941   1.451   6.807   6.520
 1348SOL     OW 4942   0.351   6.192   5.174
 1348SOL    HW1 4943   0.352   6.270   5.237
 1348SOL    HW2 4944   0.337   6.107   5.226
 1349SOL     OW 4945   5.458   2.500   4.094
 1349SOL    HW1 4946   5.538   2.440   4.085
 1349SOL    HW2 4947   5.459   2.569   4.022
 1350SOL     OW 4948   4.382   4.834   6.601
 1350SOL    HW1 4949   4.376   4.780   6.518
 1350SOL    HW2 4950   4.422   4.923   6.581
 1351SOL     OW 4951   5.913   2.649   4.065
 1351SOL    HW1 4952   5.982   2.718   4.088
 1351SOL    HW2 4953   5.861   2.626   4.148
 1352SOL     OW 4954   6.789   6.628   2.928
 1352SOL    HW1 4955   6.829   6.549   2.974
 1352SOL    HW2 4956   6.729   6.677   2.991
 1353SOL     OW 4957   1.145   1.807   0.567
 1353SOL    HW1 4958   1.052   1.808   0.531
 1353SOL    HW2 4959   1.178   1.901   0.577
 1354SOL     OW 4960   6.977   3.554   2.396
 1354SOL    HW1 4961   0.018   3.612   2.345
 1354SOL    HW2 4962   6.982   3.460   2.360
 1355SOL     OW 4963   6.302   3.518   4.311
 1355SOL    HW1 4964   6.261   3.430   4.288
 1355SOL    HW2 4965   6.392   3.526   4.268
 1356SOL     OW 4966   3.432   2.864   2.042
 1356SOL    HW1 4967   3.522   2.824   2.023
 1356SOL    HW2 4968   3.419   2.871   2.141
 1357SOL     OW 4969   6.503   4.169   5.998
 1357SOL    HW1 4970   6.575   4.111   6.036
 1357SOL    HW2 4971   6.418   4.116   5.993
 1358SOL     OW 4972   5.966   0.118   0.555
 1358SOL    HW1 4973   5.940   0.188   0.489
 1358SOL    HW2 4974   6.044   0.150   0.608
 1359SOL     OW 4975   6.980   4.908   2.204
 1359SOL    HW1 4976   6.937   4.991   2.169
 1359SOL    HW2 4977   6.914   4.833   2.202
 1360SOL     OW 4978   3.401   3.370   0.096
 1360SOL    HW1 4979   3.498   3.353   0.115
 1360SOL    HW2 4980   3.390   3.463   0.059
 1361SOL     OW 4981   0.110   4.680   5.069
 1361SOL    HW1 4982   0.024   4.715   5.031
 1361SOL    HW2 4983   0.106   4.684   5.169
 1362SOL     OW 4984   3.728   3.688   2.690
 1362SOL    HW1 4985   3.715   3.651   2.598
 1362SOL    HW2 4986   3.691   3.624   2.757
 1363SOL     OW 4987   0.136   5.270   4.213
 1363SOL    HW1 4988   0.086   5.273   4.127
 1363SOL    HW2 4989   0.206   5.341   4.214
 1364SOL     OW 4990   4.414   4.125   0.362
 1364SOL    HW1 4991   4.507   4.155   0.385
 1364SOL    HW2 4992   4.371   4.192   0.302
 1365SOL     OW 4993   0.404   4.611   6.931
 1365SOL    HW1 4994   0.494   4.608   6.975
 1365SOL    HW2 4995   0.373   4.518   6.911
 1366SOL     OW 4996   1.903   6.586   5.756
 1366SOL    HW1 4997   1.910   6.566   5.659
 1366SOL    HW2 4998   1.994   6.600   5.795
 1367SOL     OW 4999   1.775   1.140   2.422
 1367SOL    HW1 5000   1.851   1.077   2.407
 1367SOL    HW2 5001   1.764   1.156   2.520
 1368SOL     OW 5002   5.429   6.767   5.294
 1368SOL    HW1 5003   5.485   6.753   5.213
 1368SOL    HW2 5004   5.437   6.862   5.324
 1369SOL     OW 5005   1.383   5.957   2.755
 1369SOL    HW1 5006   1.447   6.013   2.808
 1369SOL    HW2 5007   1.363   6.003   2.668
 1370SOL     OW 5008   3.560   0.875   1.598
 1370SOL    HW1 5009   3.506   0.948   1.641
 1370SOL    HW2 5010   3.499   0.803   1.566
 1371SOL     OW 5011   4.538   1.335   4.548
 1371SOL    HW1 5012   4.495   1.297   4.466
 1371SOL    HW2 5013   4.513   1.432   4.556
 1372SOL     OW 5014   1.846   2.702   1.121
 1372SOL    HW1 5015   1.820   2.785   1.171
 1372SOL    HW2 5016   1.772   2.635   1.128
 1373SOL     OW 5017   6.446   4.701   0.493
 1373SOL    HW1 5018   6.516   4.673   0.558
 1373SOL    HW2 5019   6.482   4.695   0.400
 1374SOL     OW 5020   4.382   2.279   0.817
 1374SOL    HW1 5021   4.363   2.182   0.837
 1374SOL    HW2 5022   4.299   2.321   0.780
 1375SOL     OW 5023   0.117   5.008   5.416
 1375SOL    HW1 5024   0.149   4.927   5.366
 1375SOL    HW2 5025   0.017   5.004   5.424
 1376SOL     OW 5026   4.661   2.476   4.003
 1376SOL    HW1 5027   4.563   2.462   3.989
 1376SOL    HW2 5028   4.701   2.513   3.920
 1377SOL     OW 5029   0.403   4.476   5.417
 1377SOL    HW1 5030   0.368   4.564   5.448
 1377SOL    HW2 5031   0.482   4.451   5.473
 1378SOL     OW 5032   1.138   2.652   6.000
 1378SOL    HW1 5033   1.187   2.606   5.926
 1378SOL    HW2 5034   1.150   2.600   6.085
 1379SOL     OW 5035   3.264   6.225   3.160
 1379SOL    HW1 5036   3.326   6.303   3.173
 1379SOL    HW2 5037   3.185   6.236   3.219
 1380SOL     OW 5038   6.716   6.678   2.089
 1380SOL    HW1 5039   6.676   6.704   2.177
 1380SOL    HW2 5040   6.786   6.745   2.064
 1381SOL     OW 5041   5.956   3.111   0.348
 1381SOL    HW1 5042   5.876   3.155   0.389
 1381SOL    HW2 5043   5.996   3.048   0.414
 1382SOL     OW 5044   5.990   5.491   5.785
 1382SOL    HW1 5045   6.086   5.496   5.810
 1382SOL    HW2 5046   5.955   5.399   5.803
 1383SOL     OW 5047   0.551   0.670   0.074
 1383SOL    HW1 5048   0.468   0.619   0.099
 1383SOL    HW2 5049   0.599   0.621   0.001
 1384SOL     OW 5050   3.263   1.267   3.469
 1384SOL    HW1 5051   3.294   1.343   3.526
 1384SOL    HW2 5052   3.271   1.292   3.373
 1385SOL     OW 5053   6.354   2.778   2.941
 1385SOL    HW1 5054   6.299   2.698   2.917
 1385SOL    HW2 5055   6.331   2.806   3.035
 1386SOL     OW 5056   1.971   3.105   4.433
 1386SOL    HW1 5057   1.989   3.129   4.338
 1386SOL    HW2 5058   2.028   3.161   4.493
 1387SOL     OW 5059   3.485   0.479   4.470
 1387SOL    HW1 5060   3.578   0.508   4.451
 1387SOL    HW2 5061   3.443   0.544   4.535
 1388SOL     OW 5062   6.510   0.499   4.349
 1388SOL    HW1 5063   6.568   0.472   4.426
 1388SOL    HW2 5064   6.553   0.468   4.264
 1389SOL     OW 5065   6.246   0.008   4.309
 1389SOL    HW1 5066   6.159   6.988   4.283
 1389SOL    HW2 5067   6.239   0.107   4.295
 1390SOL     OW 5068   4.737   1.731   1.455
 1390SOL    HW1 5069   4.641   1.726   1.429
 1390SOL    HW2 5070   4.744   1.737   1.555
 1391SOL     OW 5071   6.883   0.343   4.812
 1391SOL    HW1 5072   6.933   0.404   4.873
 1391SOL    HW2 5073   6.919   0.351   4.719
 1392SOL     OW 5074   4.381   6.065   6.376
 1392SOL    HW1 5075   4.402   6.137   6.309
 1392SOL    HW2 5076   4.345   6.107   6.459
 1393SOL     OW 5077   6.778   1.658   6.367
 1393SOL    HW1 5078   6.697   1.601   6.381
 1393SOL    HW2 5079   6.859   1.609   6.400
 1394SOL     OW 5080   4.139   6.747   3.660
 1394SOL    HW1 5081   4.061   6.685   3.665
 1394SOL    HW2 5082   4.116   6.826   3.603
 1395SOL     OW 5083   1.251   4.933   3.072
 1395SOL    HW1 5084   1.162   4.932   3.117
 1395SOL    HW2 5085   1.320   4.970   3.134
 1396SOL     OW 5086   1.969   1.292   4.617
 1396SOL    HW1 5087   1.964   1.321   4.522
 1396SOL    HW2 5088   2.049   1.233   4.630
 1397SOL     OW 5089   0.527   4.692   4.497
 1397SOL    HW1 5090   0.461   4.686   4.422
 1397SOL    HW2 5091   0.585   4.773   4.484
 1398SOL     OW 5092   0.895   1.662   0.775
 1398SOL    HW1 5093   0.978   1.637   0.725
 1398SOL    HW2 5094   0.912   1.742   0.831
 1399SOL     OW 5095   3.917   0.154   0.470
 1399SOL    HW1 5096   3.980   0.224   0.437
 1399SOL    HW2 5097   3.929   0.142   0.569
 1400SOL     OW 5098   6.337   0.714   4.469
 1400SOL    HW1 5099   6.351   0.806   4.432
 1400SOL    HW2 5100   6.400   0.650   4.425
 1401SOL     OW 5101   5.355   0.636   3.427
 1401SOL    HW1 5102   5.422   0.562   3.427
 1401SOL    HW2 5103   5.263   0.599   3.413
 1402SOL     OW 5104   5.793   3.784   1.019
 1402SOL    HW1 5105   5.781   3.850   1.093
 1402SOL    HW2 5106   5.845   3.706   1.052
 1403SOL     OW 5107   3.837   2.867   6.874
 1403SOL    HW1 5108   3.876   2.861   6.782
 1403SOL    HW2 5109   3.743   2.900   6.868
 1404SOL     OW 5110   4.290   7.008   0.890
 1404SOL    HW1 5111   4.320   0.074   0.855
 1404SOL    HW2 5112   4.221   7.021   0.960
 1405SOL     OW 5113   2.345   3.477   1.025
 1405SOL    HW1 5114   2.286   3.413   0.976
 1405SOL    HW2 5115   2.441   3.458   1.003
 1406SOL     OW 5116   2.329   3.243   0.861
 1406SOL    HW1 5117   2.389   3.282   0.792
 1406SOL    HW2 5118   2.378   3.172   0.912
 1407SOL     OW 5119   0.648   3.010   1.804
 1407SOL    HW1 5120   0.667   3.046   1.712
 1407SOL    HW2 5121   0.669   3.080   1.872
 1408SOL     OW 5122   5.703   5.944   6.303
 1408SOL    HW1 5123   5.633   6.013   6.322
 1408SOL    HW2 5124   5.720   5.889   6.385
 1409SOL     OW 5125   6.965   1.142   5.856
 1409SOL    HW1 5126   6.887   1.173   5.801
 1409SOL    HW2 5127   7.001   1.057   5.818
 1410SOL     OW 5128   2.743   2.654   5.724
 1410SOL    HW1 5129   2.805   2.690   5.794
 1410SOL    HW2 5130   2.795   2.597   5.660
 1411SOL     OW 5131   3.881   5.873   0.054
 1411SOL    HW1 5132   3.895   5.804   0.125
 1411SOL    HW2 5133   3.816   5.942   0.087
 1412SOL     OW 5134   1.254   2.578   0.719
 1412SOL    HW1 5135   1.181   2.519   0.751
 1412SOL    HW2 5136   1.341   2.548   0.758
 1413SOL     OW 5137   1.465   1.655   5.307
 1413SOL    HW1 5138   1.563   1.672   5.311
 1413SOL    HW2 5139   1.448   1.570   5.257
 1414SOL     OW 5140   0.639   3.432   2.160
 1414SOL    HW1 5141   0.652   3.525   2.125
 1414SOL    HW2 5142   0.686   3.423   2.248
 1415SOL     OW 5143   2.957   2.294   3.831
 1415SOL    HW1 5144   2.954   2.220   3.764
 1415SOL    HW2 5145   2.888   2.362   3.809
 1416SOL     OW 5146   4.290   7.022   5.665
 1416SOL    HW1 5147   4.295   0.042   5.755
 1416SOL    HW2 5148   4.224   6.947   5.666
 1417SOL     OW 5149   3.300   2.921   6.047
 1417SOL    HW1 5150   3.334   2.995   5.989
 1417SOL    HW2 5151   3.342   2.928   6.138
 1418SOL     OW 5152   3.724   3.554   6.964
 1418SOL    HW1 5153   3.772   3.628   6.917
 1418SOL    HW2 5154   3.627   3.558   6.943
 1419SOL     OW 5155   2.045   5.489   3.752
 1419SOL    HW1 5156   2.113   5.418   3.729
 1419SOL    HW2 5157   1.959   5.468   3.705
 1420SOL     OW 5158   3.903   5.167   3.122
 1420SOL    HW1 5159   3.827   5.227   3.149
 1420SOL    HW2 5160   3.889   5.137   3.027
 1421SOL     OW 5161   0.818   5.569   5.885
 1421SOL    HW1 5162   0.746   5.517   5.839
 1421SOL    HW2 5163   0.907   5.531   5.861
 1422SOL     OW 5164   2.780   3.639   5.947
 1422SOL    HW1 5165   2.718   3.626   5.869
 1422SOL    HW2 5166   2.830   3.724   5.935
 1423SOL     OW 5167   4.555   0.513   4.565
 1423SOL    HW1 5168   4.464   0.472   4.555
 1423SOL    HW2 5169   4.549   0.611   4.547
 1424SOL     OW 5170   5.881   3.217   6.791
 1424SOL    HW1 5171   5.941   3.203   6.712
 1424SOL    HW2 5172   5.812   3.285   6.769
 1425SOL     OW 5173   3.853   6.652   4.340
 1425SOL    HW1 5174   3.887   6.706   4.417
 1425SOL    HW2 5175   3.755   6.671   4.328
 1426SOL     OW 5176   2.536   2.167   0.216
 1426SOL    HW1 5177   2.452   2.220   0.233
 1426SOL    HW2 5178   2.613   2.212   0.260
 1427SOL     OW 5179   0.884   1.278   3.041
 1427SOL    HW1 5180   0.814   1.335   3.084
 1427SOL    HW2 5181   0.956   1.257   3.108
 1428SOL     OW 5182   6.743   3.553   3.552
 1428SOL    HW1 5183   6.791   3.608   3.484
 1428SOL    HW2 5184   6.699   3.613   3.619
 1429SOL     OW 5185   5.862   1.585   0.469
 1429SOL    HW1 5186   5.876   1.666   0.411
 1429SOL    HW2 5187   5.901   1.602   0.559
 1430SOL     OW 5188   2.133   3.123   3.267
 1430SOL    HW1 5189   2.110   3.168   3.353
 1430SOL    HW2 5190   2.062   3.056   3.244
 1431SOL     OW 5191   2.577   1.614   6.371
 1431SOL    HW1 5192   2.642   1.565   6.314
 1431SOL    HW2 5193   2.548   1.698   6.324
 1432SOL     OW 5194   2.777   1.166   0.963
 1432SOL    HW1 5195   2.811   1.119   1.045
 1432SOL    HW2 5196   2.689   1.208   0.984
 1433SOL     OW 5197   2.881   0.401   4.298
 1433SOL    HW1 5198   2.932   0.405   4.212
 1433SOL    HW2 5199   2.903   0.316   4.345
 1434SOL     OW 5200   6.948   2.913   6.911
 1434SOL    HW1 5201   6.966   2.886   7.006
 1434SOL    HW2 5202   6.899   3.000   6.910
 1435SOL     OW 5203   0.871   6.968   5.205
 1435SOL    HW1 5204   0.969   6.959   5.190
 1435SOL    HW2 5205   0.823   6.967   5.117
 1436SOL     OW 5206   5.842   1.978   0.616
 1436SOL    HW1 5207   5.879   1.942   0.702
 1436SOL    HW2 5208   5.787   2.059   0.635
 1437SOL     OW 5209   4.206   1.413   6.151
 1437SOL    HW1 5210   4.183   1.467   6.232
 1437SOL    HW2 5211   4.141   1.436   6.077
 1438SOL     OW 5212   2.389   1.155   1.667
 1438SOL    HW1 5213   2.289   1.151   1.672
 1438SOL    HW2 5214   2.425   1.064   1.648
 1439SOL     OW 5215   6.553   5.065   6.907
 1439SOL    HW1 5216   6.602   4.978   6.910
 1439SOL    HW2 5217   6.496   5.074   6.989
 1440SOL     OW 5218   3.062   3.142   3.506
 1440SOL    HW1 5219   3.042   3.094   3.591
 1440SOL    HW2 5220   3.160   3.137   3.487
 1441SOL     OW 5221   0.119   2.717   4.359
 1441SOL    HW1 5222   0.088   2.755   4.445
 1441SOL    HW2 5223   0.064   2.753   4.284
 1442SOL     OW 5224   4.999   3.942   0.226
 1442SOL    HW1 5225   5.018   3.891   0.310
 1442SOL    HW2 5226   4.916   3.996   0.239
 1443SOL     OW 5227   0.831   1.538   3.479
 1443SOL    HW1 5228   0.826   1.456   3.422
 1443SOL    HW2 5229   0.898   1.601   3.440
 1444SOL     OW 5230   4.461   0.532   3.570
 1444SOL    HW1 5231   4.399   0.592   3.620
 1444SOL    HW2 5232   4.553   0.539   3.610
 1445SOL     OW 5233   6.422   2.164   1.703
 1445SOL    HW1 5234   6.492   2.096   1.724
 1445SOL    HW2 5235   6.368   2.184   1.785
 1446SOL     OW 5236   3.885   2.163   1.525
 1446SOL    HW1 5237   3.894   2.064   1.535
 1446SOL    HW2 5238   3.894   2.207   1.614
 1447SOL     OW 5239   6.161   1.340   4.943
 1447SOL    HW1 5240   6.094   1.267   4.959
 1447SOL    HW2 5241   6.240   1.327   5.003
 1448SOL     OW 5242   5.464   1.113   6.363
 1448SOL    HW1 5243   5.471   1.034   6.303
 1448SOL    HW2 5244   5.368   1.135   6.379
 1449SOL     OW 5245   5.210   5.920   0.924
 1449SOL    HW1 5246   5.173   5.978   0.996
 1449SOL    HW2 5247   5.199   5.824   0.948
 1450SOL     OW 5248   5.441   3.043   2.954
 1450SOL    HW1 5249   5.529   3.050   2.908
 1450SOL    HW2 5250   5.441   2.963   3.014
 1451SOL     OW 5251   1.774   6.597   2.772
 1451SOL    HW1 5252   1.728   6.574   2.858
 1451SOL    HW2 5253   1.768   6.695   2.756
 1452SOL     OW 5254   5.226   0.602   5.244
 1452SOL    HW1 5255   5.288   0.527   5.268
 1452SOL    HW2 5256   5.270   0.690   5.264
 1453SOL     OW 5257   5.145   4.257   4.963
 1453SOL    HW1 5258   5.209   4.305   4.903
 1453SOL    HW2 5259   5.196   4.209   5.034
 1454SOL     OW 5260   5.140   2.831   2.078
 1454SOL    HW1 5261   5.200   2.755   2.054
 1454SOL    HW2 5262   5.057   2.827   2.021
 1455SOL     OW 5263   1.069   0.936   1.939
 1455SOL    HW1 5264   1.130   0.867   1.900
 1455SOL    HW2 5265   1.063   0.923   2.038
 1456SOL     OW 5266   0.206   6.735   4.330
 1456SOL    HW1 5267   0.282   6.762   4.388
 1456SOL    HW2 5268   0.223   6.765   4.236
 1457SOL     OW 5269   2.015   0.462   4.267
 1457SOL    HW1 5270   2.064   0.425   4.346
 1457SOL    HW2 5271   1.945   0.526   4.298
 1458SOL     OW 5272   5.301   6.316   6.044
 1458SOL    HW1 5273   5.301   6.407   6.002
 1458SOL    HW2 5274   5.226   6.310   6.109
 1459SOL     OW 5275   2.835   6.215   0.065
 1459SOL    HW1 5276   2.767   6.284   0.042
 1459SOL    HW2 5277   2.824   6.136   0.005
 1460SOL     OW 5278   1.258   6.516   0.184
 1460SOL    HW1 5279   1.339   6.460   0.203
 1460SOL    HW2 5280   1.181   6.458   0.161
 1461SOL     OW 5281   5.792   4.605   2.492
 1461SOL    HW1 5282   5.880   4.594   2.539
 1461SOL    HW2 5283   5.781   4.532   2.424
 1462SOL     OW 5284   6.122   0.641   0.258
 1462SOL    HW1 5285   6.070   0.621   0.175
 1462SOL    HW2 5286   6.190   0.570   0.274
 1463SOL     OW 5287   1.305   0.543   5.085
 1463SOL    HW1 5288   1.243   0.579   5.155
 1463SOL    HW2 5289   1.384   0.604   5.076
 1464SOL     OW 5290   0.136   6.407   0.622
 1464SOL    HW1 5291   0.088   6.337   0.675
 1464SOL    HW2 5292   0.221   6.369   0.586
 1465SOL     OW 5293   0.428   0.225   4.591
 1465SOL    HW1 5294   0.503   0.160   4.582
 1465SOL    HW2 5295   0.341   0.178   4.574
 1466SOL     OW 5296   5.844   5.667   3.332
 1466SOL    HW1 5297   5.872   5.685   3.426
 1466SOL    HW2 5298   5.745   5.650   3.329
 1467SOL     OW 5299   0.757   1.202   3.536
 1467SOL    HW1 5300   0.738   1.212   3.634
 1467SOL    HW2 5301   0.688   1.143   3.494
 1468SOL     OW 5302   5.176   5.777   3.675
 1468SOL    HW1 5303   5.263   5.823   3.693
 1468SOL    HW2 5304   5.187   5.678   3.690
 1469SOL     OW 5305   0.769   0.711   2.531
 1469SOL    HW1 5306   0.799   0.784   2.592
 1469SOL    HW2 5307   0.849   0.660   2.498
 1470SOL     OW 5308   1.206   0.973   2.979
 1470SOL    HW1 5309   1.164   1.046   3.033
 1470SOL    HW2 5310   1.185   0.884   3.020
 1471SOL     OW 5311   0.323   0.321   6.608
 1471SOL    HW1 5312   0.326   0.387   6.534
 1471SOL    HW2 5313   0.228   0.305   6.635
 1472SOL     OW 5314   5.064   0.521   6.202
 1472SOL    HW1 5315   5.118   0.582   6.144
 1472SOL    HW2 5316   5.029   0.572   6.280
 1473SOL     OW 5317   5.794   4.947   2.966
 1473SOL    HW1 5318   5.834   4.884   2.900
 1473SOL    HW2 5319   5.864   4.978   3.031
 1474SOL     OW 5320   5.874   5.569   4.337
 1474SOL    HW1 5321   5.789   5.542   4.293
 1474SOL    HW2 5322   5.870   5.666   4.362
 1475SOL     OW 5323   6.880   0.809   2.205
 1475SOL    HW1 5324   6.864   0.710   2.214
 1475SOL    HW2 5325   6.960   0.824   2.147
 1476SOL     OW 5326   0.905   1.721   2.346
 1476SOL    HW1 5327   0.830   1.671   2.304
 1476SOL    HW2 5328   0.894   1.819   2.330
 1477SOL     OW 5329   2.929   6.780   5.326
 1477SOL    HW1 5330   3.011   6.790   5.269
 1477SOL    HW2 5331   2.902   6.869   5.362
 1478SOL     OW 5332   6.073   4.876   1.373
 1478SOL    HW1 5333   6.023   4.933   1.308
 1478SOL    HW2 5334   6.104   4.793   1.326
 1479SOL     OW 5335   2.072   4.587   0.571
 1479SOL    HW1 5336   2.049   4.490   0.559
 1479SOL    HW2 5337   2.000   4.644   0.531
 1480SOL     OW 5338   2.187   1.507   0.412
 1480SOL    HW1 5339   2.167   1.432   0.476
 1480SOL    HW2 5340   2.124   1.503   0.335
 1481SOL     OW 5341   6.031   2.309   6.142
 1481SOL    HW1 5342   6.037   2.214   6.110
 1481SOL    HW2 5343   6.106   2.327   6.206
 1482SOL     OW 5344   5.712   0.608   6.946
 1482SOL    HW1 5345   5.617   0.630   6.924
 1482SOL    HW2 5346   5.765   0.692   6.957
 1483SOL     OW 5347   6.519   2.752   7.011
 1483SOL    HW1 5348   6.529   2.845   6.976
 1483SOL    HW2 5349   6.505   2.756   0.087
 1484SOL     OW 5350   0.195   4.780   2.262
 1484SOL    HW1 5351   0.118   4.818   2.212
 1484SOL    HW2 5352   0.222   4.842   2.335
 1485SOL     OW 5353   5.463   2.699   3.929
 1485SOL    HW1 5354   5.470   2.673   3.832
 1485SOL    HW2 5355   5.450   2.797   3.937
 1486SOL     OW 5356   4.642   2.074   3.024
 1486SOL    HW1 5357   4.556   2.120   3.046
 1486SOL    HW2 5358   4.718   2.136   3.042
 1487SOL     OW 5359   5.675   1.586   5.786
 1487SOL    HW1 5360   5.725   1.663   5.827
 1487SOL    HW2 5361   5.739   1.514   5.761
 1488SOL     OW 5362   4.667   1.273   3.192
 1488SOL    HW1 5363   4.588   1.212   3.196
 1488SOL    HW2 5364   4.728   1.252   3.268
 1489SOL     OW 5365   3.891   4.897   4.990
 1489SOL    HW1 5366   3.797   4.914   4.961
 1489SOL    HW2 5367   3.951   4.895   4.909
 1490SOL     OW 5368   1.054   2.243   0.404
 1490SOL    HW1 5369   1.106   2.220   0.321
 1490SOL    HW2 5370   1.057   2.342   0.418
 1491SOL     OW 5371   0.278   3.365   3.826
 1491SOL    HW1 5372   0.219   3.424   3.771
 1491SOL    HW2 5373   0.226   3.329   3.904
 1492SOL     OW 5374   5.133   1.811   1.581
 1492SOL    HW1 5375   5.098   1.717   1.577
 1492SOL    HW2 5376   5.059   1.875   1.562
 1493SOL     OW 5377   4.779   0.289   5.340
 1493SOL    HW1 5378   4.725   0.361   5.383
 1493SOL    HW2 5379   4.875   0.317   5.335
 1494SOL     OW 5380   4.181   2.418   5.995
 1494SOL    HW1 5381   4.224   2.328   5.991
 1494SOL    HW2 5382   4.094   2.415   5.946
 1495SOL     OW 5383   1.008   3.103   2.708
 1495SOL    HW1 5384   0.938   3.172   2.689
 1495SOL    HW2 5385   1.070   3.137   2.779
 1496SOL     OW 5386   6.812   0.242   1.882
 1496SOL    HW1 5387   6.893   0.279   1.928
 1496SOL    HW2 5388   6.784   0.158   1.928
 1497SOL     OW 5389   6.785   5.281   3.891
 1497SOL    HW1 5390   6.720   5.252   3.961
 1497SOL    HW2 5391   6.787   5.215   3.817
 1498SOL     OW 5392   1.781   4.389   6.449
 1498SOL    HW1 5393   1.808   4.297   6.422
 1498SOL    HW2 5394   1.692   4.386   6.494
 1499SOL     OW 5395   1.094   3.916   4.816
 1499SOL    HW1 5396   1.139   3.834   4.853
 1499SOL    HW2 5397   1.148   3.997   4.842
 1500SOL     OW 5398   5.161   6.773   0.163
 1500SOL    HW1 5399   5.181   6.852   0.105
 1500SOL    HW2 5400   5.111   6.704   0.111
 1501SOL     OW 5401   4.161   0.389   6.554
 1501SOL    HW1 5402   4.138   0.292   6.565
 1501SOL    HW2 5403   4.235   0.397   6.487
 1502SOL     OW 5404   6.372   6.502   0.090
 1502SOL    HW1 5405   6.417   6.589   0.110
 1502SOL    HW2 5406   6.308   6.480   0.164
 1503SOL     OW 5407   3.101   2.941   6.995
 1503SOL    HW1 5408   3.033   2.868   6.993
 1503SOL    HW2 5409   3.109   2.977   0.065
 1504SOL     OW 5410   3.622   6.615   5.127
 1504SOL    HW1 5411   3.632   6.549   5.052
 1504SOL    HW2 5412   3.559   6.688   5.098
 1505SOL     OW 5413   5.744   6.508   5.679
 1505SOL    HW1 5414   5.664   6.448   5.679
 1505SOL    HW2 5415   5.783   6.511   5.771
 1506SOL     OW 5416   0.807   5.822   3.962
 1506SOL    HW1 5417   0.835   5.733   3.996
 1506SOL    HW2 5418   0.835   5.832   3.866
 1507SOL     OW 5419   1.542   1.241   5.723
 1507SOL    HW1 5420   1.564   1.303   5.798
 1507SOL    HW2 5421   1.501   1.157   5.758
 1508SOL     OW 5422   4.274   0.063   0.551
 1508SOL    HW1 5423   4.184   0.080   0.592
 1508SOL    HW2 5424   4.272   0.087   0.454
 1509SOL     OW 5425   4.447   2.807   6.599
 1509SOL    HW1 5426   4.429   2.798   6.697
 1509SOL    HW2 5427   4.497   2.727   6.567
 1510SOL     OW 5428   6.995   1.916   4.097
 1510SOL    HW1 5429   0.017   1.884   4.014
 1510SOL    HW2 5430   6.984   2.016   4.092
 1511SOL     OW 5431   2.833   1.856   0.399
 1511SOL    HW1 5432   2.825   1.955   0.401
 1511SOL    HW2 5433   2.912   1.828   0.454
 1512SOL     OW 5434   0.266   0.624   1.656
 1512SOL    HW1 5435   0.340   0.667   1.603
 1512SOL    HW2 5436   0.285   0.526   1.666
 1513SOL     OW 5437   3.185   6.948   4.129
 1513SOL    HW1 5438   3.238   7.012   4.074
 1513SOL    HW2 5439   3.114   6.906   4.072
 1514SOL     OW 5440   5.663   1.725   4.760
 1514SOL    HW1 5441   5.665   1.814   4.716
 1514SOL    HW2 5442   5.607   1.662   4.706
 1515SOL     OW 5443   0.283   4.378   5.174
 1515SOL    HW1 5444   0.350   4.432   5.122
 1515SOL    HW2 5445   0.291   4.400   5.271
 1516SOL     OW 5446   0.327   1.702   0.696
 1516SOL    HW1 5447   0.271   1.649   0.761
 1516SOL    HW2 5448   0.422   1.703   0.728
 1517SOL     OW 5449   4.541   6.098   3.609
 1517SOL    HW1 5450   4.573   6.005   3.590
 1517SOL    HW2 5451   4.457   6.094   3.662
 1518SOL     OW 5452   6.615   4.088   0.846
 1518SOL    HW1 5453   6.615   4.150   0.925
 1518SOL    HW2 5454   6.708   4.059   0.827
 1519SOL     OW 5455   6.181   4.466   1.029
 1519SOL    HW1 5456   6.089   4.428   1.020
 1519SOL    HW2 5457   6.177   4.549   1.085
 1520SOL     OW 5458   2.119   3.341   2.775
 1520SOL    HW1 5459   2.146   3.278   2.703
 1520SOL    HW2 5460   2.136   3.298   2.864
 1521SOL     OW 5461   1.521   3.067   6.879
 1521SOL    HW1 5462   1.507   3.151   6.931
 1521SOL    HW2 5463   1.618   3.042   6.881
 1522SOL     OW 5464   5.797   1.930   6.565
 1522SOL    HW1 5465   5.780   2.027   6.550
 1522SOL    HW2 5466   5.856   1.895   6.492
 1523SOL     OW 5467   6.133   2.493   1.127
 1523SOL    HW1 5468   6.212   2.496   1.189
 1523SOL    HW2 5469   6.160   2.454   1.039
 1524SOL     OW 5470   0.300   1.204   1.390
 1524SOL    HW1 5471   0.316   1.256   1.307
 1524SOL    HW2 5472   0.345   1.249   1.467
 1525SOL     OW 5473   3.871   1.872   5.989
 1525SOL    HW1 5474   3.788   1.896   5.938
 1525SOL    HW2 5475   3.941   1.839   5.925
 1526SOL     OW 5476   0.319   2.023   1.511
 1526SOL    HW1 5477   0.316   2.099   1.445
 1526SOL    HW2 5478   0.349   2.058   1.600
 1527SOL     OW 5479   3.241   2.079   5.304
 1527SOL    HW1 5480   3.279   2.171   5.313
 1527SOL    HW2 5481   3.236   2.055   5.207
 1528SOL     OW 5482   4.382   6.585   3.268
 1528SOL    HW1 5483   4.477   6.616   3.261
 1528SOL    HW2 5484   4.323   6.644   3.213
 1529SOL     OW 5485   3.841   0.465   6.371
 1529SOL    HW1 5486   3.929   0.418   6.376
 1529SOL    HW2 5487   3.853   0.561   6.397
 1530SOL     OW 5488   2.611   6.549   2.194
 1530SOL    HW1 5489   2.682   6.499   2.243
 1530SOL    HW2 5490   2.535   6.567   2.255
 1531SOL     OW 5491   6.910   6.885   3.801
 1531SOL    HW1 5492   6.976   6.946   3.757
 1531SOL    HW2 5493   6.858   6.936   3.870
 1532SOL     OW 5494   3.394   2.283   5.332
 1532SOL    HW1 5495   3.333   2.341   5.278
 1532SOL    HW2 5496   3.481   2.331   5.348
 1533SOL     OW 5497   6.306   3.571   6.982
 1533SOL    HW1 5498   6.265   3.653   6.943
 1533SOL    HW2 5499   6.273   3.490   6.933
 1534SOL     OW 5500   1.066   5.737   0.711
 1534SOL    HW1 5501   1.085   5.639   0.722
 1534SOL    HW2 5502   1.079   5.763   0.616
 1535SOL     OW 5503   5.177   4.794   4.184
 1535SOL    HW1 5504   5.268   4.774   4.220
 1535SOL    HW2 5505   5.118   4.715   4.200
 1536SOL     OW 5506   2.041   5.885   4.382
 1536SOL    HW1 5507   2.034   5.827   4.464
 1536SOL    HW2 5508   2.069   5.829   4.304
 1537SOL     OW 5509   2.185   5.572   4.932
 1537SOL    HW1 5510   2.236   5.527   5.006
 1537SOL    HW2 5511   2.227   5.661   4.913
 1538SOL     OW 5512   2.475   4.769   0.315
 1538SOL    HW1 5513   2.429   4.722   0.391
 1538SOL    HW2 5514   2.561   4.723   0.295
 1539SOL     OW 5515   3.352   4.546   1.650
 1539SOL    HW1 5516   3.327   4.454   1.681
 1539SOL    HW2 5517   3.415   4.587   1.716
 1540SOL     OW 5518   0.722   0.367   5.348
 1540SOL    HW1 5519   0.775   0.357   5.264
 1540SOL    HW2 5520   0.691   0.277   5.379
 1541SOL     OW 5521   4.525   2.695   0.925
 1541SOL    HW1 5522   4.440   2.720   0.972
 1541SOL    HW2 5523   4.601   2.697   0.991
 1542SOL     OW 5524   0.495   6.278   1.590
 1542SOL    HW1 5525   0.400   6.308   1.586
 1542SOL    HW2 5526   0.545   6.336   1.654
 1543SOL     OW 5527   3.404   3.739   3.668
 1543SOL    HW1 5528   3.338   3.769   3.599
 1543SOL    HW2 5529   3.456   3.662   3.632
 1544SOL     OW 5530   3.352   4.084   2.386
 1544SOL    HW1 5531   3.292   4.104   2.463
 1544SOL    HW2 5532   3.431   4.031   2.418
 1545SOL     OW 5533   6.457   0.679   4.842
 1545SOL    HW1 5534   6.395   0.754   4.818
 1545SOL    HW2 5535   6.405   0.605   4.884
 1546SOL     OW 5536   6.484   6.203   5.915
 1546SOL    HW1 5537   6.567   6.258   5.907
 1546SOL    HW2 5538   6.479   6.164   6.007
 1547SOL     OW 5539   2.994   4.955   2.956
 1547SOL    HW1 5540   2.926   5.016   2.997
 1547SOL    HW2 5541   2.965   4.929   2.865
 1548SOL     OW 5542   4.455   4.288   5.300
 1548SOL    HW1 5543   4.430   4.302   5.396
 1548SOL    HW2 5544   4.385   4.331   5.242
 1549SOL     OW 5545   6.277   2.679   1.401
 1549SOL    HW1 5546   6.308   2.588   1.374
 1549SOL    HW2 5547   6.298   2.744   1.329
 1550SOL     OW 5548   1.915   6.010   4.946
 1550SOL    HW1 5549   2.001   6.040   4.905
 1550SOL    HW2 5550   1.888   5.922   4.908
 1551SOL     OW 5551   1.613   3.435   0.907
 1551SOL    HW1 5552   1.644   3.400   0.996
 1551SOL    HW2 5553   1.683   3.496   0.869
 1552SOL     OW 5554   1.339   0.675   1.457
 1552SOL    HW1 5555   1.287   0.738   1.515
 1552SOL    HW2 5556   1.332   0.704   1.362
 1553SOL     OW 5557   5.739   2.227   6.859
 1553SOL    HW1 5558   5.687   2.163   6.916
 1553SOL    HW2 5559   5.837   2.208   6.870
 1554SOL     OW 5560   4.503   1.946   2.489
 1554SOL    HW1 5561   4.540   1.864   2.534
 1554SOL    HW2 5562   4.578   2.011   2.473
 1555SOL     OW 5563   4.535   1.528   4.831
 1555SOL    HW1 5564   4.525   1.433   4.862
 1555SOL    HW2 5565   4.458   1.552   4.772
 1556SOL     OW 5566   3.741   0.210   0.761
 1556SOL    HW1 5567   3.670   0.226   0.830
 1556SOL    HW2 5568   3.831   0.221   0.803
 1557SOL     OW 5569   1.857   1.839   1.145
 1557SOL    HW1 5570   1.939   1.879   1.105
 1557SOL    HW2 5571   1.846   1.745   1.111
 1558SOL     OW 5572   6.115   3.256   5.250
 1558SOL    HW1 5573   6.190   3.240   5.186
 1558SOL    HW2 5574   6.028   3.245   5.202
 1559SOL     OW 5575   1.192   4.186   2.543
 1559SOL    HW1 5576   1.216   4.216   2.635
 1559SOL    HW2 5577   1.103   4.222   2.517
 1560SOL     OW 5578   4.198   1.260   1.216
 1560SOL    HW1 5579   4.242   1.250   1.127
 1560SOL    HW2 5580   4.241   1.199   1.282
 1561SOL     OW 5581   5.399   6.400   2.172
 1561SOL    HW1 5582   5.482   6.429   2.218
 1561SOL    HW2 5583   5.326   6.388   2.239
 1562SOL     OW 5584   2.714   0.191   2.068
 1562SOL    HW1 5585   2.787   0.156   2.010
 1562SOL    HW2 5586   2.629   0.141   2.048
 1563SOL     OW 5587   3.252   2.104   4.608
 1563SOL    HW1 5588   3.344   2.072   4.585
 1563SOL    HW2 5589   3.204   2.131   4.524
 1564SOL     OW 5590   0.896   2.015   2.306
 1564SOL    HW1 5591   0.978   2.050   2.261
 1564SOL    HW2 5592   0.818   2.024   2.245
 1565SOL     OW 5593   3.658   6.747   4.093
 1565SOL    HW1 5594   3.709   6.750   4.007
 1565SOL    HW2 5595   3.665   6.835   4.140
 1566SOL     OW 5596   4.793   4.183   3.463
 1566SOL    HW1 5597   4.871   4.240   3.485
 1566SOL    HW2 5598   4.715   4.240   3.437
 1567SOL     OW 5599   5.416   5.660   5.638
 1567SOL    HW1 5600   5.396   5.738   5.579
 1567SOL    HW2 5601   5.433   5.579   5.581
 1568SOL     OW 5602   2.040   6.351   3.066
 1568SOL    HW1 5603   2.127   6.348   3.017
 1568SOL    HW2 5604   1.998   6.441   3.055
 1569SOL     OW 5605   2.582   0.013   2.708
 1569SOL    HW1 5606   2.487   7.015   2.686
 1569SOL    HW2 5607   2.592   0.023   2.807
 1570SOL     OW 5608   3.386   0.377   0.091
 1570SOL    HW1 5609   3.416   0.294   0.046
 1570SOL    HW2 5610   3.307   0.415   0.044
 1571SOL     OW 5611   1.328   2.513   3.781
 1571SOL    HW1 5612   1.301   2.508   3.877
 1571SOL    HW2 5613   1.353   2.421   3.749
 1572SOL     OW 5614   1.901   5.056   1.585
 1572SOL    HW1 5615   1.920   4.959   1.574
 1572SOL    HW2 5616   1.975   5.098   1.638
 1573SOL     OW 5617   4.575   4.995   1.330
 1573SOL    HW1 5618   4.508   5.042   1.388
 1573SOL    HW2 5619   4.556   4.897   1.330
 1574SOL     OW 5620   6.316   3.263   1.959
 1574SOL    HW1 5621   6.414   3.286   1.957
 1574SOL    HW2 5622   6.286   3.239   1.867
 1575SOL     OW 5623   0.953   1.246   0.906
 1575SOL    HW1 5624   0.891   1.255   0.828
 1575SOL    HW2 5625   1.020   1.320   0.904
 1576SOL     OW 5626   0.457   6.023   1.912
 1576SOL    HW1 5627   0.361   6.040   1.890
 1576SOL    HW2 5628   0.502   5.978   1.835
 1577SOL     OW 5629   3.893   0.049   6.320
 1577SOL    HW1 5630   3.931   7.010   6.251
 1577SOL    HW2 5631   3.813   0.096   6.282
 1578SOL     OW 5632   4.543   1.195   0.454
 1578SOL    HW1 5633   4.584   1.199   0.363
 1578SOL    HW2 5634   4.595   1.133   0.512
 1579SOL     OW 5635   1.823   2.239   1.523
 1579SOL    HW1 5636   1.754   2.279   1.584
 1579SOL    HW2 5637   1.843   2.145   1.552
 1580SOL     OW 5638   3.204   4.092   2.612
 1580SOL    HW1 5639   3.250   4.069   2.698
 1580SOL    HW2 5640   3.182   4.190   2.612
 1581SOL     OW 5641   0.383   4.427   6.164
 1581SOL    HW1 5642   0.426   4.516   6.155
 1581SOL    HW2 5643   0.446   4.364   6.209
 1582SOL     OW 5644   4.865   6.599   5.842
 1582SOL    HW1 5645   4.789   6.645   5.797
 1582SOL    HW2 5646   4.889   6.517   5.791
 1583SOL     OW 5647   1.052   5.968   4.908
 1583SOL    HW1 5648   1.030   5.887   4.962
 1583SOL    HW2 5649   0.980   6.037   4.921
 1584SOL     OW 5650   0.651   5.310   6.618
 1584SOL    HW1 5651   0.702   5.255   6.552
 1584SOL    HW2 5652   0.614   5.390   6.573
 1585SOL     OW 5653   3.944   0.368   2.803
 1585SOL    HW1 5654   3.893   0.295   2.848
 1585SOL    HW2 5655   4.018   0.329   2.748
 1586SOL     OW 5656   2.820   5.693   4.517
 1586SOL    HW1 5657   2.865   5.611   4.481
 1586SOL    HW2 5658   2.763   5.668   4.595
 1587SOL     OW 5659   1.726   6.129   6.235
 1587SOL    HW1 5660   1.663   6.059   6.268
 1587SOL    HW2 5661   1.815   6.117   6.279
 1588SOL     OW 5662   6.021   0.257   1.988
 1588SOL    HW1 5663   6.023   0.214   2.079
 1588SOL    HW2 5664   5.928   0.286   1.968
 1589SOL     OW 5665   6.886   4.281   2.650
 1589SOL    HW1 5666   6.909   4.328   2.565
 1589SOL    HW2 5667   6.816   4.333   2.699
 1590SOL     OW 5668   6.154   2.199   3.535
 1590SOL    HW1 5669   6.153   2.288   3.580
 1590SOL    HW2 5670   6.247   2.175   3.509
 1591SOL     OW 5671   0.253   5.741   1.214
 1591SOL    HW1 5672   0.321   5.693   1.270
 1591SOL    HW2 5673   0.300   5.809   1.156
 1592SOL     OW 5674   1.332   4.104   6.855
 1592SOL    HW1 5675   1.393   4.048   6.911
 1592SOL    HW2 5676   1.306   4.186   6.906
 1593SOL     OW 5677   0.813   0.152   6.573
 1593SOL    HW1 5678   0.863   0.103   6.645
 1593SOL    HW2 5679   0.749   0.089   6.529
 1594SOL     OW 5680   0.034   0.896   1.979
 1594SOL    HW1 5681   0.064   0.809   1.940
 1594SOL    HW2 5682   0.001   0.956   1.906
 1595SOL     OW 5683   1.223   4.248   6.652
 1595SOL    HW1 5684   1.238   4.173   6.716
 1595SOL    HW2 5685   1.308   4.299   6.640
 1596SOL     OW 5686   5.801   4.425   2.292
 1596SOL    HW1 5687   5.821   4.428   2.194
 1596SOL    HW2 5688   5.866   4.365   2.337
 1597SOL     OW 5689   3.287   5.886   1.000
 1597SOL    HW1 5690   3.352   5.950   1.040
 1597SOL    HW2 5691   3.335   5.804   0.968
 1598SOL     OW 5692   1.792   5.911   0.152
 1598SOL    HW1 5693   1.875   5.856   0.158
 1598SOL    HW2 5694   1.762   5.917   0.056
 1599SOL     OW 5695   3.757   5.386   4.260
 1599SOL    HW1 5696   3.818   5.330   4.317
 1599SOL    HW2 5697   3.673   5.406   4.311
 1600SOL     OW 5698   2.891   0.621   2.857
 1600SOL    HW1 5699   2.959   0.668   2.800
 1600SOL    HW2 5700   2.838   0.559   2.799
 1601SOL     OW 5701   6.529   6.608   4.316
 1601SOL    HW1 5702   6.549   6.701   4.346
 1601SOL    HW2 5703   6.562   6.596   4.222
 1602SOL     OW 5704   4.597   5.385   4.027
 1602SOL    HW1 5705   4.677   5.422   4.074
 1602SOL    HW2 5706   4.605   5.285   4.022
 1603SOL     OW 5707   3.110   6.112   4.369
 1603SOL    HW1 5708   3.128   6.047   4.295
 1603SOL    HW2 5709   3.012   6.114   4.388
 1604SOL     OW 5710   4.020   5.010   1.904
 1604SOL    HW1 5711   3.943   4.964   1.862
 1604SOL    HW2 5712   4.011   5.008   2.004
 1605SOL     OW 5713   4.986   5.232   2.139
 1605SOL    HW1 5714   4.993   5.331   2.136
 1605SOL    HW2 5715   5.057   5.192   2.080
 1606SOL     OW 5716   4.267   6.142   3.807
 1606SOL    HW1 5717   4.181   6.091   3.804
 1606SOL    HW2 5718   4.259   6.216   3.874
 1607SOL     OW 5719   4.494   6.993   2.961
 1607SOL    HW1 5720   4.502   6.969   3.058
 1607SOL    HW2 5721   4.404   6.966   2.928
 1608SOL     OW 5722   6.636   0.932   2.878
 1608SOL    HW1 5723   6.679   0.992   2.810
 1608SOL    HW2 5724   6.688   0.936   2.963
 1609SOL     OW 5725   3.275   6.294   0.785
 1609SOL    HW1 5726   3.248   6.390   0.789
 1609SOL    HW2 5727   3.196   6.238   0.760
 1610SOL     OW 5728   3.674   6.356   6.758
 1610SOL    HW1 5729   3.598   6.391   6.703
 1610SOL    HW2 5730   3.662   6.257   6.771
 1611SOL     OW 5731   1.055   4.046   1.490
 1611SOL    HW1 5732   0.997   4.008   1.418
 1611SOL    HW2 5733   1.099   4.130   1.457
 1612SOL     OW 5734   3.052   5.711   0.983
 1612SOL    HW1 5735   3.043   5.657   0.899
 1612SOL    HW2 5736   3.128   5.775   0.973
 1613SOL     OW 5737   0.753   5.621   2.438
 1613SOL    HW1 5738   0.690   5.631   2.361
 1613SOL    HW2 5739   0.745   5.701   2.498
 1614SOL     OW 5740   5.459   2.891   6.751
 1614SOL    HW1 5741   5.435   2.909   6.656
 1614SOL    HW2 5742   5.460   2.977   6.802
 1615SOL     OW 5743   0.419   5.497   6.523
 1615SOL    HW1 5744   0.366   5.569   6.569
 1615SOL    HW2 5745   0.399   5.500   6.425
 1616SOL     OW 5746   3.327   0.544   5.530
 1616SOL    HW1 5747   3.286   0.634   5.517
 1616SOL    HW2 5748   3.362   0.510   5.443
 1617SOL     OW 5749   4.742   6.730   3.618
 1617SOL    HW1 5750   4.705   6.658   3.678
 1617SOL    HW2 5751   4.757   6.813   3.672
 1618SOL     OW 5752   2.016   6.034   2.808
 1618SOL    HW1 5753   1.968   6.122   2.810
 1618SOL    HW2 5754   1.978   5.974   2.879
 1619SOL     OW 5755   1.119   5.051   6.779
 1619SOL    HW1 5756   1.109   5.006   6.690
 1619SOL    HW2 5757   1.118   4.982   6.852
 1620SOL     OW 5758   3.343   5.139   0.789
 1620SOL    HW1 5759   3.443   5.135   0.790
 1620SOL    HW2 5760   3.307   5.123   0.881
 1621SOL     OW 5761   5.711   6.405   1.147
 1621SOL    HW1 5762   5.730   6.440   1.055
 1621SOL    HW2 5763   5.639   6.336   1.142
 1622SOL     OW 5764   1.175   3.813   5.583
 1622SOL    HW1 5765   1.116   3.889   5.611
 1622SOL    HW2 5766   1.152   3.786   5.489
 1623SOL     OW 5767   0.634   2.308   5.280
 1623SOL    HW1 5768   0.694   2.383   5.308
 1623SOL    HW2 5769   0.643   2.293   5.182
 1624SOL     OW 5770   3.682   1.222   0.554
 1624SOL    HW1 5771   3.710   1.302   0.606
 1624SOL    HW2 5772   3.709   1.139   0.603
 1625SOL     OW 5773   2.213   4.865   0.631
 1625SOL    HW1 5774   2.178   4.898   0.719
 1625SOL    HW2 5775   2.268   4.783   0.646
 1626SOL     OW 5776   3.206   1.909   1.721
 1626SOL    HW1 5777   3.160   1.831   1.678
 1626SOL    HW2 5778   3.240   1.971   1.651
 1627SOL     OW 5779   5.169   2.232   4.412
 1627SOL    HW1 5780   5.070   2.240   4.427
 1627SOL    HW2 5781   5.206   2.322   4.389
 1628SOL     OW 5782   4.779   5.722   6.614
 1628SOL    HW1 5783   4.767   5.657   6.689
 1628SOL    HW2 5784   4.876   5.744   6.604
 1629SOL     OW 5785   3.010   2.197   2.993
 1629SOL    HW1 5786   3.094   2.175   3.042
 1629SOL    HW2 5787   2.931   2.168   3.047
 1630SOL     OW 5788   0.026   4.652   0.268
 1630SOL    HW1 5789   7.007   4.562   0.261
 1630SOL    HW2 5790   0.083   4.670   0.188
 1631SOL     OW 5791   6.822   3.490   1.144
 1631SOL    HW1 5792   6.734   3.458   1.180
 1631SOL    HW2 5793   6.809   3.531   1.054
 1632SOL     OW 5794   5.564   4.994   2.638
 1632SOL    HW1 5795   5.586   4.944   2.554
 1632SOL    HW2 5796   5.465   4.998   2.649
 1633SOL     OW 5797   4.828   4.035   4.008
 1633SOL    HW1 5798   4.842   4.017   4.105
 1633SOL    HW2 5799   4.820   3.949   3.958
 1634SOL     OW 5800   4.295   0.392   4.574
 1634SOL    HW1 5801   4.275   0.358   4.666
 1634SOL    HW2 5802   4.222   0.455   4.546
 1635SOL     OW 5803   3.722   4.538   5.664
 1635SOL    HW1 5804   3.694   4.496   5.750
 1635SOL    HW2 5805   3.686   4.485   5.587
 1636SOL     OW 5806   4.329   5.868   1.329
 1636SOL    HW1 5807   4.334   5.887   1.427
 1636SOL    HW2 5808   4.421   5.867   1.291
 1637SOL     OW 5809   0.232   6.501   2.786
 1637SOL    HW1 5810   0.192   6.531   2.872
 1637SOL    HW2 5811   0.312   6.557   2.764
 1638SOL     OW 5812   6.578   3.259   1.969
 1638SOL    HW1 5813   6.616   3.167   1.958
 1638SOL    HW2 5814   6.597   3.313   1.887
 1639SOL     OW 5815   6.215   4.088   2.158
 1639SOL    HW1 5816   6.198   4.074   2.061
 1639SOL    HW2 5817   6.179   4.010   2.210
 1640SOL     OW 5818   5.634   0.568   1.136
 1640SOL    HW1 5819   5.697   0.567   1.213
 1640SOL    HW2 5820   5.646   0.484   1.082
 1641SOL     OW 5821   6.916   2.627   3.631
 1641SOL    HW1 5822   6.841   2.569   3.599
 1641SOL    HW2 5823   6.953   2.590   3.716
 1642SOL     OW 5824   5.748   2.628   5.918
 1642SOL    HW1 5825   5.705   2.654   5.832
 1642SOL    HW2 5826   5.758   2.709   5.976
 1643SOL     OW 5827   3.330   4.897   4.394
 1643SOL    HW1 5828   3.349   4.818   4.451
 1643SOL    HW2 5829   3.234   4.897   4.368
 1644SOL     OW 5830   6.020   3.098   0.684
 1644SOL    HW1 5831   5.941   3.057   0.728
 1644SOL    HW2 5832   6.060   3.032   0.620
 1645SOL     OW 5833   3.149   0.647   6.286
 1645SOL    HW1 5834   3.127   0.597   6.202
 1645SOL    HW2 5835   3.198   0.731   6.263
 1646SOL     OW 5836   1.255   5.823   0.034
 1646SOL    HW1 5837   1.213   5.840   6.967
 1646SOL    HW2 5838   1.303   5.735   0.032
 1647SOL     OW 5839   6.322   3.003   3.925
 1647SOL    HW1 5840   6.308   2.907   3.903
 1647SOL    HW2 5841   6.237   3.042   3.962
 1648SOL     OW 5842   5.151   6.287   0.625
 1648SOL    HW1 5843   5.218   6.213   0.627
 1648SOL    HW2 5844   5.195   6.373   0.652
 1649SOL     OW 5845   3.144   0.147   3.287
 1649SOL    HW1 5846   3.049   0.122   3.269
 1649SOL    HW2 5847   3.188   0.075   3.341
 1650SOL     OW 5848   2.070   5.048   6.263
 1650SOL    HW1 5849   2.010   4.999   6.200
 1650SOL    HW2 5850   2.135   4.984   6.304
 1651SOL     OW 5851   0.338   2.601   3.705
 1651SOL    HW1 5852   0.399   2.681   3.707
 1651SOL    HW2 5853   0.324   2.572   3.611
 1652SOL     OW 5854   1.402   2.715   1.636
 1652SOL    HW1 5855   1.328   2.777   1.613
 1652SOL    HW2 5856   1.371   2.620   1.622
 1653SOL     OW 5857   0.346   5.346   2.140
 1653SOL    HW1 5858   0.342   5.388   2.049
 1653SOL    HW2 5859   0.314   5.412   2.208
 1654SOL     OW 5860   0.474   2.829   1.597
 1654SOL    HW1 5861   0.521   2.909   1.634
 1654SOL    HW2 5862   0.542   2.761   1.568
 1655SOL     OW 5863   6.848   1.334   4.622
 1655SOL    HW1 5864   6.939   1.346   4.582
 1655SOL    HW2 5865   6.780   1.326   4.548
 1656SOL     OW 5866   2.270   5.550   4.521
 1656SOL    HW1 5867   2.195   5.493   4.553
 1656SOL    HW2 5868   2.341   5.493   4.479
 1657SOL     OW 5869   0.083   0.865   5.247
 1657SOL    HW1 5870   0.107   0.947   5.300
 1657SOL    HW2 5871   0.160   0.801   5.249
 1658SOL     OW 5872   6.881   6.822   0.351
 1658SOL    HW1 5873   6.841   6.869   0.273
 1658SOL    HW2 5874   6.940   6.747   0.318
 1659SOL     OW 5875   4.310   0.068   6.693
 1659SOL    HW1 5876   4.390   0.122   6.666
 1659SOL    HW2 5877   4.242   0.070   6.619
 1660SOL     OW 5878   1.590   6.560   1.808
 1660SOL    HW1 5879   1.554   6.487   1.749
 1660SOL    HW2 5880   1.533   6.642   1.798
 1661SOL     OW 5881   2.754   4.740   2.312
 1661SOL    HW1 5882   2.706   4.823   2.283
 1661SOL    HW2 5883   2.776   4.685   2.231
 1662SOL     OW 5884   6.862   1.782   5.558
 1662SOL    HW1 5885   6.932   1.719   5.593
 1662SOL    HW2 5886   6.808   1.817   5.635
 1663SOL     OW 5887   4.732   5.212   2.025
 1663SOL    HW1 5888   4.814   5.202   2.081
 1663SOL    HW2 5889   4.745   5.165   1.938
 1664SOL     OW 5890   0.532   6.930   5.196
 1664SOL    HW1 5891   0.588   6.951   5.115
 1664SOL    HW2 5892   0.516   7.014   5.248
 1665SOL     OW 5893   1.833   3.797   0.991
 1665SOL    HW1 5894   1.864   3.711   0.949
 1665SOL    HW2 5895   1.911   3.844   1.032
 1666SOL     OW 5896   5.576   7.005   6.655
 1666SOL    HW1 5897   5.609   6.912   6.640
 1666SOL    HW2 5898   5.635   0.028   6.722
 1667SOL     OW 5899   0.465   6.445   0.789
 1667SOL    HW1 5900   0.413   6.525   0.759
 1667SOL    HW2 5901   0.541   6.429   0.727
 1668SOL     OW 5902   5.178   5.128   4.110
 1668SOL    HW1 5903   5.099   5.067   4.107
 1668SOL    HW2 5904   5.238   5.108   4.032
 1669SOL     OW 5905   0.105   4.021   5.884
 1669SOL    HW1 5906   0.156   4.048   5.802
 1669SOL    HW2 5907   0.137   4.075   5.962
 1670SOL     OW 5908   1.784   4.817   5.632
 1670SOL    HW1 5909   1.695   4.774   5.615
 1670SOL    HW2 5910   1.772   4.892   5.698
 1671SOL     OW 5911   4.981   1.711   2.904
 1671SOL    HW1 5912   4.916   1.770   2.951
 1671SOL    HW2 5913   4.985   1.622   2.948
 1672SOL     OW 5914   0.964   3.165   0.299
 1672SOL    HW1 5915   1.005   3.086   0.254
 1672SOL    HW2 5916   0.865   3.166   0.282
 1673SOL     OW 5917   2.234   1.984   4.336
 1673SOL    HW1 5918   2.250   1.995   4.434
 1673SOL    HW2 5919   2.283   2.055   4.286
 1674SOL     OW 5920   5.413   2.650   2.363
 1674SOL    HW1 5921   5.390   2.727   2.423
 1674SOL    HW2 5922   5.383   2.565   2.406
 1675SOL     OW 5923   5.259   0.776   1.152
 1675SOL    HW1 5924   5.177   0.830   1.170
 1675SOL    HW2 5925   5.250   0.729   1.064
 1676SOL     OW 5926   2.120   2.274   2.966
 1676SOL    HW1 5927   2.126   2.314   2.875
 1676SOL    HW2 5928   2.029   2.236   2.980
 1677SOL     OW 5929   3.848   3.867   3.083
 1677SOL    HW1 5930   3.784   3.937   3.053
 1677SOL    HW2 5931   3.807   3.777   3.070
 1678SOL     OW 5932   0.647   6.360   0.618
 1678SOL    HW1 5933   0.737   6.350   0.660
 1678SOL    HW2 5934   0.654   6.343   0.520
 1679SOL     OW 5935   1.587   1.324   5.379
 1679SOL    HW1 5936   1.509   1.373   5.341
 1679SOL    HW2 5937   1.561   1.281   5.466
 1680SOL     OW 5938   5.521   3.026   4.623
 1680SOL    HW1 5939   5.486   3.119   4.611
 1680SOL    HW2 5940   5.620   3.027   4.614
 1681SOL     OW 5941   1.705   5.802   4.203
 1681SOL    HW1 5942   1.671   5.756   4.285
 1681SOL    HW2 5943   1.683   5.899   4.207
 1682SOL     OW 5944   3.043   0.224   5.796
 1682SOL    HW1 5945   3.120   0.162   5.810
 1682SOL    HW2 5946   2.963   0.190   5.846
 1683SOL     OW 5947   5.713   5.157   2.810
 1683SOL    HW1 5948   5.754   5.085   2.866
 1683SOL    HW2 5949   5.653   5.115   2.742
 1684SOL     OW 5950   1.497   4.487   1.981
 1684SOL    HW1 5951   1.531   4.395   1.958
 1684SOL    HW2 5952   1.415   4.478   2.038
 1685SOL     OW 5953   1.583   1.372   5.972
 1685SOL    HW1 5954   1.672   1.414   5.953
 1685SOL    HW2 5955   1.520   1.442   6.005
 1686SOL     OW 5956   4.911   6.156   3.377
 1686SOL    HW1 5957   4.954   6.245   3.389
 1686SOL    HW2 5958   4.941   6.094   3.449
 1687SOL     OW 5959   0.068   3.824   1.927
 1687SOL    HW1 5960   0.136   3.862   1.990
 1687SOL    HW2 5961   0.056   3.727   1.947
 1688SOL     OW 5962   2.017   2.198   3.330
 1688SOL    HW1 5963   1.993   2.126   3.264
 1688SOL    HW2 5964   1.945   2.267   3.332
 1689SOL     OW 5965   6.858   1.167   1.615
 1689SOL    HW1 5966   6.895   1.090   1.668
 1689SOL    HW2 5967   6.761   1.179   1.636
 1690SOL     OW 5968   0.797   3.782   4.010
 1690SOL    HW1 5969   0.872   3.826   3.959
 1690SOL    HW2 5970   0.726   3.752   3.946
 1691SOL     OW 5971   4.911   3.278   4.335
 1691SOL    HW1 5972   4.870   3.187   4.331
 1691SOL    HW2 5973   4.944   3.304   4.243
 1692SOL     OW 5974   5.798   5.587   1.569
 1692SOL    HW1 5975   5.868   5.528   1.531
 1692SOL    HW2 5976   5.712   5.573   1.520
 1693SOL     OW 5977   6.949   1.464   4.844
 1693SOL    HW1 5978   6.900   1.412   4.774
 1693SOL    HW2 5979   6.883   1.505   4.907
 1694SOL     OW 5980   5.903   1.256   4.696
 1694SOL    HW1 5981   5.912   1.221   4.789
 1694SOL    HW2 5982   5.963   1.205   4.635
 1695SOL     OW 5983   3.485   0.685   6.666
 1695SOL    HW1 5984   3.552   0.642   6.726
 1695SOL    HW2 5985   3.428   0.615   6.624
 1696SOL     OW 5986   4.302   5.710   0.542
 1696SOL    HW1 5987   4.232   5.653   0.498
 1696SOL    HW2 5988   4.260   5.793   0.577
 1697SOL     OW 5989   6.101   2.376   0.879
 1697SOL    HW1 5990   6.137   2.392   0.787
 1697SOL    HW2 5991   6.001   2.367   0.874
 1698SOL     OW 5992   3.737   0.858   1.811
 1698SOL    HW1 5993   3.703   0.816   1.895
 1698SOL    HW2 5994   3.668   0.849   1.739
 1699SOL     OW 5995   2.798   1.507   6.260
 1699SOL    HW1 5996   2.838   1.567   6.330
 1699SOL    HW2 5997   2.861   1.499   6.183
 1700SOL     OW 5998   5.830   3.153   3.511
 1700SOL    HW1 5999   5.928   3.137   3.513
 1700SOL    HW2 6000   5.800   3.163   3.416
 1701SOL     OW 6001   6.485   4.926   4.725
 1701SOL    HW1 6002   6.385   4.923   4.727
 1701SOL    HW2 6003   6.518   4.876   4.645
 1702SOL     OW 6004   1.801   1.089   6.558
 1702SOL    HW1 6005   1.898   1.087   6.534
 1702SOL    HW2 6006   1.746   1.076   6.476
 1703SOL     OW 6007   3.247   1.554   6.122
 1703SOL    HW1 6008   3.320   1.595   6.067
 1703SOL    HW2 6009   3.182   1.625   6.148
 1704SOL     OW 6010   1.963   1.412   0.237
 1704SOL    HW1 6011   1.928   1.497   0.278
 1704SOL    HW2 6012   1.912   1.334   0.274
 1705SOL     OW 6013   3.880   1.494   1.841
 1705SOL    HW1 6014   3.827   1.577   1.857
 1705SOL    HW2 6015   3.877   1.471   1.744
 1706SOL     OW 6016   4.231   1.857   0.601
 1706SOL    HW1 6017   4.275   1.771   0.628
 1706SOL    HW2 6018   4.133   1.850   0.615
 1707SOL     OW 6019   4.791   1.855   3.003
 1707SOL    HW1 6020   4.715   1.789   3.009
 1707SOL    HW2 6021   4.757   1.942   2.969
 1708SOL     OW 6022   3.246   5.326   1.984
 1708SOL    HW1 6023   3.194   5.270   2.049
 1708SOL    HW2 6024   3.215   5.421   1.991
 1709SOL     OW 6025   4.933   5.978   0.770
 1709SOL    HW1 6026   5.033   5.971   0.762
 1709SOL    HW2 6027   4.893   5.995   0.681
 1710SOL     OW 6028   4.631   5.323   3.513
 1710SOL    HW1 6029   4.594   5.230   3.517
 1710SOL    HW2 6030   4.564   5.387   3.549
 1711SOL     OW 6031   3.408   5.988   5.790
 1711SOL    HW1 6032   3.371   5.900   5.761
 1711SOL    HW2 6033   3.415   6.048   5.711
 1712SOL     OW 6034   0.262   2.241   4.426
 1712SOL    HW1 6035   0.287   2.278   4.516
 1712SOL    HW2 6036   0.176   2.191   4.433
 1713SOL     OW 6037   3.784   0.836   3.063
 1713SOL    HW1 6038   3.822   0.789   3.143
 1713SOL    HW2 6039   3.855   0.892   3.021
 1714SOL     OW 6040   3.755   2.346   6.718
 1714SOL    HW1 6041   3.840   2.299   6.693
 1714SOL    HW2 6042   3.678   2.300   6.675
 1715SOL     OW 6043   1.353   6.068   1.999
 1715SOL    HW1 6044   1.447   6.044   1.976
 1715SOL    HW2 6045   1.291   5.999   1.960
 1716SOL     OW 6046   4.848   0.324   4.350
 1716SOL    HW1 6047   4.772   0.264   4.378
 1716SOL    HW2 6048   4.925   0.310   4.412
 1717SOL     OW 6049   3.786   6.405   5.292
 1717SOL    HW1 6050   3.797   6.375   5.387
 1717SOL    HW2 6051   3.758   6.501   5.290
 1718SOL     OW 6052   2.484   2.052   2.463
 1718SOL    HW1 6053   2.393   2.092   2.473
 1718SOL    HW2 6054   2.517   2.069   2.370
 1719SOL     OW 6055   1.250   4.558   1.141
 1719SOL    HW1 6056   1.322   4.495   1.170
 1719SOL    HW2 6057   1.163   4.532   1.183
 1720SOL     OW 6058   6.922   2.814   5.882
 1720SOL    HW1 6059   6.827   2.836   5.904
 1720SOL    HW2 6060   6.958   2.751   5.950
 1721SOL     OW 6061   1.264   0.431   2.323
 1721SOL    HW1 6062   1.278   0.477   2.410
 1721SOL    HW2 6063   1.209   0.349   2.336
 1722SOL     OW 6064   3.518   2.110   2.707
 1722SOL    HW1 6065   3.594   2.134   2.646
 1722SOL    HW2 6066   3.532   2.019   2.744
 1723SOL     OW 6067   4.620   2.124   6.895
 1723SOL    HW1 6068   4.565   2.064   6.952
 1723SOL    HW2 6069   4.571   2.142   6.809
 1724SOL     OW 6070   6.313   2.412   1.367
 1724SOL    HW1 6071   6.343   2.330   1.318
 1724SOL    HW2 6072   6.360   2.418   1.455
 1725SOL     OW 6073   1.817   4.557   6.734
 1725SOL    HW1 6074   1.858   4.606   6.811
 1725SOL    HW2 6075   1.854   4.592   6.648
 1726SOL     OW 6076   5.405   4.512   3.653
 1726SOL    HW1 6077   5.393   4.538   3.748
 1726SOL    HW2 6078   5.500   4.528   3.625
 1727SOL     OW 6079   3.386   3.532   3.325
 1727SOL    HW1 6080   3.365   3.600   3.255
 1727SOL    HW2 6081   3.317   3.459   3.322
 1728SOL     OW 6082   4.867   4.105   5.282
 1728SOL    HW1 6083   4.876   4.082   5.186
 1728SOL    HW2 6084   4.921   4.042   5.337
 1729SOL     OW 6085   1.794   3.763   1.781
 1729SOL    HW1 6086   1.791   3.710   1.866
 1729SOL    HW2 6087   1.885   3.754   1.740
 1730SOL     OW 6088   2.375   5.652   5.715
 1730SOL    HW1 6089   2.401   5.566   5.759
 1730SOL    HW2 6090   2.347   5.718   5.785
 1731SOL     OW 6091   4.962   4.923   4.327
 1731SOL    HW1 6092   5.053   4.900   4.294
 1731SOL    HW2 6093   4.905   4.953   4.250
 1732SOL     OW 6094   1.892   3.875   6.453
 1732SOL    HW1 6095   1.928   3.849   6.363
 1732SOL    HW2 6096   1.922   3.808   6.521
 1733SOL     OW 6097   2.645   4.104   0.334
 1733SOL    HW1 6098   2.567   4.045   0.317
 1733SOL    HW2 6099   2.688   4.079   0.421
 1734SOL     OW 6100   6.645   2.937   1.478
 1734SOL    HW1 6101   6.737   2.974   1.463
 1734SOL    HW2 6102   6.578   3.008   1.459
 1735SOL     OW 6103   4.727   5.350   6.608
 1735SOL    HW1 6104   4.635   5.367   6.574
 1735SOL    HW2 6105   4.748   5.413   6.683
 1736SOL     OW 6106   4.708   3.387   1.742
 1736SOL    HW1 6107   4.671   3.431   1.661
 1736SOL    HW2 6108   4.753   3.301   1.716
 1737SOL     OW 6109   4.934   1.007   4.520
 1737SOL    HW1 6110   5.013   0.973   4.571
 1737SOL    HW2 6111   4.958   1.018   4.424
 1738SOL     OW 6112   1.917   4.070   4.062
 1738SOL    HW1 6113   1.882   4.111   4.147
 1738SOL    HW2 6114   1.915   3.971   4.070
 1739SOL     OW 6115   5.506   0.364   3.953
 1739SOL    HW1 6116   5.508   0.274   3.998
 1739SOL    HW2 6117   5.412   0.388   3.931
 1740SOL     OW 6118   6.974   2.082   4.661
 1740SOL    HW1 6119   0.040   2.067   4.706
 1740SOL    HW2 6120   6.926   2.156   4.707
 1741SOL     OW 6121   1.567   1.742   4.639
 1741SOL    HW1 6122   1.660   1.779   4.644
 1741SOL    HW2 6123   1.501   1.813   4.663
 1742SOL     OW 6124   6.136   6.648   5.962
 1742SOL    HW1 6125   6.196   6.593   6.020
 1742SOL    HW2 6126   6.187   6.726   5.926
 1743SOL     OW 6127   1.143   1.327   3.525
 1743SOL    HW1 6128   1.124   1.402   3.588
 1743SOL    HW2 6129   1.165   1.245   3.578
 1744SOL     OW 6130   5.101   2.275   3.684
 1744SOL    HW1 6131   5.058   2.195   3.643
 1744SOL    HW2 6132   5.174   2.247   3.746
 1745SOL     OW 6133   6.098   6.267   1.029
 1745SOL    HW1 6134   6.110   6.337   0.958
 1745SOL    HW2 6135   6.184   6.217   1.041
 1746SOL     OW 6136   1.847   3.818   3.503
 1746SOL    HW1 6137   1.808   3.726   3.494
 1746SOL    HW2 6138   1.944   3.815   3.480
 1747SOL     OW 6139   3.610   1.444   2.064
 1747SOL    HW1 6140   3.602   1.380   1.987
 1747SOL    HW2 6141   3.519   1.481   2.085
 1748SOL     OW 6142   6.605   1.640   4.578
 1748SOL    HW1 6143   6.540   1.716   4.586
 1748SOL    HW2 6144   6.596   1.580   4.658
 1749SOL     OW 6145   2.820   5.540   0.995
 1749SOL    HW1 6146   2.797   5.532   1.092
 1749SOL    HW2 6147   2.897   5.603   0.983
 1750SOL     OW 6148   4.318   0.964   5.211
 1750SOL    HW1 6149   4.386   0.898   5.178
 1750SOL    HW2 6150   4.361   1.054   5.222
 1751SOL     OW 6151   6.327   2.948   5.046
 1751SOL    HW1 6152   6.371   3.017   5.103
 1751SOL    HW2 6153   6.380   2.863   5.047
 1752SOL     OW 6154   6.274   1.490   1.051
 1752SOL    HW1 6155   6.281   1.391   1.041
 1752SOL    HW2 6156   6.178   1.515   1.067
 1753SOL     OW 6157   6.757   1.636   1.628
 1753SOL    HW1 6158   6.789   1.708   1.690
 1753SOL    HW2 6159   6.754   1.671   1.535
 1754SOL     OW 6160   2.993   6.259   5.829
 1754SOL    HW1 6161   2.961   6.329   5.765
 1754SOL    HW2 6162   3.000   6.171   5.781
 1755SOL     OW 6163   6.133   0.212   5.193
 1755SOL    HW1 6164   6.173   0.147   5.129
 1755SOL    HW2 6165   6.076   0.163   5.259
 1756SOL     OW 6166   5.642   0.389   6.202
 1756SOL    HW1 6167   5.730   0.344   6.185
 1756SOL    HW2 6168   5.598   0.346   6.281
 1757SOL     OW 6169   2.483   5.403   4.489
 1757SOL    HW1 6170   2.507   5.448   4.575
 1757SOL    HW2 6171   2.496   5.305   4.498
 1758SOL     OW 6172   1.924   0.078   5.256
 1758SOL    HW1 6173   1.903   0.160   5.309
 1758SOL    HW2 6174   1.946   0.104   5.162
 1759SOL     OW 6175   1.240   6.147   6.898
 1759SOL    HW1 6176   1.240   6.131   6.997
 1759SOL    HW2 6177   1.153   6.191   6.872
 1760SOL     OW 6178   6.067   0.545   4.821
 1760SOL    HW1 6179   5.977   0.586   4.833
 1760SOL    HW2 6180   6.126   0.609   4.771
 1761SOL     OW 6181   6.998   2.108   1.224
 1761SOL    HW1 6182   7.017   2.179   1.156
 1761SOL    HW2 6183   6.972   2.024   1.177
 1762SOL     OW 6184   0.767   1.501   5.459
 1762SOL    HW1 6185   0.754   1.463   5.551
 1762SOL    HW2 6186   0.864   1.496   5.435
 1763SOL     OW 6187   1.119   3.577   4.681
 1763SOL    HW1 6188   1.188   3.620   4.622
 1763SOL    HW2 6189   1.161   3.506   4.736
 1764SOL     OW 6190   1.749   4.349   1.755
 1764SOL    HW1 6191   1.781   4.341   1.850
 1764SOL    HW2 6192   1.756   4.260   1.711
 1765SOL     OW 6193   5.265   3.076   1.991
 1765SOL    HW1 6194   5.212   3.106   1.913
 1765SOL    HW2 6195   5.235   2.985   2.019
 1766SOL     OW 6196   4.240   4.785   3.967
 1766SOL    HW1 6197   4.188   4.756   4.048
 1766SOL    HW2 6198   4.221   4.881   3.948
 1767SOL     OW 6199   6.977   5.521   2.388
 1767SOL    HW1 6200   0.000   5.559   2.308
 1767SOL    HW2 6201   0.022   5.481   2.450
 1768SOL     OW 6202   4.643   6.465   2.208
 1768SOL    HW1 6203   4.622   6.563   2.201
 1768SOL    HW2 6204   4.560   6.416   2.237
 1769SOL     OW 6205   5.988   0.209   6.765
 1769SOL    HW1 6206   6.068   0.153   6.745
 1769SOL    HW2 6207   5.977   0.280   6.695
 1770SOL     OW 6208   1.787   4.410   5.612
 1770SOL    HW1 6209   1.858   4.480   5.617
 1770SOL    HW2 6210   1.820   4.334   5.556
 1771SOL     OW 6211   0.848   3.545   0.015
 1771SOL    HW1 6212   0.777   3.613   0.028
 1771SOL    HW2 6213   0.807   3.457   7.014
 1772SOL     OW 6214   2.821   4.868   3.901
 1772SOL    HW1 6215   2.855   4.859   3.807
 1772SOL    HW2 6216   2.897   4.891   3.961
 1773SOL     OW 6217   0.928   0.265   5.155
 1773SOL    HW1 6218   0.960   0.225   5.241
 1773SOL    HW2 6219   0.861   0.203   5.114
 1774SOL     OW 6220   6.044   6.016   2.033
 1774SOL    HW1 6221   6.012   6.071   2.109
 1774SOL    HW2 6222   6.096   5.938   2.067
 1775SOL     OW 6223   1.568   5.487   6.851
 1775SOL    HW1 6224   1.620   5.403   6.839
 1775SOL    HW2 6225   1.622   5.565   6.818
 1776SOL     OW 6226   4.422   1.228   5.231
 1776SOL    HW1 6227   4.517   1.218   5.262
 1776SOL    HW2 6228   4.399   1.325   5.226
 1777SOL     OW 6229   4.257   6.227   6.644
 1777SOL    HW1 6230   4.190   6.247   6.715
 1777SOL    HW2 6231   4.285   6.312   6.600
 1778SOL     OW 6232   5.954   0.829   3.888
 1778SOL    HW1 6233   5.908   0.835   3.799
 1778SOL    HW2 6234   5.967   0.732   3.912
 1779SOL     OW 6235   5.688   0.053   4.394
 1779SOL    HW1 6236   5.782   0.072   4.421
 1779SOL    HW2 6237   5.653   6.998   4.447
 1780SOL     OW 6238   1.407   5.556   4.949
 1780SOL    HW1 6239   1.475   5.487   4.924
 1780SOL    HW2 6240   1.336   5.560   4.879
 1781SOL     OW 6241   4.344   0.497   3.865
 1781SOL    HW1 6242   4.346   0.567   3.935
 1781SOL    HW2 6243   4.266   0.436   3.881
 1782SOL     OW 6244   1.871   1.934   2.857
 1782SOL    HW1 6245   1.801   1.872   2.823
 1782SOL    HW2 6246   1.942   1.945   2.788
 1783SOL     OW 6247   2.080   3.949   5.680
 1783SOL    HW1 6248   2.074   3.948   5.580
 1783SOL    HW2 6249   2.176   3.943   5.708
 1784SOL     OW 6250   2.556   0.474   0.877
 1784SOL    HW1 6251   2.488   0.415   0.835
 1784SOL    HW2 6252   2.601   0.426   0.953
 1785SOL     OW 6253   0.523   6.636   4.468
 1785SOL    HW1 6254   0.548   6.540   4.484
 1785SOL    HW2 6255   0.445   6.661   4.526
 1786SOL     OW 6256   2.005   5.807   0.625
 1786SOL    HW1 6257   1.987   5.778   0.531
 1786SOL    HW2 6258   1.972   5.736   0.688
 1787SOL     OW 6259   1.981   3.222   5.915
 1787SOL    HW1 6260   2.062   3.174   5.881
 1787SOL    HW2 6261   1.924   3.158   5.966
 1788SOL     OW 6262   5.026   3.793   0.881
 1788SOL    HW1 6263   5.119   3.758   0.891
 1788SOL    HW2 6264   4.967   3.722   0.843
 1789SOL     OW 6265   6.779   3.588   1.899
 1789SOL    HW1 6266   6.875   3.562   1.915
 1789SOL    HW2 6267   6.743   3.632   1.980
 1790SOL     OW 6268   2.734   2.379   4.253
 1790SOL    HW1 6269   2.717   2.318   4.175
 1790SOL    HW2 6270   2.766   2.467   4.219
 1791SOL     OW 6271   6.162   0.146   3.559
 1791SOL    HW1 6272   6.225   0.071   3.580
 1791SOL    HW2 6273   6.121   0.130   3.469
 1792SOL     OW 6274   6.454   1.791   5.206
 1792SOL    HW1 6275   6.502   1.798   5.294
 1792SOL    HW2 6276   6.372   1.848   5.208
 1793SOL     OW 6277   0.212   1.010   5.525
 1793SOL    HW1 6278   0.295   1.005   5.468
 1793SOL    HW2 6279   0.184   0.918   5.550
 1794SOL     OW 6280   6.983   0.310   6.201
 1794SOL    HW1 6281   6.987   0.399   6.155
 1794SOL    HW2 6282   0.053   0.272   6.207
 1795SOL     OW 6283   6.325   4.435   0.237
 1795SOL    HW1 6284   6.346   4.402   0.145
 1795SOL    HW2 6285   6.260   4.373   0.281
 1796SOL     OW 6286   0.617   0.123   5.450
 1796SOL    HW1 6287   0.631   0.151   5.545
 1796SOL    HW2 6288   0.648   0.029   5.437
 1797SOL     OW 6289   2.477   6.135   4.651
 1797SOL    HW1 6290   2.410   6.063   4.666
 1797SOL    HW2 6291   2.490   6.149   4.553
 1798SOL     OW 6292   3.268   3.855   4.785
 1798SOL    HW1 6293   3.289   3.771   4.734
 1798SOL    HW2 6294   3.346   3.880   4.842
 1799SOL     OW 6295   3.239   1.259   0.318
 1799SOL    HW1 6296   3.145   1.265   0.352
 1799SOL    HW2 6297   3.247   1.311   0.233
 1800SOL     OW 6298   5.139   3.785   4.547
 1800SOL    HW1 6299   5.110   3.777   4.642
 1800SOL    HW2 6300   5.220   3.844   4.542
 1801SOL     OW 6301   1.107   1.568   2.212
 1801SOL    HW1 6302   1.122   1.618   2.127
 1801SOL    HW2 6303   1.032   1.611   2.263
 1802SOL     OW 6304   6.321   4.750   3.782
 1802SOL    HW1 6305   6.376   4.713   3.708
 1802SOL    HW2 6306   6.335   4.695   3.865
 1803SOL     OW 6307   0.684   6.535   2.827
 1803SOL    HW1 6308   0.676   6.595   2.907
 1803SOL    HW2 6309   0.700   6.441   2.858
 1804SOL     OW 6310   2.517   3.169   6.301
 1804SOL    HW1 6311   2.585   3.114   6.253
 1804SOL    HW2 6312   2.526   3.265   6.273
 1805SOL     OW 6313   0.231   6.380   5.838
 1805SOL    HW1 6314   0.171   6.389   5.917
 1805SOL    HW2 6315   0.187   6.321   5.770
 1806SOL     OW 6316   0.013   2.387   2.253
 1806SOL    HW1 6317   0.079   2.369   2.327
 1806SOL    HW2 6318   0.030   2.477   2.214
 1807SOL     OW 6319   6.289   4.104   1.684
 1807SOL    HW1 6320   6.388   4.121   1.681
 1807SOL    HW2 6321   6.248   4.133   1.597
 1808SOL     OW 6322   5.512   2.354   5.778
 1808SOL    HW1 6323   5.510   2.377   5.680
 1808SOL    HW2 6324   5.605   2.330   5.804
 1809SOL     OW 6325   3.855   2.199   5.122
 1809SOL    HW1 6326   3.881   2.156   5.209
 1809SOL    HW2 6327   3.776   2.151   5.084
 1810SOL     OW 6328   0.582   6.934   3.933
 1810SOL    HW1 6329   0.665   6.900   3.888
 1810SOL    HW2 6330   0.505   6.876   3.910
 1811SOL     OW 6331   3.685   5.179   2.634
 1811SOL    HW1 6332   3.704   5.127   2.551
 1811SOL    HW2 6333   3.765   5.235   2.657
 1812SOL     OW 6334   4.463   0.233   6.105
 1812SOL    HW1 6335   4.485   0.141   6.138
 1812SOL    HW2 6336   4.522   0.300   6.150
 1813SOL     OW 6337   4.093   4.720   2.736
 1813SOL    HW1 6338   4.060   4.646   2.678
 1813SOL    HW2 6339   4.147   4.784   2.682
 1814SOL     OW 6340   0.596   6.561   0.355
 1814SOL    HW1 6341   0.559   6.619   0.283
 1814SOL    HW2 6342   0.692   6.585   0.370
 1815SOL     OW 6343   5.449   5.994   2.279
 1815SOL    HW1 6344   5.412   6.052   2.352
 1815SOL    HW2 6345   5.479   5.907   2.318
 1816SOL     OW 6346   3.784   5.921   5.728
 1816SOL    HW1 6347   3.856   5.892   5.790
 1816SOL    HW2 6348   3.776   5.855   5.653
 1817SOL     OW 6349   1.811   1.294   3.608
 1817SOL    HW1 6350   1.848   1.220   3.551
 1817SOL    HW2 6351   1.718   1.272   3.635
 1818SOL     OW 6352   2.462   6.688   0.271
 1818SOL    HW1 6353   2.390   6.701   0.339
 1818SOL    HW2 6354   2.449   6.600   0.226
 1819SOL     OW 6355   1.930   4.844   3.097
 1819SOL    HW1 6356   1.965   4.938   3.100
 1819SOL    HW2 6357   1.875   4.832   3.015
 1820SOL     OW 6358   3.883   0.650   3.940
 1820SOL    HW1 6359   3.819   0.592   3.991
 1820SOL    HW2 6360   3.850   0.745   3.942
 1821SOL     OW 6361   4.667   1.371   2.385
 1821SOL    HW1 6362   4.717   1.315   2.318
 1821SOL    HW2 6363   4.603   1.430   2.337
 1822SOL     OW 6364   0.372   3.251   1.900
 1822SOL    HW1 6365   0.290   3.266   1.955
 1822SOL    HW2 6366   0.440   3.202   1.954
 1823SOL     OW 6367   3.779   6.192   2.382
 1823SOL    HW1 6368   3.841   6.126   2.423
 1823SOL    HW2 6369   3.696   6.146   2.352
 1824SOL     OW 6370   4.289   3.736   1.061
 1824SOL    HW1 6371   4.200   3.695   1.083
 1824SOL    HW2 6372   4.358   3.701   1.124
 1825SOL     OW 6373   1.729   1.688   4.953
 1825SOL    HW1 6374   1.633   1.712   4.938
 1825SOL    HW2 6375   1.764   1.736   5.033
 1826SOL     OW 6376   3.283   2.224   1.835
 1826SOL    HW1 6377   3.363   2.215   1.775
 1826SOL    HW2 6378   3.217   2.286   1.792
 1827SOL     OW 6379   6.098   4.599   0.263
 1827SOL    HW1 6380   6.191   4.562   0.261
 1827SOL    HW2 6381   6.088   4.670   0.193
 1828SOL     OW 6382   1.400   3.148   5.765
 1828SOL    HW1 6383   1.473   3.100   5.717
 1828SOL    HW2 6384   1.422   3.154   5.862
 1829SOL     OW 6385   3.127   1.070   3.931
 1829SOL    HW1 6386   3.198   1.138   3.953
 1829SOL    HW2 6387   3.072   1.104   3.855
 1830SOL     OW 6388   5.758   6.827   4.766
 1830SOL    HW1 6389   5.665   6.793   4.751
 1830SOL    HW2 6390   5.762   6.925   4.743
 1831SOL     OW 6391   4.767   5.669   2.627
 1831SOL    HW1 6392   4.816   5.695   2.544
 1831SOL    HW2 6393   4.685   5.617   2.602
 1832SOL     OW 6394   2.535   3.304   0.695
 1832SOL    HW1 6395   2.607   3.246   0.734
 1832SOL    HW2 6396   2.550   3.399   0.723
 1833SOL     OW 6397   4.945   0.361   1.513
 1833SOL    HW1 6398   4.889   0.310   1.447
 1833SOL    HW2 6399   4.975   0.299   1.585
 1834SOL     OW 6400   2.231   2.875   0.143
 1834SOL    HW1 6401   2.314   2.918   0.109
 1834SOL    HW2 6402   2.249   2.831   0.231
 1835SOL     OW 6403   0.371   5.063   1.555
 1835SOL    HW1 6404   0.278   5.027   1.544
 1835SOL    HW2 6405   0.411   5.028   1.639
 1836SOL     OW 6406   5.558   1.982   1.473
 1836SOL    HW1 6407   5.507   1.958   1.390
 1836SOL    HW2 6408   5.499   1.973   1.552
 1837SOL     OW 6409   2.916   1.693   6.422
 1837SOL    HW1 6410   2.896   1.627   6.494
 1837SOL    HW2 6411   2.993   1.751   6.451
 1838SOL     OW 6412   6.096   1.309   0.922
 1838SOL    HW1 6413   6.042   1.392   0.926
 1838SOL    HW2 6414   6.130   1.296   0.829
 1839SOL     OW 6415   5.507   1.471   6.727
 1839SOL    HW1 6416   5.448   1.551   6.733
 1839SOL    HW2 6417   5.579   1.487   6.659
 1840SOL     OW 6418   3.896   6.973   2.904
 1840SOL    HW1 6419   3.928   7.006   2.815
 1840SOL    HW2 6420   3.797   6.964   2.904
 1841SOL     OW 6421   2.275   1.056   2.218
 1841SOL    HW1 6422   2.264   1.142   2.269
 1841SOL    HW2 6423   2.316   0.987   2.278
 1842SOL     OW 6424   1.812   5.093   0.389
 1842SOL    HW1 6425   1.838   5.049   0.303
 1842SOL    HW2 6426   1.823   5.192   0.381
 1843SOL     OW 6427   2.968   1.491   4.548
 1843SOL    HW1 6428   3.020   1.464   4.467
 1843SOL    HW2 6429   3.030   1.509   4.624
 1844SOL     OW 6430   5.009   1.677   6.496
 1844SOL    HW1 6431   4.964   1.602   6.545
 1844SOL    HW2 6432   4.954   1.702   6.416
 1845SOL     OW 6433   2.159   1.453   3.486
 1845SOL    HW1 6434   2.125   1.363   3.456
 1845SOL    HW2 6435   2.143   1.520   3.413
 1846SOL     OW 6436   4.332   1.283   2.478
 1846SOL    HW1 6437   4.331   1.238   2.388
 1846SOL    HW2 6438   4.367   1.219   2.546
 1847SOL     OW 6439   2.045   0.188   4.763
 1847SOL    HW1 6440   2.145   0.182   4.756
 1847SOL    HW2 6441   2.010   0.248   4.692
 1848SOL     OW 6442   2.257   5.607   4.244
 1848SOL    HW1 6443   2.267   5.627   4.341
 1848SOL    HW2 6444   2.334   5.552   4.213
 1849SOL     OW 6445   4.520   2.473   2.257
 1849SOL    HW1 6446   4.452   2.400   2.266
 1849SOL    HW2 6447   4.472   2.561   2.249
 1850SOL     OW 6448   5.136   2.085   2.207
 1850SOL    HW1 6449   5.098   2.004   2.163
 1850SOL    HW2 6450   5.071   2.161   2.198
 1851SOL     OW 6451   6.726   3.459   5.543
 1851SOL    HW1 6452   6.783   3.539   5.525
 1851SOL    HW2 6453   6.653   3.455   5.475
 1852SOL     OW 6454   1.578   5.271   1.855
 1852SOL    HW1 6455   1.666   5.267   1.902
 1852SOL    HW2 6456   1.515   5.329   1.907
 1853SOL     OW 6457   0.747   2.701   4.941
 1853SOL    HW1 6458   0.664   2.735   4.896
 1853SOL    HW2 6459   0.775   2.615   4.899
 1854SOL     OW 6460   0.626   6.149   3.136
 1854SOL    HW1 6461   0.644   6.075   3.201
 1854SOL    HW2 6462   0.535   6.186   3.152
 1855SOL     OW 6463   4.906   3.416   5.239
 1855SOL    HW1 6464   4.857   3.459   5.163
 1855SOL    HW2 6465   4.885   3.318   5.242
 1856SOL     OW 6466   3.579   2.949   6.923
 1856SOL    HW1 6467   3.576   2.852   6.948
 1856SOL    HW2 6468   3.535   3.003   6.994
 1857SOL     OW 6469   5.194   0.667   0.326
 1857SOL    HW1 6470   5.143   0.586   0.296
 1857SOL    HW2 6471   5.274   0.679   0.267
 1858SOL     OW 6472   4.525   2.350   4.331
 1858SOL    HW1 6473   4.554   2.264   4.288
 1858SOL    HW2 6474   4.606   2.399   4.364
 1859SOL     OW 6475   5.448   2.238   4.511
 1859SOL    HW1 6476   5.467   2.313   4.575
 1859SOL    HW2 6477   5.350   2.221   4.507
 1860SOL     OW 6478   1.271   1.320   4.997
 1860SOL    HW1 6479   1.187   1.276   4.965
 1860SOL    HW2 6480   1.350   1.271   4.959
 1861SOL     OW 6481   6.613   0.506   3.183
 1861SOL    HW1 6482   6.597   0.490   3.085
 1861SOL    HW2 6483   6.527   0.529   3.228
 1862SOL     OW 6484   2.373   6.476   6.422
 1862SOL    HW1 6485   2.382   6.565   6.378
 1862SOL    HW2 6486   2.454   6.457   6.477
 1863SOL     OW 6487   0.147   3.028   1.407
 1863SOL    HW1 6488   0.134   2.974   1.324
 1863SOL    HW2 6489   0.215   3.099   1.391
 1864SOL     OW 6490   3.160   6.138   2.917
 1864SOL    HW1 6491   3.216   6.175   2.991
 1864SOL    HW2 6492   3.087   6.203   2.895
 1865SOL     OW 6493   5.296   1.651   6.187
 1865SOL    HW1 6494   5.301   1.697   6.276
 1865SOL    HW2 6495   5.387   1.622   6.159
 1866SOL     OW 6496   0.658   4.653   3.482
 1866SOL    HW1 6497   0.650   4.570   3.426
 1866SOL    HW2 6498   0.640   4.630   3.578
 1867SOL     OW 6499   2.577   2.460   1.065
 1867SOL    HW1 6500   2.570   2.466   1.165
 1867SOL    HW2 6501   2.525   2.535   1.024
 1868SOL     OW 6502   5.802   4.692   5.754
 1868SOL    HW1 6503   5.884   4.698   5.697
 1868SOL    HW2 6504   5.811   4.616   5.818
 1869SOL     OW 6505   4.561   2.128   4.194
 1869SOL    HW1 6506   4.517   2.062   4.134
 1869SOL    HW2 6507   4.627   2.081   4.253
 1870SOL     OW 6508   1.055   4.756   3.948
 1870SOL    HW1 6509   1.061   4.673   4.004
 1870SOL    HW2 6510   1.135   4.814   3.966
 1871SOL     OW 6511   1.048   6.343   0.095
 1871SOL    HW1 6512   0.984   6.361   0.020
 1871SOL    HW2 6513   0.997   6.313   0.176
 1872SOL     OW 6514   2.959   2.409   0.840
 1872SOL    HW1 6515   2.978   2.321   0.883
 1872SOL    HW2 6516   3.009   2.481   0.887
 1873SOL     OW 6517   6.584   0.629   6.918
 1873SOL    HW1 6518   6.640   0.698   6.873
 1873SOL    HW2 6519   6.590   0.543   6.867
 1874SOL     OW 6520   1.306   6.064   0.166
 1874SOL    HW1 6521   1.301   5.971   0.128
 1874SOL    HW2 6522   1.247   6.069   0.247
 1875SOL     OW 6523   6.008   5.117   6.986
 1875SOL    HW1 6524   6.017   5.212   6.957
 1875SOL    HW2 6525   6.047   5.106   0.055
 1876SOL     OW 6526   6.514   6.190   6.399
 1876SOL    HW1 6527   6.574   6.225   6.471
 1876SOL    HW2 6528   6.479   6.101   6.426
 1877SOL     OW 6529   0.240   1.183   2.371
 1877SOL    HW1 6530   0.260   1.265   2.424
 1877SOL    HW2 6531   0.214   1.209   2.278
 1878SOL     OW 6532   0.339   4.583   3.355
 1878SOL    HW1 6533   0.417   4.550   3.408
 1878SOL    HW2 6534   0.372   4.625   3.270
 1879SOL     OW 6535   3.430   5.617   5.040
 1879SOL    HW1 6536   3.473   5.688   5.095
 1879SOL    HW2 6537   3.451   5.527   5.079
 1880SOL     OW 6538   0.195   1.784   3.457
 1880SOL    HW1 6539   0.180   1.719   3.383
 1880SOL    HW2 6540   0.288   1.818   3.454
 1881SOL     OW 6541   1.115   1.700   4.097
 1881SOL    HW1 6542   1.031   1.704   4.043
 1881SOL    HW2 6543   1.181   1.641   4.052
 1882SOL     OW 6544   1.401   5.482   0.239
 1882SOL    HW1 6545   1.308   5.458   0.270
 1882SOL    HW2 6546   1.431   5.565   0.287
 1883SOL     OW 6547   1.450   3.207   3.054
 1883SOL    HW1 6548   1.470   3.216   3.151
 1883SOL    HW2 6549   1.470   3.293   3.007
 1884SOL     OW 6550   3.003   0.958   0.532
 1884SOL    HW1 6551   2.907   0.985   0.533
 1884SOL    HW2 6552   3.027   0.927   0.440
 1885SOL     OW 6553   0.509   2.409   0.900
 1885SOL    HW1 6554   0.596   2.411   0.950
 1885SOL    HW2 6555   0.437   2.374   0.960
 1886SOL     OW 6556   2.589   2.478   0.108
 1886SOL    HW1 6557   2.598   2.567   0.063
 1886SOL    HW2 6558   2.537   2.416   0.049
 1887SOL     OW 6559   1.501   5.887   5.664
 1887SOL    HW1 6560   1.464   5.815   5.606
 1887SOL    HW2 6561   1.479   5.976   5.624
 1888SOL     OW 6562   1.956   2.232   6.465
 1888SOL    HW1 6563   2.035   2.262   6.411
 1888SOL    HW2 6564   1.987   2.175   6.541
 1889SOL     OW 6565   4.545   3.171   0.292
 1889SOL    HW1 6566   4.581   3.216   0.373
 1889SOL    HW2 6567   4.577   3.218   0.210
 1890SOL     OW 6568   0.182   6.095   6.111
 1890SOL    HW1 6569   0.265   6.096   6.168
 1890SOL    HW2 6570   0.117   6.030   6.149
 1891SOL     OW 6571   5.981   3.079   5.411
 1891SOL    HW1 6572   6.058   3.105   5.353
 1891SOL    HW2 6573   5.914   3.153   5.413
 1892SOL     OW 6574   3.664   5.283   1.767
 1892SOL    HW1 6575   3.603   5.316   1.696
 1892SOL    HW2 6576   3.611   5.256   1.847
 1893SOL     OW 6577   3.903   2.076   3.954
 1893SOL    HW1 6578   3.859   2.079   4.044
 1893SOL    HW2 6579   3.999   2.101   3.963
 1894SOL     OW 6580   4.737   3.762   1.214
 1894SOL    HW1 6581   4.826   3.718   1.211
 1894SOL    HW2 6582   4.737   3.834   1.283
 1895SOL     OW 6583   6.236   0.880   3.275
 1895SOL    HW1 6584   6.256   0.822   3.355
 1895SOL    HW2 6585   6.289   0.848   3.197
 1896SOL     OW 6586   6.569   1.464   4.785
 1896SOL    HW1 6587   6.641   1.397   4.801
 1896SOL    HW2 6588   6.550   1.513   4.871
 1897SOL     OW 6589   5.537   4.772   2.468
 1897SOL    HW1 6590   5.630   4.736   2.472
 1897SOL    HW2 6591   5.473   4.696   2.456
 1898SOL     OW 6592   5.238   4.943   1.196
 1898SOL    HW1 6593   5.245   4.942   1.296
 1898SOL    HW2 6594   5.189   5.025   1.167
 1899SOL     OW 6595   0.561   3.009   3.047
 1899SOL    HW1 6596   0.542   2.921   3.091
 1899SOL    HW2 6597   0.567   2.997   2.948
 1900SOL     OW 6598   1.614   5.697   6.079
 1900SOL    HW1 6599   1.670   5.713   5.998
 1900SOL    HW2 6600   1.588   5.785   6.119
 1901SOL     OW 6601   1.807   0.540   6.888
 1901SOL    HW1 6602   1.806   0.480   6.968
 1901SOL    HW2 6603   1.900   0.575   6.874
 1902SOL     OW 6604   0.871   3.118   4.604
 1902SOL    HW1 6605   0.844   3.054   4.532
 1902SOL    HW2 6606   0.904   3.203   4.561
 1903SOL     OW 6607   5.985   3.812   2.996
 1903SOL    HW1 6608   5.969   3.907   3.020
 1903SOL    HW2 6609   6.000   3.758   3.079
 1904SOL     OW 6610   6.475   6.973   4.184
 1904SOL    HW1 6611   6.545   6.952   4.252
 1904SOL    HW2 6612   6.387   6.986   4.230
 1905SOL     OW 6613   0.230   2.158   3.975
 1905SOL    HW1 6614   0.318   2.204   3.976
 1905SOL    HW2 6615   0.183   2.173   4.062
 1906SOL     OW 6616   2.333   0.065   6.502
 1906SOL    HW1 6617   2.407   0.132   6.492
 1906SOL    HW2 6618   2.356   0.002   6.576
 1907SOL     OW 6619   3.209   6.264   3.475
 1907SOL    HW1 6620   3.201   6.259   3.575
 1907SOL    HW2 6621   3.208   6.171   3.438
 1908SOL     OW 6622   4.056   1.335   5.601
 1908SOL    HW1 6623   4.111   1.394   5.660
 1908SOL    HW2 6624   4.100   1.326   5.512
 1909SOL     OW 6625   2.206   4.907   4.668
 1909SOL    HW1 6626   2.301   4.928   4.690
 1909SOL    HW2 6627   2.176   4.829   4.722
 1910SOL     OW 6628   5.484   2.492   6.041
 1910SOL    HW1 6629   5.499   2.444   5.954
 1910SOL    HW2 6630   5.536   2.577   6.042
 1911SOL     OW 6631   6.461   2.693   5.035
 1911SOL    HW1 6632   6.431   2.688   5.130
 1911SOL    HW2 6633   6.466   2.601   4.996
 1912SOL     OW 6634   3.762   0.023   2.332
 1912SOL    HW1 6635   3.679   0.029   2.389
 1912SOL    HW2 6636   3.774   6.951   2.301
 1913SOL     OW 6637   1.046   5.575   5.280
 1913SOL    HW1 6638   0.988   5.543   5.355
 1913SOL    HW2 6639   1.133   5.526   5.282
 1914SOL     OW 6640   3.082   2.357   6.019
 1914SOL    HW1 6641   3.076   2.260   6.044
 1914SOL    HW2 6642   3.003   2.383   5.964
 1915SOL     OW 6643   3.882   0.456   5.943
 1915SOL    HW1 6644   3.802   0.414   5.899
 1915SOL    HW2 6645   3.902   0.544   5.899
 1916SOL     OW 6646   3.119   5.880   2.129
 1916SOL    HW1 6647   3.050   5.833   2.183
 1916SOL    HW2 6648   3.114   5.850   2.034
 1917SOL     OW 6649   2.926   3.762   4.296
 1917SOL    HW1 6650   2.851   3.714   4.252
 1917SOL    HW2 6651   2.977   3.813   4.226
 1918SOL     OW 6652   5.477   6.010   5.717
 1918SOL    HW1 6653   5.547   6.081   5.725
 1918SOL    HW2 6654   5.490   5.941   5.787
 1919SOL     OW 6655   0.766   6.086   2.365
 1919SOL    HW1 6656   0.713   6.076   2.450
 1919SOL    HW2 6657   0.724   6.157   2.309
 1920SOL     OW 6658   0.046   5.635   3.731
 1920SOL    HW1 6659   0.109   5.566   3.696
 1920SOL    HW2 6660   6.992   5.590   3.777
 1921SOL     OW 6661   1.481   5.808   6.677
 1921SOL    HW1 6662   1.546   5.774   6.745
 1921SOL    HW2 6663   1.514   5.895   6.640
 1922SOL     OW 6664   3.759   3.696   1.467
 1922SOL    HW1 6665   3.721   3.720   1.378
 1922SOL    HW2 6666   3.820   3.618   1.458
 1923SOL     OW 6667   2.153   1.136   0.917
 1923SOL    HW1 6668   2.063   1.108   0.951
 1923SOL    HW2 6669   2.178   1.079   0.838
 1924SOL     OW 6670   6.869   3.960   1.852
 1924SOL    HW1 6671   6.947   3.918   1.898
 1924SOL    HW2 6672   6.848   4.048   1.895
 1925SOL     OW 6673   3.679   3.870   1.773
 1925SOL    HW1 6674   3.686   3.967   1.749
 1925SOL    HW2 6675   3.702   3.857   1.870
 1926SOL     OW 6676   1.507   0.188   4.514
 1926SOL    HW1 6677   1.555   0.225   4.594
 1926SOL    HW2 6678   1.448   0.258   4.475
 1927SOL     OW 6679   4.073   3.682   7.015
 1927SOL    HW1 6680   3.997   3.723   6.964
 1927SOL    HW2 6681   4.113   3.608   6.961
 1928SOL     OW 6682   6.339   4.016   5.616
 1928SOL    HW1 6683   6.333   3.933   5.672
 1928SOL    HW2 6684   6.275   4.009   5.539
 1929SOL     OW 6685   1.271   5.907   0.885
 1929SOL    HW1 6686   1.240   5.991   0.930
 1929SOL    HW2 6687   1.196   5.866   0.835
 1930SOL     OW 6688   5.974   4.500   6.180
 1930SOL    HW1 6689   6.064   4.467   6.153
 1930SOL    HW2 6690   5.921   4.424   6.217
 1931SOL     OW 6691   0.985   3.653   3.659
 1931SOL    HW1 6692   0.889   3.635   3.637
 1931SOL    HW2 6693   1.024   3.572   3.703
 1932SOL     OW 6694   4.816   4.123   1.983
 1932SOL    HW1 6695   4.734   4.143   2.036
 1932SOL    HW2 6696   4.809   4.164   1.892
 1933SOL     OW 6697   2.484   4.728   0.704
 1933SOL    HW1 6698   2.418   4.675   0.651
 1933SOL    HW2 6699   2.543   4.780   0.642
 1934SOL     OW 6700   1.064   6.781   5.820
 1934SOL    HW1 6701   0.998   6.764   5.894
 1934SOL    HW2 6702   1.031   6.855   5.762
 1935SOL     OW 6703   2.266   6.947   3.993
 1935SOL    HW1 6704   2.290   0.021   3.986
 1935SOL    HW2 6705   2.348   6.891   3.986
 1936SOL     OW 6706   5.551   6.211   4.679
 1936SOL    HW1 6707   5.531   6.182   4.586
 1936SOL    HW2 6708   5.476   6.268   4.713
 1937SOL     OW 6709   3.826   6.606   1.834
 1937SOL    HW1 6710   3.798   6.515   1.804
 1937SOL    HW2 6711   3.848   6.662   1.754
 1938SOL     OW 6712   3.921   1.226   3.390
 1938SOL    HW1 6713   3.944   1.241   3.487
 1938SOL    HW2 6714   3.967   1.294   3.334
 1939SOL     OW 6715   1.784   0.934   4.063
 1939SOL    HW1 6716   1.871   0.933   4.013
 1939SOL    HW2 6717   1.765   1.026   4.096
 1940SOL     OW 6718   6.975   5.161   0.171
 1940SOL    HW1 6719   6.928   5.248   0.155
 1940SOL    HW2 6720   0.021   5.172   0.243
 1941SOL     OW 6721   6.057   3.611   2.800
 1941SOL    HW1 6722   6.028   3.692   2.850
 1941SOL    HW2 6723   6.157   3.606   2.799
 1942SOL     OW 6724   6.495   5.506   2.542
 1942SOL    HW1 6725   6.564   5.441   2.574
 1942SOL    HW2 6726   6.423   5.514   2.610
 1943SOL     OW 6727   2.092   4.705   2.905
 1943SOL    HW1 6728   2.060   4.642   2.834
 1943SOL    HW2 6729   2.015   4.732   2.963
 1944SOL     OW 6730   5.698   1.298   6.383
 1944SOL    HW1 6731   5.607   1.256   6.379
 1944SOL    HW2 6732   5.689   1.395   6.402
 1945SOL     OW 6733   4.323   5.519   3.434
 1945SOL    HW1 6734   4.272   5.440   3.467
 1945SOL    HW2 6735   4.364   5.567   3.512
 1946SOL     OW 6736   1.367   6.937   0.515
 1946SOL    HW1 6737   1.330   0.005   0.499
 1946SOL    HW2 6738   1.334   6.873   0.446
 1947SOL     OW 6739   5.413   6.728   4.333
 1947SOL    HW1 6740   5.484   6.659   4.347
 1947SOL    HW2 6741   5.396   6.776   4.419
 1948SOL     OW 6742   6.672   5.800   3.902
 1948SOL    HW1 6743   6.636   5.812   3.995
 1948SOL    HW2 6744   6.769   5.826   3.900
 1949SOL     OW 6745   4.600   4.370   6.200
 1949SOL    HW1 6746   4.641   4.358   6.290
 1949SOL    HW2 6747   4.590   4.467   6.180
 1950SOL     OW 6748   3.539   3.576   6.528
 1950SOL    HW1 6749   3.463   3.528   6.571
 1950SOL    HW2 6750   3.507   3.621   6.444
 1951SOL     OW 6751   5.233   1.768   6.980
 1951SOL    HW1 6752   5.171   1.721   0.019
 1951SOL    HW2 6753   5.231   1.867   6.999
 1952SOL     OW 6754   4.047   2.038   1.015
 1952SOL    HW1 6755   4.112   2.112   1.032
 1952SOL    HW2 6756   4.083   1.952   1.053
 1953SOL     OW 6757   6.963   2.217   6.698
 1953SOL    HW1 6758   0.037   2.201   6.718
 1953SOL    HW2 6759   6.929   2.293   6.752
 1954SOL     OW 6760   4.738   1.895   3.701
 1954SOL    HW1 6761   4.656   1.921   3.650
 1954SOL    HW2 6762   4.712   1.874   3.796
 1955SOL     OW 6763   0.830   6.873   2.255
 1955SOL    HW1 6764   0.783   6.953   2.294
 1955SOL    HW2 6765   0.827   6.878   2.156
 1956SOL     OW 6766   5.299   5.793   2.591
 1956SOL    HW1 6767   5.247   5.708   2.591
 1956SOL    HW2 6768   5.239   5.869   2.567
 1957SOL     OW 6769   0.423   5.609   4.671
 1957SOL    HW1 6770   0.469   5.574   4.753
 1957SOL    HW2 6771   0.420   5.537   4.602
 1958SOL     OW 6772   5.203   3.377   5.237
 1958SOL    HW1 6773   5.104   3.378   5.230
 1958SOL    HW2 6774   5.237   3.471   5.246
 1959SOL     OW 6775   1.245   2.502   5.798
 1959SOL    HW1 6776   1.179   2.461   5.735
 1959SOL    HW2 6777   1.286   2.430   5.855
 1960SOL     OW 6778   6.272   5.156   0.363
 1960SOL    HW1 6779   6.362   5.141   0.405
 1960SOL    HW2 6780   6.205   5.177   0.435
 1961SOL     OW 6781   5.711   4.555   3.668
 1961SOL    HW1 6782   5.664   4.524   3.750
 1961SOL    HW2 6783   5.805   4.523   3.667
 1962SOL     OW 6784   1.249   6.216   3.332
 1962SOL    HW1 6785   1.174   6.267   3.289
 1962SOL    HW2 6786   1.225   6.120   3.340
 1963SOL     OW 6787   0.744   0.401   2.626
 1963SOL    HW1 6788   0.758   0.342   2.706
 1963SOL    HW2 6789   0.763   0.496   2.650
 1964SOL     OW 6790   4.668   2.573   1.832
 1964SOL    HW1 6791   4.578   2.532   1.844
 1964SOL    HW2 6792   4.689   2.632   1.910
 1965SOL     OW 6793   0.149   3.643   2.247
 1965SOL    HW1 6794   0.181   3.719   2.190
 1965SOL    HW2 6795   0.226   3.583   2.268
 1966SOL     OW 6796   6.972   5.205   4.509
 1966SOL    HW1 6797   6.931   5.269   4.444
 1966SOL    HW2 6798   6.902   5.141   4.541
 1967SOL     OW 6799   5.510   2.878   5.977
 1967SOL    HW1 6800   5.492   2.964   6.024
 1967SOL    HW2 6801   5.530   2.896   5.881
 1968SOL     OW 6802   2.830   5.585   6.949
 1968SOL    HW1 6803   2.760   5.593   7.021
 1968SOL    HW2 6804   2.887   5.505   6.967
 1969SOL     OW 6805   7.002   2.609   1.874
 1969SOL    HW1 6806   6.950   2.648   1.951
 1969SOL    HW2 6807   7.015   2.678   1.804
 1970SOL     OW 6808   1.177   0.637   6.011
 1970SOL    HW1 6809   1.101   0.582   6.047
 1970SOL    HW2 6810   1.140   0.713   5.957
 1971SOL     OW 6811   0.177   0.178   6.300
 1971SOL    HW1 6812   0.262   0.204   6.345
 1971SOL    HW2 6813   0.121   0.124   6.363
 1972SOL     OW 6814   0.991   3.874   3.800
 1972SOL    HW1 6815   0.987   3.788   3.749
 1972SOL    HW2 6816   1.027   3.946   3.741
 1973SOL     OW 6817   3.481   2.800   1.572
 1973SOL    HW1 6818   3.443   2.862   1.641
 1973SOL    HW2 6819   3.475   2.706   1.605
 1974SOL     OW 6820   5.895   6.330   4.698
 1974SOL    HW1 6821   5.924   6.265   4.627
 1974SOL    HW2 6822   5.879   6.419   4.657
 1975SOL     OW 6823   2.272   0.683   4.617
 1975SOL    HW1 6824   2.340   0.664   4.546
 1975SOL    HW2 6825   2.290   0.625   4.697
 1976SOL     OW 6826   0.707   6.038   0.431
 1976SOL    HW1 6827   0.710   6.133   0.399
 1976SOL    HW2 6828   0.763   6.030   0.514
 1977SOL     OW 6829   0.786   2.806   4.232
 1977SOL    HW1 6830   0.831   2.889   4.198
 1977SOL    HW2 6831   0.713   2.831   4.295
 1978SOL     OW 6832   0.793   1.112   4.379
 1978SOL    HW1 6833   0.842   1.126   4.465
 1978SOL    HW2 6834   0.707   1.064   4.397
 1979SOL     OW 6835   0.021   4.447   4.924
 1979SOL    HW1 6836   0.099   4.392   4.893
 1979SOL    HW2 6837   0.054   4.522   4.981
 1980SOL     OW 6838   3.307   0.579   0.716
 1980SOL    HW1 6839   3.237   0.627   0.769
 1980SOL    HW2 6840   3.300   0.480   0.733
 1981SOL     OW 6841   5.527   2.317   2.679
 1981SOL    HW1 6842   5.619   2.331   2.716
 1981SOL    HW2 6843   5.462   2.304   2.754
 1982SOL     OW 6844   6.135   5.180   4.819
 1982SOL    HW1 6845   6.104   5.171   4.724
 1982SOL    HW2 6846   6.234   5.196   4.820
 1983SOL     OW 6847   1.447   2.373   3.049
 1983SOL    HW1 6848   1.385   2.373   3.127
 1983SOL    HW2 6849   1.536   2.335   3.077
 1984SOL     OW 6850   4.629   1.367   6.069
 1984SOL    HW1 6851   4.619   1.390   6.166
 1984SOL    HW2 6852   4.708   1.307   6.058
 1985SOL     OW 6853   0.812   1.014   1.862
 1985SOL    HW1 6854   0.905   0.986   1.886
 1985SOL    HW2 6855   0.754   1.008   1.943
 1986SOL     OW 6856   1.321   1.794   6.815
 1986SOL    HW1 6857   1.329   1.887   6.853
 1986SOL    HW2 6858   1.411   1.751   6.813
 1987SOL     OW 6859   2.743   3.128   1.765
 1987SOL    HW1 6860   2.791   3.092   1.685
 1987SOL    HW2 6861   2.808   3.139   1.840
 1988SOL     OW 6862   4.853   4.178   0.194
 1988SOL    HW1 6863   4.806   4.142   0.113
 1988SOL    HW2 6864   4.797   4.249   0.237
 1989SOL     OW 6865   2.289   0.094   4.637
 1989SOL    HW1 6866   2.296   0.002   4.674
 1989SOL    HW2 6867   2.276   0.090   4.538
 1990SOL     OW 6868   2.860   1.007   1.167
 1990SOL    HW1 6869   2.807   0.990   1.251
 1990SOL    HW2 6870   2.912   0.925   1.144
 1991SOL     OW 6871   3.206   5.945   5.475
 1991SOL    HW1 6872   3.225   6.001   5.395
 1991SOL    HW2 6873   3.175   5.855   5.447
 1992SOL     OW 6874   2.546   6.804   5.317
 1992SOL    HW1 6875   2.589   6.750   5.245
 1992SOL    HW2 6876   2.478   6.865   5.276
 1993SOL     OW 6877   3.844   3.614   5.494
 1993SOL    HW1 6878   3.818   3.616   5.398
 1993SOL    HW2 6879   3.864   3.707   5.525
 1994SOL     OW 6880   0.426   2.059   1.798
 1994SOL    HW1 6881   0.514   2.105   1.793
 1994SOL    HW2 6882   0.437   1.963   1.773
 1995SOL     OW 6883   6.277   2.145   1.949
 1995SOL    HW1 6884   6.324   2.195   2.022
 1995SOL    HW2 6885   6.238   2.061   1.986
 1996SOL     OW 6886   3.902   3.125   0.681
 1996SOL    HW1 6887   3.864   3.205   0.634
 1996SOL    HW2 6888   3.942   3.153   0.768
 1997SOL     OW 6889   5.963   1.150   5.009
 1997SOL    HW1 6890   5.892   1.219   4.995
 1997SOL    HW2 6891   5.921   1.063   5.032
 1998SOL     OW 6892   2.746   3.791   6.379
 1998SOL    HW1 6893   2.776   3.858   6.311
 1998SOL    HW2 6894   2.805   3.711   6.375
 1999SOL     OW 6895   2.194   0.273   2.076
 1999SOL    HW1 6896   2.108   0.271   2.126
 1999SOL    HW2 6897   2.184   0.329   1.994
 2000SOL     OW 6898   4.303   1.596   4.632
 2000SOL    HW1 6899   4.282   1.521   4.569
 2000SOL    HW2 6900   4.219   1.628   4.675
 2001SOL     OW 6901   3.751   1.660   1.405
 2001SOL    HW1 6902   3.766   1.741   1.462
 2001SOL    HW2 6903   3.816   1.661   1.329
 2002SOL     OW 6904   1.955   6.809   6.503
 2002SOL    HW1 6905   1.861   6.841   6.495
 2002SOL    HW2 6906   1.990   6.783   6.413
 2003SOL     OW 6907   5.197   0.388   3.564
 2003SOL    HW1 6908   5.289   0.352   3.578
 2003SOL    HW2 6909   5.188   0.422   3.470
 2004SOL     OW 6910   4.364   0.905   4.520
 2004SOL    HW1 6911   4.293   0.968   4.549
 2004SOL    HW2 6912   4.329   0.847   4.446
 2005SOL     OW 6913   1.828   6.109   6.569
 2005SOL    HW1 6914   1.877   6.192   6.543
 2005SOL    HW2 6915   1.893   6.033   6.575
 2006SOL     OW 6916   4.695   4.257   3.835
 2006SOL    HW1 6917   4.679   4.260   3.933
 2006SOL    HW2 6918   4.708   4.163   3.805
 2007SOL     OW 6919   5.145   5.197   6.809
 2007SOL    HW1 6920   5.234   5.229   6.842
 2007SOL    HW2 6921   5.088   5.172   6.888
 2008SOL     OW 6922   6.671   6.340   3.584
 2008SOL    HW1 6923   6.602   6.379   3.523
 2008SOL    HW2 6924   6.683   6.399   3.664
 2009SOL     OW 6925   6.622   0.432   1.812
 2009SOL    HW1 6926   6.684   0.367   1.855
 2009SOL    HW2 6927   6.638   0.523   1.850
 2010SOL     OW 6928   1.546   1.202   1.090
 2010SOL    HW1 6929   1.609   1.207   1.168
 2010SOL    HW2 6930   1.599   1.190   1.006
 2011SOL     OW 6931   6.749   2.434   5.020
 2011SOL    HW1 6932   6.820   2.423   5.089
 2011SOL    HW2 6933   6.721   2.530   5.015
 2012SOL     OW 6934   1.334   3.946   1.329
 2012SOL    HW1 6935   1.414   3.955   1.388
 2012SOL    HW2 6936   1.254   3.923   1.385
 2013SOL     OW 6937   5.172   1.566   3.102
 2013SOL    HW1 6938   5.141   1.569   3.197
 2013SOL    HW2 6939   5.183   1.660   3.068
 2014SOL     OW 6940   0.888   6.111   3.409
 2014SOL    HW1 6941   0.813   6.066   3.457
 2014SOL    HW2 6942   0.973   6.099   3.461
 2015SOL     OW 6943   3.641   1.187   0.243
 2015SOL    HW1 6944   3.659   1.226   0.333
 2015SOL    HW2 6945   3.563   1.125   0.249
 2016SOL     OW 6946   0.825   5.467   4.163
 2016SOL    HW1 6947   0.861   5.477   4.256
 2016SOL    HW2 6948   0.872   5.532   4.103
 2017SOL     OW 6949   2.710   6.501   3.248
 2017SOL    HW1 6950   2.672   6.425   3.195
 2017SOL    HW2 6951   2.784   6.467   3.307
 2018SOL     OW 6952   6.763   5.560   5.002
 2018SOL    HW1 6953   6.748   5.592   5.096
 2018SOL    HW2 6954   6.689   5.594   4.944
 2019SOL     OW 6955   5.380   2.578   1.077
 2019SOL    HW1 6956   5.381   2.637   0.996
 2019SOL    HW2 6957   5.355   2.633   1.157
 2020SOL     OW 6958   1.397   5.133   4.797
 2020SOL    HW1 6959   1.438   5.223   4.808
 2020SOL    HW2 6960   1.464   5.070   4.758
 2021SOL     OW 6961   1.965   0.636   2.595
 2021SOL    HW1 6962   1.965   0.667   2.690
 2021SOL    HW2 6963   1.886   0.674   2.547
 2022SOL     OW 6964   2.139   3.318   1.757
 2022SOL    HW1 6965   2.199   3.273   1.690
 2022SOL    HW2 6966   2.190   3.393   1.801
 2023SOL     OW 6967   0.010   1.177   6.997
 2023SOL    HW1 6968   0.011   1.128   0.061
 2023SOL    HW2 6969   6.952   1.237   6.995
 2024SOL     OW 6970   6.380   0.757   3.492
 2024SOL    HW1 6971   6.365   0.664   3.458
 2024SOL    HW2 6972   6.474   0.785   3.470
 2025SOL     OW 6973   1.041   1.920   1.571
 2025SOL    HW1 6974   1.076   2.004   1.529
 2025SOL    HW2 6975   1.106   1.885   1.637
 2026SOL     OW 6976   2.188   2.330   6.338
 2026SOL    HW1 6977   2.214   2.256   6.276
 2026SOL    HW2 6978   2.235   2.414   6.311
 2027SOL     OW 6979   0.201   0.958   2.180
 2027SOL    HW1 6980   0.126   0.934   2.118
 2027SOL    HW2 6981   0.181   1.044   2.225
 2028SOL     OW 6982   3.936   1.270   0.802
 2028SOL    HW1 6983   3.890   1.203   0.860
 2028SOL    HW2 6984   4.030   1.239   0.785
 2029SOL     OW 6985   1.086   0.719   6.769
 2029SOL    HW1 6986   1.057   0.689   6.860
 2029SOL    HW2 6987   1.176   0.681   6.749
 2030SOL     OW 6988   2.202   2.479   3.542
 2030SOL    HW1 6989   2.245   2.419   3.609
 2030SOL    HW2 6990   2.105   2.488   3.563
 2031SOL     OW 6991   5.188   5.949   2.012
 2031SOL    HW1 6992   5.124   6.022   1.989
 2031SOL    HW2 6993   5.137   5.871   2.048
 2032SOL     OW 6994   5.005   6.592   1.171
 2032SOL    HW1 6995   4.969   6.536   1.096
 2032SOL    HW2 6996   4.960   6.566   1.256
 2033SOL     OW 6997   4.297   4.711   6.364
 2033SOL    HW1 6998   4.215   4.660   6.389
 2033SOL    HW2 6999   4.274   4.782   6.299
 2034SOL     OW 7000   1.791   6.419   3.412
 2034SOL    HW1 7001   1.821   6.355   3.342
 2034SOL    HW2 7002   1.837   6.507   3.399
 2035SOL     OW 7003   6.604   1.668   2.601
 2035SOL    HW1 7004   6.605   1.614   2.685
 2035SOL    HW2 7005   6.513   1.662   2.560
 2036SOL     OW 7006   0.450   5.628   1.360
 2036SOL    HW1 7007   0.533   5.598   1.314
 2036SOL    HW2 7008   0.400   5.548   1.394
 2037SOL     OW 7009   6.998   2.196   5.721
 2037SOL    HW1 7010   0.044   2.191   5.649
 2037SOL    HW2 7011   6.907   2.197   5.679
 2038SOL     OW 7012   1.414   1.608   6.046
 2038SOL    HW1 7013   1.322   1.603   6.006
 2038SOL    HW2 7014   1.434   1.703   6.071
 2039SOL     OW 7015   0.114   6.111   3.732
 2039SOL    HW1 7016   0.187   6.167   3.693
 2039SOL    HW2 7017   0.104   6.132   3.829
 2040SOL     OW 7018   3.426   3.193   4.036
 2040SOL    HW1 7019   3.374   3.278   4.041
 2040SOL    HW2 7020   3.390   3.136   3.961
 2041SOL     OW 7021   6.015   5.163   5.940
 2041SOL    HW1 7022   5.989   5.079   5.891
 2041SOL    HW2 7023   6.024   5.143   6.038
 2042SOL     OW 7024   5.667   5.453   0.905
 2042SOL    HW1 7025   5.596   5.385   0.925
 2042SOL    HW2 7026   5.713   5.479   0.990
 2043SOL     OW 7027   6.432   5.302   2.096
 2043SOL    HW1 7028   6.482   5.313   2.010
 2043SOL    HW2 7029   6.425   5.390   2.142
 2044SOL     OW 7030   5.980   6.939   2.079
 2044SOL    HW1 7031   5.951   6.937   1.983
 2044SOL    HW2 7032   5.995   0.010   2.108
 2045SOL     OW 7033   2.268   4.786   5.611
 2045SOL    HW1 7034   2.327   4.727   5.555
 2045SOL    HW2 7035   2.215   4.846   5.552
 2046SOL     OW 7036   6.944   0.377   4.560
 2046SOL    HW1 7037   6.966   0.466   4.520
 2046SOL    HW2 7038   7.017   0.312   4.541
 2047SOL     OW 7039   4.491   2.057   1.209
 2047SOL    HW1 7040   4.407   2.111   1.209
 2047SOL    HW2 7041   4.480   1.978   1.270
 2048SOL     OW 7042   3.568   6.749   0.011
 2048SOL    HW1 7043   3.634   6.822   7.014
 2048SOL    HW2 7044   3.613   6.660   0.002
 2049SOL     OW 7045   4.794   2.172   6.588
 2049SOL    HW1 7046   4.698   2.144   6.590
 2049SOL    HW2 7047   4.852   2.091   6.579
 2050SOL     OW 7048   6.105   3.111   3.643
 2050SOL    HW1 7049   6.200   3.125   3.614
 2050SOL    HW2 7050   6.098   3.126   3.741
 2051SOL     OW 7051   0.359   5.075   6.410
 2051SOL    HW1 7052   0.338   5.167   6.446
 2051SOL    HW2 7053   0.366   5.011   6.486
 2052SOL     OW 7054   0.417   3.456   6.957
 2052SOL    HW1 7055   0.500   3.404   6.938
 2052SOL    HW2 7056   0.337   3.398   6.940
 2053SOL     OW 7057   6.166   0.078   0.215
 2053SOL    HW1 7058   6.095   0.008   0.230
 2053SOL    HW2 7059   6.235   0.070   0.286
 2054SOL     OW 7060   5.982   2.649   0.956
 2054SOL    HW1 7061   5.883   2.638   0.966
 2054SOL    HW2 7062   6.028   2.592   1.024
 2055SOL     OW 7063   5.390   2.748   3.384
 2055SOL    HW1 7064   5.445   2.805   3.323
 2055SOL    HW2 7065   5.309   2.715   3.335
 2056SOL     OW 7066   2.108   1.581   2.873
 2056SOL    HW1 7067   2.055   1.626   2.945
 2056SOL    HW2 7068   2.141   1.650   2.809
 2057SOL     OW 7069   5.687   2.321   4.129
 2057SOL    HW1 7070   5.646   2.288   4.044
 2057SOL    HW2 7071   5.645   2.273   4.206
 2058SOL     OW 7072   0.866   1.852   3.087
 2058SOL    HW1 7073   0.812   1.776   3.050
 2058SOL    HW2 7074   0.926   1.888   3.015
 2059SOL     OW 7075   2.308   0.117   6.976
 2059SOL    HW1 7076   2.300   0.070   6.888
 2059SOL    HW2 7077   2.390   0.085   0.001
 2060SOL     OW 7078   6.644   4.228   1.298
 2060SOL    HW1 7079   6.575   4.283   1.346
 2060SOL    HW2 7080   6.735   4.258   1.326
 2061SOL     OW 7081   0.283   1.427   2.479
 2061SOL    HW1 7082   0.380   1.446   2.462
 2061SOL    HW2 7083   0.229   1.457   2.400
 2062SOL     OW 7084   5.254   6.849   3.106
 2062SOL    HW1 7085   5.159   6.832   3.132
 2062SOL    HW2 7086   5.311   6.771   3.133
 2063SOL     OW 7087   1.068   1.230   6.869
 2063SOL    HW1 7088   1.052   1.315   6.919
 2063SOL    HW2 7089   1.125   1.248   6.789
 2064SOL     OW 7090   0.847   2.428   6.114
 2064SOL    HW1 7091   0.821   2.398   6.022
 2064SOL    HW2 7092   0.806   2.517   6.133
 2065SOL     OW 7093   5.914   3.522   2.130
 2065SOL    HW1 7094   5.918   3.616   2.163
 2065SOL    HW2 7095   5.844   3.515   2.059
 2066SOL     OW 7096   0.574   5.274   4.519
 2066SOL    HW1 7097   0.543   5.362   4.484
 2066SOL    HW2 7098   0.514   5.246   4.594
 2067SOL     OW 7099   6.930   6.594   0.680
 2067SOL    HW1 7100   0.002   6.604   0.709
 2067SOL    HW2 7101   6.927   6.544   0.593
 2068SOL     OW 7102   1.946   1.219   5.523
 2068SOL    HW1 7103   1.960   1.318   5.526
 2068SOL    HW2 7104   1.883   1.197   5.448
 2069SOL     OW 7105   0.655   2.966   2.579
 2069SOL    HW1 7106   0.624   2.941   2.671
 2069SOL    HW2 7107   0.575   2.986   2.522
 2070SOL     OW 7108   1.677   0.573   2.196
 2070SOL    HW1 7109   1.607   0.645   2.196
 2070SOL    HW2 7110   1.671   0.521   2.111
 2071SOL     OW 7111   0.845   6.634   4.133
 2071SOL    HW1 7112   0.932   6.683   4.139
 2071SOL    HW2 7113   0.771   6.691   4.170
 2072SOL     OW 7114   4.725   5.764   1.820
 2072SOL    HW1 7115   4.761   5.712   1.743
 2072SOL    HW2 7116   4.685   5.701   1.887
 2073SOL     OW 7117   3.700   6.949   4.482
 2073SOL    HW1 7118   3.783   6.895   4.491
 2073SOL    HW2 7119   3.628   6.910   4.539
 2074SOL     OW 7120   0.404   2.053   6.664
 2074SOL    HW1 7121   0.321   2.065   6.610
 2074SOL    HW2 7122   0.379   2.025   6.757
 2075SOL     OW 7123   4.710   3.040   1.462
 2075SOL    HW1 7124   4.789   3.009   1.409
 2075SOL    HW2 7125   4.656   3.103   1.407
 2076SOL     OW 7126   5.456   6.026   6.978
 2076SOL    HW1 7127   5.493   6.091   6.912
 2076SOL    HW2 7128   5.486   5.933   6.954
 2077SOL     OW 7129   5.382   2.643   2.078
 2077SOL    HW1 7130   5.427   2.556   2.059
 2077SOL    HW2 7131   5.378   2.657   2.177
 2078SOL     OW 7132   2.661   6.110   6.586
 2078SOL    HW1 7133   2.754   6.119   6.622
 2078SOL    HW2 7134   2.642   6.187   6.525
 2079SOL     OW 7135   5.655   0.918   3.775
 2079SOL    HW1 7136   5.640   0.941   3.679
 2079SOL    HW2 7137   5.657   0.819   3.786
 2080SOL     OW 7138   2.549   1.493   4.915
 2080SOL    HW1 7139   2.507   1.510   4.826
 2080SOL    HW2 7140   2.629   1.434   4.903
 2081SOL     OW 7141   1.277   5.915   5.206
 2081SOL    HW1 7142   1.214   5.941   5.279
 2081SOL    HW2 7143   1.264   5.976   5.127
 2082SOL     OW 7144   5.971   0.239   1.615
 2082SOL    HW1 7145   6.016   0.172   1.555
 2082SOL    HW2 7146   5.992   0.218   1.710
 2083SOL     OW 7147   4.202   4.458   6.689
 2083SOL    HW1 7148   4.299   4.474   6.706
 2083SOL    HW2 7149   4.189   4.432   6.593
 2084SOL     OW 7150   6.960   3.135   3.823
 2084SOL    HW1 7151   6.917   3.047   3.844
 2084SOL    HW2 7152   6.966   3.146   3.724
 2085SOL     OW 7153   5.310   1.032   6.783
 2085SOL    HW1 7154   5.239   1.071   6.841
 2085SOL    HW2 7155   5.308   0.932   6.789
 2086SOL     OW 7156   2.854   5.717   6.396
 2086SOL    HW1 7157   2.879   5.791   6.334
 2086SOL    HW2 7158   2.912   5.638   6.379
 2087SOL     OW 7159   4.590   6.242   1.990
 2087SOL    HW1 7160   4.685   6.255   1.961
 2087SOL    HW2 7161   4.570   6.305   2.065
 2088SOL     OW 7162   3.163   5.922   0.511
 2088SOL    HW1 7163   3.230   5.899   0.581
 2088SOL    HW2 7164   3.204   5.986   0.445
 2089SOL     OW 7165   4.268   1.415   0.174
 2089SOL    HW1 7166   4.242   1.415   0.077
 2089SOL    HW2 7167   4.301   1.506   0.199
 2090SOL     OW 7168   4.091   3.439   4.266
 2090SOL    HW1 7169   4.061   3.480   4.179
 2090SOL    HW2 7170   4.024   3.461   4.337
 2091SOL     OW 7171   0.462   6.310   0.138
 2091SOL    HW1 7172   0.441   6.222   0.095
 2091SOL    HW2 7173   0.528   6.297   0.211
 2092SOL     OW 7174   5.326   6.045   0.436
 2092SOL    HW1 7175   5.418   6.031   0.399
 2092SOL    HW2 7176   5.331   6.107   0.515
 2093SOL     OW 7177   1.264   1.730   1.720
 2093SOL    HW1 7178   1.316   1.673   1.656
 2093SOL    HW2 7179   1.327   1.792   1.768
 2094SOL     OW 7180   6.140   1.043   1.787
 2094SOL    HW1 7181   6.081   0.965   1.810
 2094SOL    HW2 7182   6.193   1.022   1.705
 2095SOL     OW 7183   5.876   0.119   3.916
 2095SOL    HW1 7184   5.956   0.065   3.890
 2095SOL    HW2 7185   5.869   0.122   4.016
 2096SOL     OW 7186   4.927   4.094   2.837
 2096SOL    HW1 7187   4.872   4.025   2.885
 2096SOL    HW2 7188   4.984   4.050   2.768
 2097SOL     OW 7189   1.235   3.024   6.299
 2097SOL    HW1 7190   1.285   2.999   6.216
 2097SOL    HW2 7191   1.245   2.952   6.367
 2098SOL     OW 7192   3.788   6.003   3.721
 2098SOL    HW1 7193   3.776   5.917   3.672
 2098SOL    HW2 7194   3.796   6.078   3.656
 2099SOL     OW 7195   2.230   1.453   4.908
 2099SOL    HW1 7196   2.218   1.354   4.917
 2099SOL    HW2 7197   2.267   1.473   4.817
 2100SOL     OW 7198   3.964   3.603   6.432
 2100SOL    HW1 7199   4.040   3.639   6.378
 2100SOL    HW2 7200   3.891   3.572   6.371
 2101SOL     OW 7201   1.010   6.661   2.130
 2101SOL    HW1 7202   0.960   6.650   2.216
 2101SOL    HW2 7203   0.947   6.644   2.053
 2102SOL     OW 7204   0.493   5.071   1.875
 2102SOL    HW1 7205   0.423   5.125   1.827
 2102SOL    HW2 7206   0.450   5.022   1.952
 2103SOL     OW 7207   2.457   3.823   0.033
 2103SOL    HW1 7208   2.386   3.823   6.985
 2103SOL    HW2 7209   2.547   3.825   7.012
 2104SOL     OW 7210   1.521   3.625   6.807
 2104SOL    HW1 7211   1.587   3.611   6.733
 2104SOL    HW2 7212   1.552   3.700   6.865
 2105SOL     OW 7213   5.236   5.179   3.548
 2105SOL    HW1 7214   5.313   5.119   3.569
 2105SOL    HW2 7215   5.156   5.150   3.600
 2106SOL     OW 7216   4.050   5.576   0.502
 2106SOL    HW1 7217   4.005   5.580   0.591
 2106SOL    HW2 7218   4.006   5.506   0.445
 2107SOL     OW 7219   4.438   3.239   5.782
 2107SOL    HW1 7220   4.360   3.181   5.805
 2107SOL    HW2 7221   4.521   3.183   5.779
 2108SOL     OW 7222   6.242   6.070   5.878
 2108SOL    HW1 7223   6.325   6.125   5.865
 2108SOL    HW2 7224   6.175   6.122   5.930
 2109SOL     OW 7225   5.099   0.024   3.682
 2109SOL    HW1 7226   5.091   6.948   3.692
 2109SOL    HW2 7227   5.113   0.066   3.771
 2110SOL     OW 7228   3.055   4.027   6.219
 2110SOL    HW1 7229   3.097   3.954   6.272
 2110SOL    HW2 7230   3.122   4.064   6.154
 2111SOL     OW 7231   0.571   1.880   6.466
 2111SOL    HW1 7232   0.515   1.906   6.545
 2111SOL    HW2 7233   0.639   1.813   6.495
 2112SOL     OW 7234   4.471   1.737   1.593
 2112SOL    HW1 7235   4.435   1.675   1.663
 2112SOL    HW2 7236   4.504   1.821   1.637
 2113SOL     OW 7237   1.066   0.112   4.045
 2113SOL    HW1 7238   1.109   0.114   4.135
 2113SOL    HW2 7239   1.043   0.017   4.021
 2114SOL     OW 7240   1.482   3.002   0.425
 2114SOL    HW1 7241   1.398   3.002   0.480
 2114SOL    HW2 7242   1.470   2.943   0.346
 2115SOL     OW 7243   1.901   4.039   2.832
 2115SOL    HW1 7244   1.828   4.102   2.856
 2115SOL    HW2 7245   1.979   4.090   2.796
 2116SOL     OW 7246   7.012   4.100   3.444
 2116SOL    HW1 7247   0.081   4.064   3.427
 2116SOL    HW2 7248   6.966   4.114   3.356
 2117SOL     OW 7249   6.990   4.726   1.889
 2117SOL    HW1 7250   6.996   4.761   1.796
 2117SOL    HW2 7251   6.896   4.697   1.908
 2118SOL     OW 7252   0.430   3.368   2.841
 2118SOL    HW1 7253   0.458   3.323   2.757
 2118SOL    HW2 7254   0.381   3.304   2.899
 2119SOL     OW 7255   2.339   5.715   0.883
 2119SOL    HW1 7256   2.247   5.686   0.857
 2119SOL    HW2 7257   2.334   5.775   0.963
 2120SOL     OW 7258   6.896   5.330   3.354
 2120SOL    HW1 7259   6.858   5.389   3.425
 2120SOL    HW2 7260   6.996   5.336   3.355
 2121SOL     OW 7261   0.994   4.340   5.734
 2121SOL    HW1 7262   1.042   4.253   5.745
 2121SOL    HW2 7263   0.988   4.362   5.637
 2122SOL     OW 7264   6.332   4.041   5.158
 2122SOL    HW1 7265   6.427   4.013   5.168
 2122SOL    HW2 7266   6.320   4.092   5.073
 2123SOL     OW 7267   0.392   4.422   2.774
 2123SOL    HW1 7268   0.314   4.428   2.711
 2123SOL    HW2 7269   0.359   4.408   2.867
 2124SOL     OW 7270   2.076   1.338   1.452
 2124SOL    HW1 7271   2.172   1.335   1.425
 2124SOL    HW2 7272   2.053   1.254   1.501
 2125SOL     OW 7273   1.366   0.566   0.707
 2125SOL    HW1 7274   1.363   0.466   0.707
 2125SOL    HW2 7275   1.304   0.601   0.636
 2126SOL     OW 7276   3.076   0.543   0.895
 2126SOL    HW1 7277   3.043   0.595   0.816
 2126SOL    HW2 7278   3.028   0.455   0.899
 2127SOL     OW 7279   6.165   3.183   4.565
 2127SOL    HW1 7280   6.168   3.142   4.656
 2127SOL    HW2 7281   6.155   3.282   4.574
 2128SOL     OW 7282   0.210   4.511   4.501
 2128SOL    HW1 7283   0.121   4.497   4.544
 2128SOL    HW2 7284   0.209   4.597   4.450
 2129SOL     OW 7285   4.418   2.802   5.632
 2129SOL    HW1 7286   4.397   2.718   5.583
 2129SOL    HW2 7287   4.343   2.867   5.621
 2130SOL     OW 7288   4.872   6.764   2.765
 2130SOL    HW1 7289   4.811   6.841   2.786
 2130SOL    HW2 7290   4.967   6.796   2.766
 2131SOL     OW 7291   0.088   0.897   0.641
 2131SOL    HW1 7292   7.014   0.876   0.630
 2131SOL    HW2 7293   0.141   0.854   0.568
 2132SOL     OW 7294   4.127   2.914   1.174
 2132SOL    HW1 7295   4.189   2.935   1.250
 2132SOL    HW2 7296   4.048   2.863   1.208
 2133SOL     OW 7297   3.019   2.400   5.387
 2133SOL    HW1 7298   3.089   2.391   5.316
 2133SOL    HW2 7299   2.934   2.434   5.347
 2134SOL     OW 7300   0.166   2.072   0.845
 2134SOL    HW1 7301   0.116   1.986   0.832
 2134SOL    HW2 7302   0.250   2.055   0.896
 2135SOL     OW 7303   0.301   4.316   4.301
 2135SOL    HW1 7304   0.267   4.334   4.208
 2135SOL    HW2 7305   0.261   4.382   4.364
 2136SOL     OW 7306   2.767   5.163   2.402
 2136SOL    HW1 7307   2.723   5.233   2.457
 2136SOL    HW2 7308   2.866   5.166   2.415
 2137SOL     OW 7309   3.127   5.075   5.144
 2137SOL    HW1 7310   3.093   5.069   5.238
 2137SOL    HW2 7311   3.112   5.168   5.109
 2138SOL     OW 7312   6.257   0.803   2.773
 2138SOL    HW1 7313   6.329   0.818   2.841
 2138SOL    HW2 7314   6.287   0.840   2.685
 2139SOL     OW 7315   3.872   0.568   4.670
 2139SOL    HW1 7316   3.962   0.610   4.679
 2139SOL    HW2 7317   3.851   0.556   4.573
 2140SOL     OW 7318   3.704   0.200   4.489
 2140SOL    HW1 7319   3.718   0.107   4.524
 2140SOL    HW2 7320   3.638   0.198   4.414
 2141SOL     OW 7321   6.433   3.874   2.299
 2141SOL    HW1 7322   6.461   3.934   2.374
 2141SOL    HW2 7323   6.442   3.779   2.328
 2142SOL     OW 7324   0.897   1.972   3.603
 2142SOL    HW1 7325   0.987   1.992   3.565
 2142SOL    HW2 7326   0.894   2.002   3.699
 2143SOL     OW 7327   2.081   5.331   1.055
 2143SOL    HW1 7328   2.146   5.256   1.069
 2143SOL    HW2 7329   1.990   5.294   1.035
 2144SOL     OW 7330   0.204   5.057   4.374
 2144SOL    HW1 7331   0.188   5.144   4.328
 2144SOL    HW2 7332   0.120   5.026   4.419
 2145SOL     OW 7333   4.058   6.671   4.149
 2145SOL    HW1 7334   4.117   6.732   4.202
 2145SOL    HW2 7335   4.000   6.618   4.212
 2146SOL     OW 7336   2.047   1.948   0.776
 2146SOL    HW1 7337   2.128   1.894   0.751
 2146SOL    HW2 7338   2.034   1.945   0.875
 2147SOL     OW 7339   6.749   1.593   6.057
 2147SOL    HW1 7340   6.748   1.618   6.154
 2147SOL    HW2 7341   6.679   1.523   6.040
 2148SOL     OW 7342   6.993   3.344   6.212
 2148SOL    HW1 7343   7.008   3.247   6.230
 2148SOL    HW2 7344   6.993   3.395   6.298
 2149SOL     OW 7345   1.421   1.438   1.256
 2149SOL    HW1 7346   1.404   1.348   1.217
 2149SOL    HW2 7347   1.440   1.503   1.182
 2150SOL     OW 7348   2.760   2.605   1.701
 2150SOL    HW1 7349   2.696   2.669   1.744
 2150SOL    HW2 7350   2.814   2.559   1.772
 2151SOL     OW 7351   0.835   6.115   6.913
 2151SOL    HW1 7352   0.890   6.033   6.897
 2151SOL    HW2 7353   0.876   6.193   6.866
 2152SOL     OW 7354   3.673   4.982   2.415
 2152SOL    HW1 7355   3.689   4.947   2.323
 2152SOL    HW2 7356   3.576   4.972   2.439
 2153SOL     OW 7357   4.941   1.657   2.631
 2153SOL    HW1 7358   4.942   1.688   2.727
 2153SOL    HW2 7359   5.032   1.624   2.607
 2154SOL     OW 7360   2.727   6.896   3.850
 2154SOL    HW1 7361   2.724   6.878   3.752
 2154SOL    HW2 7362   2.821   6.915   3.878
 2155SOL     OW 7363   4.306   6.726   0.868
 2155SOL    HW1 7364   4.359   6.692   0.790
 2155SOL    HW2 7365   4.305   6.825   0.867
 2156SOL     OW 7366   6.667   0.368   4.521
 2156SOL    HW1 7367   6.606   0.310   4.575
 2156SOL    HW2 7368   6.762   0.343   4.540
 2157SOL     OW 7369   4.775   5.758   3.780
 2157SOL    HW1 7370   4.802   5.794   3.691
 2157SOL    HW2 7371   4.758   5.834   3.843
 2158SOL     OW 7372   4.164   6.495   0.958
 2158SOL    HW1 7373   4.143   6.420   0.895
 2158SOL    HW2 7374   4.194   6.575   0.905
 2159SOL     OW 7375   1.996   0.650   5.240
 2159SOL    HW1 7376   1.896   0.646   5.235
 2159SOL    HW2 7377   2.023   0.668   5.335
 2160SOL     OW 7378   5.009   5.335   6.590
 2160SOL    HW1 7379   5.028   5.312   6.685
 2160SOL    HW2 7380   4.911   5.353   6.579
 2161SOL     OW 7381   6.916   4.188   2.327
 2161SOL    HW1 7382   7.009   4.154   2.309
 2161SOL    HW2 7383   6.863   4.118   2.373
 2162SOL     OW 7384   2.676   0.013   2.979
 2162SOL    HW1 7385   2.579   0.013   3.002
 2162SOL    HW2 7386   2.714   6.944   2.996
 2163SOL     OW 7387   1.884   3.691   0.234
 2163SOL    HW1 7388   1.887   3.722   0.329
 2163SOL    HW2 7389   1.974   3.657   0.207
 2164SOL     OW 7390   2.610   2.669   6.928
 2164SOL    HW1 7391   2.526   2.700   6.883
 2164SOL    HW2 7392   2.663   2.748   6.958
 2165SOL     OW 7393   0.577   1.756   4.076
 2165SOL    HW1 7394   0.559   1.834   4.016
 2165SOL    HW2 7395   0.547   1.777   4.169
 2166SOL     OW 7396   0.154   4.432   4.085
 2166SOL    HW1 7397   0.066   4.416   4.131
 2166SOL    HW2 7398   0.151   4.392   3.993
 2167SOL     OW 7399   0.549   2.772   3.727
 2167SOL    HW1 7400   0.610   2.800   3.802
 2167SOL    HW2 7401   0.561   2.833   3.649
 2168SOL     OW 7402   0.705   2.050   2.757
 2168SOL    HW1 7403   0.655   2.105   2.690
 2168SOL    HW2 7404   0.642   2.017   2.827
 2169SOL     OW 7405   0.133   0.310   0.851
 2169SOL    HW1 7406   0.068   0.285   0.922
 2169SOL    HW2 7407   0.146   0.232   0.789
 2170SOL     OW 7408   0.025   4.249   4.361
 2170SOL    HW1 7409   0.108   4.234   4.306
 2170SOL    HW2 7410   0.044   4.315   4.434
 2171SOL     OW 7411   0.629   5.853   1.415
 2171SOL    HW1 7412   0.589   5.941   1.387
 2171SOL    HW2 7413   0.584   5.779   1.365
 2172SOL     OW 7414   2.018   1.853   5.897
 2172SOL    HW1 7415   2.020   1.842   5.996
 2172SOL    HW2 7416   2.084   1.923   5.870
 2173SOL     OW 7417   5.332   0.443   5.858
 2173SOL    HW1 7418   5.391   0.503   5.803
 2173SOL    HW2 7419   5.238   0.447   5.822
 2174SOL     OW 7420   6.980   6.461   4.817
 2174SOL    HW1 7421   6.999   6.542   4.873
 2174SOL    HW2 7422   0.039   6.403   4.814
 2175SOL     OW 7423   1.758   2.936   4.768
 2175SOL    HW1 7424   1.729   2.918   4.862
 2175SOL    HW2 7425   1.849   2.977   4.768
 2176SOL     OW 7426   5.066   2.111   1.090
 2176SOL    HW1 7427   5.092   2.207   1.082
 2176SOL    HW2 7428   4.976   2.104   1.133
 2177SOL     OW 7429   6.332   0.384   2.150
 2177SOL    HW1 7430   6.248   0.432   2.125
 2177SOL    HW2 7431   6.407   0.449   2.155
 2178SOL     OW 7432   1.312   1.198   2.342
 2178SOL    HW1 7433   1.392   1.253   2.366
 2178SOL    HW2 7434   1.263   1.241   2.267
 2179SOL     OW 7435   1.838   3.169   6.183
 2179SOL    HW1 7436   1.824   3.258   6.227
 2179SOL    HW2 7437   1.936   3.153   6.171
 2180SOL     OW 7438   1.819   3.336   1.983
 2180SOL    HW1 7439   1.905   3.343   2.033
 2180SOL    HW2 7440   1.837   3.331   1.885
 2181SOL     OW 7441   4.655   5.137   4.255
 2181SOL    HW1 7442   4.675   5.123   4.158
 2181SOL    HW2 7443   4.693   5.225   4.284
 2182SOL     OW 7444   0.716   4.892   3.654
 2182SOL    HW1 7445   0.684   4.822   3.591
 2182SOL    HW2 7446   0.667   4.977   3.638
 2183SOL     OW 7447   2.428   3.861   0.552
 2183SOL    HW1 7448   2.383   3.943   0.587
 2183SOL    HW2 7449   2.434   3.866   0.452
 2184SOL     OW 7450   4.483   0.217   6.553
 2184SOL    HW1 7451   4.570   0.178   6.523
 2184SOL    HW2 7452   4.435   0.256   6.474
 2185SOL     OW 7453   1.275   1.028   6.921
 2185SOL    HW1 7454   1.313   0.971   6.848
 2185SOL    HW2 7455   1.229   1.107   6.880
 2186SOL     OW 7456   6.080   5.795   6.053
 2186SOL    HW1 7457   5.990   5.833   6.037
 2186SOL    HW2 7458   6.122   5.770   5.965
 2187SOL     OW 7459   0.207   6.068   2.465
 2187SOL    HW1 7460   0.221   5.979   2.509
 2187SOL    HW2 7461   0.144   6.057   2.388
 2188SOL     OW 7462   2.095   5.153   5.989
 2188SOL    HW1 7463   2.019   5.198   5.942
 2188SOL    HW2 7464   2.074   5.147   6.087
 2189SOL     OW 7465   1.800   0.704   2.005
 2189SOL    HW1 7466   1.780   0.764   1.927
 2189SOL    HW2 7467   1.719   0.695   2.062
 2190SOL     OW 7468   6.678   3.717   2.098
 2190SOL    HW1 7469   6.651   3.798   2.047
 2190SOL    HW2 7470   6.698   3.741   2.193
 2191SOL     OW 7471   2.815   1.466   5.511
 2191SOL    HW1 7472   2.909   1.446   5.537
 2191SOL    HW2 7473   2.795   1.424   5.422
 2192SOL     OW 7474   5.368   0.105   2.665
 2192SOL    HW1 7475   5.427   0.061   2.732
 2192SOL    HW2 7476   5.275   0.111   2.701
 2193SOL     OW 7477   6.559   0.188   6.073
 2193SOL    HW1 7478   6.516   0.185   5.982
 2193SOL    HW2 7479   6.643   0.241   6.069
 2194SOL     OW 7480   0.538   4.090   5.816
 2194SOL    HW1 7481   0.600   4.058   5.745
 2194SOL    HW2 7482   0.549   4.033   5.898
 2195SOL     OW 7483   7.011   6.506   5.326
 2195SOL    HW1 7484   0.028   6.481   5.238
 2195SOL    HW2 7485   0.047   6.472   5.400
 2196SOL     OW 7486   3.105   6.609   5.115
 2196SOL    HW1 7487   3.166   6.677   5.073
 2196SOL    HW2 7488   3.159   6.538   5.159
 2197SOL     OW 7489   2.751   3.457   6.421
 2197SOL    HW1 7490   2.769   3.454   6.322
 2197SOL    HW2 7491   2.655   3.480   6.436
 2198SOL     OW 7492   6.201   0.004   1.056
 2198SOL    HW1 7493   6.182   6.979   0.971
 2198SOL    HW2 7494   6.153   6.982   1.132
 2199SOL     OW 7495   5.251   0.163   5.265
 2199SOL    HW1 7496   5.307   0.109   5.201
 2199SOL    HW2 7497   5.311   0.222   5.319
 2200SOL     OW 7498   2.585   1.336   3.927
 2200SOL    HW1 7499   2.582   1.399   4.004
 2200SOL    HW2 7500   2.493   1.305   3.905
 2201SOL     OW 7501   6.222   2.945   2.763
 2201SOL    HW1 7502   6.240   3.017   2.696
 2201SOL    HW2 7503   6.308   2.902   2.790
 2202SOL     OW 7504   3.370   5.493   2.288
 2202SOL    HW1 7505   3.279   5.454   2.294
 2202SOL    HW2 7506   3.435   5.423   2.258
 2203SOL     OW 7507   2.592   3.576   1.463
 2203SOL    HW1 7508   2.603   3.478   1.478
 2203SOL    HW2 7509   2.508   3.607   1.507
 2204SOL     OW 7510   4.629   2.629   0.679
 2204SOL    HW1 7511   4.673   2.708   0.636
 2204SOL    HW2 7512   4.570   2.660   0.753
 2205SOL     OW 7513   1.537   0.301   0.099
 2205SOL    HW1 7514   1.526   0.340   0.190
 2205SOL    HW2 7515   1.544   0.374   0.031
 2206SOL     OW 7516   1.845   4.128   6.401
 2206SOL    HW1 7517   1.862   4.052   6.463
 2206SOL    HW2 7518   1.815   4.093   6.313
 2207SOL     OW 7519   3.596   5.037   0.424
 2207SOL    HW1 7520   3.624   5.003   0.334
 2207SOL    HW2 7521   3.514   4.988   0.455
 2208SOL     OW 7522   0.506   5.486   2.756
 2208SOL    HW1 7523   0.527   5.579   2.784
 2208SOL    HW2 7524   0.585   5.427   2.772
 2209SOL     OW 7525   2.965   6.176   4.641
 2209SOL    HW1 7526   2.904   6.254   4.652
 2209SOL    HW2 7527   2.919   6.105   4.589
 2210SOL     OW 7528   6.546   5.681   2.939
 2210SOL    HW1 7529   6.588   5.605   2.989
 2210SOL    HW2 7530   6.608   5.711   2.867
 2211SOL     OW 7531   6.186   0.733   0.825
 2211SOL    HW1 7532   6.221   0.693   0.740
 2211SOL    HW2 7533   6.089   0.756   0.813
 2212SOL     OW 7534   1.966   5.545   6.804
 2212SOL    HW1 7535   1.921   5.491   6.733
 2212SOL    HW2 7536   2.063   5.556   6.782
 2213SOL     OW 7537   4.430   2.540   5.520
 2213SOL    HW1 7538   4.469   2.463   5.470
 2213SOL    HW2 7539   4.397   2.509   5.609
 2214SOL     OW 7540   2.874   3.455   4.706
 2214SOL    HW1 7541   2.964   3.500   4.713
 2214SOL    HW2 7542   2.827   3.463   4.794
 2215SOL     OW 7543   5.753   1.579   6.458
 2215SOL    HW1 7544   5.810   1.633   6.396
 2215SOL    HW2 7545   5.697   1.640   6.514
 2216SOL     OW 7546   6.954   0.466   5.530
 2216SOL    HW1 7547   6.972   0.551   5.481
 2216SOL    HW2 7548   7.020   0.396   5.502
 2217SOL     OW 7549   4.242   6.925   2.879
 2217SOL    HW1 7550   4.191   6.991   2.935
 2217SOL    HW2 7551   4.184   6.895   2.803
 2218SOL     OW 7552   0.006   5.080   6.655
 2218SOL    HW1 7553   0.011   5.121   6.747
 2218SOL    HW2 7554   0.061   5.135   6.592
 2219SOL     OW 7555   6.370   2.310   0.955
 2219SOL    HW1 7556   6.270   2.303   0.962
 2219SOL    HW2 7557   6.401   2.264   0.872
 2220SOL     OW 7558   1.433   5.677   5.514
 2220SOL    HW1 7559   1.397   5.655   5.424
 2220SOL    HW2 7560   1.511   5.617   5.534
 2221SOL     OW 7561   6.894   1.854   5.081
 2221SOL    HW1 7562   6.872   1.887   5.173
 2221SOL    HW2 7563   6.826   1.886   5.016
 2222SOL     OW 7564   6.142   0.227   0.764
 2222SOL    HW1 7565   6.134   0.302   0.698
 2222SOL    HW2 7566   6.207   0.252   0.835
 2223SOL     OW 7567   6.331   1.494   6.507
 2223SOL    HW1 7568   6.248   1.439   6.511
 2223SOL    HW2 7569   6.310   1.584   6.470
 2224SOL     OW 7570   6.129   3.373   2.182
 2224SOL    HW1 7571   6.188   3.331   2.113
 2224SOL    HW2 7572   6.059   3.429   2.136
 2225SOL     OW 7573   6.742   6.817   3.304
 2225SOL    HW1 7574   6.802   6.738   3.315
 2225SOL    HW2 7575   6.797   6.901   3.304
 2226SOL     OW 7576   3.949   5.687   0.792
 2226SOL    HW1 7577   3.975   5.591   0.778
 2226SOL    HW2 7578   4.032   5.741   0.806
 2227SOL     OW 7579   4.870   2.673   1.684
 2227SOL    HW1 7580   4.820   2.712   1.607
 2227SOL    HW2 7581   4.807   2.624   1.744
 2228SOL     OW 7582   4.261   5.529   0.211
 2228SOL    HW1 7583   4.350   5.484   0.215
 2228SOL    HW2 7584   4.266   5.617   0.257
 2229SOL     OW 7585   3.722   3.419   4.873
 2229SOL    HW1 7586   3.650   3.375   4.926
 2229SOL    HW2 7587   3.805   3.364   4.876
 2230SOL     OW 7588   5.393   6.392   0.954
 2230SOL    HW1 7589   5.366   6.414   1.048
 2230SOL    HW2 7590   5.468   6.326   0.956
 2231SOL     OW 7591   0.657   0.542   6.879
 2231SOL    HW1 7592   0.701   0.468   6.828
 2231SOL    HW2 7593   0.562   0.552   6.848
 2232SOL     OW 7594   1.132   1.607   5.119
 2232SOL    HW1 7595   1.162   1.533   5.059
 2232SOL    HW2 7596   1.052   1.652   5.078
 2233SOL     OW 7597   2.673   3.163   0.896
 2233SOL    HW1 7598   2.747   3.126   0.953
 2233SOL    HW2 7599   2.592   3.105   0.905
 2234SOL     OW 7600   3.552   1.289   0.967
 2234SOL    HW1 7601   3.454   1.309   0.974
 2234SOL    HW2 7602   3.590   1.336   0.887
 2235SOL     OW 7603   2.454   0.202   1.658
 2235SOL    HW1 7604   2.463   0.263   1.737
 2235SOL    HW2 7605   2.400   0.122   1.684
 2236SOL     OW 7606   1.742   3.392   6.313
 2236SOL    HW1 7607   1.745   3.483   6.270
 2236SOL    HW2 7608   1.757   3.402   6.412
 2237SOL     OW 7609   6.063   4.706   4.558
 2237SOL    HW1 7610   5.971   4.699   4.597
 2237SOL    HW2 7611   6.087   4.620   4.513
 2238SOL     OW 7612   4.359   5.098   2.615
 2238SOL    HW1 7613   4.279   5.040   2.599
 2238SOL    HW2 7614   4.372   5.158   2.537
 2239SOL     OW 7615   4.753   5.953   3.955
 2239SOL    HW1 7616   4.683   5.997   4.010
 2239SOL    HW2 7617   4.831   6.015   3.945
 2240SOL     OW 7618   3.519   5.262   3.028
 2240SOL    HW1 7619   3.491   5.167   3.014
 2240SOL    HW2 7620   3.465   5.302   3.103
 2241SOL     OW 7621   6.954   6.522   1.649
 2241SOL    HW1 7622   6.961   6.617   1.616
 2241SOL    HW2 7623   6.858   6.499   1.666
 2242SOL     OW 7624   5.003   3.493   2.875
 2242SOL    HW1 7625   4.967   3.512   2.784
 2242SOL    HW2 7626   5.089   3.443   2.867
 2243SOL     OW 7627   2.121   6.875   6.938
 2243SOL    HW1 7628   2.027   6.908   6.940
 2243SOL    HW2 7629   2.145   6.849   6.844
 2244SOL     OW 7630   3.067   6.865   1.816
 2244SOL    HW1 7631   3.130   6.825   1.882
 2244SOL    HW2 7632   3.014   6.793   1.772
 2245SOL     OW 7633   0.529   1.587   1.357
 2245SOL    HW1 7634   0.506   1.580   1.454
 2245SOL    HW2 7635   0.578   1.505   1.329
 2246SOL     OW 7636   2.105   1.062   4.256
 2246SOL    HW1 7637   2.159   1.113   4.323
 2246SOL    HW2 7638   2.163   0.996   4.209
 2247SOL     OW 7639   2.974   3.787   3.184
 2247SOL    HW1 7640   2.949   3.720   3.114
 2247SOL    HW2 7641   2.955   3.750   3.275
 2248SOL     OW 7642   6.533   3.557   4.702
 2248SOL    HW1 7643   6.604   3.520   4.642
 2248SOL    HW2 7644   6.526   3.656   4.689
 2249SOL     OW 7645   5.072   6.768   3.774
 2249SOL    HW1 7646   4.991   6.797   3.825
 2249SOL    HW2 7647   5.137   6.724   3.835
 2250SOL     OW 7648   3.231   3.748   5.237
 2250SOL    HW1 7649   3.204   3.799   5.319
 2250SOL    HW2 7650   3.318   3.784   5.202
 2251SOL     OW 7651   5.075   0.200   6.132
 2251SOL    HW1 7652   5.072   0.275   6.067
 2251SOL    HW2 7653   5.144   0.134   6.104
 2252SOL     OW 7654   4.694   1.477   3.039
 2252SOL    HW1 7655   4.685   1.392   3.091
 2252SOL    HW2 7656   4.782   1.476   2.990
 2253SOL     OW 7657   6.952   3.377   0.177
 2253SOL    HW1 7658   0.005   3.321   0.210
 2253SOL    HW2 7659   6.866   3.343   0.215
 2254SOL     OW 7660   2.983   3.169   4.103
 2254SOL    HW1 7661   3.004   3.245   4.165
 2254SOL    HW2 7662   2.884   3.157   4.097
 2255SOL     OW 7663   3.341   3.737   5.788
 2255SOL    HW1 7664   3.436   3.752   5.759
 2255SOL    HW2 7665   3.281   3.738   5.708
 2256SOL     OW 7666   5.315   7.001   2.392
 2256SOL    HW1 7667   5.295   0.076   2.387
 2256SOL    HW2 7668   5.328   6.974   2.488
 2257SOL     OW 7669   0.388   1.607   4.309
 2257SOL    HW1 7670   0.430   1.696   4.325
 2257SOL    HW2 7671   0.438   1.536   4.359
 2258SOL     OW 7672   1.211   5.571   4.745
 2258SOL    HW1 7673   1.273   5.647   4.727
 2258SOL    HW2 7674   1.117   5.599   4.727
 2259SOL     OW 7675   5.483   2.661   5.302
 2259SOL    HW1 7676   5.496   2.599   5.379
 2259SOL    HW2 7677   5.392   2.646   5.261
 2260SOL     OW 7678   0.292   3.594   1.164
 2260SOL    HW1 7679   0.306   3.561   1.070
 2260SOL    HW2 7680   0.259   3.688   1.162
 2261SOL     OW 7681   6.494   5.146   0.563
 2261SOL    HW1 7682   6.532   5.159   0.655
 2261SOL    HW2 7683   6.557   5.183   0.495
 2262SOL     OW 7684   6.029   6.963   2.740
 2262SOL    HW1 7685   5.956   7.002   2.796
 2262SOL    HW2 7686   6.113   6.958   2.794
 2263SOL     OW 7687   2.277   6.234   0.121
 2263SOL    HW1 7688   2.287   6.256   0.024
 2263SOL    HW2 7689   2.191   6.185   0.135
 2264SOL     OW 7690   2.989   6.395   6.281
 2264SOL    HW1 7691   3.023   6.452   6.355
 2264SOL    HW2 7692   3.043   6.311   6.276
 2265SOL     OW 7693   1.949   0.844   4.377
 2265SOL    HW1 7694   1.990   0.913   4.318
 2265SOL    HW2 7695   1.878   0.886   4.434
 2266SOL     OW 7696   5.007   2.000   6.121
 2266SOL    HW1 7697   4.914   2.029   6.098
 2266SOL    HW2 7698   5.053   1.968   6.038
 2267SOL     OW 7699   4.831   3.151   5.249
 2267SOL    HW1 7700   4.734   3.135   5.268
 2267SOL    HW2 7701   4.876   3.064   5.230
 2268SOL     OW 7702   6.183   4.518   6.399
 2268SOL    HW1 7703   6.167   4.422   6.380
 2268SOL    HW2 7704   6.107   4.573   6.364
 2269SOL     OW 7705   0.804   3.573   5.396
 2269SOL    HW1 7706   0.741   3.630   5.343
 2269SOL    HW2 7707   0.801   3.600   5.492
 2270SOL     OW 7708   4.011   2.816   5.974
 2270SOL    HW1 7709   4.098   2.864   5.978
 2270SOL    HW2 7710   3.940   2.871   6.018
 2271SOL     OW 7711   5.739   4.524   0.015
 2271SOL    HW1 7712   5.782   4.482   0.095
 2271SOL    HW2 7713   5.777   4.616   0.001
 2272SOL     OW 7714   5.724   1.090   6.862
 2272SOL    HW1 7715   5.784   1.170   6.853
 2272SOL    HW2 7716   5.651   1.094   6.794
 2273SOL     OW 7717   1.187   2.023   1.923
 2273SOL    HW1 7718   1.203   2.087   1.848
 2273SOL    HW2 7719   1.268   1.967   1.937
 2274SOL     OW 7720   0.339   1.644   6.724
 2274SOL    HW1 7721   0.363   1.598   6.639
 2274SOL    HW2 7722   0.267   1.592   6.771
 2275SOL     OW 7723   6.083   6.936   3.182
 2275SOL    HW1 7724   6.135   6.887   3.112
 2275SOL    HW2 7725   6.118   6.913   3.272
 2276SOL     OW 7726   2.275   5.703   1.893
 2276SOL    HW1 7727   2.180   5.713   1.922
 2276SOL    HW2 7728   2.310   5.615   1.925
 2277SOL     OW 7729   3.737   4.084   4.562
 2277SOL    HW1 7730   3.815   4.083   4.499
 2277SOL    HW2 7731   3.711   3.990   4.584
 2278SOL     OW 7732   5.810   3.029   4.012
 2278SOL    HW1 7733   5.768   2.939   4.023
 2278SOL    HW2 7734   5.853   3.035   3.922
 2279SOL     OW 7735   5.888   0.143   5.085
 2279SOL    HW1 7736   5.867   0.067   5.146
 2279SOL    HW2 7737   5.970   0.190   5.117
 2280SOL     OW 7738   6.594   6.820   4.483
 2280SOL    HW1 7739   6.496   6.828   4.500
 2280SOL    HW2 7740   6.645   6.834   4.568
 2281SOL     OW 7741   3.410   0.773   1.872
 2281SOL    HW1 7742   3.340   0.752   1.804
 2281SOL    HW2 7743   3.475   0.697   1.879
 2282SOL     OW 7744   5.328   6.431   5.762
 2282SOL    HW1 7745   5.410   6.392   5.720
 2282SOL    HW2 7746   5.258   6.360   5.772
 2283SOL     OW 7747   1.783   0.126   1.619
 2283SOL    HW1 7748   1.813   0.032   1.600
 2283SOL    HW2 7749   1.802   0.148   1.715
 2284SOL     OW 7750   1.370   3.352   6.613
 2284SOL    HW1 7751   1.388   3.254   6.603
 2284SOL    HW2 7752   1.359   3.374   6.709
 2285SOL     OW 7753   0.837   2.867   0.506
 2285SOL    HW1 7754   0.801   2.956   0.533
 2285SOL    HW2 7755   0.935   2.864   0.525
 2286SOL     OW 7756   5.381   0.212   3.507
 2286SOL    HW1 7757   5.445   0.142   3.538
 2286SOL    HW2 7758   5.299   0.169   3.471
 2287SOL     OW 7759   2.244   0.310   3.659
 2287SOL    HW1 7760   2.334   0.282   3.691
 2287SOL    HW2 7761   2.205   0.377   3.722
 2288SOL     OW 7762   6.280   4.993   3.727
 2288SOL    HW1 7763   6.191   5.013   3.685
 2288SOL    HW2 7764   6.283   4.898   3.755
 2289SOL     OW 7765   0.134   5.064   0.784
 2289SOL    HW1 7766   0.163   4.988   0.726
 2289SOL    HW2 7767   0.096   5.029   0.869
 2290SOL     OW 7768   0.599   3.596   1.186
 2290SOL    HW1 7769   0.632   3.679   1.142
 2290SOL    HW2 7770   0.500   3.588   1.171
 2291SOL     OW 7771   2.410   2.337   5.787
 2291SOL    HW1 7772   2.311   2.346   5.784
 2291SOL    HW2 7773   2.438   2.314   5.881
 2292SOL     OW 7774   1.054   2.050   4.598
 2292SOL    HW1 7775   1.143   2.078   4.634
 2292SOL    HW2 7776   1.021   1.971   4.649
 2293SOL     OW 7777   4.906   6.659   1.663
 2293SOL    HW1 7778   4.852   6.643   1.746
 2293SOL    HW2 7779   4.997   6.620   1.675
 2294SOL     OW 7780   3.148   0.598   0.245
 2294SOL    HW1 7781   3.241   0.584   0.276
 2294SOL    HW2 7782   3.136   0.693   0.216
 2295SOL     OW 7783   0.557   1.717   2.647
 2295SOL    HW1 7784   0.639   1.714   2.704
 2295SOL    HW2 7785   0.534   1.812   2.625
 2296SOL     OW 7786   3.631   5.893   0.595
 2296SOL    HW1 7787   3.628   5.989   0.564
 2296SOL    HW2 7788   3.626   5.833   0.515
 2297SOL     OW 7789   3.664   4.046   5.301
 2297SOL    HW1 7790   3.646   4.096   5.217
 2297SOL    HW2 7791   3.759   4.060   5.329
 2298SOL     OW 7792   4.195   2.899   1.580
 2298SOL    HW1 7793   4.286   2.862   1.565
 2298SOL    HW2 7794   4.198   2.999   1.576
 2299SOL     OW 7795   5.309   0.018   6.751
 2299SOL    HW1 7796   5.404   0.024   6.719
 2299SOL    HW2 7797   5.265   6.962   6.708
 2300SOL     OW 7798   2.673   4.649   1.521
 2300SOL    HW1 7799   2.754   4.697   1.554
 2300SOL    HW2 7800   2.674   4.648   1.421
 2301SOL     OW 7801   2.866   3.478   3.214
 2301SOL    HW1 7802   2.872   3.379   3.207
 2301SOL    HW2 7803   2.810   3.502   3.293
 2302SOL     OW 7804   3.490   6.690   1.660
 2302SOL    HW1 7805   3.506   6.659   1.754
 2302SOL    HW2 7806   3.469   6.787   1.660
 2303SOL     OW 7807   1.790   3.389   6.619
 2303SOL    HW1 7808   1.755   3.298   6.642
 2303SOL    HW2 7809   1.777   3.451   6.696
 2304SOL     OW 7810   3.349   0.290   3.191
 2304SOL    HW1 7811   3.264   0.239   3.205
 2304SOL    HW2 7812   3.327   0.386   3.174
 2305SOL     OW 7813   3.030   6.373   2.882
 2305SOL    HW1 7814   2.985   6.437   2.945
 2305SOL    HW2 7815   3.102   6.421   2.832
 2306SOL     OW 7816   2.191   5.154   2.103
 2306SOL    HW1 7817   2.128   5.223   2.139
 2306SOL    HW2 7818   2.141   5.093   2.042
 2307SOL     OW 7819   1.621   3.762   2.504
 2307SOL    HW1 7820   1.647   3.715   2.588
 2307SOL    HW2 7821   1.678   3.844   2.493
 2308SOL     OW 7822   1.488   6.599   0.023
 2308SOL    HW1 7823   1.391   6.594   0.047
 2308SOL    HW2 7824   1.501   6.559   6.955
 2309SOL     OW 7825   3.075   6.756   7.016
 2309SOL    HW1 7826   3.061   6.757   6.916
 2309SOL    HW2 7827   3.131   6.834   0.020
 2310SOL     OW 7828   5.829   6.061   1.811
 2310SOL    HW1 7829   5.871   6.137   1.762
 2310SOL    HW2 7830   5.891   6.027   1.881
 2311SOL     OW 7831   2.686   6.340   2.558
 2311SOL    HW1 7832   2.697   6.310   2.463
 2311SOL    HW2 7833   2.643   6.268   2.611
 2312SOL     OW 7834   3.895   6.277   4.104
 2312SOL    HW1 7835   3.842   6.203   4.062
 2312SOL    HW2 7836   3.943   6.328   4.032
 2313SOL     OW 7837   5.230   5.275   2.335
 2313SOL    HW1 7838   5.250   5.371   2.358
 2313SOL    HW2 7839   5.138   5.268   2.297
 2314SOL     OW 7840   5.488   1.058   4.332
 2314SOL    HW1 7841   5.511   0.986   4.267
 2314SOL    HW2 7842   5.550   1.135   4.320
 2315SOL     OW 7843   5.088   3.568   4.988
 2315SOL    HW1 7844   5.007   3.549   5.043
 2315SOL    HW2 7845   5.090   3.506   4.909
 2316SOL     OW 7846   2.963   0.732   4.708
 2316SOL    HW1 7847   2.885   0.788   4.682
 2316SOL    HW2 7848   2.965   0.722   4.807
 2317SOL     OW 7849   6.288   6.200   3.313
 2317SOL    HW1 7850   6.249   6.244   3.232
 2317SOL    HW2 7851   6.269   6.256   3.394
 2318SOL     OW 7852   2.155   3.389   4.263
 2318SOL    HW1 7853   2.166   3.291   4.245
 2318SOL    HW2 7854   2.112   3.433   4.184
 2319SOL     OW 7855   3.019   5.294   5.024
 2319SOL    HW1 7856   3.048   5.254   4.937
 2319SOL    HW2 7857   3.035   5.392   5.023
 2320SOL     OW 7858   1.560   2.544   5.263
 2320SOL    HW1 7859   1.537   2.641   5.260
 2320SOL    HW2 7860   1.477   2.489   5.254
 2321SOL     OW 7861   1.727   5.171   0.078
 2321SOL    HW1 7862   1.676   5.235   0.135
 2321SOL    HW2 7863   1.825   5.192   0.085
 2322SOL     OW 7864   1.897   4.382   2.866
 2322SOL    HW1 7865   1.823   4.325   2.829
 2322SOL    HW2 7866   1.873   4.412   2.958
 2323SOL     OW 7867   3.155   4.715   1.565
 2323SOL    HW1 7868   3.217   4.640   1.588
 2323SOL    HW2 7869   3.196   4.802   1.594
 2324SOL     OW 7870   6.740   5.758   0.471
 2324SOL    HW1 7871   6.685   5.837   0.500
 2324SOL    HW2 7872   6.712   5.677   0.522
 2325SOL     OW 7873   0.811   4.255   1.378
 2325SOL    HW1 7874   0.896   4.293   1.415
 2325SOL    HW2 7875   0.736   4.319   1.394
 2326SOL     OW 7876   1.746   6.730   6.835
 2326SOL    HW1 7877   1.720   6.644   6.791
 2326SOL    HW2 7878   1.789   6.712   6.923
 2327SOL     OW 7879   6.795   1.438   3.518
 2327SOL    HW1 7880   6.869   1.427   3.584
 2327SOL    HW2 7881   6.743   1.521   3.540
 2328SOL     OW 7882   1.701   1.318   2.948
 2328SOL    HW1 7883   1.626   1.348   3.007
 2328SOL    HW2 7884   1.755   1.249   2.995
 2329SOL     OW 7885   1.372   4.245   4.633
 2329SOL    HW1 7886   1.443   4.315   4.636
 2329SOL    HW2 7887   1.411   4.160   4.596
 2330SOL     OW 7888   0.306   2.745   1.351
 2330SOL    HW1 7889   0.329   2.814   1.419
 2330SOL    HW2 7890   0.242   2.783   1.285
 2331SOL     OW 7891   4.292   5.135   0.169
 2331SOL    HW1 7892   4.301   5.132   0.070
 2331SOL    HW2 7893   4.377   5.170   0.209
 2332SOL     OW 7894   6.798   0.227   5.066
 2332SOL    HW1 7895   6.749   0.285   5.001
 2332SOL    HW2 7896   6.805   0.134   5.031
 2333SOL     OW 7897   0.216   3.930   3.375
 2333SOL    HW1 7898   0.260   3.868   3.440
 2333SOL    HW2 7899   0.143   3.882   3.327
 2334SOL     OW 7900   2.051   0.765   6.304
 2334SOL    HW1 7901   2.113   0.686   6.307
 2334SOL    HW2 7902   2.041   0.803   6.396
 2335SOL     OW 7903   6.053   0.809   4.320
 2335SOL    HW1 7904   6.115   0.811   4.241
 2335SOL    HW2 7905   6.063   0.893   4.372
 2336SOL     OW 7906   3.974   1.427   4.535
 2336SOL    HW1 7907   3.909   1.498   4.510
 2336SOL    HW2 7908   3.925   1.343   4.559
 2337SOL     OW 7909   4.030   0.171   1.495
 2337SOL    HW1 7910   4.036   0.258   1.544
 2337SOL    HW2 7911   4.118   0.124   1.501
 2338SOL     OW 7912   0.467   2.894   5.139
 2338SOL    HW1 7913   0.440   2.944   5.221
 2338SOL    HW2 7914   0.512   2.809   5.164
 2339SOL     OW 7915   3.090   4.003   3.055
 2339SOL    HW1 7916   3.058   3.987   2.961
 2339SOL    HW2 7917   3.052   3.934   3.116
 2340SOL     OW 7918   6.918   4.293   6.494
 2340SOL    HW1 7919   6.824   4.273   6.522
 2340SOL    HW2 7920   6.919   4.371   6.433
 2341SOL     OW 7921   2.971   4.812   2.103
 2341SOL    HW1 7922   2.895   4.877   2.099
 2341SOL    HW2 7923   2.940   4.723   2.068
 2342SOL     OW 7924   0.962   6.514   5.770
 2342SOL    HW1 7925   0.992   6.448   5.701
 2342SOL    HW2 7926   0.979   6.607   5.738
 2343SOL     OW 7927   1.539   5.016   2.791
 2343SOL    HW1 7928   1.586   5.009   2.703
 2343SOL    HW2 7929   1.489   4.932   2.809
 2344SOL     OW 7930   0.953   5.645   6.842
 2344SOL    HW1 7931   0.890   5.569   6.854
 2344SOL    HW2 7932   1.042   5.610   6.812
 2345SOL     OW 7933   3.087   5.691   5.262
 2345SOL    HW1 7934   3.000   5.738   5.250
 2345SOL    HW2 7935   3.149   5.716   5.187
 2346SOL     OW 7936   3.614   3.792   5.321
 2346SOL    HW1 7937   3.570   3.740   5.394
 2346SOL    HW2 7938   3.622   3.888   5.349
 2347SOL     OW 7939   3.328   2.103   1.546
 2347SOL    HW1 7940   3.404   2.097   1.612
 2347SOL    HW2 7941   3.335   2.189   1.495
 2348SOL     OW 7942   2.489   6.805   3.956
 2348SOL    HW1 7943   2.467   6.769   3.866
 2348SOL    HW2 7944   2.581   6.845   3.955
 2349SOL     OW 7945   1.169   4.977   5.800
 2349SOL    HW1 7946   1.186   5.068   5.761
 2349SOL    HW2 7947   1.072   4.957   5.797
 2350SOL     OW 7948   6.337   6.514   6.162
 2350SOL    HW1 7949   6.398   6.528   6.240
 2350SOL    HW2 7950   6.319   6.417   6.150
 2351SOL     OW 7951   2.535   5.158   4.591
 2351SOL    HW1 7952   2.634   5.165   4.604
 2351SOL    HW2 7953   2.516   5.118   4.502
 2352SOL     OW 7954   0.512   4.196   2.641
 2352SOL    HW1 7955   0.551   4.109   2.670
 2352SOL    HW2 7956   0.478   4.246   2.721
 2353SOL     OW 7957   3.462   5.349   5.125
 2353SOL    HW1 7958   3.499   5.386   5.210
 2353SOL    HW2 7959   3.424   5.258   5.142
 2354SOL     OW 7960   2.704   1.695   5.369
 2354SOL    HW1 7961   2.742   1.787   5.366
 2354SOL    HW2 7962   2.761   1.637   5.428
 2355SOL     OW 7963   1.863   6.707   0.062
 2355SOL    HW1 7964   1.959   6.703   0.093
 2355SOL    HW2 7965   1.803   6.685   0.139
 2356SOL     OW 7966   0.760   3.768   6.542
 2356SOL    HW1 7967   0.768   3.831   6.465
 2356SOL    HW2 7968   0.826   3.792   6.612
 2357SOL     OW 7969   4.573   0.035   2.540
 2357SOL    HW1 7970   4.608   0.044   2.634
 2357SOL    HW2 7971   4.651   0.025   2.477
 2358SOL     OW 7972   3.825   5.370   4.908
 2358SOL    HW1 7973   3.923   5.367   4.886
 2358SOL    HW2 7974   3.811   5.331   4.999
 2359SOL     OW 7975   6.438   1.103   5.332
 2359SOL    HW1 7976   6.488   1.021   5.360
 2359SOL    HW2 7977   6.382   1.082   5.251
 2360SOL     OW 7978   5.479   3.897   0.175
 2360SOL    HW1 7979   5.500   3.829   0.244
 2360SOL    HW2 7980   5.387   3.881   0.140
 2361SOL     OW 7981   2.776   0.992   5.204
 2361SOL    HW1 7982   2.709   0.957   5.270
 2361SOL    HW2 7983   2.869   0.970   5.236
 2362SOL     OW 7984   2.429   6.390   4.203
 2362SOL    HW1 7985   2.335   6.405   4.173
 2362SOL    HW2 7986   2.489   6.385   4.123
 2363SOL     OW 7987   4.650   2.300   4.779
 2363SOL    HW1 7988   4.561   2.322   4.817
 2363SOL    HW2 7989   4.640   2.236   4.704
 2364SOL     OW 7990   0.964   2.014   2.593
 2364SOL    HW1 7991   0.962   2.021   2.493
 2364SOL    HW2 7992   0.887   2.064   2.631
 2365SOL     OW 7993   6.003   2.600   6.383
 2365SOL    HW1 7994   6.037   2.693   6.367
 2365SOL    HW2 7995   6.078   2.535   6.369
 2366SOL     OW 7996   2.565   5.341   6.475
 2366SOL    HW1 7997   2.480   5.355   6.423
 2366SOL    HW2 7998   2.571   5.245   6.503
 2367SOL     OW 7999   2.478   3.897   0.863
 2367SOL    HW1 8000   2.503   3.897   0.766
 2367SOL    HW2 8001   2.559   3.882   0.919
 2368SOL     OW 8002   4.060   0.627   4.245
 2368SOL    HW1 8003   4.043   0.531   4.223
 2368SOL    HW2 8004   3.976   0.680   4.230
 2369SOL     OW 8005   1.557   0.993   5.494
 2369SOL    HW1 8006   1.572   1.043   5.579
 2369SOL    HW2 8007   1.635   1.006   5.433
 2370SOL     OW 8008   4.608   3.259   0.030
 2370SOL    HW1 8009   4.701   3.284   0.003
 2370SOL    HW2 8010   4.548   3.266   6.973
 2371SOL     OW 8011   0.242   6.850   1.966
 2371SOL    HW1 8012   0.207   6.757   1.960
 2371SOL    HW2 8013   0.303   6.868   1.889
 2372SOL     OW 8014   0.343   2.885   2.491
 2372SOL    HW1 8015   0.289   2.824   2.550
 2372SOL    HW2 8016   0.340   2.978   2.527
 2373SOL     OW 8017   0.183   2.050   6.555
 2373SOL    HW1 8018   0.158   2.106   6.476
 2373SOL    HW2 8019   0.107   1.990   6.579
 2374SOL     OW 8020   5.811   1.612   3.797
 2374SOL    HW1 8021   5.845   1.700   3.764
 2374SOL    HW2 8022   5.712   1.618   3.810
 2375SOL     OW 8023   2.894   6.599   4.919
 2375SOL    HW1 8024   2.974   6.575   4.973
 2375SOL    HW2 8025   2.861   6.518   4.870
 2376SOL     OW 8026   0.074   2.395   4.785
 2376SOL    HW1 8027   0.105   2.449   4.864
 2376SOL    HW2 8028   0.150   2.382   4.722
 2377SOL     OW 8029   3.589   4.018   3.105
 2377SOL    HW1 8030   3.660   4.042   3.171
 2377SOL    HW2 8031   3.593   4.080   3.027
 2378SOL     OW 8032   5.213   1.239   0.228
 2378SOL    HW1 8033   5.261   1.260   0.313
 2378SOL    HW2 8034   5.244   1.151   0.193
 2379SOL     OW 8035   5.637   1.750   7.000
 2379SOL    HW1 8036   5.579   1.682   0.022
 2379SOL    HW2 8037   5.639   1.834   0.032
 2380SOL     OW 8038   0.912   1.080   0.207
 2380SOL    HW1 8039   0.905   1.020   0.286
 2380SOL    HW2 8040   0.978   1.153   0.226
 2381SOL     OW 8041   2.126   4.374   4.661
 2381SOL    HW1 8042   2.131   4.294   4.720
 2381SOL    HW2 8043   2.217   4.414   4.651
 2382SOL     OW 8044   2.091   4.355   4.006
 2382SOL    HW1 8045   2.149   4.287   4.050
 2382SOL    HW2 8046   2.039   4.404   4.077
 2383SOL     OW 8047   5.040   6.920   1.542
 2383SOL    HW1 8048   5.105   6.867   1.488
 2383SOL    HW2 8049   5.029   6.878   1.632
 2384SOL     OW 8050   5.703   0.919   2.820
 2384SOL    HW1 8051   5.608   0.888   2.825
 2384SOL    HW2 8052   5.760   0.845   2.784
 2385SOL     OW 8053   1.263   0.302   0.752
 2385SOL    HW1 8054   1.190   0.260   0.698
 2385SOL    HW2 8055   1.228   0.326   0.842
 2386SOL     OW 8056   5.904   5.818   4.351
 2386SOL    HW1 8057   6.001   5.818   4.374
 2386SOL    HW2 8058   5.893   5.816   4.251
 2387SOL     OW 8059   1.422   2.272   3.683
 2387SOL    HW1 8060   1.497   2.208   3.668
 2387SOL    HW2 8061   1.375   2.289   3.596
 2388SOL     OW 8062   0.572   2.493   4.718
 2388SOL    HW1 8063   0.556   2.539   4.631
 2388SOL    HW2 8064   0.665   2.457   4.720
 2389SOL     OW 8065   4.834   3.937   3.040
 2389SOL    HW1 8066   4.890   3.861   3.070
 2389SOL    HW2 8067   4.745   3.932   3.085
 2390SOL     OW 8068   3.797   2.956   3.060
 2390SOL    HW1 8069   3.791   3.050   3.091
 2390SOL    HW2 8070   3.730   2.900   3.111
 2391SOL     OW 8071   5.146   3.908   5.894
 2391SOL    HW1 8072   5.228   3.954   5.859
 2391SOL    HW2 8073   5.125   3.943   5.985
 2392SOL     OW 8074   4.699   6.598   5.370
 2392SOL    HW1 8075   4.744   6.523   5.321
 2392SOL    HW2 8076   4.679   6.672   5.306
 2393SOL     OW 8077   6.027   4.206   6.038
 2393SOL    HW1 8078   6.040   4.148   5.957
 2393SOL    HW2 8079   5.930   4.210   6.060
 2394SOL     OW 8080   1.179   3.182   4.892
 2394SOL    HW1 8081   1.207   3.247   4.962
 2394SOL    HW2 8082   1.228   3.200   4.807
 2395SOL     OW 8083   5.332   2.529   6.407
 2395SOL    HW1 8084   5.358   2.465   6.479
 2395SOL    HW2 8085   5.238   2.560   6.421
 2396SOL     OW 8086   3.419   5.193   1.427
 2396SOL    HW1 8087   3.473   5.112   1.449
 2396SOL    HW2 8088   3.415   5.254   1.507
 2397SOL     OW 8089   6.832   4.046   5.868
 2397SOL    HW1 8090   6.929   4.040   5.847
 2397SOL    HW2 8091   6.820   4.059   5.967
 2398SOL     OW 8092   2.894   3.279   0.021
 2398SOL    HW1 8093   2.853   3.360   0.065
 2398SOL    HW2 8094   2.867   3.197   0.071
 2399SOL     OW 8095   4.823   1.630   2.206
 2399SOL    HW1 8096   4.819   1.577   2.121
 2399SOL    HW2 8097   4.854   1.572   2.281
 2400SOL     OW 8098   3.256   4.083   0.709
 2400SOL    HW1 8099   3.305   4.025   0.644
 2400SOL    HW2 8100   3.170   4.113   0.669
 2401SOL     OW 8101   4.437   6.412   6.092
 2401SOL    HW1 8102   4.505   6.485   6.082
 2401SOL    HW2 8103   4.405   6.383   6.002
 2402SOL     OW 8104   6.883   0.293   3.821
 2402SOL    HW1 8105   6.828   0.320   3.743
 2402SOL    HW2 8106   6.930   0.373   3.859
 2403SOL     OW 8107   2.040   2.800   6.985
 2403SOL    HW1 8108   2.060   2.723   6.925
 2403SOL    HW2 8109   2.123   2.827   0.011
 2404SOL     OW 8110   3.457   1.120   1.412
 2404SOL    HW1 8111   3.427   1.212   1.385
 2404SOL    HW2 8112   3.556   1.112   1.398
 2405SOL     OW 8113   3.629   3.434   2.466
 2405SOL    HW1 8114   3.688   3.440   2.386
 2405SOL    HW2 8115   3.593   3.341   2.474
 2406SOL     OW 8116   2.744   6.611   2.476
 2406SOL    HW1 8117   2.695   6.528   2.451
 2406SOL    HW2 8118   2.843   6.593   2.475
 2407SOL     OW 8119   5.725   1.563   2.288
 2407SOL    HW1 8120   5.753   1.659   2.290
 2407SOL    HW2 8121   5.650   1.549   2.353
 2408SOL     OW 8122   3.723   4.880   2.969
 2408SOL    HW1 8123   3.754   4.845   3.057
 2408SOL    HW2 8124   3.800   4.881   2.905
 2409SOL     OW 8125   1.673   4.879   2.166
 2409SOL    HW1 8126   1.700   4.865   2.071
 2409SOL    HW2 8127   1.656   4.791   2.210
 2410SOL     OW 8128   4.334   2.971   5.365
 2410SOL    HW1 8129   4.252   3.021   5.336
 2410SOL    HW2 8130   4.326   2.875   5.339
 2411SOL     OW 8131   4.272   5.480   4.987
 2411SOL    HW1 8132   4.193   5.442   4.939
 2411SOL    HW2 8133   4.355   5.464   4.933
 2412SOL     OW 8134   5.056   5.215   0.880
 2412SOL    HW1 8135   5.107   5.149   0.825
 2412SOL    HW2 8136   5.116   5.291   0.906
 2413SOL     OW 8137   6.190   1.952   1.167
 2413SOL    HW1 8138   6.258   1.882   1.187
 2413SOL    HW2 8139   6.099   1.919   1.194
 2414SOL     OW 8140   4.727   4.453   2.717
 2414SOL    HW1 8141   4.735   4.541   2.671
 2414SOL    HW2 8142   4.812   4.433   2.766
 2415SOL     OW 8143   6.663   0.665   2.792
 2415SOL    HW1 8144   6.617   0.615   2.865
 2415SOL    HW2 8145   6.661   0.763   2.811
 2416SOL     OW 8146   4.615   2.301   5.662
 2416SOL    HW1 8147   4.686   2.233   5.683
 2416SOL    HW2 8148   4.573   2.279   5.574
 2417SOL     OW 8149   3.464   3.312   5.319
 2417SOL    HW1 8150   3.410   3.379   5.267
 2417SOL    HW2 8151   3.449   3.326   5.417
 2418SOL     OW 8152   2.912   3.431   4.141
 2418SOL    HW1 8153   2.939   3.516   4.096
 2418SOL    HW2 8154   2.897   3.449   4.238
 2419SOL     OW 8155   0.035   6.912   4.870
 2419SOL    HW1 8156   0.065   6.849   4.798
 2419SOL    HW2 8157   0.111   6.931   4.931
 2420SOL     OW 8158   2.905   0.873   2.467
 2420SOL    HW1 8159   2.957   0.815   2.405
 2420SOL    HW2 8160   2.891   0.962   2.425
 2421SOL     OW 8161   2.270   2.078   4.859
 2421SOL    HW1 8162   2.308   2.170   4.861
 2421SOL    HW2 8163   2.232   2.055   4.949
 2422SOL     OW 8164   5.452   1.482   0.810
 2422SOL    HW1 8165   5.508   1.481   0.727
 2422SOL    HW2 8166   5.512   1.473   0.890
 2423SOL     OW 8167   1.516   5.760   2.575
 2423SOL    HW1 8168   1.474   5.837   2.623
 2423SOL    HW2 8169   1.447   5.688   2.561
 2424SOL     OW 8170   6.095   0.365   6.182
 2424SOL    HW1 8171   6.166   0.299   6.208
 2424SOL    HW2 8172   6.131   0.424   6.109
 2425SOL     OW 8173   5.639   0.629   3.757
 2425SOL    HW1 8174   5.675   0.579   3.678
 2425SOL    HW2 8175   5.660   0.579   3.840
 2426SOL     OW 8176   1.267   6.105   4.972
 2426SOL    HW1 8177   1.185   6.064   4.932
 2426SOL    HW2 8178   1.329   6.133   4.899
 2427SOL     OW 8179   5.735   6.157   5.589
 2427SOL    HW1 8180   5.794   6.108   5.653
 2427SOL    HW2 8181   5.792   6.207   5.523
 2428SOL     OW 8182   6.370   0.159   2.269
 2428SOL    HW1 8183   6.354   0.248   2.227
 2428SOL    HW2 8184   6.455   0.120   2.232
 2429SOL     OW 8185   5.325   5.725   3.359
 2429SOL    HW1 8186   5.233   5.688   3.350
 2429SOL    HW2 8187   5.339   5.759   3.453
 2430SOL     OW 8188   5.636   1.277   1.675
 2430SOL    HW1 8189   5.722   1.265   1.724
 2430SOL    HW2 8190   5.563   1.299   1.740
 2431SOL     OW 8191   4.323   0.808   2.055
 2431SOL    HW1 8192   4.413   0.852   2.057
 2431SOL    HW2 8193   4.327   0.727   1.997
 2432SOL     OW 8194   3.326   6.152   2.703
 2432SOL    HW1 8195   3.248   6.119   2.757
 2432SOL    HW2 8196   3.358   6.239   2.741
 2433SOL     OW 8197   3.782   1.442   0.668
 2433SOL    HW1 8198   3.762   1.521   0.726
 2433SOL    HW2 8199   3.829   1.372   0.722
 2434SOL     OW 8200   3.663   0.880   5.663
 2434SOL    HW1 8201   3.626   0.966   5.626
 2434SOL    HW2 8202   3.593   0.834   5.718
 2435SOL     OW 8203   4.241   5.171   5.849
 2435SOL    HW1 8204   4.206   5.094   5.796
 2435SOL    HW2 8205   4.194   5.174   5.938
 2436SOL     OW 8206   1.480   5.215   0.487
 2436SOL    HW1 8207   1.435   5.129   0.468
 2436SOL    HW2 8208   1.534   5.243   0.408
 2437SOL     OW 8209   5.360   6.701   6.495
 2437SOL    HW1 8210   5.374   6.609   6.533
 2437SOL    HW2 8211   5.278   6.701   6.438
 2438SOL     OW 8212   3.254   1.244   6.799
 2438SOL    HW1 8213   3.250   1.226   6.700
 2438SOL    HW2 8214   3.320   1.317   6.817
 2439SOL     OW 8215   0.864   4.178   6.424
 2439SOL    HW1 8216   0.820   4.168   6.514
 2439SOL    HW2 8217   0.950   4.229   6.435
 2440SOL     OW 8218   4.326   6.349   5.824
 2440SOL    HW1 8219   4.420   6.315   5.822
 2440SOL    HW2 8220   4.294   6.365   5.731
 2441SOL     OW 8221   0.629   1.558   0.320
 2441SOL    HW1 8222   0.638   1.639   0.379
 2441SOL    HW2 8223   0.543   1.512   0.339
 2442SOL     OW 8224   0.760   3.295   5.938
 2442SOL    HW1 8225   0.740   3.374   5.880
 2442SOL    HW2 8226   0.747   3.320   6.034
 2443SOL     OW 8227   3.750   5.440   5.515
 2443SOL    HW1 8228   3.668   5.401   5.559
 2443SOL    HW2 8229   3.806   5.366   5.477
 2444SOL     OW 8230   2.893   4.576   6.836
 2444SOL    HW1 8231   2.915   4.596   6.740
 2444SOL    HW2 8232   2.815   4.515   6.840
 2445SOL     OW 8233   0.148   1.177   1.018
 2445SOL    HW1 8234   0.193   1.251   0.969
 2445SOL    HW2 8235   0.216   1.122   1.067
 2446SOL     OW 8236   6.364   4.529   3.966
 2446SOL    HW1 8237   6.434   4.461   3.941
 2446SOL    HW2 8238   6.403   4.596   4.029
 2447SOL     OW 8239   2.231   3.046   0.538
 2447SOL    HW1 8240   2.231   2.977   0.610
 2447SOL    HW2 8241   2.160   3.114   0.556
 2448SOL     OW 8242   0.277   0.747   4.610
 2448SOL    HW1 8243   0.222   0.767   4.529
 2448SOL    HW2 8244   0.281   0.648   4.624
 2449SOL     OW 8245   6.626   4.551   0.008
 2449SOL    HW1 8246   6.662   4.490   0.079
 2449SOL    HW2 8247   6.667   4.526   6.943
 2450SOL     OW 8248   2.236   4.479   2.992
 2450SOL    HW1 8249   2.184   4.561   3.015
 2450SOL    HW2 8250   2.277   4.490   2.902
 2451SOL     OW 8251   1.511   0.501   4.194
 2451SOL    HW1 8252   1.561   0.468   4.114
 2451SOL    HW2 8253   1.521   0.600   4.201
 2452SOL     OW 8254   1.905   3.431   2.933
 2452SOL    HW1 8255   1.963   3.492   2.986
 2452SOL    HW2 8256   1.961   3.378   2.869
 2453SOL     OW 8257   6.588   4.876   1.254
 2453SOL    HW1 8258   6.644   4.960   1.254
 2453SOL    HW2 8259   6.588   4.836   1.345
 2454SOL     OW 8260   3.652   1.038   2.055
 2454SOL    HW1 8261   3.735   1.035   1.999
 2454SOL    HW2 8262   3.670   0.996   2.144
 2455SOL     OW 8263   5.275   6.575   0.312
 2455SOL    HW1 8264   5.362   6.557   0.360
 2455SOL    HW2 8265   5.276   6.667   0.275
 2456SOL     OW 8266   5.121   6.655   2.322
 2456SOL    HW1 8267   5.030   6.684   2.292
 2456SOL    HW2 8268   5.112   6.588   2.396
 2457SOL     OW 8269   5.372   6.804   0.453
 2457SOL    HW1 8270   5.431   6.845   0.523
 2457SOL    HW2 8271   5.293   6.763   0.497
 2458SOL     OW 8272   2.444   5.463   3.545
 2458SOL    HW1 8273   2.523   5.403   3.529
 2458SOL    HW2 8274   2.410   5.498   3.458
 2459SOL     OW 8275   1.930   6.805   0.884
 2459SOL    HW1 8276   1.890   6.715   0.900
 2459SOL    HW2 8277   1.881   6.851   0.809
 2460SOL     OW 8278   2.104   6.846   2.322
 2460SOL    HW1 8279   2.058   6.813   2.405
 2460SOL    HW2 8280   2.050   6.817   2.242
 2461SOL     OW 8281   5.853   0.614   2.255
 2461SOL    HW1 8282   5.828   0.681   2.325
 2461SOL    HW2 8283   5.801   0.530   2.269
 2462SOL     OW 8284   2.692   5.166   0.622
 2462SOL    HW1 8285   2.675   5.214   0.536
 2462SOL    HW2 8286   2.762   5.214   0.674
 2463SOL     OW 8287   6.787   1.962   3.831
 2463SOL    HW1 8288   6.852   2.002   3.767
 2463SOL    HW2 8289   6.778   2.021   3.911
 2464SOL     OW 8290   0.798   4.550   1.040
 2464SOL    HW1 8291   0.737   4.561   0.962
 2464SOL    HW2 8292   0.845   4.462   1.033
 2465SOL     OW 8293   0.086   5.706   1.588
 2465SOL    HW1 8294   0.156   5.722   1.659
 2465SOL    HW2 8295   0.081   5.608   1.568
 2466SOL     OW 8296   4.686   1.517   2.633
 2466SOL    HW1 8297   4.784   1.534   2.641
 2466SOL    HW2 8298   4.667   1.468   2.548
 2467SOL     OW 8299   6.554   1.410   5.967
 2467SOL    HW1 8300   6.476   1.360   6.004
 2467SOL    HW2 8301   6.608   1.349   5.909
 2468SOL     OW 8302   0.103   6.205   2.060
 2468SOL    HW1 8303   0.101   6.159   2.149
 2468SOL    HW2 8304   0.136   6.142   1.990
 2469SOL     OW 8305   3.162   3.813   5.589
 2469SOL    HW1 8306   3.071   3.776   5.570
 2469SOL    HW2 8307   3.188   3.877   5.518
 2470SOL     OW 8308   2.867   3.903   5.907
 2470SOL    HW1 8309   2.942   3.862   5.960
 2470SOL    HW2 8310   2.889   3.998   5.888
 2471SOL     OW 8311   0.826   6.357   1.687
 2471SOL    HW1 8312   0.834   6.358   1.588
 2471SOL    HW2 8313   0.830   6.262   1.720
 2472SOL     OW 8314   5.610   2.009   4.806
 2472SOL    HW1 8315   5.613   2.102   4.844
 2472SOL    HW2 8316   5.516   1.974   4.811
 2473SOL     OW 8317   0.786   5.095   4.236
 2473SOL    HW1 8318   0.806   5.002   4.267
 2473SOL    HW2 8319   0.870   5.150   4.240
 2474SOL     OW 8320   6.877   4.987   5.191
 2474SOL    HW1 8321   6.873   4.937   5.277
 2474SOL    HW2 8322   6.798   5.048   5.184
 2475SOL     OW 8323   4.250   2.304   0.451
 2475SOL    HW1 8324   4.206   2.393   0.464
 2475SOL    HW2 8325   4.311   2.286   0.528
 2476SOL     OW 8326   0.838   1.730   3.984
 2476SOL    HW1 8327   0.845   1.699   3.890
 2476SOL    HW2 8328   0.742   1.737   4.010
 2477SOL     OW 8329   5.653   6.456   1.426
 2477SOL    HW1 8330   5.685   6.443   1.332
 2477SOL    HW2 8331   5.562   6.416   1.437
 2478SOL     OW 8332   6.654   6.636   2.383
 2478SOL    HW1 8333   6.716   6.691   2.440
 2478SOL    HW2 8334   6.568   6.624   2.432
 2479SOL     OW 8335   0.136   2.438   1.575
 2479SOL    HW1 8336   0.209   2.498   1.610
 2479SOL    HW2 8337   0.086   2.398   1.652
 2480SOL     OW 8338   6.597   3.453   1.329
 2480SOL    HW1 8339   6.584   3.552   1.320
 2480SOL    HW2 8340   6.528   3.405   1.276
 2481SOL     OW 8341   4.036   5.656   1.402
 2481SOL    HW1 8342   4.016   5.637   1.306
 2481SOL    HW2 8343   4.022   5.574   1.457
 2482SOL     OW 8344   4.833   3.335   5.551
 2482SOL    HW1 8345   4.749   3.367   5.507
 2482SOL    HW2 8346   4.885   3.279   5.486
 2483SOL     OW 8347   1.290   1.146   0.778
 2483SOL    HW1 8348   1.228   1.212   0.822
 2483SOL    HW2 8349   1.265   1.054   0.806
 2484SOL     OW 8350   2.337   0.787   0.458
 2484SOL    HW1 8351   2.303   0.776   0.551
 2484SOL    HW2 8352   2.289   0.862   0.413
 2485SOL     OW 8353   0.299   4.942   2.049
 2485SOL    HW1 8354   0.296   4.843   2.065
 2485SOL    HW2 8355   0.299   4.990   2.136
 2486SOL     OW 8356   2.044   5.722   3.389
 2486SOL    HW1 8357   2.136   5.687   3.368
 2486SOL    HW2 8358   1.983   5.703   3.312
 2487SOL     OW 8359   3.803   6.793   0.369
 2487SOL    HW1 8360   3.835   6.706   0.331
 2487SOL    HW2 8361   3.862   6.866   0.335
 2488SOL     OW 8362   2.748   4.315   1.264
 2488SOL    HW1 8363   2.710   4.354   1.348
 2488SOL    HW2 8364   2.811   4.241   1.287
 2489SOL     OW 8365   1.636   5.497   5.547
 2489SOL    HW1 8366   1.681   5.525   5.632
 2489SOL    HW2 8367   1.700   5.444   5.491
 2490SOL     OW 8368   6.662   4.295   0.609
 2490SOL    HW1 8369   6.656   4.239   0.691
 2490SOL    HW2 8370   6.577   4.288   0.556
 2491SOL     OW 8371   2.959   5.613   3.184
 2491SOL    HW1 8372   3.025   5.662   3.241
 2491SOL    HW2 8373   2.866   5.633   3.216
 2492SOL     OW 8374   4.927   3.323   6.167
 2492SOL    HW1 8375   4.947   3.399   6.105
 2492SOL    HW2 8376   4.915   3.358   6.260
 2493SOL     OW 8377   5.572   1.201   2.720
 2493SOL    HW1 8378   5.568   1.177   2.818
 2493SOL    HW2 8379   5.495   1.159   2.673
 2494SOL     OW 8380   4.769   2.764   2.404
 2494SOL    HW1 8381   4.786   2.855   2.366
 2494SOL    HW2 8382   4.719   2.709   2.337
 2495SOL     OW 8383   5.256   1.260   5.209
 2495SOL    HW1 8384   5.234   1.186   5.146
 2495SOL    HW2 8385   5.172   1.306   5.238
 2496SOL     OW 8386   0.882   5.355   0.213
 2496SOL    HW1 8387   0.801   5.385   0.162
 2496SOL    HW2 8388   0.865   5.264   0.251
 2497SOL     OW 8389   6.885   1.746   0.055
 2497SOL    HW1 8390   6.947   1.820   0.083
 2497SOL    HW2 8391   6.791   1.779   0.059
 2498SOL     OW 8392   1.911   2.961   3.687
 2498SOL    HW1 8393   1.992   2.965   3.629
 2498SOL    HW2 8394   1.934   2.997   3.778
 2499SOL     OW 8395   5.018   0.574   4.624
 2499SOL    HW1 8396   5.103   0.542   4.667
 2499SOL    HW2 8397   4.952   0.500   4.622
 2500SOL     OW 8398   5.032   3.042   6.064
 2500SOL    HW1 8399   5.047   3.135   6.032
 2500SOL    HW2 8400   5.120   2.994   6.072
 2501SOL     OW 8401   6.113   4.418   6.997
 2501SOL    HW1 8402   6.075   4.461   0.056
 2501SOL    HW2 8403   6.212   4.405   7.009
 2502SOL     OW 8404   1.838   6.873   2.983
 2502SOL    HW1 8405   1.853   6.929   2.902
 2502SOL    HW2 8406   1.740   6.861   2.998
 2503SOL     OW 8407   4.112   5.197   6.088
 2503SOL    HW1 8408   4.108   5.295   6.104
 2503SOL    HW2 8409   4.100   5.148   6.174
 2504SOL     OW 8410   1.869   4.863   4.840
 2504SOL    HW1 8411   1.961   4.826   4.825
 2504SOL    HW2 8412   1.859   4.949   4.789
 2505SOL     OW 8413   4.192   5.623   4.091
 2505SOL    HW1 8414   4.252   5.625   4.012
 2505SOL    HW2 8415   4.213   5.700   4.152
 2506SOL     OW 8416   6.528   3.099   6.250
 2506SOL    HW1 8417   6.624   3.092   6.221
 2506SOL    HW2 8418   6.479   3.018   6.219
 2507SOL     OW 8419   6.047   5.897   0.650
 2507SOL    HW1 8420   6.124   5.959   0.667
 2507SOL    HW2 8421   6.078   5.818   0.598
 2508SOL     OW 8422   2.570   1.777   2.236
 2508SOL    HW1 8423   2.641   1.848   2.237
 2508SOL    HW2 8424   2.580   1.719   2.318
 2509SOL     OW 8425   5.584   2.458   3.367
 2509SOL    HW1 8426   5.533   2.410   3.439
 2509SOL    HW2 8427   5.679   2.426   3.366
 2510SOL     OW 8428   3.353   5.180   0.160
 2510SOL    HW1 8429   3.387   5.167   0.254
 2510SOL    HW2 8430   3.306   5.268   0.154
 2511SOL     OW 8431   1.022   0.434   4.948
 2511SOL    HW1 8432   0.980   0.383   5.023
 2511SOL    HW2 8433   1.103   0.482   4.982
 2512SOL     OW 8434   4.930   4.171   4.827
 2512SOL    HW1 8435   4.852   4.180   4.889
 2512SOL    HW2 8436   5.011   4.209   4.871
 2513SOL     OW 8437   1.061   2.483   6.723
 2513SOL    HW1 8438   1.020   2.544   6.656
 2513SOL    HW2 8439   0.994   2.459   6.793
 2514SOL     OW 8440   1.298   0.955   4.724
 2514SOL    HW1 8441   1.263   0.898   4.650
 2514SOL    HW2 8442   1.294   1.052   4.698
 2515SOL     OW 8443   1.470   5.701   0.392
 2515SOL    HW1 8444   1.491   5.796   0.415
 2515SOL    HW2 8445   1.488   5.642   0.471
 2516SOL     OW 8446   6.217   6.382   3.525
 2516SOL    HW1 8447   6.155   6.417   3.454
 2516SOL    HW2 8448   6.219   6.446   3.602
 2517SOL     OW 8449   2.198   4.831   0.309
 2517SOL    HW1 8450   2.296   4.813   0.303
 2517SOL    HW2 8451   2.168   4.823   0.404
 2518SOL     OW 8452   2.182   2.923   6.699
 2518SOL    HW1 8453   2.258   2.942   6.637
 2518SOL    HW2 8454   2.218   2.911   6.792
 2519SOL     OW 8455   4.739   4.667   4.800
 2519SOL    HW1 8456   4.671   4.595   4.816
 2519SOL    HW2 8457   4.693   4.754   4.787
 2520SOL     OW 8458   2.323   3.653   1.281
 2520SOL    HW1 8459   2.257   3.624   1.350
 2520SOL    HW2 8460   2.305   3.605   1.195
 2521SOL     OW 8461   6.537   0.554   5.660
 2521SOL    HW1 8462   6.450   0.553   5.612
 2521SOL    HW2 8463   6.522   0.535   5.757
 2522SOL     OW 8464   1.170   3.283   4.341
 2522SOL    HW1 8465   1.255   3.336   4.347
 2522SOL    HW2 8466   1.184   3.193   4.383
 2523SOL     OW 8467   6.891   4.016   0.864
 2523SOL    HW1 8468   6.920   4.062   0.781
 2523SOL    HW2 8469   6.957   4.034   0.937
 2524SOL     OW 8470   1.557   6.609   3.805
 2524SOL    HW1 8471   1.643   6.567   3.833
 2524SOL    HW2 8472   1.533   6.681   3.870
 2525SOL     OW 8473   1.371   4.197   4.055
 2525SOL    HW1 8474   1.466   4.185   4.024
 2525SOL    HW2 8475   1.315   4.123   4.019
 2526SOL     OW 8476   0.015   1.621   4.071
 2526SOL    HW1 8477   0.018   1.705   4.126
 2526SOL    HW2 8478   0.008   1.646   3.974
 2527SOL     OW 8479   5.340   6.491   4.546
 2527SOL    HW1 8480   5.259   6.520   4.597
 2527SOL    HW2 8481   5.316   6.476   4.451
 2528SOL     OW 8482   5.971   5.452   0.782
 2528SOL    HW1 8483   5.891   5.508   0.759
 2528SOL    HW2 8484   6.029   5.503   0.845
 2529SOL     OW 8485   5.330   5.488   4.520
 2529SOL    HW1 8486   5.259   5.535   4.469
 2529SOL    HW2 8487   5.418   5.497   4.473
 2530SOL     OW 8488   1.146   0.037   3.215
 2530SOL    HW1 8489   1.229   0.083   3.182
 2530SOL    HW2 8490   1.092   0.100   3.270
 2531SOL     OW 8491   4.718   0.726   5.641
 2531SOL    HW1 8492   4.713   0.702   5.737
 2531SOL    HW2 8493   4.659   0.805   5.623
 2532SOL     OW 8494   1.318   5.308   6.730
 2532SOL    HW1 8495   1.331   5.384   6.794
 2532SOL    HW2 8496   1.385   5.237   6.749
 2533SOL     OW 8497   5.294   6.872   5.599
 2533SOL    HW1 8498   5.382   6.837   5.568
 2533SOL    HW2 8499   5.282   6.966   5.569
 2534SOL     OW 8500   1.941   0.602   3.913
 2534SOL    HW1 8501   2.036   0.583   3.890
 2534SOL    HW2 8502   1.906   0.529   3.972
 2535SOL     OW 8503   1.473   1.337   3.689
 2535SOL    HW1 8504   1.505   1.272   3.758
 2535SOL    HW2 8505   1.391   1.301   3.644
 2536SOL     OW 8506   5.932   1.755   4.638
 2536SOL    HW1 8507   6.002   1.691   4.669
 2536SOL    HW2 8508   5.863   1.706   4.585
 2537SOL     OW 8509   5.205   5.575   1.475
 2537SOL    HW1 8510   5.189   5.611   1.567
 2537SOL    HW2 8511   5.125   5.523   1.445
 2538SOL     OW 8512   1.847   5.086   4.715
 2538SOL    HW1 8513   1.759   5.086   4.668
 2538SOL    HW2 8514   1.920   5.110   4.650
 2539SOL     OW 8515   4.424   0.464   5.354
 2539SOL    HW1 8516   4.387   0.372   5.351
 2539SOL    HW2 8517   4.384   0.518   5.280
 2540SOL     OW 8518   5.369   1.316   2.102
 2540SOL    HW1 8519   5.372   1.236   2.163
 2540SOL    HW2 8520   5.294   1.376   2.130
 2541SOL     OW 8521   1.494   6.543   5.599
 2541SOL    HW1 8522   1.445   6.482   5.662
 2541SOL    HW2 8523   1.541   6.614   5.652
 2542SOL     OW 8524   3.264   1.623   4.302
 2542SOL    HW1 8525   3.261   1.537   4.352
 2542SOL    HW2 8526   3.171   1.658   4.289
 2543SOL     OW 8527   0.974   1.361   2.763
 2543SOL    HW1 8528   0.939   1.319   2.847
 2543SOL    HW2 8529   0.903   1.361   2.693
 2544SOL     OW 8530   6.719   5.086   1.132
 2544SOL    HW1 8531   6.769   5.171   1.151
 2544SOL    HW2 8532   6.731   5.061   1.036
 2545SOL     OW 8533   0.687   1.676   1.778
 2545SOL    HW1 8534   0.721   1.703   1.688
 2545SOL    HW2 8535   0.730   1.732   1.848
 2546SOL     OW 8536   6.310   3.769   2.018
 2546SOL    HW1 8537   6.242   3.821   1.966
 2546SOL    HW2 8538   6.358   3.831   2.081
 2547SOL     OW 8539   5.741   4.733   0.521
 2547SOL    HW1 8540   5.792   4.650   0.497
 2547SOL    HW2 8541   5.645   4.722   0.496
 2548SOL     OW 8542   0.279   6.887   5.096
 2548SOL    HW1 8543   0.365   6.904   5.146
 2548SOL    HW2 8544   0.213   6.843   5.158
 2549SOL     OW 8545   1.882   1.986   1.644
 2549SOL    HW1 8546   1.963   2.003   1.587
 2549SOL    HW2 8547   1.867   1.888   1.652
 2550SOL     OW 8548   4.347   0.386   6.336
 2550SOL    HW1 8549   4.430   0.415   6.290
 2550SOL    HW2 8550   4.271   0.385   6.272
 2551SOL     OW 8551   3.025   5.186   6.888
 2551SOL    HW1 8552   3.024   5.124   6.967
 2551SOL    HW2 8553   3.052   5.135   6.806
 2552SOL     OW 8554   2.102   5.522   0.254
 2552SOL    HW1 8555   2.128   5.515   0.350
 2552SOL    HW2 8556   2.166   5.469   0.199
 2553SOL     OW 8557   4.095   2.214   6.547
 2553SOL    HW1 8558   4.014   2.223   6.606
 2553SOL    HW2 8559   4.154   2.293   6.559
 2554SOL     OW 8560   1.989   5.809   1.032
 2554SOL    HW1 8561   1.930   5.731   1.014
 2554SOL    HW2 8562   2.044   5.791   1.114
 2555SOL     OW 8563   5.907   6.485   5.901
 2555SOL    HW1 8564   5.937   6.390   5.905
 2555SOL    HW2 8565   5.986   6.546   5.905
 2556SOL     OW 8566   3.237   6.902   1.350
 2556SOL    HW1 8567   3.186   6.969   1.405
 2556SOL    HW2 8568   3.314   6.947   1.305
 2557SOL     OW 8569   3.575   0.631   0.708
 2557SOL    HW1 8570   3.563   0.717   0.758
 2557SOL    HW2 8571   3.498   0.570   0.727
 2558SOL     OW 8572   5.555   4.432   6.876
 2558SOL    HW1 8573   5.553   4.337   6.845
 2558SOL    HW2 8574   5.643   4.450   6.921
 2559SOL     OW 8575   0.925   3.798   3.429
 2559SOL    HW1 8576   0.982   3.783   3.510
 2559SOL    HW2 8577   0.966   3.871   3.374
 2560SOL     OW 8578   4.705   2.563   2.975
 2560SOL    HW1 8579   4.723   2.564   2.877
 2560SOL    HW2 8580   4.726   2.653   3.014
 2561SOL     OW 8581   2.953   0.894   4.052
 2561SOL    HW1 8582   2.868   0.946   4.043
 2561SOL    HW2 8583   3.031   0.957   4.047
 2562SOL     OW 8584   3.169   6.515   3.362
 2562SOL    HW1 8585   3.167   6.424   3.403
 2562SOL    HW2 8586   3.260   6.534   3.326
 2563SOL     OW 8587   3.047   1.131   0.097
 2563SOL    HW1 8588   3.032   1.175   0.186
 2563SOL    HW2 8589   3.012   1.190   0.024
 2564SOL     OW 8590   1.540   0.759   0.785
 2564SOL    HW1 8591   1.534   0.664   0.754
 2564SOL    HW2 8592   1.490   0.818   0.721
 2565SOL     OW 8593   1.121   1.774   6.630
 2565SOL    HW1 8594   1.052   1.711   6.665
 2565SOL    HW2 8595   1.193   1.786   6.699
 2566SOL     OW 8596   3.205   0.978   1.577
 2566SOL    HW1 8597   3.118   0.986   1.625
 2566SOL    HW2 8598   3.234   0.882   1.574
 2567SOL     OW 8599   1.359   7.008   0.036
 2567SOL    HW1 8600   1.420   6.986   6.982
 2567SOL    HW2 8601   1.382   0.076   0.071
 2568SOL     OW 8602   2.539   6.143   1.366
 2568SOL    HW1 8603   2.605   6.114   1.297
 2568SOL    HW2 8604   2.563   6.101   1.454
 2569SOL     OW 8605   1.952   1.572   1.468
 2569SOL    HW1 8606   1.857   1.567   1.439
 2569SOL    HW2 8607   1.994   1.482   1.458
 2570SOL     OW 8608   5.172   6.060   6.974
 2570SOL    HW1 8609   5.189   6.142   6.920
 2570SOL    HW2 8610   5.255   6.035   0.001
 2571SOL     OW 8611   3.619   3.013   4.089
 2571SOL    HW1 8612   3.541   3.071   4.066
 2571SOL    HW2 8613   3.594   2.951   4.163
 2572SOL     OW 8614   2.579   5.244   1.638
 2572SOL    HW1 8615   2.600   5.146   1.645
 2572SOL    HW2 8616   2.538   5.263   1.549
 2573SOL     OW 8617   6.941   2.215   4.040
 2573SOL    HW1 8618   6.853   2.173   4.065
 2573SOL    HW2 8619   6.967   2.281   4.110
 2574SOL     OW 8620   6.548   3.716   1.395
 2574SOL    HW1 8621   6.480   3.768   1.448
 2574SOL    HW2 8622   6.607   3.779   1.345
 2575SOL     OW 8623   5.571   4.142   0.307
 2575SOL    HW1 8624   5.521   4.076   0.251
 2575SOL    HW2 8625   5.548   4.128   0.403
 2576SOL     OW 8626   2.120   6.975   3.034
 2576SOL    HW1 8627   2.029   6.935   3.041
 2576SOL    HW2 8628   2.127   0.031   3.096
 2577SOL     OW 8629   3.148   6.977   3.061
 2577SOL    HW1 8630   3.188   6.932   2.982
 2577SOL    HW2 8631   3.080   0.021   3.031
 2578SOL     OW 8632   4.508   2.595   4.662
 2578SOL    HW1 8633   4.509   2.676   4.721
 2578SOL    HW2 8634   4.463   2.519   4.710
 2579SOL     OW 8635   0.209   2.287   6.789
 2579SOL    HW1 8636   0.288   2.347   6.795
 2579SOL    HW2 8637   0.187   2.251   6.880
 2580SOL     OW 8638   1.705   2.247   6.604
 2580SOL    HW1 8639   1.795   2.251   6.562
 2580SOL    HW2 8640   1.634   2.247   6.533
 2581SOL     OW 8641   5.237   5.555   2.364
 2581SOL    HW1 8642   5.218   5.592   2.456
 2581SOL    HW2 8643   5.312   5.605   2.323
 2582SOL     OW 8644   1.083   5.398   2.530
 2582SOL    HW1 8645   0.983   5.394   2.537
 2582SOL    HW2 8646   1.110   5.490   2.501
 2583SOL     OW 8647   0.620   0.294   0.745
 2583SOL    HW1 8648   0.681   0.215   0.737
 2583SOL    HW2 8649   0.547   0.286   0.677
 2584SOL     OW 8650   3.299   6.256   1.045
 2584SOL    HW1 8651   3.290   6.251   0.945
 2584SOL    HW2 8652   3.223   6.209   1.088
 2585SOL     OW 8653   3.319   6.790   0.729
 2585SOL    HW1 8654   3.418   6.799   0.716
 2585SOL    HW2 8655   3.295   6.825   0.820
 2586SOL     OW 8656   6.072   1.514   4.692
 2586SOL    HW1 8657   6.165   1.477   4.688
 2586SOL    HW2 8658   6.009   1.441   4.717
 2587SOL     OW 8659   5.991   6.887   4.517
 2587SOL    HW1 8660   6.025   6.825   4.589
 2587SOL    HW2 8661   5.934   6.836   4.454
 2588SOL     OW 8662   5.965   0.729   1.542
 2588SOL    HW1 8663   5.927   0.734   1.634
 2588SOL    HW2 8664   6.065   0.726   1.548
 2589SOL     OW 8665   6.397   0.198   5.822
 2589SOL    HW1 8666   6.380   0.138   5.744
 2589SOL    HW2 8667   6.342   0.281   5.813
 2590SOL     OW 8668   3.985   6.656   2.527
 2590SOL    HW1 8669   4.076   6.615   2.515
 2590SOL    HW2 8670   3.987   6.751   2.494
 2591SOL     OW 8671   5.034   6.221   1.354
 2591SOL    HW1 8672   5.082   6.288   1.410
 2591SOL    HW2 8673   4.957   6.182   1.406
 2592SOL     OW 8674   3.317   5.434   0.861
 2592SOL    HW1 8675   3.243   5.395   0.915
 2592SOL    HW2 8676   3.403   5.391   0.887
 2593SOL     OW 8677   3.452   6.437   3.147
 2593SOL    HW1 8678   3.449   6.536   3.153
 2593SOL    HW2 8679   3.519   6.410   3.077
 2594SOL     OW 8680   0.128   0.689   6.646
 2594SOL    HW1 8681   0.068   0.621   6.688
 2594SOL    HW2 8682   0.187   0.644   6.579
 2595SOL     OW 8683   0.000   3.437   4.779
 2595SOL    HW1 8684   6.954   3.503   4.809
 2595SOL    HW2 8685   0.090   3.480   4.780
 2596SOL     OW 8686   4.083   2.108   2.295
 2596SOL    HW1 8687   3.984   2.096   2.296
 2596SOL    HW2 8688   4.126   2.037   2.351
 2597SOL     OW 8689   2.741   3.253   1.435
 2597SOL    HW1 8690   2.668   3.259   1.503
 2597SOL    HW2 8691   2.735   3.166   1.386
 2598SOL     OW 8692   6.760   2.919   4.180
 2598SOL    HW1 8693   6.727   2.949   4.091
 2598SOL    HW2 8694   6.700   2.849   4.217
 2599SOL     OW 8695   4.261   5.816   6.480
 2599SOL    HW1 8696   4.232   5.836   6.574
 2599SOL    HW2 8697   4.295   5.899   6.437
 2600SOL     OW 8698   5.865   3.777   3.891
 2600SOL    HW1 8699   5.887   3.734   3.979
 2600SOL    HW2 8700   5.776   3.746   3.860
 2601SOL     OW 8701   3.524   3.013   5.584
 2601SOL    HW1 8702   3.429   2.999   5.558
 2601SOL    HW2 8703   3.576   2.930   5.566
 2602SOL     OW 8704   0.057   4.947   4.584
 2602SOL    HW1 8705   0.111   4.961   4.666
 2602SOL    HW2 8706   0.001   5.028   4.565
 2603SOL     OW 8707   2.526   2.230   1.531
 2603SOL    HW1 8708   2.441   2.189   1.564
 2603SOL    HW2 8709   2.594   2.231   1.605
 2604SOL     OW 8710   5.301   0.304   0.931
 2604SOL    HW1 8711   5.262   0.384   0.977
 2604SOL    HW2 8712   5.342   0.243   0.999
 2605SOL     OW 8713   4.006   4.905   3.757
 2605SOL    HW1 8714   3.980   4.831   3.695
 2605SOL    HW2 8715   4.080   4.958   3.715
 2606SOL     OW 8716   6.308   4.104   1.185
 2606SOL    HW1 8717   6.239   4.047   1.140
 2606SOL    HW2 8718   6.365   4.149   1.116
 2607SOL     OW 8719   1.433   1.160   3.406
 2607SOL    HW1 8720   1.468   1.116   3.489
 2607SOL    HW2 8721   1.446   1.259   3.412
 2608SOL     OW 8722   5.584   0.290   1.877
 2608SOL    HW1 8723   5.489   0.309   1.849
 2608SOL    HW2 8724   5.615   0.206   1.832
 2609SOL     OW 8725   0.724   2.227   2.532
 2609SOL    HW1 8726   0.688   2.159   2.468
 2609SOL    HW2 8727   0.666   2.308   2.530
 2610SOL     OW 8728   6.683   5.287   4.904
 2610SOL    HW1 8729   6.761   5.232   4.874
 2610SOL    HW2 8730   6.717   5.369   4.950
 2611SOL     OW 8731   5.265   6.929   0.767
 2611SOL    HW1 8732   5.212   6.867   0.826
 2611SOL    HW2 8733   5.205   6.968   0.698
 2612SOL     OW 8734   5.151   6.586   4.272
 2612SOL    HW1 8735   5.168   6.646   4.350
 2612SOL    HW2 8736   5.195   6.624   4.191
 2613SOL     OW 8737   3.236   6.796   2.009
 2613SOL    HW1 8738   3.305   6.733   2.044
 2613SOL    HW2 8739   3.231   6.876   2.069
 2614SOL     OW 8740   6.240   6.861   5.863
 2614SOL    HW1 8741   6.179   6.922   5.914
 2614SOL    HW2 8742   6.274   6.908   5.782
 2615SOL     OW 8743   5.280   5.419   3.702
 2615SOL    HW1 8744   5.261   5.341   3.642
 2615SOL    HW2 8745   5.352   5.394   3.767
 2616SOL     OW 8746   4.065   3.385   3.127
 2616SOL    HW1 8747   4.080   3.474   3.170
 2616SOL    HW2 8748   4.067   3.314   3.198
 2617SOL     OW 8749   3.588   5.315   0.878
 2617SOL    HW1 8750   3.623   5.282   0.790
 2617SOL    HW2 8751   3.624   5.258   0.952
 2618SOL     OW 8752   0.253   6.960   2.232
 2618SOL    HW1 8753   0.330   7.010   2.271
 2618SOL    HW2 8754   0.280   6.920   2.144
 2619SOL     OW 8755   4.704   1.888   2.129
 2619SOL    HW1 8756   4.782   1.838   2.166
 2619SOL    HW2 8757   4.727   1.985   2.121
 2620SOL     OW 8758   1.112   5.311   3.345
 2620SOL    HW1 8759   1.019   5.281   3.365
 2620SOL    HW2 8760   1.161   5.329   3.431
 2621SOL     OW 8761   0.217   5.332   3.768
 2621SOL    HW1 8762   0.293   5.355   3.829
 2621SOL    HW2 8763   0.227   5.383   3.682
 2622SOL     OW 8764   2.106   3.205   6.189
 2622SOL    HW1 8765   2.155   3.128   6.148
 2622SOL    HW2 8766   2.129   3.210   6.287
 2623SOL     OW 8767   3.254   1.449   4.031
 2623SOL    HW1 8768   3.306   1.510   4.091
 2623SOL    HW2 8769   3.158   1.448   4.060
 2624SOL     OW 8770   6.011   2.929   3.016
 2624SOL    HW1 8771   6.021   2.837   3.054
 2624SOL    HW2 8772   6.061   2.935   2.930
 2625SOL     OW 8773   2.075   2.946   5.421
 2625SOL    HW1 8774   1.975   2.948   5.422
 2625SOL    HW2 8775   2.109   3.002   5.346
 2626SOL     OW 8776   1.414   6.356   3.916
 2626SOL    HW1 8777   1.501   6.380   3.959
 2626SOL    HW2 8778   1.400   6.415   3.836
 2627SOL     OW 8779   0.497   0.880   4.676
 2627SOL    HW1 8780   0.553   0.818   4.732
 2627SOL    HW2 8781   0.414   0.833   4.647
 2628SOL     OW 8782   3.466   6.357   6.372
 2628SOL    HW1 8783   3.492   6.264   6.348
 2628SOL    HW2 8784   3.422   6.357   6.462
 2629SOL     OW 8785   3.748   4.129   1.711
 2629SOL    HW1 8786   3.678   4.199   1.726
 2629SOL    HW2 8787   3.835   4.173   1.689
 2630SOL     OW 8788   3.723   1.549   2.281
 2630SOL    HW1 8789   3.688   1.494   2.205
 2630SOL    HW2 8790   3.650   1.609   2.315
 2631SOL     OW 8791   4.918   6.859   4.420
 2631SOL    HW1 8792   4.998   6.813   4.459
 2631SOL    HW2 8793   4.907   6.948   4.465
 2632SOL     OW 8794   3.450   2.334   0.251
 2632SOL    HW1 8795   3.378   2.287   0.303
 2632SOL    HW2 8796   3.505   2.389   0.313
 2633SOL     OW 8797   6.006   2.617   6.755
 2633SOL    HW1 8798   6.044   2.694   6.703
 2633SOL    HW2 8799   5.907   2.628   6.762
 2634SOL     OW 8800   1.869   4.209   2.298
 2634SOL    HW1 8801   1.965   4.216   2.324
 2634SOL    HW2 8802   1.861   4.169   2.207
 2635SOL     OW 8803   5.666   6.310   4.367
 2635SOL    HW1 8804   5.745   6.248   4.370
 2635SOL    HW2 8805   5.582   6.257   4.361
 2636SOL     OW 8806   6.086   6.913   6.295
 2636SOL    HW1 8807   6.023   6.950   6.227
 2636SOL    HW2 8808   6.061   6.818   6.316
 2637SOL     OW 8809   6.021   0.540   3.166
 2637SOL    HW1 8810   5.935   0.591   3.168
 2637SOL    HW2 8811   6.027   0.482   3.247
 2638SOL     OW 8812   5.362   6.550   1.549
 2638SOL    HW1 8813   5.446   6.587   1.588
 2638SOL    HW2 8814   5.328   6.611   1.478
 2639SOL     OW 8815   6.118   6.444   2.090
 2639SOL    HW1 8816   6.216   6.434   2.073
 2639SOL    HW2 8817   6.101   6.528   2.141
 2640SOL     OW 8818   0.170   6.307   4.814
 2640SOL    HW1 8819   0.265   6.327   4.839
 2640SOL    HW2 8820   0.168   6.233   4.747
 2641SOL     OW 8821   5.477   3.515   0.125
 2641SOL    HW1 8822   5.562   3.465   0.113
 2641SOL    HW2 8823   5.489   3.586   0.194
 2642SOL     OW 8824   5.367   0.392   4.508
 2642SOL    HW1 8825   5.377   0.475   4.563
 2642SOL    HW2 8826   5.375   0.415   4.411
 2643SOL     OW 8827   6.764   5.845   2.812
 2643SOL    HW1 8828   6.791   5.760   2.766
 2643SOL    HW2 8829   6.698   5.894   2.755
 2644SOL     OW 8830   1.310   4.768   5.651
 2644SOL    HW1 8831   1.285   4.676   5.680
 2644SOL    HW2 8832   1.264   4.835   5.709
 2645SOL     OW 8833   5.239   6.860   5.876
 2645SOL    HW1 8834   5.300   6.787   5.908
 2645SOL    HW2 8835   5.240   6.862   5.776
 2646SOL     OW 8836   6.415   0.700   6.236
 2646SOL    HW1 8837   6.342   0.768   6.229
 2646SOL    HW2 8838   6.493   0.729   6.181
 2647SOL     OW 8839   5.020   0.882   0.676
 2647SOL    HW1 8840   5.072   0.862   0.594
 2647SOL    HW2 8841   5.072   0.945   0.734
 2648SOL     OW 8842   6.862   6.813   2.488
 2648SOL    HW1 8843   6.926   6.811   2.411
 2648SOL    HW2 8844   6.914   6.819   2.573
 2649SOL     OW 8845   3.691   1.405   6.074
 2649SOL    HW1 8846   3.607   1.361   6.043
 2649SOL    HW2 8847   3.711   1.484   6.015
 2650SOL     OW 8848   0.662   4.889   3.267
 2650SOL    HW1 8849   0.568   4.865   3.242
 2650SOL    HW2 8850   0.692   4.832   3.344
 2651SOL     OW 8851   0.796   1.663   1.298
 2651SOL    HW1 8852   0.697   1.656   1.295
 2651SOL    HW2 8853   0.837   1.580   1.261
 2652SOL     OW 8854   2.946   3.227   3.248
 2652SOL    HW1 8855   2.996   3.190   3.170
 2652SOL    HW2 8856   2.965   3.171   3.329
 2653SOL     OW 8857   5.864   7.002   6.544
 2653SOL    HW1 8858   5.824   6.913   6.568
 2653SOL    HW2 8859   5.947   7.016   6.598
 2654SOL     OW 8860   5.504   3.081   6.134
 2654SOL    HW1 8861   5.549   3.057   6.220
 2654SOL    HW2 8862   5.438   3.155   6.150
 2655SOL     OW 8863   4.566   5.898   4.194
 2655SOL    HW1 8864   4.579   5.800   4.207
 2655SOL    HW2 8865   4.470   5.921   4.205
 2656SOL     OW 8866   5.422   4.851   3.939
 2656SOL    HW1 8867   5.332   4.810   3.929
 2656SOL    HW2 8868   5.436   4.878   4.034
 2657SOL     OW 8869   2.293   3.850   6.214
 2657SOL    HW1 8870   2.368   3.859   6.280
 2657SOL    HW2 8871   2.307   3.767   6.161
 2658SOL     OW 8872   6.416   4.790   6.274
 2658SOL    HW1 8873   6.395   4.880   6.235
 2658SOL    HW2 8874   6.511   4.767   6.255
 2659SOL     OW 8875   6.410   2.836   4.372
 2659SOL    HW1 8876   6.485   2.792   4.322
 2659SOL    HW2 8877   6.383   2.778   4.448
 2660SOL     OW 8878   6.662   2.053   2.205
 2660SOL    HW1 8879   6.723   2.129   2.182
 2660SOL    HW2 8880   6.706   1.994   2.272
 2661SOL     OW 8881   3.091   6.130   1.128
 2661SOL    HW1 8882   3.029   6.120   1.050
 2661SOL    HW2 8883   3.106   6.040   1.170
 2662SOL     OW 8884   4.562   6.840   4.325
 2662SOL    HW1 8885   4.527   6.919   4.374
 2662SOL    HW2 8886   4.662   6.847   4.317
 2663SOL     OW 8887   1.963   4.359   1.399
 2663SOL    HW1 8888   2.035   4.291   1.414
 2663SOL    HW2 8889   2.005   4.446   1.374
 2664SOL     OW 8890   3.446   4.175   3.376
 2664SOL    HW1 8891   3.537   4.189   3.336
 2664SOL    HW2 8892   3.384   4.140   3.305
 2665SOL     OW 8893   3.113   1.350   4.357
 2665SOL    HW1 8894   3.045   1.278   4.370
 2665SOL    HW2 8895   3.096   1.398   4.272
 2666SOL     OW 8896   5.190   5.004   0.796
 2666SOL    HW1 8897   5.127   4.942   0.749
 2666SOL    HW2 8898   5.262   4.950   0.839
 2667SOL     OW 8899   1.461   6.111   5.511
 2667SOL    HW1 8900   1.477   6.053   5.430
 2667SOL    HW2 8901   1.529   6.184   5.513
 2668SOL     OW 8902   6.779   3.548   4.221
 2668SOL    HW1 8903   6.824   3.544   4.311
 2668SOL    HW2 8904   6.845   3.580   4.153
 2669SOL     OW 8905   3.681   4.797   5.684
 2669SOL    HW1 8906   3.716   4.704   5.696
 2669SOL    HW2 8907   3.757   4.862   5.689
 2670SOL     OW 8908   7.000   0.921   6.843
 2670SOL    HW1 8909   0.054   0.857   6.850
 2670SOL    HW2 8910   6.969   0.946   6.935
 2671SOL     OW 8911   1.986   3.707   6.650
 2671SOL    HW1 8912   1.970   3.642   6.724
 2671SOL    HW2 8913   2.063   3.676   6.594
 2672SOL     OW 8914   1.979   5.299   0.081
 2672SOL    HW1 8915   2.065   5.280   0.034
 2672SOL    HW2 8916   1.998   5.347   0.166
 2673SOL     OW 8917   4.716   2.854   3.285
 2673SOL    HW1 8918   4.654   2.782   3.255
 2673SOL    HW2 8919   4.718   2.857   3.385
 2674SOL     OW 8920   1.546   4.685   4.509
 2674SOL    HW1 8921   1.536   4.650   4.415
 2674SOL    HW2 8922   1.643   4.684   4.534
 2675SOL     OW 8923   0.767   4.389   5.875
 2675SOL    HW1 8924   0.846   4.371   5.816
 2675SOL    HW2 8925   0.780   4.343   5.962
 2676SOL     OW 8926   5.231   1.814   2.791
 2676SOL    HW1 8927   5.219   1.747   2.717
 2676SOL    HW2 8928   5.152   1.808   2.854
 2677SOL     OW 8929   2.088   5.012   1.891
 2677SOL    HW1 8930   2.128   4.928   1.853
 2677SOL    HW2 8931   2.086   5.083   1.820
 2678SOL     OW 8932   1.157   4.849   6.981
 2678SOL    HW1 8933   1.183   4.756   7.010
 2678SOL    HW2 8934   1.093   4.887   0.025
 2679SOL     OW 8935   3.988   4.923   0.910
 2679SOL    HW1 8936   4.010   4.999   0.849
 2679SOL    HW2 8937   3.909   4.948   0.966
 2680SOL     OW 8938   2.208   1.280   0.612
 2680SOL    HW1 8939   2.116   1.249   0.635
 2680SOL    HW2 8940   2.275   1.221   0.657
 2681SOL     OW 8941   1.479   3.718   3.959
 2681SOL    HW1 8942   1.479   3.746   4.055
 2681SOL    HW2 8943   1.571   3.727   3.922
 2682SOL     OW 8944   5.688   2.856   2.178
 2682SOL    HW1 8945   5.786   2.868   2.166
 2682SOL    HW2 8946   5.658   2.772   2.133
 2683SOL     OW 8947   0.809   4.893   1.443
 2683SOL    HW1 8948   0.729   4.902   1.502
 2683SOL    HW2 8949   0.792   4.825   1.373
 2684SOL     OW 8950   4.231   6.189   2.382
 2684SOL    HW1 8951   4.220   6.201   2.283
 2684SOL    HW2 8952   4.147   6.217   2.429
 2685SOL     OW 8953   6.045   6.757   3.988
 2685SOL    HW1 8954   5.975   6.735   4.056
 2685SOL    HW2 8955   6.061   6.856   3.986
 2686SOL     OW 8956   1.664   2.562   4.342
 2686SOL    HW1 8957   1.659   2.627   4.418
 2686SOL    HW2 8958   1.618   2.601   4.263
 2687SOL     OW 8959   3.970   5.011   2.509
 2687SOL    HW1 8960   3.898   4.961   2.558
 2687SOL    HW2 8961   3.986   5.099   2.555
 2688SOL     OW 8962   3.788   5.216   5.729
 2688SOL    HW1 8963   3.826   5.298   5.770
 2688SOL    HW2 8964   3.808   5.215   5.631
 2689SOL     OW 8965   1.296   1.677   3.455
 2689SOL    HW1 8966   1.197   1.678   3.443
 2689SOL    HW2 8967   1.318   1.642   3.546
 2690SOL     OW 8968   3.896   3.091   3.747
 2690SOL    HW1 8969   3.955   3.171   3.756
 2690SOL    HW2 8970   3.914   3.028   3.822
 2691SOL     OW 8971   1.962   5.873   1.798
 2691SOL    HW1 8972   2.049   5.908   1.765
 2691SOL    HW2 8973   1.929   5.930   1.873
 2692SOL     OW 8974   6.375   5.086   3.965
 2692SOL    HW1 8975   6.326   5.053   3.884
 2692SOL    HW2 8976   6.455   5.029   3.981
 2693SOL     OW 8977   2.161   4.247   3.092
 2693SOL    HW1 8978   2.172   4.177   3.022
 2693SOL    HW2 8979   2.182   4.337   3.052
 2694SOL     OW 8980   2.942   0.355   2.927
 2694SOL    HW1 8981   2.850   0.382   2.954
 2694SOL    HW2 8982   2.985   0.430   2.877
 2695SOL     OW 8983   4.975   2.341   2.745
 2695SOL    HW1 8984   4.942   2.392   2.666
 2695SOL    HW2 8985   5.015   2.255   2.715
 2696SOL     OW 8986   4.010   3.372   5.569
 2696SOL    HW1 8987   3.951   3.440   5.524
 2696SOL    HW2 8988   4.069   3.418   5.635
 2697SOL     OW 8989   3.684   2.043   4.310
 2697SOL    HW1 8990   3.765   2.084   4.352
 2697SOL    HW2 8991   3.712   1.964   4.254
 2698SOL     OW 8992   1.162   4.821   0.882
 2698SOL    HW1 8993   1.156   4.805   0.783
 2698SOL    HW2 8994   1.255   4.848   0.906
 2699SOL     OW 8995   3.215   5.584   0.563
 2699SOL    HW1 8996   3.284   5.653   0.583
 2699SOL    HW2 8997   3.250   5.493   0.586
 2700SOL     OW 8998   2.161   3.173   2.983
 2700SOL    HW1 8999   2.180   3.187   3.081
 2700SOL    HW2 9000   2.163   3.075   2.963
 2701SOL     OW 9001   3.926   0.647   6.780
 2701SOL    HW1 9002   3.932   0.612   6.874
 2701SOL    HW2 9003   3.835   0.627   6.743
 2702SOL     OW 9004   6.491   1.963   3.408
 2702SOL    HW1 9005   6.436   1.894   3.455
 2702SOL    HW2 9006   6.447   2.052   3.415
 2703SOL     OW 9007   2.821   1.152   2.898
 2703SOL    HW1 9008   2.892   1.094   2.858
 2703SOL    HW2 9009   2.790   1.218   2.830
 2704SOL     OW 9010   2.033   5.712   2.008
 2704SOL    HW1 9011   1.953   5.673   2.054
 2704SOL    HW2 9012   2.004   5.764   1.928
 2705SOL     OW 9013   6.945   4.912   3.741
 2705SOL    HW1 9014   6.940   4.830   3.800
 2705SOL    HW2 9015   6.857   4.960   3.745
 2706SOL     OW 9016   6.534   1.462   1.788
 2706SOL    HW1 9017   6.459   1.498   1.733
 2706SOL    HW2 9018   6.582   1.537   1.834
 2707SOL     OW 9019   2.120   0.946   6.801
 2707SOL    HW1 9020   2.180   1.024   6.785
 2707SOL    HW2 9021   2.118   0.925   6.899
 2708SOL     OW 9022   2.425   2.591   1.923
 2708SOL    HW1 9023   2.502   2.529   1.938
 2708SOL    HW2 9024   2.407   2.643   2.007
 2709SOL     OW 9025   4.832   6.265   1.157
 2709SOL    HW1 9026   4.761   6.292   1.222
 2709SOL    HW2 9027   4.922   6.283   1.196
 2710SOL     OW 9028   6.833   3.537   2.922
 2710SOL    HW1 9029   6.854   3.548   2.825
 2710SOL    HW2 9030   6.852   3.443   2.950
 2711SOL     OW 9031   1.475   0.304   2.506
 2711SOL    HW1 9032   1.505   0.308   2.411
 2711SOL    HW2 9033   1.385   0.260   2.511
 2712SOL     OW 9034   2.995   4.769   0.367
 2712SOL    HW1 9035   2.919   4.807   0.313
 2712SOL    HW2 9036   2.977   4.782   0.464
 2713SOL     OW 9037   2.199   2.888   4.910
 2713SOL    HW1 9038   2.270   2.920   4.973
 2713SOL    HW2 9039   2.236   2.814   4.853
 2714SOL     OW 9040   5.567   1.564   6.152
 2714SOL    HW1 9041   5.630   1.492   6.121
 2714SOL    HW2 9042   5.599   1.600   6.240
 2715SOL     OW 9043   5.828   0.437   0.148
 2715SOL    HW1 9044   5.760   0.481   0.090
 2715SOL    HW2 9045   5.878   0.369   0.095
 2716SOL     OW 9046   6.842   5.342   1.223
 2716SOL    HW1 9047   6.934   5.306   1.209
 2716SOL    HW2 9048   6.819   5.406   1.150
 2717SOL     OW 9049   0.946   5.688   1.872
 2717SOL    HW1 9050   0.916   5.624   1.802
 2717SOL    HW2 9051   0.866   5.718   1.925
 2718SOL     OW 9052   1.904   3.786   4.124
 2718SOL    HW1 9053   1.964   3.707   4.108
 2718SOL    HW2 9054   1.829   3.758   4.184
 2719SOL     OW 9055   4.279   4.831   2.254
 2719SOL    HW1 9056   4.307   4.906   2.194
 2719SOL    HW2 9057   4.354   4.766   2.264
 2720SOL     OW 9058   1.712   5.888   3.153
 2720SOL    HW1 9059   1.707   5.929   3.062
 2720SOL    HW2 9060   1.625   5.900   3.200
 2721SOL     OW 9061   2.657   0.312   4.614
 2721SOL    HW1 9062   2.751   0.278   4.625
 2721SOL    HW2 9063   2.657   0.391   4.553
 2722SOL     OW 9064   6.943   5.689   2.969
 2722SOL    HW1 9065   6.964   5.782   2.941
 2722SOL    HW2 9066   7.003   5.662   3.044
 2723SOL     OW 9067   2.222   0.981   5.849
 2723SOL    HW1 9068   2.248   1.012   5.940
 2723SOL    HW2 9069   2.154   0.907   5.857
 2724SOL     OW 9070   3.438   5.297   5.918
 2724SOL    HW1 9071   3.367   5.228   5.901
 2724SOL    HW2 9072   3.528   5.259   5.895
 2725SOL     OW 9073   5.005   4.660   3.097
 2725SOL    HW1 9074   5.086   4.623   3.142
 2725SOL    HW2 9075   4.923   4.627   3.142
 2726SOL     OW 9076   5.215   4.624   1.914
 2726SOL    HW1 9077   5.155   4.643   1.836
 2726SOL    HW2 9078   5.161   4.624   1.999
 2727SOL     OW 9079   0.819   4.939   2.897
 2727SOL    HW1 9080   0.901   4.996   2.902
 2727SOL    HW2 9081   0.742   4.995   2.868
 2728SOL     OW 9082   3.185   0.332   5.061
 2728SOL    HW1 9083   3.138   0.317   5.149
 2728SOL    HW2 9084   3.237   0.417   5.066
 2729SOL     OW 9085   6.296   5.637   2.680
 2729SOL    HW1 9086   6.284   5.698   2.759
 2729SOL    HW2 9087   6.233   5.560   2.687
 2730SOL     OW 9088   2.263   0.007   0.608
 2730SOL    HW1 9089   2.354   0.031   0.574
 2730SOL    HW2 9090   2.267   6.942   0.656
 2731SOL     OW 9091   2.851   3.746   1.511
 2731SOL    HW1 9092   2.815   3.839   1.494
 2731SOL    HW2 9093   2.775   3.681   1.510
 2732SOL     OW 9094   5.786   3.174   2.448
 2732SOL    HW1 9095   5.853   3.158   2.520
 2732SOL    HW2 9096   5.732   3.255   2.470
 2733SOL     OW 9097   0.972   7.005   6.042
 2733SOL    HW1 9098   0.938   0.038   5.966
 2733SOL    HW2 9099   1.058   0.022   6.077
 2734SOL     OW 9100   1.650   6.229   3.727
 2734SOL    HW1 9101   1.663   6.200   3.822
 2734SOL    HW2 9102   1.734   6.271   3.692
 2735SOL     OW 9103   0.938   4.106   2.805
 2735SOL    HW1 9104   0.899   4.196   2.783
 2735SOL    HW2 9105   0.903   4.075   2.893
 2736SOL     OW 9106   5.009   0.812   5.692
 2736SOL    HW1 9107   4.933   0.757   5.658
 2736SOL    HW2 9108   5.013   0.805   5.792
 2737SOL     OW 9109   3.323   3.421   6.287
 2737SOL    HW1 9110   3.342   3.507   6.240
 2737SOL    HW2 9111   3.409   3.380   6.316
 2738SOL     OW 9112   5.171   5.515   3.932
 2738SOL    HW1 9113   5.234   5.500   3.856
 2738SOL    HW2 9114   5.222   5.531   4.016
 2739SOL     OW 9115   5.861   4.081   0.995
 2739SOL    HW1 9116   5.762   4.079   0.977
 2739SOL    HW2 9117   5.879   4.041   1.085
 2740SOL     OW 9118   6.392   1.867   2.343
 2740SOL    HW1 9119   6.343   1.891   2.259
 2740SOL    HW2 9120   6.342   1.903   2.422
 2741SOL     OW 9121   0.365   1.849   5.969
 2741SOL    HW1 9122   0.446   1.820   6.020
 2741SOL    HW2 9123   0.379   1.832   5.871
 2742SOL     OW 9124   1.234   5.596   6.239
 2742SOL    HW1 9125   1.191   5.535   6.173
 2742SOL    HW2 9126   1.305   5.651   6.194
 2743SOL     OW 9127   5.588   5.648   1.343
 2743SOL    HW1 9128   5.550   5.558   1.362
 2743SOL    HW2 9129   5.524   5.700   1.286
 2744SOL     OW 9130   4.217   2.442   6.631
 2744SOL    HW1 9131   4.164   2.521   6.661
 2744SOL    HW2 9132   4.223   2.441   6.531
 2745SOL     OW 9133   1.925   6.333   0.605
 2745SOL    HW1 9134   1.921   6.430   0.580
 2745SOL    HW2 9135   1.981   6.323   0.687
 2746SOL     OW 9136   1.686   2.858   5.030
 2746SOL    HW1 9137   1.664   2.767   4.993
 2746SOL    HW2 9138   1.782   2.860   5.058
 2747SOL     OW 9139   5.771   5.219   5.157
 2747SOL    HW1 9140   5.813   5.197   5.069
 2747SOL    HW2 9141   5.707   5.146   5.183
 2748SOL     OW 9142   3.419   1.457   3.589
 2748SOL    HW1 9143   3.482   1.533   3.608
 2748SOL    HW2 9144   3.467   1.370   3.600
 2749SOL     OW 9145   5.443   4.731   4.290
 2749SOL    HW1 9146   5.458   4.642   4.247
 2749SOL    HW2 9147   5.442   4.720   4.390
 2750SOL     OW 9148   0.567   5.878   1.693
 2750SOL    HW1 9149   0.600   5.870   1.599
 2750SOL    HW2 9150   0.640   5.912   1.751
 2751SOL     OW 9151   1.879   6.883   0.579
 2751SOL    HW1 9152   1.917   6.970   0.610
 2751SOL    HW2 9153   1.779   6.889   0.577
 2752SOL     OW 9154   4.773   6.375   5.228
 2752SOL    HW1 9155   4.834   6.325   5.290
 2752SOL    HW2 9156   4.686   6.327   5.221
 2753SOL     OW 9157   3.368   5.731   6.114
 2753SOL    HW1 9158   3.334   5.815   6.156
 2753SOL    HW2 9159   3.425   5.753   6.035
 2754SOL     OW 9160   0.497   0.289   4.294
 2754SOL    HW1 9161   0.557   0.368   4.300
 2754SOL    HW2 9162   0.471   0.260   4.386
 2755SOL     OW 9163   2.561   6.170   3.239
 2755SOL    HW1 9164   2.650   6.139   3.274
 2755SOL    HW2 9165   2.562   6.168   3.139
 2756SOL     OW 9166   5.785   4.119   4.539
 2756SOL    HW1 9167   5.794   4.021   4.557
 2756SOL    HW2 9168   5.744   4.133   4.450
 2757SOL     OW 9169   4.294   1.945   6.757
 2757SOL    HW1 9170   4.208   1.951   6.808
 2757SOL    HW2 9171   4.315   1.849   6.739
 2758SOL     OW 9172   5.031   4.967   3.418
 2758SOL    HW1 9173   4.993   5.059   3.406
 2758SOL    HW2 9174   5.030   4.919   3.331
 2759SOL     OW 9175   3.390   4.412   5.945
 2759SOL    HW1 9176   3.370   4.506   5.917
 2759SOL    HW2 9177   3.329   4.385   6.019
 2760SOL     OW 9178   5.734   6.000   3.375
 2760SOL    HW1 9179   5.695   5.925   3.427
 2760SOL    HW2 9180   5.774   6.067   3.437
 2761SOL     OW 9181   1.880   3.763   2.883
 2761SOL    HW1 9182   1.863   3.749   2.980
 2761SOL    HW2 9183   1.870   3.859   2.860
 2762SOL     OW 9184   1.589   2.265   6.847
 2762SOL    HW1 9185   1.645   2.261   6.765
 2762SOL    HW2 9186   1.648   2.267   6.928
 2763SOL     OW 9187   4.923   1.502   5.649
 2763SOL    HW1 9188   4.829   1.490   5.619
 2763SOL    HW2 9189   4.952   1.421   5.700
 2764SOL     OW 9190   0.812   4.355   2.691
 2764SOL    HW1 9191   0.799   4.450   2.665
 2764SOL    HW2 9192   0.725   4.307   2.689
 2765SOL     OW 9193   6.337   6.617   6.825
 2765SOL    HW1 9194   6.337   6.549   6.898
 2765SOL    HW2 9195   6.290   6.699   6.856
 2766SOL     OW 9196   4.558   1.224   7.004
 2766SOL    HW1 9197   4.586   1.219   0.077
 2766SOL    HW2 9198   4.567   1.318   6.971
 2767SOL     OW 9199   5.899   5.598   6.190
 2767SOL    HW1 9200   5.809   5.634   6.167
 2767SOL    HW2 9201   5.968   5.640   6.132
 2768SOL     OW 9202   4.056   0.471   0.985
 2768SOL    HW1 9203   4.101   0.443   0.900
 2768SOL    HW2 9204   4.121   0.523   1.041
 2769SOL     OW 9205   1.856   3.722   5.776
 2769SOL    HW1 9206   1.889   3.779   5.851
 2769SOL    HW2 9207   1.810   3.780   5.708
 2770SOL     OW 9208   3.363   6.572   6.262
 2770SOL    HW1 9209   3.286   6.542   6.205
 2770SOL    HW2 9210   3.415   6.492   6.292
 2771SOL     OW 9211   4.628   0.184   4.295
 2771SOL    HW1 9212   4.538   0.187   4.338
 2771SOL    HW2 9213   4.619   0.161   4.198
 2772SOL     OW 9214   3.679   0.721   2.609
 2772SOL    HW1 9215   3.720   0.631   2.595
 2772SOL    HW2 9216   3.730   0.771   2.680
 2773SOL     OW 9217   0.549   2.913   4.770
 2773SOL    HW1 9218   0.549   2.986   4.838
 2773SOL    HW2 9219   0.455   2.894   4.741
 2774SOL     OW 9220   4.777   1.964   3.272
 2774SOL    HW1 9221   4.799   1.914   3.188
 2774SOL    HW2 9222   4.858   2.014   3.303
 2775SOL     OW 9223   0.119   3.933   4.347
 2775SOL    HW1 9224   0.019   3.927   4.344
 2775SOL    HW2 9225   0.155   3.861   4.406
 2776SOL     OW 9226   4.737   4.820   6.338
 2776SOL    HW1 9227   4.642   4.843   6.317
 2776SOL    HW2 9228   4.790   4.813   6.254
 2777SOL     OW 9229   3.305   2.223   5.852
 2777SOL    HW1 9230   3.404   2.234   5.854
 2777SOL    HW2 9231   3.266   2.290   5.789
 2778SOL     OW 9232   2.646   5.813   6.570
 2778SOL    HW1 9233   2.642   5.912   6.567
 2778SOL    HW2 9234   2.734   5.782   6.533
 2779SOL     OW 9235   5.735   6.348   2.061
 2779SOL    HW1 9236   5.796   6.348   1.981
 2779SOL    HW2 9237   5.665   6.278   2.048
 2780SOL     OW 9238   0.339   1.213   6.363
 2780SOL    HW1 9239   0.324   1.130   6.417
 2780SOL    HW2 9240   0.437   1.229   6.353
 2781SOL     OW 9241   6.730   0.457   2.173
 2781SOL    HW1 9242   6.738   0.526   2.101
 2781SOL    HW2 9243   6.638   0.457   2.210
 2782SOL     OW 9244   4.335   1.341   6.453
 2782SOL    HW1 9245   4.345   1.286   6.536
 2782SOL    HW2 9246   4.285   1.424   6.473
 2783SOL     OW 9247   5.979   3.804   2.062
 2783SOL    HW1 9248   5.908   3.873   2.052
 2783SOL    HW2 9249   6.010   3.775   1.971
 2784SOL     OW 9250   1.866   1.727   1.708
 2784SOL    HW1 9251   1.794   1.669   1.746
 2784SOL    HW2 9252   1.929   1.670   1.655
 2785SOL     OW 9253   4.952   2.860   1.888
 2785SOL    HW1 9254   4.927   2.802   1.810
 2785SOL    HW2 9255   4.869   2.899   1.928
 2786SOL     OW 9256   6.999   5.409   0.473
 2786SOL    HW1 9257   6.928   5.464   0.518
 2786SOL    HW2 9258   0.046   5.383   0.539
 2787SOL     OW 9259   6.119   5.732   5.522
 2787SOL    HW1 9260   6.163   5.811   5.564
 2787SOL    HW2 9261   6.094   5.666   5.592
 2788SOL     OW 9262   3.332   6.530   5.840
 2788SOL    HW1 9263   3.423   6.497   5.812
 2788SOL    HW2 9264   3.289   6.464   5.901
 2789SOL     OW 9265   1.274   2.741   4.076
 2789SOL    HW1 9266   1.221   2.673   4.027
 2789SOL    HW2 9267   1.353   2.698   4.120
 2790SOL     OW 9268   2.311   5.563   0.623
 2790SOL    HW1 9269   2.296   5.648   0.573
 2790SOL    HW2 9270   2.295   5.578   0.720
 2791SOL     OW 9271   7.004   3.599   2.693
 2791SOL    HW1 9272   6.975   3.572   2.601
 2791SOL    HW2 9273   0.080   3.588   2.701
 2792SOL     OW 9274   3.296   1.158   4.980
 2792SOL    HW1 9275   3.250   1.212   5.051
 2792SOL    HW2 9276   3.251   1.070   4.970
 2793SOL     OW 9277   4.153   4.261   1.189
 2793SOL    HW1 9278   4.116   4.293   1.276
 2793SOL    HW2 9279   4.143   4.161   1.183
 2794SOL     OW 9280   0.046   1.453   6.133
 2794SOL    HW1 9281   6.974   1.432   6.158
 2794SOL    HW2 9282   0.048   1.535   6.076
 2795SOL     OW 9283   0.440   4.721   1.427
 2795SOL    HW1 9284   0.442   4.718   1.327
 2795SOL    HW2 9285   0.533   4.714   1.462
 2796SOL     OW 9286   0.742   6.141   5.609
 2796SOL    HW1 9287   0.704   6.087   5.534
 2796SOL    HW2 9288   0.825   6.186   5.578
 2797SOL     OW 9289   5.620   6.555   4.470
 2797SOL    HW1 9290   5.536   6.534   4.520
 2797SOL    HW2 9291   5.640   6.481   4.407
 2798SOL     OW 9292   6.609   6.625   1.858
 2798SOL    HW1 9293   6.643   6.531   1.856
 2798SOL    HW2 9294   6.630   6.667   1.946
 2799SOL     OW 9295   4.214   5.951   4.550
 2799SOL    HW1 9296   4.177   5.989   4.634
 2799SOL    HW2 9297   4.140   5.917   4.492
 2800SOL     OW 9298   6.426   0.442   0.061
 2800SOL    HW1 9299   6.344   0.443   0.004
 2800SOL    HW2 9300   6.499   0.491   0.016
 2801SOL     OW 9301   0.599   5.080   5.967
 2801SOL    HW1 9302   0.533   5.131   5.912
 2801SOL    HW2 9303   0.585   4.982   5.952
 2802SOL     OW 9304   6.342   6.175   5.232
 2802SOL    HW1 9305   6.392   6.145   5.151
 2802SOL    HW2 9306   6.270   6.109   5.253
 2803SOL     OW 9307   3.436   3.102   5.848
 2803SOL    HW1 9308   3.472   3.052   5.770
 2803SOL    HW2 9309   3.436   3.200   5.829
 2804SOL     OW 9310   0.690   2.861   3.965
 2804SOL    HW1 9311   0.778   2.832   3.930
 2804SOL    HW2 9312   0.691   2.859   4.065
 2805SOL     OW 9313   4.546   3.812   1.671
 2805SOL    HW1 9314   4.478   3.740   1.656
 2805SOL    HW2 9315   4.632   3.770   1.701
 2806SOL     OW 9316   1.167   4.087   5.805
 2806SOL    HW1 9317   1.131   4.055   5.892
 2806SOL    HW2 9318   1.265   4.067   5.801
 2807SOL     OW 9319   2.671   0.394   3.024
 2807SOL    HW1 9320   2.610   0.468   2.995
 2807SOL    HW2 9321   2.616   0.314   3.049
 2808SOL     OW 9322   6.346   5.532   0.642
 2808SOL    HW1 9323   6.413   5.521   0.570
 2808SOL    HW2 9324   6.391   5.528   0.731
 2809SOL     OW 9325   6.399   5.001   2.341
 2809SOL    HW1 9326   6.404   5.096   2.370
 2809SOL    HW2 9327   6.450   4.944   2.405
 2810SOL     OW 9328   2.686   5.688   3.599
 2810SOL    HW1 9329   2.631   5.719   3.677
 2810SOL    HW2 9330   2.770   5.645   3.633
 2811SOL     OW 9331   0.674   0.286   2.398
 2811SOL    HW1 9332   0.673   0.365   2.337
 2811SOL    HW2 9333   0.693   0.316   2.491
 2812SOL     OW 9334   0.744   3.241   1.191
 2812SOL    HW1 9335   0.650   3.247   1.158
 2812SOL    HW2 9336   0.807   3.258   1.114
 2813SOL     OW 9337   0.227   1.781   1.021
 2813SOL    HW1 9338   0.135   1.819   1.037
 2813SOL    HW2 9339   0.295   1.848   1.049
 2814SOL     OW 9340   2.289   4.476   7.007
 2814SOL    HW1 9341   2.213   4.520   0.033
 2814SOL    HW2 9342   2.370   4.534   7.012
 2815SOL     OW 9343   0.191   5.875   4.739
 2815SOL    HW1 9344   0.215   5.831   4.825
 2815SOL    HW2 9345   0.272   5.883   4.682
 2816SOL     OW 9346   0.403   6.063   5.586
 2816SOL    HW1 9347   0.467   6.077   5.510
 2816SOL    HW2 9348   0.422   6.131   5.658
 2817SOL     OW 9349   3.813   0.554   1.838
 2817SOL    HW1 9350   3.793   0.603   1.923
 2817SOL    HW2 9351   3.885   0.601   1.788
 2818SOL     OW 9352   1.603   0.602   1.453
 2818SOL    HW1 9353   1.505   0.619   1.466
 2818SOL    HW2 9354   1.620   0.503   1.455
 2819SOL     OW 9355   0.548   6.923   0.733
 2819SOL    HW1 9356   0.567   6.835   0.688
 2819SOL    HW2 9357   0.621   6.988   0.711
 2820SOL     OW 9358   1.029   2.411   2.067
 2820SOL    HW1 9359   0.966   2.488   2.066
 2820SOL    HW2 9360   1.123   2.445   2.070
 2821SOL     OW 9361   3.594   4.035   6.764
 2821SOL    HW1 9362   3.694   4.030   6.756
 2821SOL    HW2 9363   3.558   4.092   6.691
 2822SOL     OW 9364   4.118   2.553   0.470
 2822SOL    HW1 9365   4.051   2.619   0.503
 2822SOL    HW2 9366   4.209   2.593   0.474
 2823SOL     OW 9367   5.053   1.312   0.496
 2823SOL    HW1 9368   5.012   1.227   0.461
 2823SOL    HW2 9369   4.991   1.353   0.562
 2824SOL     OW 9370   1.152   3.594   5.768
 2824SOL    HW1 9371   1.115   3.672   5.718
 2824SOL    HW2 9372   1.247   3.579   5.741
 2825SOL     OW 9373   5.096   1.662   6.007
 2825SOL    HW1 9374   5.177   1.673   6.065
 2825SOL    HW2 9375   5.114   1.591   5.939
 2826SOL     OW 9376   0.926   3.748   6.109
 2826SOL    HW1 9377   0.955   3.664   6.065
 2826SOL    HW2 9378   0.997   3.780   6.171
 2827SOL     OW 9379   6.931   1.143   6.516
 2827SOL    HW1 9380   6.847   1.195   6.531
 2827SOL    HW2 9381   6.918   1.048   6.545
 2828SOL     OW 9382   1.380   3.592   0.894
 2828SOL    HW1 9383   1.471   3.550   0.897
 2828SOL    HW2 9384   1.379   3.673   0.952
 2829SOL     OW 9385   3.761   4.091   3.323
 2829SOL    HW1 9386   3.852   4.065   3.293
 2829SOL    HW2 9387   3.731   4.031   3.397
 2830SOL     OW 9388   3.762   5.382   6.051
 2830SOL    HW1 9389   3.780   5.364   6.148
 2830SOL    HW2 9390   3.663   5.389   6.037
 2831SOL     OW 9391   6.846   2.255   2.143
 2831SOL    HW1 9392   6.914   2.306   2.197
 2831SOL    HW2 9393   6.831   2.303   2.056
 2832SOL     OW 9394   0.778   3.061   1.383
 2832SOL    HW1 9395   0.756   3.124   1.309
 2832SOL    HW2 9396   0.759   3.105   1.471
 2833SOL     OW 9397   2.230   1.500   2.229
 2833SOL    HW1 9398   2.234   1.508   2.130
 2833SOL    HW2 9399   2.145   1.454   2.255
 2834SOL     OW 9400   4.331   6.165   5.013
 2834SOL    HW1 9401   4.402   6.137   4.948
 2834SOL    HW2 9402   4.254   6.101   5.008
 2835SOL     OW 9403   0.994   6.274   0.346
 2835SOL    HW1 9404   1.075   6.316   0.389
 2835SOL    HW2 9405   1.014   6.178   0.325
 2836SOL     OW 9406   3.371   6.682   3.232
 2836SOL    HW1 9407   3.447   6.722   3.284
 2836SOL    HW2 9408   3.288   6.735   3.248
 2837SOL     OW 9409   5.938   3.804   2.453
 2837SOL    HW1 9410   5.927   3.707   2.473
 2837SOL    HW2 9411   6.000   3.816   2.375
 2838SOL     OW 9412   5.246   3.671   6.002
 2838SOL    HW1 9413   5.208   3.666   6.094
 2838SOL    HW2 9414   5.209   3.751   5.955
 2839SOL     OW 9415   6.235   3.483   4.604
 2839SOL    HW1 9416   6.319   3.483   4.659
 2839SOL    HW2 9417   6.255   3.452   4.512
 2840SOL     OW 9418   0.380   5.809   2.564
 2840SOL    HW1 9419   0.294   5.761   2.580
 2840SOL    HW2 9420   0.427   5.824   2.651
 2841SOL     OW 9421   5.839   2.315   1.565
 2841SOL    HW1 9422   5.920   2.267   1.598
 2841SOL    HW2 9423   5.841   2.319   1.465
 2842SOL     OW 9424   1.650   6.431   4.018
 2842SOL    HW1 9425   1.671   6.451   4.114
 2842SOL    HW2 9426   1.724   6.466   3.961
 2843SOL     OW 9427   2.197   2.874   3.442
 2843SOL    HW1 9428   2.187   2.939   3.367
 2843SOL    HW2 9429   2.125   2.804   3.435
 2844SOL     OW 9430   4.867   4.622   0.752
 2844SOL    HW1 9431   4.857   4.565   0.834
 2844SOL    HW2 9432   4.965   4.634   0.732
 2845SOL     OW 9433   4.117   2.205   2.894
 2845SOL    HW1 9434   4.077   2.233   2.807
 2845SOL    HW2 9435   4.213   2.180   2.880
 2846SOL     OW 9436   4.647   0.567   0.124
 2846SOL    HW1 9437   4.607   0.516   0.200
 2846SOL    HW2 9438   4.709   0.508   0.072
 2847SOL     OW 9439   4.785   4.231   2.318
 2847SOL    HW1 9440   4.777   4.241   2.417
 2847SOL    HW2 9441   4.698   4.255   2.275
 2848SOL     OW 9442   0.531   3.339   5.116
 2848SOL    HW1 9443   0.631   3.348   5.117
 2848SOL    HW2 9444   0.494   3.396   5.042
 2849SOL     OW 9445   3.797   0.578   2.286
 2849SOL    HW1 9446   3.886   0.623   2.297
 2849SOL    HW2 9447   3.803   0.485   2.321
 2850SOL     OW 9448   2.374   0.029   2.969
 2850SOL    HW1 9449   2.389   0.106   3.031
 2850SOL    HW2 9450   2.284   7.012   2.986
 2851SOL     OW 9451   4.377   3.461   0.932
 2851SOL    HW1 9452   4.411   3.525   1.001
 2851SOL    HW2 9453   4.317   3.393   0.976
 2852SOL     OW 9454   6.799   4.354   6.050
 2852SOL    HW1 9455   6.838   4.441   6.081
 2852SOL    HW2 9456   6.738   4.371   5.972
 2853SOL     OW 9457   0.276   3.822   0.507
 2853SOL    HW1 9458   0.222   3.875   0.442
 2853SOL    HW2 9459   0.220   3.801   0.587
 2854SOL     OW 9460   3.022   1.377   6.086
 2854SOL    HW1 9461   3.099   1.441   6.091
 2854SOL    HW2 9462   2.964   1.401   6.008
 2855SOL     OW 9463   1.726   1.660   4.137
 2855SOL    HW1 9464   1.644   1.621   4.178
 2855SOL    HW2 9465   1.699   1.723   4.063
 2856SOL     OW 9466   1.215   4.235   2.824
 2856SOL    HW1 9467   1.266   4.302   2.877
 2856SOL    HW2 9468   1.120   4.234   2.854
 2857SOL     OW 9469   0.392   2.938   1.099
 2857SOL    HW1 9470   0.433   2.890   1.022
 2857SOL    HW2 9471   0.294   2.915   1.104
 2858SOL     OW 9472   4.448   4.602   2.450
 2858SOL    HW1 9473   4.434   4.635   2.544
 2858SOL    HW2 9474   4.545   4.608   2.427
 2859SOL     OW 9475   5.436   5.414   1.380
 2859SOL    HW1 9476   5.376   5.491   1.357
 2859SOL    HW2 9477   5.420   5.386   1.474
 2860SOL     OW 9478   1.440   6.143   1.314
 2860SOL    HW1 9479   1.529   6.181   1.341
 2860SOL    HW2 9480   1.412   6.074   1.380
 2861SOL     OW 9481   4.457   4.470   6.796
 2861SOL    HW1 9482   4.528   4.400   6.796
 2861SOL    HW2 9483   4.475   4.537   6.869
 2862SOL     OW 9484   4.472   3.161   1.411
 2862SOL    HW1 9485   4.457   3.165   1.510
 2862SOL    HW2 9486   4.418   3.233   1.367
 2863SOL     OW 9487   5.930   6.837   5.866
 2863SOL    HW1 9488   5.855   6.900   5.889
 2863SOL    HW2 9489   5.942   6.771   5.940
 2864SOL     OW 9490   3.786   3.292   1.085
 2864SOL    HW1 9491   3.805   3.256   1.176
 2864SOL    HW2 9492   3.866   3.343   1.052
 2865SOL     OW 9493   5.197   6.112   4.808
 2865SOL    HW1 9494   5.123   6.169   4.773
 2865SOL    HW2 9495   5.213   6.035   4.746
 2866SOL     OW 9496   4.926   4.117   6.471
 2866SOL    HW1 9497   5.023   4.107   6.447
 2866SOL    HW2 9498   4.870   4.110   6.388
 2867SOL     OW 9499   6.201   6.748   1.880
 2867SOL    HW1 9500   6.266   6.676   1.860
 2867SOL    HW2 9501   6.182   6.751   1.978
 2868SOL     OW 9502   1.582   0.805   5.967
 2868SOL    HW1 9503   1.679   0.783   5.962
 2868SOL    HW2 9504   1.571   0.902   5.988
 2869SOL     OW 9505   5.309   6.062   3.926
 2869SOL    HW1 9506   5.333   6.015   3.841
 2869SOL    HW2 9507   5.261   6.147   3.904
 2870SOL     OW 9508   0.976   1.412   1.310
 2870SOL    HW1 9509   1.049   1.418   1.242
 2870SOL    HW2 9510   1.015   1.417   1.402
 2871SOL     OW 9511   6.506   2.106   1.434
 2871SOL    HW1 9512   6.443   2.137   1.363
 2871SOL    HW2 9513   6.454   2.068   1.511
 2872SOL     OW 9514   2.665   1.626   2.440
 2872SOL    HW1 9515   2.739   1.684   2.474
 2872SOL    HW2 9516   2.697   1.531   2.437
 2873SOL     OW 9517   0.812   6.150   1.293
 2873SOL    HW1 9518   0.842   6.056   1.276
 2873SOL    HW2 9519   0.712   6.152   1.301
 2874SOL     OW 9520   2.376   0.592   3.178
 2874SOL    HW1 9521   2.413   0.585   3.085
 2874SOL    HW2 9522   2.307   0.664   3.180
 2875SOL     OW 9523   3.239   7.010   2.163
 2875SOL    HW1 9524   3.179   7.005   2.243
 2875SOL    HW2 9525   3.331   0.015   2.191
 2876SOL     OW 9526   1.745   6.206   1.748
 2876SOL    HW1 9527   1.776   6.205   1.844
 2876SOL    HW2 9528   1.783   6.286   1.702
 2877SOL     OW 9529   1.778   0.936   5.712
 2877SOL    HW1 9530   1.720   0.916   5.791
 2877SOL    HW2 9531   1.846   1.005   5.737
 2878SOL     OW 9532   3.963   3.247   4.794
 2878SOL    HW1 9533   3.934   3.154   4.775
 2878SOL    HW2 9534   4.048   3.245   4.847
 2879SOL     OW 9535   3.746   4.319   6.171
 2879SOL    HW1 9536   3.652   4.311   6.205
 2879SOL    HW2 9537   3.791   4.230   6.177
 2880SOL     OW 9538   1.184   1.675   4.365
 2880SOL    HW1 9539   1.174   1.669   4.266
 2880SOL    HW2 9540   1.172   1.770   4.394
 2881SOL     OW 9541   3.302   6.307   6.598
 2881SOL    HW1 9542   3.352   6.371   6.656
 2881SOL    HW2 9543   3.209   6.342   6.583
 2882SOL     OW 9544   4.242   6.131   0.387
 2882SOL    HW1 9545   4.304   6.096   0.317
 2882SOL    HW2 9546   4.235   6.064   0.461
 2883SOL     OW 9547   6.096   6.458   3.302
 2883SOL    HW1 9548   6.015   6.401   3.288
 2883SOL    HW2 9549   6.069   6.554   3.303
 2884SOL     OW 9550   0.171   5.429   2.515
 2884SOL    HW1 9551   0.267   5.455   2.529
 2884SOL    HW2 9552   0.125   5.420   2.604
 2885SOL     OW 9553   1.230   3.433   2.685
 2885SOL    HW1 9554   1.301   3.378   2.643
 2885SOL    HW2 9555   1.201   3.391   2.771
 2886SOL     OW 9556   2.943   4.335   6.568
 2886SOL    HW1 9557   2.886   4.254   6.581
 2886SOL    HW2 9558   3.019   4.312   6.506
 2887SOL     OW 9559   0.968   6.404   4.326
 2887SOL    HW1 9560   0.944   6.493   4.364
 2887SOL    HW2 9561   1.059   6.408   4.285
 2888SOL     OW 9562   6.677   6.374   0.083
 2888SOL    HW1 9563   6.674   6.469   0.050
 2888SOL    HW2 9564   6.771   6.341   0.082
 2889SOL     OW 9565   2.791   6.789   2.983
 2889SOL    HW1 9566   2.818   6.700   3.019
 2889SOL    HW2 9567   2.756   6.779   2.890
 2890SOL     OW 9568   2.156   0.139   0.885
 2890SOL    HW1 9569   2.138   0.066   0.952
 2890SOL    HW2 9570   2.110   0.118   0.799
 2891SOL     OW 9571   6.756   3.405   3.335
 2891SOL    HW1 9572   6.747   3.462   3.417
 2891SOL    HW2 9573   6.668   3.400   3.288
 2892SOL     OW 9574   6.115   3.953   1.044
 2892SOL    HW1 9575   6.029   3.958   0.994
 2892SOL    HW2 9576   6.163   3.869   1.019
 2893SOL     OW 9577   0.150   5.348   4.671
 2893SOL    HW1 9578   0.101   5.297   4.600
 2893SOL    HW2 9579   0.116   5.442   4.674
 2894SOL     OW 9580   1.422   5.166   2.105
 2894SOL    HW1 9581   1.410   5.102   2.028
 2894SOL    HW2 9582   1.516   5.161   2.137
 2895SOL     OW 9583   4.027   6.826   6.135
 2895SOL    HW1 9584   3.944   6.771   6.138
 2895SOL    HW2 9585   4.107   6.769   6.153
 2896SOL     OW 9586   5.401   6.239   4.957
 2896SOL    HW1 9587   5.477   6.177   4.974
 2896SOL    HW2 9588   5.340   6.199   4.889
 2897SOL     OW 9589   2.969   4.830   3.347
 2897SOL    HW1 9590   3.045   4.873   3.300
 2897SOL    HW2 9591   2.882   4.860   3.307
 2898SOL     OW 9592   5.936   4.246   2.451
 2898SOL    HW1 9593   6.015   4.206   2.496
 2898SOL    HW2 9594   5.857   4.185   2.460
 2899SOL     OW 9595   6.779   2.546   0.658
 2899SOL    HW1 9596   6.852   2.490   0.619
 2899SOL    HW2 9597   6.694   2.492   0.662
 2900SOL     OW 9598   2.727   3.909   6.981
 2900SOL    HW1 9599   2.756   3.814   6.969
 2900SOL    HW2 9600   2.784   3.969   6.926
 2901SOL     OW 9601   1.649   4.118   3.026
 2901SOL    HW1 9602   1.723   4.097   3.089
 2901SOL    HW2 9603   1.645   4.048   2.954
 2902SOL     OW 9604   0.498   5.859   3.940
 2902SOL    HW1 9605   0.582   5.826   3.983
 2902SOL    HW2 9606   0.445   5.782   3.906
 2903SOL     OW 9607   4.193   5.808   0.875
 2903SOL    HW1 9608   4.167   5.810   0.972
 2903SOL    HW2 9609   4.228   5.897   0.848
 2904SOL     OW 9610   2.622   4.505   5.202
 2904SOL    HW1 9611   2.585   4.555   5.124
 2904SOL    HW2 9612   2.722   4.510   5.200
 2905SOL     OW 9613   0.757   4.222   2.214
 2905SOL    HW1 9614   0.668   4.187   2.243
 2905SOL    HW2 9615   0.757   4.322   2.218
 2906SOL     OW 9616   5.753   5.786   3.070
 2906SOL    HW1 9617   5.654   5.797   3.083
 2906SOL    HW2 9618   5.795   5.760   3.157
 2907SOL     OW 9619   0.716   0.504   3.635
 2907SOL    HW1 9620   0.737   0.468   3.726
 2907SOL    HW2 9621   0.790   0.480   3.572
 2908SOL     OW 9622   4.995   6.772   3.181
 2908SOL    HW1 9623   4.936   6.702   3.140
 2908SOL    HW2 9624   4.975   6.778   3.279
 2909SOL     OW 9625   1.151   5.851   2.015
 2909SOL    HW1 9626   1.153   5.755   2.041
 2909SOL    HW2 9627   1.122   5.859   1.919
 2910SOL     OW 9628   0.090   0.821   3.361
 2910SOL    HW1 9629   0.173   0.810   3.306
 2910SOL    HW2 9630   0.074   0.918   3.379
 2911SOL     OW 9631   6.674   4.424   3.706
 2911SOL    HW1 9632   6.736   4.366   3.653
 2911SOL    HW2 9633   6.701   4.423   3.802
 2912SOL     OW 9634   6.703   6.396   0.530
 2912SOL    HW1 9635   6.791   6.419   0.490
 2912SOL    HW2 9636   6.639   6.472   0.518
 2913SOL     OW 9637   1.920   5.446   1.397
 2913SOL    HW1 9638   1.915   5.474   1.492
 2913SOL    HW2 9639   1.872   5.358   1.385
 2914SOL     OW 9640   5.650   5.226   0.420
 2914SOL    HW1 9641   5.739   5.204   0.459
 2914SOL    HW2 9642   5.592   5.145   0.423
 2915SOL     OW 9643   3.520   1.829   2.819
 2915SOL    HW1 9644   3.452   1.854   2.750
 2915SOL    HW2 9645   3.558   1.739   2.797
 2916SOL     OW 9646   2.152   5.981   0.385
 2916SOL    HW1 9647   2.084   6.014   0.320
 2916SOL    HW2 9648   2.124   6.001   0.478
 2917SOL     OW 9649   2.482   0.222   3.141
 2917SOL    HW1 9650   2.531   0.160   3.202
 2917SOL    HW2 9651   2.434   0.291   3.196
 2918SOL     OW 9652   6.032   3.981   0.739
 2918SOL    HW1 9653   6.099   4.047   0.774
 2918SOL    HW2 9654   6.029   3.987   0.639
 2919SOL     OW 9655   0.758   6.411   4.639
 2919SOL    HW1 9656   0.809   6.491   4.671
 2919SOL    HW2 9657   0.819   6.351   4.586
 2920SOL     OW 9658   1.347   0.592   2.151
 2920SOL    HW1 9659   1.281   0.586   2.076
 2920SOL    HW2 9660   1.318   0.532   2.226
 2921SOL     OW 9661   0.356   0.028   5.635
 2921SOL    HW1 9662   0.317   0.057   5.547
 2921SOL    HW2 9663   0.301   0.066   5.710
 2922SOL     OW 9664   4.483   0.818   3.444
 2922SOL    HW1 9665   4.402   0.875   3.430
 2922SOL    HW2 9666   4.463   0.749   3.514
 2923SOL     OW 9667   6.272   4.724   4.985
 2923SOL    HW1 9668   6.347   4.728   5.051
 2923SOL    HW2 9669   6.278   4.803   4.924
 2924SOL     OW 9670   6.776   2.572   5.645
 2924SOL    HW1 9671   6.839   2.518   5.588
 2924SOL    HW2 9672   6.722   2.632   5.587
 2925SOL     OW 9673   5.792   1.058   5.592
 2925SOL    HW1 9674   5.779   1.128   5.662
 2925SOL    HW2 9675   5.794   0.968   5.636
 2926SOL     OW 9676   0.497   1.332   4.727
 2926SOL    HW1 9677   0.567   1.262   4.744
 2926SOL    HW2 9678   0.409   1.288   4.712
 2927SOL     OW 9679   1.914   2.435   1.813
 2927SOL    HW1 9680   2.013   2.423   1.812
 2927SOL    HW2 9681   1.892   2.530   1.835
 2928SOL     OW 9682   6.493   2.205   6.885
 2928SOL    HW1 9683   6.396   2.192   6.904
 2928SOL    HW2 9684   6.506   2.217   6.787
 2929SOL     OW 9685   1.830   2.526   4.773
 2929SOL    HW1 9686   1.874   2.509   4.861
 2929SOL    HW2 9687   1.746   2.472   4.767
 2930SOL     OW 9688   0.011   5.622   4.673
 2930SOL    HW1 9689   0.077   5.697   4.667
 2930SOL    HW2 9690   6.941   5.659   4.669
 2931SOL     OW 9691   3.911   3.987   6.509
 2931SOL    HW1 9692   3.932   3.968   6.413
 2931SOL    HW2 9693   3.814   3.966   6.526
 2932SOL     OW 9694   6.617   5.278   0.789
 2932SOL    HW1 9695   6.605   5.377   0.796
 2932SOL    HW2 9696   6.603   5.236   0.879
 2933SOL     OW 9697   0.915   6.862   0.713
 2933SOL    HW1 9698   1.013   6.851   0.732
 2933SOL    HW2 9699   0.876   6.774   0.689
 2934SOL     OW 9700   3.886   3.602   0.637
 2934SOL    HW1 9701   3.870   3.690   0.682
 2934SOL    HW2 9702   3.973   3.564   0.668
 2935SOL     OW 9703   0.523   2.630   6.458
 2935SOL    HW1 9704   0.504   2.684   6.376
 2935SOL    HW2 9705   0.582   2.553   6.433
 2936SOL     OW 9706   4.755   0.424   0.867
 2936SOL    HW1 9707   4.839   0.463   0.829
 2936SOL    HW2 9708   4.771   0.396   0.961
 2937SOL     OW 9709   4.276   5.734   1.820
 2937SOL    HW1 9710   4.225   5.783   1.750
 2937SOL    HW2 9711   4.226   5.738   1.906
 2938SOL     OW 9712   6.501   6.033   6.180
 2938SOL    HW1 9713   6.412   5.989   6.189
 2938SOL    HW2 9714   6.524   6.082   6.264
 2939SOL     OW 9715   0.046   5.435   1.509
 2939SOL    HW1 9716   7.021   5.375   1.573
 2939SOL    HW2 9717   0.045   5.396   1.418
 2940SOL     OW 9718   5.429   5.694   3.887
 2940SOL    HW1 9719   5.473   5.627   3.828
 2940SOL    HW2 9720   5.413   5.654   3.977
 2941SOL     OW 9721   1.984   3.274   3.813
 2941SOL    HW1 9722   1.902   3.328   3.795
 2941SOL    HW2 9723   2.062   3.334   3.830
 2942SOL     OW 9724   2.777   1.435   0.264
 2942SOL    HW1 9725   2.760   1.492   0.344
 2942SOL    HW2 9726   2.725   1.470   0.186
 2943SOL     OW 9727   5.968   4.431   3.657
 2943SOL    HW1 9728   6.025   4.440   3.738
 2943SOL    HW2 9729   6.017   4.378   3.587
 2944SOL     OW 9730   2.607   6.122   4.043
 2944SOL    HW1 9731   2.553   6.067   4.107
 2944SOL    HW2 9732   2.645   6.063   3.972
 2945SOL     OW 9733   5.256   4.285   1.349
 2945SOL    HW1 9734   5.228   4.246   1.437
 2945SOL    HW2 9735   5.257   4.385   1.356
 2946SOL     OW 9736   2.798   4.128   6.279
 2946SOL    HW1 9737   2.731   4.131   6.205
 2946SOL    HW2 9738   2.889   4.108   6.240
 2947SOL     OW 9739   6.029   6.307   0.658
 2947SOL    HW1 9740   6.113   6.350   0.623
 2947SOL    HW2 9741   5.988   6.252   0.586
 2948SOL     OW 9742   5.770   4.443   3.047
 2948SOL    HW1 9743   5.753   4.464   3.143
 2948SOL    HW2 9744   5.752   4.346   3.031
 2949SOL     OW 9745   1.242   6.977   1.378
 2949SOL    HW1 9746   1.231   6.885   1.416
 2949SOL    HW2 9747   1.338   6.993   1.357
 2950SOL     OW 9748   4.594   4.815   2.590
 2950SOL    HW1 9749   4.545   4.863   2.518
 2950SOL    HW2 9750   4.688   4.797   2.560
 2951SOL     OW 9751   5.967   0.991   1.461
 2951SOL    HW1 9752   5.989   0.903   1.502
 2951SOL    HW2 9753   5.868   1.005   1.461
 2952SOL     OW 9754   5.569   0.872   4.163
 2952SOL    HW1 9755   5.612   0.922   4.087
 2952SOL    HW2 9756   5.617   0.785   4.177
 2953SOL     OW 9757   0.804   6.307   3.248
 2953SOL    HW1 9758   0.724   6.275   3.198
 2953SOL    HW2 9759   0.843   6.232   3.302
 2954SOL     OW 9760   0.764   4.754   6.189
 2954SOL    HW1 9761   0.821   4.672   6.187
 2954SOL    HW2 9762   0.731   4.769   6.282
 2955SOL     OW 9763   1.542   3.890   6.927
 2955SOL    HW1 9764   1.518   3.863   7.020
 2955SOL    HW2 9765   1.616   3.957   6.930
 2956SOL     OW 9766   6.261   4.574   3.417
 2956SOL    HW1 9767   6.279   4.507   3.489
 2956SOL    HW2 9768   6.332   4.569   3.347
 2957SOL     OW 9769   2.670   4.976   1.652
 2957SOL    HW1 9770   2.591   4.935   1.698
 2957SOL    HW2 9771   2.750   4.918   1.664
 2958SOL     OW 9772   2.382   5.051   3.207
 2958SOL    HW1 9773   2.441   4.977   3.174
 2958SOL    HW2 9774   2.286   5.030   3.184
 2959SOL     OW 9775   6.576   2.087   2.690
 2959SOL    HW1 9776   6.496   2.146   2.680
 2959SOL    HW2 9777   6.591   2.035   2.606
 2960SOL     OW 9778   4.441   0.695   0.728
 2960SOL    HW1 9779   4.351   0.726   0.699
 2960SOL    HW2 9780   4.472   0.748   0.807
 2961SOL     OW 9781   5.333   4.298   2.134
 2961SOL    HW1 9782   5.272   4.252   2.198
 2961SOL    HW2 9783   5.425   4.304   2.174
 2962SOL     OW 9784   6.870   6.286   1.984
 2962SOL    HW1 9785   6.797   6.332   2.035
 2962SOL    HW2 9786   6.948   6.271   2.043
 2963SOL     OW 9787   1.350   0.809   5.534
 2963SOL    HW1 9788   1.362   0.771   5.626
 2963SOL    HW2 9789   1.432   0.860   5.509
 2964SOL     OW 9790   0.863   2.914   6.730
 2964SOL    HW1 9791   0.955   2.876   6.730
 2964SOL    HW2 9792   0.797   2.840   6.720
 2965SOL     OW 9793   0.618   0.703   5.133
 2965SOL    HW1 9794   0.587   0.653   5.213
 2965SOL    HW2 9795   0.543   0.710   5.067
 2966SOL     OW 9796   4.327   5.846   3.572
 2966SOL    HW1 9797   4.421   5.834   3.542
 2966SOL    HW2 9798   4.266   5.847   3.493
 2967SOL     OW 9799   6.775   1.252   5.692
 2967SOL    HW1 9800   6.770   1.153   5.679
 2967SOL    HW2 9801   6.836   1.292   5.624
 2968SOL     OW 9802   1.466   1.941   1.221
 2968SOL    HW1 9803   1.419   2.017   1.265
 2968SOL    HW2 9804   1.543   1.913   1.278
 2969SOL     OW 9805   5.638   3.861   4.369
 2969SOL    HW1 9806   5.698   3.839   4.445
 2969SOL    HW2 9807   5.648   3.957   4.344
 2970SOL     OW 9808   2.205   3.003   4.664
 2970SOL    HW1 9809   2.159   3.092   4.651
 2970SOL    HW2 9810   2.187   2.970   4.756
 2971SOL     OW 9811   5.844   3.792   6.893
 2971SOL    HW1 9812   5.918   3.850   6.926
 2971SOL    HW2 9813   5.882   3.711   6.847
 2972SOL     OW 9814   5.845   5.089   6.253
 2972SOL    HW1 9815   5.886   5.029   6.322
 2972SOL    HW2 9816   5.858   5.184   6.279
 2973SOL     OW 9817   5.347   6.782   2.243
 2973SOL    HW1 9818   5.350   6.856   2.310
 2973SOL    HW2 9819   5.267   6.724   2.260
 2974SOL     OW 9820   5.336   4.929   3.674
 2974SOL    HW1 9821   5.386   4.880   3.746
 2974SOL    HW2 9822   5.274   4.866   3.627
 2975SOL     OW 9823   4.497   4.873   4.105
 2975SOL    HW1 9824   4.425   4.847   4.041
 2975SOL    HW2 9825   4.512   4.797   4.170
 2976SOL     OW 9826   4.748   2.169   2.578
 2976SOL    HW1 9827   4.822   2.101   2.570
 2976SOL    HW2 9828   4.730   2.209   2.489
 2977SOL     OW 9829   0.179   0.229   1.452
 2977SOL    HW1 9830   0.160   0.297   1.382
 2977SOL    HW2 9831   0.124   0.147   1.435
 2978SOL     OW 9832   4.118   4.419   5.973
 2978SOL    HW1 9833   4.177   4.341   5.995
 2978SOL    HW2 9834   4.065   4.445   6.054
 2979SOL     OW 9835   2.270   1.757   4.632
 2979SOL    HW1 9836   2.301   1.852   4.625
 2979SOL    HW2 9837   2.239   1.725   4.543
 2980SOL     OW 9838   4.002   3.897   6.256
 2980SOL    HW1 9839   3.951   3.836   6.195
 2980SOL    HW2 9840   4.099   3.892   6.235
 2981SOL     OW 9841   1.946   1.184   0.613
 2981SOL    HW1 9842   1.964   1.098   0.565
 2981SOL    HW2 9843   1.849   1.188   0.640
 2982SOL     OW 9844   1.338   0.249   2.111
 2982SOL    HW1 9845   1.259   0.227   2.054
 2982SOL    HW2 9846   1.327   0.342   2.148
 2983SOL     OW 9847   6.088   3.287   7.004
 2983SOL    HW1 9848   6.102   3.211   0.045
 2983SOL    HW2 9849   6.152   3.279   6.928
 2984SOL     OW 9850   6.341   4.953   0.087
 2984SOL    HW1 9851   6.318   5.051   0.094
 2984SOL    HW2 9852   6.281   4.910   0.018
 2985SOL     OW 9853   0.454   0.353   5.196
 2985SOL    HW1 9854   0.376   0.377   5.138
 2985SOL    HW2 9855   0.472   0.428   5.260
 2986SOL     OW 9856   3.551   4.115   2.737
 2986SOL    HW1 9857   3.556   4.211   2.708
 2986SOL    HW2 9858   3.635   4.092   2.787
 2987SOL     OW 9859   0.880   1.679   4.399
 2987SOL    HW1 9860   0.938   1.750   4.358
 2987SOL    HW2 9861   0.799   1.721   4.439
 2988SOL     OW 9862   0.786   1.309   0.688
 2988SOL    HW1 9863   0.691   1.309   0.657
 2988SOL    HW2 9864   0.836   1.382   0.642
 2989SOL     OW 9865   5.303   2.985   5.088
 2989SOL    HW1 9866   5.369   3.034   5.032
 2989SOL    HW2 9867   5.210   3.009   5.060
 2990SOL     OW 9868   4.951   1.829   4.848
 2990SOL    HW1 9869   5.003   1.908   4.817
 2990SOL    HW2 9870   5.007   1.774   4.910
 2991SOL     OW 9871   5.390   3.223   0.863
 2991SOL    HW1 9872   5.391   3.323   0.858
 2991SOL    HW2 9873   5.333   3.194   0.940
 2992SOL     OW 9874   0.491   3.787   5.573
 2992SOL    HW1 9875   0.464   3.850   5.501
 2992SOL    HW2 9876   0.485   3.693   5.540
 2993SOL     OW 9877   0.999   4.603   6.957
 2993SOL    HW1 9878   0.928   4.673   6.955
 2993SOL    HW2 9879   1.012   4.572   0.029
 2994SOL     OW 9880   4.501   6.077   0.182
 2994SOL    HW1 9881   4.557   6.139   0.237
 2994SOL    HW2 9882   4.534   6.077   0.088
 2995SOL     OW 9883   4.821   0.194   0.631
 2995SOL    HW1 9884   4.757   0.270   0.639
 2995SOL    HW2 9885   4.782   0.123   0.573
 2996SOL     OW 9886   1.515   1.998   4.707
 2996SOL    HW1 9887   1.560   1.991   4.796
 2996SOL    HW2 9888   1.563   2.064   4.650
 2997SOL     OW 9889   4.841   0.719   3.832
 2997SOL    HW1 9890   4.832   0.795   3.768
 2997SOL    HW2 9891   4.916   0.738   3.895
 2998SOL     OW 9892   2.900   0.906   3.133
 2998SOL    HW1 9893   2.937   0.931   3.043
 2998SOL    HW2 9894   2.801   0.919   3.134
 2999SOL     OW 9895   2.328   4.594   0.510
 2999SOL    HW1 9896   2.235   4.584   0.545
 2999SOL    HW2 9897   2.361   4.506   0.475
 3000SOL     OW 9898   2.707   3.670   5.304
 3000SOL    HW1 9899   2.691   3.757   5.350
 3000SOL    HW2 9900   2.787   3.678   5.243
 3001SOL     OW 9901   6.126   1.834   6.289
 3001SOL    HW1 9902   6.189   1.910   6.273
 3001SOL    HW2 9903   6.144   1.795   6.379
 3002SOL     OW 9904   2.640   1.128   1.512
 3002SOL    HW1 9905   2.686   1.178   1.438
 3002SOL    HW2 9906   2.626   1.190   1.589
 3003SOL     OW 9907   1.226   5.874   0.453
 3003SOL    HW1 9908   1.293   5.804   0.427
 3003SOL    HW2 9909   1.256   5.919   0.537
 3004SOL     OW 9910   2.531   5.144   4.001
 3004SOL    HW1 9911   2.584   5.091   4.067
 3004SOL    HW2 9912   2.594   5.198   3.945
 3005SOL     OW 9913   1.581   2.678   5.744
 3005SOL    HW1 9914   1.667   2.656   5.699
 3005SOL    HW2 9915   1.504   2.654   5.685
 3006SOL     OW 9916   4.817   1.933   5.114
 3006SOL    HW1 9917   4.908   1.912   5.150
 3006SOL    HW2 9918   4.824   2.008   5.048
 3007SOL     OW 9919   5.745   5.672   0.073
 3007SOL    HW1 9920   5.799   5.684   0.156
 3007SOL    HW2 9921   5.717   5.576   0.066
 3008SOL     OW 9922   4.291   2.475   5.744
 3008SOL    HW1 9923   4.254   2.446   5.832
 3008SOL    HW2 9924   4.230   2.542   5.703
 3009SOL     OW 9925   0.537   2.864   2.775
 3009SOL    HW1 9926   0.584   2.798   2.833
 3009SOL    HW2 9927   0.440   2.839   2.769
 3010SOL     OW 9928   3.966   5.645   6.107
 3010SOL    HW1 9929   4.029   5.590   6.052
 3010SOL    HW2 9930   3.975   5.620   6.204
 3011SOL     OW 9931   5.885   0.075   1.226
 3011SOL    HW1 9932   5.947   0.072   1.304
 3011SOL    HW2 9933   5.932   0.119   1.149
 3012SOL     OW 9934   2.694   3.052   6.155
 3012SOL    HW1 9935   2.699   3.098   6.067
 3012SOL    HW2 9936   2.768   3.086   6.214
 3013SOL     OW 9937   0.550   6.100   3.811
 3013SOL    HW1 9938   0.622   6.131   3.874
 3013SOL    HW2 9939   0.517   6.010   3.840
 3014SOL     OW 9940   4.801   0.791   5.241
 3014SOL    HW1 9941   4.706   0.760   5.242
 3014SOL    HW2 9942   4.856   0.725   5.190
 3015SOL     OW 9943   1.449   1.002   0.591
 3015SOL    HW1 9944   1.397   1.072   0.640
 3015SOL    HW2 9945   1.487   1.041   0.507
 3016SOL     OW 9946   2.844   6.500   4.592
 3016SOL    HW1 9947   2.744   6.499   4.600
 3016SOL    HW2 9948   2.879   6.592   4.612
 3017SOL     OW 9949   6.513   5.782   1.916
 3017SOL    HW1 9950   6.459   5.709   1.875
 3017SOL    HW2 9951   6.548   5.843   1.845
 3018SOL     OW 9952   3.608   0.560   0.113
 3018SOL    HW1 9953   3.529   0.500   0.121
 3018SOL    HW2 9954   3.648   0.576   0.204
 3019SOL     OW 9955   1.424   6.863   6.367
 3019SOL    HW1 9956   1.410   6.769   6.334
 3019SOL    HW2 9957   1.337   6.911   6.369
 3020SOL     OW 9958   5.091   3.248   0.234
 3020SOL    HW1 9959   5.141   3.185   0.175
 3020SOL    HW2 9960   5.141   3.335   0.238
 3021SOL     OW 9961   3.695   6.422   4.954
 3021SOL    HW1 9962   3.784   6.383   4.977
 3021SOL    HW2 9963   3.639   6.353   4.908
 3022SOL     OW 9964   3.998   6.032   3.483
 3022SOL    HW1 9965   4.068   5.974   3.443
 3022SOL    HW2 9966   3.907   5.996   3.461
 3023SOL     OW 9967   3.971   6.545   2.791
 3023SOL    HW1 9968   3.958   6.577   2.697
 3023SOL    HW2 9969   4.061   6.504   2.801
 3024SOL     OW 9970   0.107   6.649   6.196
 3024SOL    HW1 9971   0.132   6.556   6.171
 3024SOL    HW2 9972   0.144   6.671   6.287
 3025SOL     OW 9973   3.885   5.988   1.112
 3025SOL    HW1 9974   3.844   5.969   1.023
 3025SOL    HW2 9975   3.850   6.075   1.147
 3026SOL     OW 9976   5.432   1.556   0.050
 3026SOL    HW1 9977   5.371   1.613   7.017
 3026SOL    HW2 9978   5.416   1.460   0.029
 3027SOL     OW 9979   5.104   1.348   1.651
 3027SOL    HW1 9980   5.068   1.342   1.558
 3027SOL    HW2 9981   5.080   1.436   1.691
 3028SOL     OW 9982   2.563   4.370   6.460
 3028SOL    HW1 9983   2.594   4.459   6.426
 3028SOL    HW2 9984   2.491   4.336   6.400
 3029SOL     OW 9985   0.814   2.182   4.545
 3029SOL    HW1 9986   0.894   2.127   4.571
 3029SOL    HW2 9987   0.844   2.272   4.514
 3030SOL     OW 9988   1.398   3.643   1.841
 3030SOL    HW1 9989   1.306   3.675   1.863
 3030SOL    HW2 9990   1.456   3.649   1.922
 3031SOL     OW 9991   1.547   5.647   1.053
 3031SOL    HW1 9992   1.489   5.573   1.087
 3031SOL    HW2 9993   1.492   5.730   1.040
 3032SOL     OW 9994   1.550   0.539   2.957
 3032SOL    HW1 9995   1.559   0.443   2.930
 3032SOL    HW2 9996   1.516   0.592   2.879
 3033SOL     OW 9997   6.783   2.499   4.357
 3033SOL    HW1 9998   6.837   2.415   4.369
 3033SOL    HW2 9999   6.842   2.578   4.372
 3034SOL     OW10000   0.636   5.934   3.601
 3034SOL    HW110001   0.694   5.880   3.662
 3034SOL    HW210002   0.579   5.996   3.654
 3035SOL     OW10003   1.480   2.296   6.452
 3035SOL    HW110004   1.428   2.339   6.526
 3035SOL    HW210005   1.459   2.341   6.365
 3036SOL     OW10006   2.329   1.914   6.607
 3036SOL    HW110007   2.267   1.888   6.681
 3036SOL    HW210008   2.418   1.870   6.620
 3037SOL     OW10009   0.773   5.664   6.292
 3037SOL    HW110010   0.859   5.711   6.270
 3037SOL    HW210011   0.728   5.711   6.367
 3038SOL     OW10012   4.950   4.894   6.183
 3038SOL    HW110013   5.001   4.877   6.099
 3038SOL    HW210014   5.009   4.880   6.262
 3039SOL     OW10015   6.401   4.059   6.666
 3039SOL    HW110016   6.316   4.006   6.675
 3039SOL    HW210017   6.475   4.010   6.712
 3040SOL     OW10018   3.671   4.211   5.616
 3040SOL    HW110019   3.608   4.138   5.590
 3040SOL    HW210020   3.631   4.265   5.690
 3041SOL     OW10021   2.117   4.185   4.873
 3041SOL    HW110022   2.027   4.143   4.858
 3041SOL    HW210023   2.176   4.120   4.922
 3042SOL     OW10024   0.268   5.307   3.176
 3042SOL    HW110025   0.312   5.363   3.106
 3042SOL    HW210026   0.184   5.267   3.139
 3043SOL     OW10027   3.042   4.087   1.041
 3043SOL    HW110028   3.065   4.175   0.999
 3043SOL    HW210029   2.991   4.031   0.976
 3044SOL     OW10030   3.443   3.880   5.119
 3044SOL    HW110031   3.498   3.839   5.193
 3044SOL    HW210032   3.487   3.861   5.031
 3045SOL     OW10033   4.991   1.414   2.937
 3045SOL    HW110034   5.048   1.482   2.983
 3045SOL    HW210035   5.049   1.340   2.901
 3046SOL     OW10036   5.699   5.589   0.652
 3046SOL    HW110037   5.690   5.559   0.748
 3046SOL    HW210038   5.640   5.532   0.595
 3047SOL     OW10039   6.234   0.466   6.881
 3047SOL    HW110040   6.239   0.406   6.801
 3047SOL    HW210041   6.140   0.500   6.891
 3048SOL     OW10042   4.156   3.531   1.212
 3048SOL    HW110043   4.156   3.609   1.275
 3048SOL    HW210044   4.140   3.447   1.264
 3049SOL     OW10045   1.167   0.368   4.274
 3049SOL    HW110046   1.245   0.385   4.335
 3049SOL    HW210047   1.089   0.423   4.303
 3050SOL     OW10048   3.373   2.358   1.459
 3050SOL    HW110049   3.325   2.432   1.507
 3050SOL    HW210050   3.445   2.397   1.402
 3051SOL     OW10051   2.650   6.870   4.672
 3051SOL    HW110052   2.615   6.963   4.680
 3051SOL    HW210053   2.746   6.868   4.697
 3052SOL     OW10054   5.891   6.215   2.494
 3052SOL    HW110055   5.811   6.273   2.479
 3052SOL    HW210056   5.961   6.236   2.427
 3053SOL     OW10057   1.765   3.939   0.697
 3053SOL    HW110058   1.687   3.909   0.752
 3053SOL    HW210059   1.794   3.864   0.638
 3054SOL     OW10060   5.684   1.651   3.101
 3054SOL    HW110061   5.767   1.624   3.150
 3054SOL    HW210062   5.708   1.709   3.023
 3055SOL     OW10063   6.132   5.971   6.463
 3055SOL    HW110064   6.103   5.876   6.464
 3055SOL    HW210065   6.130   6.008   6.556
 3056SOL     OW10066   4.854   1.569   6.094
 3056SOL    HW110067   4.869   1.473   6.118
 3056SOL    HW210068   4.926   1.599   6.032
 3057SOL     OW10069   6.293   5.667   3.265
 3057SOL    HW110070   6.227   5.726   3.311
 3057SOL    HW210071   6.331   5.602   3.330
 3058SOL     OW10072   6.067   3.950   7.010
 3058SOL    HW110073   6.030   4.008   0.060
 3058SOL    HW210074   6.122   3.877   0.028
 3059SOL     OW10075   2.392   2.724   4.746
 3059SOL    HW110076   2.485   2.714   4.713
 3059SOL    HW210077   2.328   2.710   4.671
 3060SOL     OW10078   4.171   5.017   5.635
 3060SOL    HW110079   4.185   4.920   5.613
 3060SOL    HW210080   4.077   5.042   5.613
 3061SOL     OW10081   5.019   4.636   5.397
 3061SOL    HW110082   4.949   4.698   5.361
 3061SOL    HW210083   5.046   4.572   5.326
 3062SOL     OW10084   4.398   4.443   1.718
 3062SOL    HW110085   4.399   4.351   1.758
 3062SOL    HW210086   4.393   4.510   1.792
 3063SOL     OW10087   6.945   4.182   1.445
 3063SOL    HW110088   6.897   4.114   1.501
 3063SOL    HW210089   0.018   4.188   1.474
 3064SOL     OW10090   3.965   2.168   6.781
 3064SOL    HW110091   3.996   2.246   6.835
 3064SOL    HW210092   3.994   2.083   6.826
 3065SOL     OW10093   0.937   0.613   0.407
 3065SOL    HW110094   0.970   0.705   0.382
 3065SOL    HW210095   0.863   0.587   0.345
 3066SOL     OW10096   4.972   5.892   5.921
 3066SOL    HW110097   4.994   5.821   5.988
 3066SOL    HW210098   4.882   5.931   5.942
 3067SOL     OW10099   2.984   2.029   0.011
 3067SOL    HW110100   2.978   2.129   0.020
 3067SOL    HW210101   2.899   1.994   6.995
 3068SOL     OW10102   0.406   0.823   0.731
 3068SOL    HW110103   0.402   0.737   0.782
 3068SOL    HW210104   0.501   0.843   0.708
 3069SOL     OW10105   5.141   6.789   2.725
 3069SOL    HW110106   5.216   6.774   2.660
 3069SOL    HW210107   5.135   6.886   2.746
 3070SOL     OW10108   2.951   1.592   1.083
 3070SOL    HW110109   3.010   1.669   1.103
 3070SOL    HW210110   2.858   1.625   1.067
 3071SOL     OW10111   0.360   2.979   3.516
 3071SOL    HW110112   0.371   3.009   3.610
 3071SOL    HW210113   0.447   2.942   3.482
 3072SOL     OW10114   2.058   6.695   6.727
 3072SOL    HW110115   1.984   6.628   6.739
 3072SOL    HW210116   2.037   6.755   6.650
 3073SOL     OW10117   5.943   4.999   0.835
 3073SOL    HW110118   5.944   4.941   0.916
 3073SOL    HW210119   5.994   4.953   0.761
 3074SOL     OW10120   1.104   3.648   1.174
 3074SOL    HW110121   1.096   3.583   1.099
 3074SOL    HW210122   1.190   3.698   1.167
 3075SOL     OW10123   2.239   5.299   3.677
 3075SOL    HW110124   2.265   5.284   3.772
 3075SOL    HW210125   2.308   5.258   3.616
 3076SOL     OW10126   0.264   1.169   4.719
 3076SOL    HW110127   0.211   1.172   4.804
 3076SOL    HW210128   0.208   1.129   4.646
 3077SOL     OW10129   6.702   3.929   1.305
 3077SOL    HW110130   6.802   3.932   1.310
 3077SOL    HW210131   6.665   4.021   1.322
 3078SOL     OW10132   6.441   2.746   1.621
 3078SOL    HW110133   6.470   2.835   1.585
 3078SOL    HW210134   6.365   2.711   1.565
 3079SOL     OW10135   1.930   3.000   5.060
 3079SOL    HW110136   2.016   2.950   5.048
 3079SOL    HW210137   1.927   3.039   5.152
 3080SOL     OW10138   4.661   4.967   0.980
 3080SOL    HW110139   4.754   4.993   1.005
 3080SOL    HW210140   4.632   4.890   1.036
 3081SOL     OW10141   1.299   4.066   0.857
 3081SOL    HW110142   1.314   4.164   0.868
 3081SOL    HW210143   1.319   4.040   0.762
 3082SOL     OW10144   3.917   4.939   4.624
 3082SOL    HW110145   3.898   4.919   4.527
 3082SOL    HW210146   3.849   5.003   4.658
 3083SOL     OW10147   2.247   5.881   2.842
 3083SOL    HW110148   2.205   5.819   2.909
 3083SOL    HW210149   2.181   5.952   2.817
 3084SOL     OW10150   1.241   3.774   3.286
 3084SOL    HW110151   1.226   3.684   3.328
 3084SOL    HW210152   1.334   3.779   3.251
 3085SOL     OW10153   4.757   4.811   0.620
 3085SOL    HW110154   4.730   4.899   0.659
 3085SOL    HW210155   4.787   4.749   0.693
 3086SOL     OW10156   6.690   1.312   6.555
 3086SOL    HW110157   6.621   1.364   6.505
 3086SOL    HW210158   6.649   1.230   6.594
 3087SOL     OW10159   2.953   6.582   1.943
 3087SOL    HW110160   2.909   6.661   1.987
 3087SOL    HW210161   2.963   6.600   1.845
 3088SOL     OW10162   0.440   2.959   5.401
 3088SOL    HW110163   0.366   2.910   5.447
 3088SOL    HW210164   0.527   2.938   5.447
 3089SOL     OW10165   4.996   6.905   5.340
 3089SOL    HW110166   5.055   6.984   5.357
 3089SOL    HW210167   4.985   6.853   5.425
 3090SOL     OW10168   0.712   1.961   1.545
 3090SOL    HW110169   0.805   1.943   1.515
 3090SOL    HW210170   0.647   1.908   1.490
 3091SOL     OW10171   1.504   1.832   0.977
 3091SOL    HW110172   1.480   1.868   1.067
 3091SOL    HW210173   1.586   1.877   0.943
 3092SOL     OW10174   6.336   6.809   2.495
 3092SOL    HW110175   6.327   6.905   2.522
 3092SOL    HW210176   6.371   6.804   2.401
 3093SOL     OW10177   5.638   5.018   6.079
 3093SOL    HW110178   5.723   5.022   6.132
 3093SOL    HW210179   5.585   5.101   6.094
 3094SOL     OW10180   2.617   1.063   5.651
 3094SOL    HW110181   2.559   0.982   5.659
 3094SOL    HW210182   2.561   1.142   5.627
 3095SOL     OW10183   2.141   3.094   5.223
 3095SOL    HW110184   2.236   3.109   5.194
 3095SOL    HW210185   2.095   3.182   5.233
 3096SOL     OW10186   0.738   3.264   4.760
 3096SOL    HW110187   0.759   3.261   4.858
 3096SOL    HW210188   0.780   3.186   4.714
 3097SOL     OW10189   5.532   2.327   6.494
 3097SOL    HW110190   5.568   2.420   6.492
 3097SOL    HW210191   5.567   2.276   6.415
 3098SOL     OW10192   1.777   1.520   2.049
 3098SOL    HW110193   1.801   1.615   2.029
 3098SOL    HW210194   1.859   1.472   2.082
 3099SOL     OW10195   0.735   6.761   3.773
 3099SOL    HW110196   0.686   6.782   3.688
 3099SOL    HW210197   0.822   6.717   3.751
 3100SOL     OW10198   6.369   6.146   2.773
 3100SOL    HW110199   6.331   6.215   2.711
 3100SOL    HW210200   6.368   6.183   2.866
 3101SOL     OW10201   4.174   6.558   5.942
 3101SOL    HW110202   4.232   6.639   5.935
 3101SOL    HW210203   4.208   6.488   5.879
 3102SOL     OW10204   0.184   5.274   0.630
 3102SOL    HW110205   0.256   5.329   0.673
 3102SOL    HW210206   0.147   5.210   0.698
 3103SOL     OW10207   3.174   0.195   1.308
 3103SOL    HW110208   3.173   0.287   1.267
 3103SOL    HW210209   3.081   0.159   1.312
 3104SOL     OW10210   4.709   0.654   5.905
 3104SOL    HW110211   4.610   0.654   5.921
 3104SOL    HW210212   4.751   0.581   5.959
 3105SOL     OW10213   5.264   3.021   0.136
 3105SOL    HW110214   5.239   2.963   0.058
 3105SOL    HW210215   5.355   2.996   0.168
 3106SOL     OW10216   5.902   1.056   4.477
 3106SOL    HW110217   5.809   1.022   4.460
 3106SOL    HW210218   5.942   1.085   4.390
 3107SOL     OW10219   4.027   1.258   5.027
 3107SOL    HW110220   4.126   1.252   5.014
 3107SOL    HW210221   3.992   1.336   4.974
 3108SOL     OW10222   2.289   4.135   4.489
 3108SOL    HW110223   2.244   4.222   4.467
 3108SOL    HW210224   2.387   4.143   4.471
 3109SOL     OW10225   6.697   6.761   4.021
 3109SOL    HW110226   6.691   6.665   3.995
 3109SOL    HW210227   6.613   6.809   3.995
 3110SOL     OW10228   2.179   4.568   3.795
 3110SOL    HW110229   2.086   4.537   3.816
 3110SOL    HW210230   2.195   4.561   3.697
 3111SOL     OW10231   6.527   4.350   4.869
 3111SOL    HW110232   6.611   4.392   4.904
 3111SOL    HW210233   6.464   4.422   4.839
 3112SOL     OW10234   3.792   2.226   0.082
 3112SOL    HW110235   3.739   2.299   0.039
 3112SOL    HW210236   3.859   2.266   0.145
 3113SOL     OW10237   2.278   5.613   3.329
 3113SOL    HW110238   2.287   5.519   3.296
 3113SOL    HW210239   2.345   5.671   3.283
 3114SOL     OW10240   3.824   1.544   0.407
 3114SOL    HW110241   3.853   1.465   0.461
 3114SOL    HW210242   3.769   1.513   0.329
 3115SOL     OW10243   4.016   4.547   5.739
 3115SOL    HW110244   3.919   4.525   5.730
 3115SOL    HW210245   4.047   4.525   5.832
 3116SOL     OW10246   0.296   2.343   0.716
 3116SOL    HW110247   0.368   2.381   0.775
 3116SOL    HW210248   0.306   2.243   0.712
 3117SOL     OW10249   4.797   2.099   5.725
 3117SOL    HW110250   4.749   2.014   5.744
 3117SOL    HW210251   4.884   2.079   5.680
 3118SOL     OW10252   1.727   1.095   2.730
 3118SOL    HW110253   1.716   1.169   2.797
 3118SOL    HW210254   1.656   1.026   2.745
 3119SOL     OW10255   4.159   3.514   5.825
 3119SOL    HW110256   4.238   3.533   5.767
 3119SOL    HW210257   4.189   3.502   5.920
 3120SOL     OW10258   2.813   6.579   5.468
 3120SOL    HW110259   2.722   6.619   5.481
 3120SOL    HW210260   2.872   6.646   5.423
 3121SOL     OW10261   4.868   1.617   4.363
 3121SOL    HW110262   4.892   1.538   4.419
 3121SOL    HW210263   4.779   1.653   4.392
 3122SOL     OW10264   4.270   4.837   4.335
 3122SOL    HW110265   4.294   4.932   4.314
 3122SOL    HW210266   4.310   4.812   4.423
 3123SOL     OW10267   2.793   1.842   2.898
 3123SOL    HW110268   2.796   1.743   2.882
 3123SOL    HW210269   2.698   1.871   2.909
 3124SOL     OW10270   4.835   6.478   4.515
 3124SOL    HW110271   4.827   6.509   4.610
 3124SOL    HW210272   4.804   6.551   4.454
 3125SOL     OW10273   1.459   2.817   5.239
 3125SOL    HW110274   1.361   2.820   5.219
 3125SOL    HW210275   1.511   2.848   5.159
 3126SOL     OW10276   5.555   5.498   4.370
 3126SOL    HW110277   5.625   5.483   4.439
 3126SOL    HW210278   5.598   5.529   4.285
 3127SOL     OW10279   0.572   2.145   4.684
 3127SOL    HW110280   0.660   2.182   4.655
 3127SOL    HW210281   0.587   2.061   4.736
 3128SOL     OW10282   4.311   0.101   0.275
 3128SOL    HW110283   4.270   0.177   0.226
 3128SOL    HW210284   4.329   0.026   0.211
 3129SOL     OW10285   4.653   3.354   1.178
 3129SOL    HW110286   4.598   3.283   1.134
 3129SOL    HW210287   4.693   3.318   1.262
 3130SOL     OW10288   1.693   3.982   1.205
 3130SOL    HW110289   1.634   4.010   1.281
 3130SOL    HW210290   1.668   3.890   1.177
 3131SOL     OW10291   6.614   3.904   1.793
 3131SOL    HW110292   6.580   3.925   1.885
 3131SOL    HW210293   6.711   3.880   1.798
 3132SOL     OW10294   4.036   3.984   0.194
 3132SOL    HW110295   4.113   3.958   0.136
 3132SOL    HW210296   3.994   4.067   0.158
 3133SOL     OW10297   4.091   0.153   2.995
 3133SOL    HW110298   4.148   0.203   2.929
 3133SOL    HW210299   3.996   0.183   2.984
 3134SOL     OW10300   3.507   5.236   2.263
 3134SOL    HW110301   3.510   5.226   2.164
 3134SOL    HW210302   3.596   5.209   2.302
 3135SOL     OW10303   5.697   6.723   6.308
 3135SOL    HW110304   5.602   6.730   6.276
 3135SOL    HW210305   5.756   6.778   6.250
 3136SOL     OW10306   6.252   1.243   2.572
 3136SOL    HW110307   6.284   1.310   2.639
 3136SOL    HW210308   6.224   1.160   2.619
 3137SOL     OW10309   6.387   6.814   0.329
 3137SOL    HW110310   6.321   6.787   0.259
 3137SOL    HW210311   6.396   6.914   0.329
 3138SOL     OW10312   5.385   5.090   4.288
 3138SOL    HW110313   5.381   5.010   4.349
 3138SOL    HW210314   5.298   5.101   4.241
 3139SOL     OW10315   2.205   5.414   1.325
 3139SOL    HW110316   2.257   5.450   1.248
 3139SOL    HW210317   2.108   5.435   1.313
 3140SOL     OW10318   6.470   6.331   5.416
 3140SOL    HW110319   6.562   6.298   5.436
 3140SOL    HW210320   6.425   6.268   5.354
 3141SOL     OW10321   6.879   2.792   6.689
 3141SOL    HW110322   6.798   2.833   6.647
 3141SOL    HW210323   6.887   2.824   6.783
 3142SOL     OW10324   5.333   0.844   2.165
 3142SOL    HW110325   5.304   0.815   2.256
 3142SOL    HW210326   5.254   0.853   2.105
 3143SOL     OW10327   5.706   1.464   6.964
 3143SOL    HW110328   5.681   1.550   6.919
 3143SOL    HW210329   5.754   1.405   6.899
 3144SOL     OW10330   4.318   3.688   6.469
 3144SOL    HW110331   4.258   3.757   6.510
 3144SOL    HW210332   4.412   3.703   6.500
 3145SOL     OW10333   2.419   5.970   1.824
 3145SOL    HW110334   2.400   5.886   1.873
 3145SOL    HW210335   2.497   6.017   1.866
 3146SOL     OW10336   0.574   1.241   5.417
 3146SOL    HW110337   0.603   1.151   5.451
 3146SOL    HW210338   0.628   1.312   5.462
 3147SOL     OW10339   3.515   4.645   6.158
 3147SOL    HW110340   3.548   4.724   6.210
 3147SOL    HW210341   3.466   4.583   6.218
 3148SOL     OW10342   0.693   6.110   2.640
 3148SOL    HW110343   0.776   6.163   2.655
 3148SOL    HW210344   0.639   6.108   2.725
 3149SOL     OW10345   3.250   1.304   1.004
 3149SOL    HW110346   3.178   1.329   1.069
 3149SOL    HW210347   3.248   1.367   0.927
 3150SOL     OW10348   6.177   6.417   5.245
 3150SOL    HW110349   6.220   6.331   5.219
 3150SOL    HW210350   6.203   6.440   5.339
 3151SOL     OW10351   6.309   2.092   6.201
 3151SOL    HW110352   6.391   2.148   6.194
 3151SOL    HW210353   6.255   2.100   6.117
 3152SOL     OW10354   1.482   3.906   6.654
 3152SOL    HW110355   1.548   3.843   6.612
 3152SOL    HW210356   1.481   3.889   6.753
 3153SOL     OW10357   6.838   5.144   0.655
 3153SOL    HW110358   6.775   5.200   0.709
 3153SOL    HW210359   6.932   5.158   0.687
 3154SOL     OW10360   5.514   1.678   1.674
 3154SOL    HW110361   5.578   1.656   1.600
 3154SOL    HW210362   5.528   1.615   1.750
 3155SOL     OW10363   6.527   4.767   0.211
 3155SOL    HW110364   6.553   4.728   0.123
 3155SOL    HW210365   6.456   4.837   0.197
 3156SOL     OW10366   3.609   4.148   2.055
 3156SOL    HW110367   3.692   4.137   2.110
 3156SOL    HW210368   3.538   4.193   2.110
 3157SOL     OW10369   1.044   1.951   5.336
 3157SOL    HW110370   1.086   2.004   5.262
 3157SOL    HW210371   1.102   1.873   5.359
 3158SOL     OW10372   2.937   1.972   5.597
 3158SOL    HW110373   2.848   1.983   5.552
 3158SOL    HW210374   2.924   1.964   5.696
 3159SOL     OW10375   4.685   6.879   0.120
 3159SOL    HW110376   4.738   6.931   0.187
 3159SOL    HW210377   4.702   6.916   0.028
 3160SOL     OW10378   2.781   6.959   6.134
 3160SOL    HW110379   2.854   6.914   6.083
 3160SOL    HW210380   2.696   6.908   6.122
 3161SOL     OW10381   1.891   2.773   2.997
 3161SOL    HW110382   1.792   2.787   3.004
 3161SOL    HW210383   1.908   2.680   2.963
 3162SOL     OW10384   1.883   5.407   0.468
 3162SOL    HW110385   1.841   5.461   0.396
 3162SOL    HW210386   1.981   5.429   0.473
 3163SOL     OW10387   4.078   3.925   0.466
 3163SOL    HW110388   4.156   3.862   0.461
 3163SOL    HW210389   4.043   3.942   0.374
 3164SOL     OW10390   3.248   5.484   3.374
 3164SOL    HW110391   3.170   5.424   3.386
 3164SOL    HW210392   3.228   5.574   3.412
 3165SOL     OW10393   0.765   5.079   0.266
 3165SOL    HW110394   0.665   5.080   0.262
 3165SOL    HW210395   0.794   5.073   0.362
 3166SOL     OW10396   4.142   1.038   4.847
 3166SOL    HW110397   4.109   0.983   4.923
 3166SOL    HW210398   4.182   1.123   4.882
 3167SOL     OW10399   4.663   4.040   0.609
 3167SOL    HW110400   4.582   3.984   0.630
 3167SOL    HW210401   4.634   4.124   0.564
 3168SOL     OW10402   4.672   2.387   0.390
 3168SOL    HW110403   4.738   2.340   0.449
 3168SOL    HW210404   4.638   2.468   0.438
 3169SOL     OW10405   1.537   4.542   2.390
 3169SOL    HW110406   1.450   4.543   2.438
 3169SOL    HW210407   1.579   4.452   2.400
 3170SOL     OW10408   3.745   5.650   3.077
 3170SOL    HW110409   3.650   5.681   3.090
 3170SOL    HW210410   3.761   5.568   3.132
 3171SOL     OW10411   5.459   2.813   3.095
 3171SOL    HW110412   5.432   2.718   3.077
 3171SOL    HW210413   5.543   2.834   3.045
 3172SOL     OW10414   6.822   4.660   0.454
 3172SOL    HW110415   6.892   4.652   0.384
 3172SOL    HW210416   6.800   4.757   0.469
 3173SOL     OW10417   3.021   1.521   0.027
 3173SOL    HW110418   2.981   1.597   0.078
 3173SOL    HW210419   3.104   1.490   0.074
 3174SOL     OW10420   2.613   3.033   5.836
 3174SOL    HW110421   2.666   3.088   5.772
 3174SOL    HW210422   2.562   3.093   5.898
 3175SOL     OW10423   6.437   1.383   3.829
 3175SOL    HW110424   6.396   1.446   3.895
 3175SOL    HW210425   6.434   1.425   3.738
 3176SOL     OW10426   0.228   4.299   4.874
 3176SOL    HW110427   0.272   4.284   4.963
 3176SOL    HW210428   0.293   4.341   4.811
 3177SOL     OW10429   5.781   3.945   3.260
 3177SOL    HW110430   5.802   3.853   3.293
 3177SOL    HW210431   5.683   3.951   3.239
 3178SOL     OW10432   5.630   1.339   0.164
 3178SOL    HW110433   5.561   1.283   0.117
 3178SOL    HW210434   5.685   1.388   0.097
 3179SOL     OW10435   0.651   2.069   2.202
 3179SOL    HW110436   0.624   2.163   2.225
 3179SOL    HW210437   0.574   2.022   2.159
 3180SOL     OW10438   6.269   6.252   6.233
 3180SOL    HW110439   6.252   6.177   6.168
 3180SOL    HW210440   6.328   6.219   6.307
 3181SOL     OW10441   0.794   1.438   4.310
 3181SOL    HW110442   0.841   1.519   4.347
 3181SOL    HW210443   0.846   1.356   4.333
 3182SOL     OW10444   3.361   0.584   0.420
 3182SOL    HW110445   3.455   0.562   0.394
 3182SOL    HW210446   3.354   0.585   0.520
 3183SOL     OW10447   4.553   4.389   2.281
 3183SOL    HW110448   4.482   4.455   2.305
 3183SOL    HW210449   4.538   4.356   2.188
 3184SOL     OW10450   0.494   2.173   3.770
 3184SOL    HW110451   0.418   2.111   3.748
 3184SOL    HW210452   0.458   2.264   3.789
 3185SOL     OW10453   6.954   0.110   5.659
 3185SOL    HW110454   6.929   0.042   5.590
 3185SOL    HW210455   7.021   0.173   5.621
 3186SOL     OW10456   1.564   1.086   0.357
 3186SOL    HW110457   1.659   1.104   0.334
 3186SOL    HW210458   1.531   1.008   0.304
 3187SOL     OW10459   3.706   5.652   2.523
 3187SOL    HW110460   3.800   5.620   2.510
 3187SOL    HW210461   3.646   5.573   2.540
 3188SOL     OW10462   2.282   4.710   5.037
 3188SOL    HW110463   2.373   4.702   4.997
 3188SOL    HW210464   2.272   4.641   5.109
 3189SOL     OW10465   2.168   1.212   0.180
 3189SOL    HW110466   2.097   1.282   0.169
 3189SOL    HW210467   2.254   1.257   0.204
 3190SOL     OW10468   6.390   5.864   4.881
 3190SOL    HW110469   6.304   5.872   4.931
 3190SOL    HW210470   6.398   5.939   4.815
 3191SOL     OW10471   4.257   5.437   2.322
 3191SOL    HW110472   4.290   5.347   2.352
 3191SOL    HW210473   4.325   5.478   2.261
 3192SOL     OW10474   6.462   2.412   1.584
 3192SOL    HW110475   6.558   2.417   1.555
 3192SOL    HW210476   6.449   2.330   1.641
 3193SOL     OW10477   4.544   1.238   4.833
 3193SOL    HW110478   4.553   1.224   4.734
 3193SOL    HW210479   4.608   1.177   4.880
 3194SOL     OW10480   1.110   1.169   5.359
 3194SOL    HW110481   1.205   1.172   5.331
 3194SOL    HW210482   1.073   1.262   5.365
 3195SOL     OW10483   0.231   1.195   1.836
 3195SOL    HW110484   0.187   1.284   1.824
 3195SOL    HW210485   0.210   1.160   1.928
 3196SOL     OW10486   6.551   0.841   5.334
 3196SOL    HW110487   6.634   0.896   5.337
 3196SOL    HW210488   6.570   0.755   5.287
 3197SOL     OW10489   2.054   6.803   6.206
 3197SOL    HW110490   2.119   6.842   6.272
 3197SOL    HW210491   2.104   6.775   6.124
 3198SOL     OW10492   6.684   2.123   4.102
 3198SOL    HW110493   6.606   2.175   4.067
 3198SOL    HW210494   6.652   2.059   4.172
 3199SOL     OW10495   5.309   4.870   2.614
 3199SOL    HW110496   5.220   4.841   2.578
 3199SOL    HW210497   5.382   4.816   2.573
 3200SOL     OW10498   6.033   3.027   4.157
 3200SOL    HW110499   5.952   3.025   4.099
 3200SOL    HW210500   6.059   3.122   4.175
 3201SOL     OW10501   6.120   4.548   2.898
 3201SOL    HW110502   6.129   4.579   2.993
 3201SOL    HW210503   6.027   4.563   2.867
 3202SOL     OW10504   1.169   5.087   0.565
 3202SOL    HW110505   1.212   5.153   0.626
 3202SOL    HW210506   1.193   5.108   0.471
 3203SOL     OW10507   4.401   6.962   1.341
 3203SOL    HW110508   4.316   6.977   1.392
 3203SOL    HW210509   4.380   6.916   1.255
 3204SOL     OW10510   2.661   1.445   3.474
 3204SOL    HW110511   2.648   1.447   3.573
 3204SOL    HW210512   2.755   1.416   3.453
 3205SOL     OW10513   5.772   3.626   5.827
 3205SOL    HW110514   5.820   3.542   5.801
 3205SOL    HW210515   5.709   3.653   5.754
 3206SOL     OW10516   2.607   2.777   1.450
 3206SOL    HW110517   2.700   2.745   1.469
 3206SOL    HW210518   2.550   2.765   1.532
 3207SOL     OW10519   0.571   1.087   6.084
 3207SOL    HW110520   0.619   1.000   6.101
 3207SOL    HW210521   0.475   1.077   6.111
 3208SOL     OW10522   5.900   5.936   5.291
 3208SOL    HW110523   5.929   5.841   5.281
 3208SOL    HW210524   5.977   5.992   5.323
 3209SOL     OW10525   4.357   5.229   5.589
 3209SOL    HW110526   4.291   5.160   5.618
 3209SOL    HW210527   4.445   5.213   5.635
 3210SOL     OW10528   0.561   5.222   1.424
 3210SOL    HW110529   0.503   5.296   1.389
 3210SOL    HW210530   0.503   5.149   1.460
 3211SOL     OW10531   1.467   5.154   0.743
 3211SOL    HW110532   1.386   5.203   0.776
 3211SOL    HW210533   1.481   5.176   0.646
 3212SOL     OW10534   3.102   0.069   2.431
 3212SOL    HW110535   3.091   0.157   2.387
 3212SOL    HW210536   3.128   0.082   2.527
 3213SOL     OW10537   2.037   0.439   6.312
 3213SOL    HW110538   2.104   0.365   6.320
 3213SOL    HW210539   2.015   0.474   6.403
 3214SOL     OW10540   4.092   6.973   3.507
 3214SOL    HW110541   4.072   7.011   3.417
 3214SOL    HW210542   4.190   6.985   3.527
 3215SOL     OW10543   1.145   3.481   0.351
 3215SOL    HW110544   1.149   3.383   0.331
 3215SOL    HW210545   1.197   3.500   0.434
 3216SOL     OW10546   5.317   4.545   1.379
 3216SOL    HW110547   5.333   4.592   1.292
 3216SOL    HW210548   5.312   4.612   1.453
 3217SOL     OW10549   7.000   5.313   2.950
 3217SOL    HW110550   6.919   5.362   2.983
 3217SOL    HW210551   0.023   5.367   2.880
 3218SOL     OW10552   6.121   2.245   3.282
 3218SOL    HW110553   6.123   2.217   3.378
 3218SOL    HW210554   6.121   2.344   3.276
 3219SOL     OW10555   7.010   0.790   4.876
 3219SOL    HW110556   6.967   0.811   4.788
 3219SOL    HW210557   0.076   0.835   4.881
 3220SOL     OW10558   0.403   6.093   6.272
 3220SOL    HW110559   0.420   5.995   6.279
 3220SOL    HW210560   0.489   6.141   6.255
 3221SOL     OW10561   4.088   0.381   2.546
 3221SOL    HW110562   4.008   0.365   2.489
 3221SOL    HW210563   4.080   0.471   2.590
 3222SOL     OW10564   3.130   1.458   3.283
 3222SOL    HW110565   3.131   1.517   3.364
 3222SOL    HW210566   3.180   1.503   3.209
 3223SOL     OW10567   1.711   6.656   0.687
 3223SOL    HW110568   1.788   6.642   0.625
 3223SOL    HW210569   1.698   6.754   0.704
 3224SOL     OW10570   4.976   2.839   4.811
 3224SOL    HW110571   4.938   2.765   4.866
 3224SOL    HW210572   5.038   2.801   4.742
 3225SOL     OW10573   4.304   1.428   3.865
 3225SOL    HW110574   4.340   1.338   3.842
 3225SOL    HW210575   4.256   1.467   3.786
 3226SOL     OW10576   1.537   0.072   2.077
 3226SOL    HW110577   1.462   0.137   2.093
 3226SOL    HW210578   1.520   0.021   1.993
 3227SOL     OW10579   3.639   2.617   6.353
 3227SOL    HW110580   3.679   2.554   6.287
 3227SOL    HW210581   3.540   2.606   6.354
 3228SOL     OW10582   0.353   4.312   0.850
 3228SOL    HW110583   0.346   4.213   0.844
 3228SOL    HW210584   0.396   4.348   0.767
 3229SOL     OW10585   3.001   0.663   5.794
 3229SOL    HW110586   3.064   0.732   5.759
 3229SOL    HW210587   2.908   0.684   5.765
 3230SOL     OW10588   2.624   5.595   6.259
 3230SOL    HW110589   2.684   5.652   6.314
 3230SOL    HW210590   2.599   5.513   6.311
 3231SOL     OW10591   3.293   1.109   2.843
 3231SOL    HW110592   3.378   1.161   2.835
 3231SOL    HW210593   3.294   1.034   2.777
 3232SOL     OW10594   3.963   5.965   4.090
 3232SOL    HW110595   3.972   5.978   4.189
 3232SOL    HW210596   3.876   6.001   4.059
 3233SOL     OW10597   0.058   2.405   0.165
 3233SOL    HW110598   0.028   2.436   0.255
 3233SOL    HW210599   0.091   2.484   0.112
 3234SOL     OW10600   1.481   2.873   0.135
 3234SOL    HW110601   1.397   2.833   0.100
 3234SOL    HW210602   1.544   2.891   0.060
 3235SOL     OW10603   6.048   5.639   2.194
 3235SOL    HW110604   6.076   5.563   2.253
 3235SOL    HW210605   5.993   5.704   2.248
 3236SOL     OW10606   2.633   3.514   0.446
 3236SOL    HW110607   2.560   3.457   0.409
 3236SOL    HW210608   2.646   3.593   0.387
 3237SOL     OW10609   6.394   1.629   4.268
 3237SOL    HW110610   6.340   1.631   4.352
 3237SOL    HW210611   6.389   1.718   4.224
 3238SOL     OW10612   6.070   5.462   0.402
 3238SOL    HW110613   6.132   5.489   0.328
 3238SOL    HW210614   6.117   5.398   0.463
 3239SOL     OW10615   0.060   0.118   3.459
 3239SOL    HW110616   0.159   0.108   3.455
 3239SOL    HW210617   0.028   0.101   3.553
 3240SOL     OW10618   6.979   0.869   6.528
 3240SOL    HW110619   0.012   0.798   6.571
 3240SOL    HW210620   6.887   0.833   6.510
 3241SOL     OW10621   4.996   1.958   6.562
 3241SOL    HW110622   5.061   1.990   6.493
 3241SOL    HW210623   4.957   1.870   6.533
 3242SOL     OW10624   5.213   4.054   5.635
 3242SOL    HW110625   5.223   4.150   5.609
 3242SOL    HW210626   5.303   4.009   5.632
 3243SOL     OW10627   3.815   5.498   6.465
 3243SOL    HW110628   3.799   5.497   6.564
 3243SOL    HW210629   3.728   5.512   6.417
 3244SOL     OW10630   5.958   6.346   0.121
 3244SOL    HW110631   5.996   6.401   0.046
 3244SOL    HW210632   6.028   6.283   0.155
 3245SOL     OW10633   4.879   2.246   4.340
 3245SOL    HW110634   4.916   2.303   4.266
 3245SOL    HW210635   4.815   2.300   4.394
 3246SOL     OW10636   0.056   0.123   2.356
 3246SOL    HW110637   0.124   0.066   2.312
 3246SOL    HW210638   0.077   0.132   2.454
 3247SOL     OW10639   0.204   4.350   2.598
 3247SOL    HW110640   0.197   4.427   2.534
 3247SOL    HW210641   0.202   4.264   2.546
 3248SOL     OW10642   5.734   2.675   2.756
 3248SOL    HW110643   5.704   2.672   2.852
 3248SOL    HW210644   5.692   2.753   2.711
 3249SOL     OW10645   3.975   3.262   3.359
 3249SOL    HW110646   3.924   3.182   3.390
 3249SOL    HW210647   3.998   3.320   3.437
 3250SOL     OW10648   5.035   6.517   3.660
 3250SOL    HW110649   5.035   6.616   3.674
 3250SOL    HW210650   4.942   6.482   3.672
 3251SOL     OW10651   2.776   0.917   4.607
 3251SOL    HW110652   2.683   0.878   4.609
 3251SOL    HW210653   2.814   0.905   4.515
 3252SOL     OW10654   2.909   1.330   3.358
 3252SOL    HW110655   2.986   1.378   3.315
 3252SOL    HW210656   2.928   1.231   3.358
 3253SOL     OW10657   5.325   3.706   0.949
 3253SOL    HW110658   5.403   3.766   0.931
 3253SOL    HW210659   5.307   3.703   1.047
 3254SOL     OW10660   5.100   0.203   6.674
 3254SOL    HW110661   5.133   0.274   6.737
 3254SOL    HW210662   5.151   0.119   6.689
 3255SOL     OW10663   5.830   6.046   0.625
 3255SOL    HW110664   5.843   6.117   0.556
 3255SOL    HW210665   5.909   5.985   0.625
 3256SOL     OW10666   4.145   2.169   1.406
 3256SOL    HW110667   4.077   2.181   1.478
 3256SOL    HW210668   4.182   2.258   1.380
 3257SOL     OW10669   3.080   2.098   1.994
 3257SOL    HW110670   3.146   2.142   1.934
 3257SOL    HW210671   3.004   2.161   2.011
 3258SOL     OW10672   3.336   5.540   4.143
 3258SOL    HW110673   3.359   5.559   4.048
 3258SOL    HW210674   3.404   5.478   4.182
 3259SOL     OW10675   5.583   4.920   4.176
 3259SOL    HW110676   5.530   4.998   4.208
 3259SOL    HW210677   5.552   4.837   4.223
 3260SOL     OW10678   1.580   3.839   2.185
 3260SOL    HW110679   1.669   3.884   2.184
 3260SOL    HW210680   1.551   3.825   2.280
 3261SOL     OW10681   5.457   0.537   2.741
 3261SOL    HW110682   5.555   0.527   2.760
 3261SOL    HW210683   5.405   0.490   2.813
 3262SOL     OW10684   4.227   1.962   2.517
 3262SOL    HW110685   4.210   1.863   2.521
 3262SOL    HW210686   4.324   1.979   2.534
 3263SOL     OW10687   3.167   1.018   3.503
 3263SOL    HW110688   3.209   1.102   3.467
 3263SOL    HW210689   3.231   0.942   3.490
 3264SOL     OW10690   1.855   5.008   0.642
 3264SOL    HW110691   1.852   5.041   0.548
 3264SOL    HW210692   1.786   4.937   0.655
 3265SOL     OW10693   6.103   6.350   5.637
 3265SOL    HW110694   6.072   6.438   5.601
 3265SOL    HW210695   6.188   6.363   5.688
 3266SOL     OW10696   2.537   4.592   7.010
 3266SOL    HW110697   2.578   4.508   6.976
 3266SOL    HW210698   2.546   4.596   0.086
 3267SOL     OW10699   4.002   0.844   1.390
 3267SOL    HW110700   4.078   0.779   1.398
 3267SOL    HW210701   3.917   0.800   1.421
 3268SOL     OW10702   1.299   4.797   1.594
 3268SOL    HW110703   1.219   4.767   1.647
 3268SOL    HW210704   1.360   4.849   1.653
 3269SOL     OW10705   0.671   5.354   2.157
 3269SOL    HW110706   0.605   5.313   2.220
 3269SOL    HW210707   0.641   5.446   2.133
 3270SOL     OW10708   0.947   3.365   6.156
 3270SOL    HW110709   0.939   3.325   6.247
 3270SOL    HW210710   1.022   3.431   6.155
 3271SOL     OW10711   6.621   3.420   1.773
 3271SOL    HW110712   6.695   3.472   1.815
 3271SOL    HW210713   6.543   3.480   1.757
 3272SOL     OW10714   3.906   5.226   6.887
 3272SOL    HW110715   3.967   5.242   6.964
 3272SOL    HW210716   3.848   5.147   6.906
 3273SOL     OW10717   4.955   4.275   6.023
 3273SOL    HW110718   4.963   4.182   6.058
 3273SOL    HW210719   5.003   4.338   6.085
 3274SOL     OW10720   6.109   0.893   0.030
 3274SOL    HW110721   6.109   0.973   0.091
 3274SOL    HW210722   6.195   0.890   7.002
 3275SOL     OW10723   4.752   0.763   0.780
 3275SOL    HW110724   4.707   0.729   0.698
 3275SOL    HW210725   4.827   0.823   0.754
 3276SOL     OW10726   4.654   6.546   6.776
 3276SOL    HW110727   4.662   6.448   6.759
 3276SOL    HW210728   4.601   6.561   6.859
 3277SOL     OW10729   2.967   1.318   1.130
 3277SOL    HW110730   2.916   1.288   1.050
 3277SOL    HW210731   2.965   1.418   1.136
 3278SOL     OW10732   6.945   0.810   6.059
 3278SOL    HW110733   6.959   0.883   6.126
 3278SOL    HW210734   6.952   0.848   5.967
 3279SOL     OW10735   4.325   6.052   0.884
 3279SOL    HW110736   4.373   6.006   0.959
 3279SOL    HW210737   4.336   6.151   0.894
 3280SOL     OW10738   5.467   3.927   4.073
 3280SOL    HW110739   5.433   3.878   4.153
 3280SOL    HW210740   5.475   4.025   4.095
 3281SOL     OW10741   6.664   4.845   1.532
 3281SOL    HW110742   6.584   4.839   1.592
 3281SOL    HW210743   6.747   4.825   1.584
 3282SOL     OW10744   0.758   3.819   5.169
 3282SOL    HW110745   0.777   3.772   5.083
 3282SOL    HW210746   0.775   3.917   5.159
 3283SOL     OW10747   3.924   1.453   1.508
 3283SOL    HW110748   3.863   1.527   1.477
 3283SOL    HW210749   3.870   1.381   1.550
 3284SOL     OW10750   1.204   4.953   4.213
 3284SOL    HW110751   1.186   5.047   4.244
 3284SOL    HW210752   1.172   4.889   4.283
 3285SOL     OW10753   5.879   2.000   4.736
 3285SOL    HW110754   5.781   2.007   4.756
 3285SOL    HW210755   5.899   1.911   4.696
 3286SOL     OW10756   3.539   2.168   1.730
 3286SOL    HW110757   3.523   2.105   1.806
 3286SOL    HW210758   3.594   2.245   1.761
 3287SOL     OW10759   0.841   0.398   6.759
 3287SOL    HW110760   0.889   0.475   6.718
 3287SOL    HW210761   0.886   0.313   6.734
 3288SOL     OW10762   1.874   6.570   0.471
 3288SOL    HW110763   1.960   6.622   0.466
 3288SOL    HW210764   1.841   6.550   0.378
 3289SOL     OW10765   3.234   2.005   6.913
 3289SOL    HW110766   3.164   2.050   6.968
 3289SOL    HW210767   3.235   1.908   6.934
 3290SOL     OW10768   6.691   5.307   0.436
 3290SOL    HW110769   6.764   5.282   0.372
 3290SOL    HW210770   6.730   5.340   0.521
 3291SOL     OW10771   4.090   0.705   6.407
 3291SOL    HW110772   3.990   0.701   6.400
 3291SOL    HW210773   4.116   0.712   6.503
 3292SOL     OW10774   0.220   1.157   0.648
 3292SOL    HW110775   0.164   1.169   0.567
 3292SOL    HW210776   0.200   1.068   0.690
 3293SOL     OW10777   6.752   4.745   2.533
 3293SOL    HW110778   6.659   4.783   2.541
 3293SOL    HW210779   6.763   4.704   2.443
 3294SOL     OW10780   5.311   2.564   5.821
 3294SOL    HW110781   5.294   2.467   5.838
 3294SOL    HW210782   5.316   2.613   5.908
 3295SOL     OW10783   1.719   3.145   0.463
 3295SOL    HW110784   1.695   3.217   0.399
 3295SOL    HW210785   1.636   3.095   0.491
 3296SOL     OW10786   6.308   7.008   5.640
 3296SOL    HW110787   6.372   6.960   5.581
 3296SOL    HW210788   6.227   0.012   5.587
 3297SOL     OW10789   3.354   1.852   5.048
 3297SOL    HW110790   3.394   1.890   5.132
 3297SOL    HW210791   3.326   1.926   4.988
 3298SOL     OW10792   6.513   3.289   5.391
 3298SOL    HW110793   6.478   3.371   5.345
 3298SOL    HW210794   6.593   3.255   5.342
 3299SOL     OW10795   4.468   5.624   3.229
 3299SOL    HW110796   4.404   5.679   3.175
 3299SOL    HW210797   4.420   5.583   3.306
 3300SOL     OW10798   2.127   0.431   5.469
 3300SOL    HW110799   2.180   0.421   5.385
 3300SOL    HW210800   2.111   0.528   5.486
 3301SOL     OW10801   1.340   2.993   2.927
 3301SOL    HW110802   1.389   3.066   2.975
 3301SOL    HW210803   1.377   2.983   2.835
 3302SOL     OW10804   0.985   4.800   6.401
 3302SOL    HW110805   0.901   4.845   6.432
 3302SOL    HW210806   1.007   4.830   6.309
 3303SOL     OW10807   3.645   3.225   0.457
 3303SOL    HW110808   3.581   3.298   0.435
 3303SOL    HW210809   3.595   3.141   0.475
 3304SOL     OW10810   2.073   4.386   6.380
 3304SOL    HW110811   1.993   4.425   6.425
 3304SOL    HW210812   2.073   4.287   6.393
 3305SOL     OW10813   3.232   0.450   1.088
 3305SOL    HW110814   3.324   0.412   1.072
 3305SOL    HW210815   3.199   0.495   1.005
 3306SOL     OW10816   1.279   5.620   6.533
 3306SOL    HW110817   1.245   5.607   6.440
 3306SOL    HW210818   1.353   5.688   6.533
 3307SOL     OW10819   1.219   0.109   6.124
 3307SOL    HW110820   1.253   0.063   6.205
 3307SOL    HW210821   1.292   0.164   6.083
 3308SOL     OW10822   4.185   4.755   1.301
 3308SOL    HW110823   4.092   4.777   1.330
 3308SOL    HW210824   4.187   4.666   1.256
 3309SOL     OW10825   5.459   4.472   4.157
 3309SOL    HW110826   5.401   4.418   4.096
 3309SOL    HW210827   5.461   4.430   4.248
 3310SOL     OW10828   0.800   4.265   4.883
 3310SOL    HW110829   0.727   4.230   4.824
 3310SOL    HW210830   0.769   4.349   4.927
 3311SOL     OW10831   3.522   3.540   1.138
 3311SOL    HW110832   3.503   3.454   1.187
 3311SOL    HW210833   3.612   3.535   1.096
 3312SOL     OW10834   4.178   2.945   5.650
 3312SOL    HW110835   4.188   3.009   5.726
 3312SOL    HW210836   4.138   2.993   5.572
 3313SOL     OW10837   0.618   0.705   3.305
 3313SOL    HW110838   0.622   0.805   3.310
 3313SOL    HW210839   0.577   0.668   3.388
 3314SOL     OW10840   2.384   0.397   3.342
 3314SOL    HW110841   2.388   0.482   3.290
 3314SOL    HW210842   2.289   0.376   3.365
 3315SOL     OW10843   1.096   4.116   5.206
 3315SOL    HW110844   1.101   4.214   5.184
 3315SOL    HW210845   1.187   4.082   5.227
 3316SOL     OW10846   3.448   0.602   6.052
 3316SOL    HW110847   3.439   0.504   6.033
 3316SOL    HW210848   3.455   0.616   6.150
 3317SOL     OW10849   5.721   1.733   2.817
 3317SOL    HW110850   5.759   1.820   2.785
 3317SOL    HW210851   5.768   1.657   2.773
 3318SOL     OW10852   2.379   1.623   6.853
 3318SOL    HW110853   2.344   1.715   6.839
 3318SOL    HW210854   2.310   1.567   6.898
 3319SOL     OW10855   6.762   0.026   2.849
 3319SOL    HW110856   6.703   7.012   2.921
 3319SOL    HW210857   6.813   6.974   2.805
 3320SOL     OW10858   6.593   0.133   6.955
 3320SOL    HW110859   6.495   0.141   6.969
 3320SOL    HW210860   6.642   0.171   0.011
 3321SOL     OW10861   6.055   2.033   0.878
 3321SOL    HW110862   6.108   1.973   0.938
 3321SOL    HW210863   6.016   2.108   0.932
 3322SOL     OW10864   6.765   3.232   0.914
 3322SOL    HW110865   6.730   3.138   0.921
 3322SOL    HW210866   6.841   3.243   0.979
 3323SOL     OW10867   2.541   1.280   1.023
 3323SOL    HW110868   2.460   1.242   1.068
 3323SOL    HW210869   2.566   1.366   1.068
 3324SOL     OW10870   4.330   5.493   5.729
 3324SOL    HW110871   4.341   5.395   5.709
 3324SOL    HW210872   4.419   5.539   5.719
 3325SOL     OW10873   0.625   3.300   6.593
 3325SOL    HW110874   0.689   3.287   6.668
 3325SOL    HW210875   0.673   3.337   6.514
 3326SOL     OW10876   4.650   0.859   2.370
 3326SOL    HW110877   4.578   0.928   2.380
 3326SOL    HW210878   4.712   0.863   2.448
 3327SOL     OW10879   2.165   5.945   2.129
 3327SOL    HW110880   2.246   5.925   2.184
 3327SOL    HW210881   2.118   5.860   2.107
 3328SOL     OW10882   3.714   1.914   1.622
 3328SOL    HW110883   3.758   1.938   1.708
 3328SOL    HW210884   3.723   1.990   1.557
 3329SOL     OW10885   5.982   0.164   5.841
 3329SOL    HW110886   5.939   0.207   5.920
 3329SOL    HW210887   6.049   0.096   5.872
 3330SOL     OW10888   0.027   3.565   1.987
 3330SOL    HW110889   0.033   3.587   2.084
 3330SOL    HW210890   0.088   3.489   1.965
 3331SOL     OW10891   2.196   2.510   1.283
 3331SOL    HW110892   2.221   2.601   1.248
 3331SOL    HW210893   2.105   2.514   1.324
 3332SOL     OW10894   4.990   5.671   6.889
 3332SOL    HW110895   5.055   5.726   6.836
 3332SOL    HW210896   4.986   5.705   6.983
 3333SOL     OW10897   4.637   5.271   6.903
 3333SOL    HW110898   4.584   5.325   6.839
 3333SOL    HW210899   4.732   5.302   6.904
 3334SOL     OW10900   3.396   3.550   1.444
 3334SOL    HW110901   3.440   3.572   1.357
 3334SOL    HW210902   3.423   3.618   1.512
 3335SOL     OW10903   4.762   5.500   5.511
 3335SOL    HW110904   4.664   5.517   5.519
 3335SOL    HW210905   4.807   5.580   5.470
 3336SOL     OW10906   3.077   5.235   5.642
 3336SOL    HW110907   3.043   5.236   5.736
 3336SOL    HW210908   3.169   5.196   5.640
 3337SOL     OW10909   3.572   2.493   1.393
 3337SOL    HW110910   3.570   2.498   1.492
 3337SOL    HW210911   3.666   2.479   1.362
 3338SOL     OW10912   6.229   3.849   1.306
 3338SOL    HW110913   6.221   3.946   1.284
 3338SOL    HW210914   6.267   3.800   1.228
 3339SOL     OW10915   6.993   6.119   6.842
 3339SOL    HW110916   6.948   6.086   6.926
 3339SOL    HW210917   7.020   6.214   6.854
 3340SOL     OW10918   3.901   6.909   1.976
 3340SOL    HW110919   3.984   6.859   1.950
 3340SOL    HW210920   3.821   6.850   1.959
 3341SOL     OW10921   0.628   0.333   3.295
 3341SOL    HW110922   0.682   0.417   3.302
 3341SOL    HW210923   0.535   0.352   3.329
 3342SOL     OW10924   1.808   0.196   3.777
 3342SOL    HW110925   1.839   0.195   3.682
 3342SOL    HW210926   1.881   0.231   3.836
 3343SOL     OW10927   5.047   3.147   0.527
 3343SOL    HW110928   4.999   3.122   0.444
 3343SOL    HW210929   5.046   3.247   0.538
 3344SOL     OW10930   5.566   3.996   4.909
 3344SOL    HW110931   5.602   3.907   4.880
 3344SOL    HW210932   5.535   3.989   5.004
 3345SOL     OW10933   2.790   3.442   6.112
 3345SOL    HW110934   2.787   3.527   6.059
 3345SOL    HW210935   2.857   3.380   6.071
 3346SOL     OW10936   0.677   0.998   2.388
 3346SOL    HW110937   0.597   1.047   2.420
 3346SOL    HW210938   0.693   0.918   2.446
 3347SOL     OW10939   6.814   4.548   2.945
 3347SOL    HW110940   6.796   4.571   3.040
 3347SOL    HW210941   6.758   4.469   2.919
 3348SOL     OW10942   3.450   3.033   3.675
 3348SOL    HW110943   3.506   3.074   3.746
 3348SOL    HW210944   3.390   3.103   3.636
 3349SOL     OW10945   0.141   4.690   4.042
 3349SOL    HW110946   0.100   4.749   4.111
 3349SOL    HW210947   0.138   4.595   4.074
 3350SOL     OW10948   1.485   1.267   0.146
 3350SOL    HW110949   1.505   1.235   0.053
 3350SOL    HW210950   1.499   1.192   0.211
 3351SOL     OW10951   5.707   0.277   1.479
 3351SOL    HW110952   5.670   0.362   1.516
 3351SOL    HW210953   5.793   0.255   1.524
 3352SOL     OW10954   0.438   4.227   0.281
 3352SOL    HW110955   0.399   4.165   0.213
 3352SOL    HW210956   0.370   4.244   0.353
 3353SOL     OW10957   1.525   6.923   1.328
 3353SOL    HW110958   1.561   6.908   1.420
 3353SOL    HW210959   1.594   6.899   1.261
 3354SOL     OW10960   6.515   2.628   3.588
 3354SOL    HW110961   6.529   2.710   3.644
 3354SOL    HW210962   6.604   2.590   3.562
 3355SOL     OW10963   0.685   2.129   0.311
 3355SOL    HW110964   0.754   2.153   0.379
 3355SOL    HW210965   0.616   2.069   0.353
 3356SOL     OW10966   2.892   2.840   0.410
 3356SOL    HW110967   2.964   2.898   0.372
 3356SOL    HW210968   2.866   2.873   0.500
 3357SOL     OW10969   2.290   4.976   1.448
 3357SOL    HW110970   2.211   5.034   1.463
 3357SOL    HW210971   2.304   4.916   1.527
 3358SOL     OW10972   4.903   6.504   2.137
 3358SOL    HW110973   4.887   6.424   2.079
 3358SOL    HW210974   4.845   6.499   2.218
 3359SOL     OW10975   0.137   0.437   3.142
 3359SOL    HW110976   0.074   0.514   3.143
 3359SOL    HW210977   0.097   0.361   3.091
 3360SOL     OW10978   0.292   0.818   0.487
 3360SOL    HW110979   0.320   0.810   0.583
 3360SOL    HW210980   0.316   0.909   0.453
 3361SOL     OW10981   6.409   5.838   3.115
 3361SOL    HW110982   6.369   5.775   3.182
 3361SOL    HW210983   6.444   5.786   3.038
 3362SOL     OW10984   2.844   1.354   4.918
 3362SOL    HW110985   2.891   1.436   4.950
 3362SOL    HW210986   2.895   1.313   4.842
 3363SOL     OW10987   0.389   0.809   6.306
 3363SOL    HW110988   0.361   0.812   6.210
 3363SOL    HW210989   0.335   0.875   6.358
 3364SOL     OW10990   0.760   5.691   5.661
 3364SOL    HW110991   0.816   5.629   5.716
 3364SOL    HW210992   0.710   5.754   5.721
 3365SOL     OW10993   0.722   2.073   4.314
 3365SOL    HW110994   0.623   2.082   4.324
 3365SOL    HW210995   0.767   2.118   4.392
 3366SOL     OW10996   5.467   0.984   4.588
 3366SOL    HW110997   5.466   1.070   4.639
 3366SOL    HW210998   5.457   1.004   4.490
 3367SOL     OW10999   1.776   2.700   1.635
 3367SOL    HW111000   1.725   2.669   1.715
 3367SOL    HW211001   1.849   2.762   1.664
 3368SOL     OW11002   6.850   5.255   6.120
 3368SOL    HW111003   6.891   5.346   6.128
 3368SOL    HW211004   6.751   5.262   6.120
 3369SOL     OW11005   3.411   1.624   0.224
 3369SOL    HW111006   3.461   1.592   0.305
 3369SOL    HW211007   3.315   1.637   0.248
 3370SOL     OW11008   6.409   6.902   4.903
 3370SOL    HW111009   6.483   6.966   4.880
 3370SOL    HW211010   6.416   6.821   4.846
 3371SOL     OW11011   1.660   4.303   2.453
 3371SOL    HW111012   1.750   4.285   2.412
 3371SOL    HW211013   1.608   4.218   2.458
 3372SOL     OW11014   0.389   1.433   2.120
 3372SOL    HW111015   0.441   1.376   2.056
 3372SOL    HW211016   0.415   1.409   2.214
 3373SOL     OW11017   6.156   1.343   4.349
 3373SOL    HW111018   6.089   1.389   4.407
 3373SOL    HW211019   6.245   1.340   4.395
 3374SOL     OW11020   3.758   5.994   5.031
 3374SOL    HW111021   3.745   6.061   5.103
 3374SOL    HW211022   3.853   5.961   5.033
 3375SOL     OW11023   4.355   4.722   4.796
 3375SOL    HW111024   4.416   4.792   4.834
 3375SOL    HW211025   4.346   4.646   4.861
 3376SOL     OW11026   4.116   3.429   2.872
 3376SOL    HW111027   4.118   3.406   2.969
 3376SOL    HW211028   4.089   3.349   2.819
 3377SOL     OW11029   1.440   6.322   4.855
 3377SOL    HW111030   1.537   6.296   4.851
 3377SOL    HW211031   1.422   6.392   4.785
 3378SOL     OW11032   6.505   1.006   0.741
 3378SOL    HW111033   6.424   0.947   0.745
 3378SOL    HW211034   6.543   1.017   0.832
 3379SOL     OW11035   0.331   4.190   5.965
 3379SOL    HW111036   0.331   4.286   5.989
 3379SOL    HW211037   0.388   4.176   5.884
 3380SOL     OW11038   7.019   5.490   5.686
 3380SOL    HW111039   6.967   5.422   5.635
 3380SOL    HW211040   0.037   5.556   5.623
 3381SOL     OW11041   2.479   1.998   0.551
 3381SOL    HW111042   2.399   1.983   0.610
 3381SOL    HW211043   2.563   1.987   0.604
 3382SOL     OW11044   0.243   1.676   0.190
 3382SOL    HW111045   0.305   1.652   0.264
 3382SOL    HW211046   0.209   1.593   0.146
 3383SOL     OW11047   5.942   5.210   2.608
 3383SOL    HW111048   5.920   5.183   2.515
 3383SOL    HW211049   5.860   5.247   2.652
 3384SOL     OW11050   2.911   3.328   5.120
 3384SOL    HW111051   2.821   3.352   5.156
 3384SOL    HW211052   2.926   3.229   5.131
 3385SOL     OW11053   0.011   3.991   3.826
 3385SOL    HW111054   6.989   3.927   3.764
 3385SOL    HW211055   0.103   4.012   3.793
 3386SOL     OW11056   5.773   3.944   5.354
 3386SOL    HW111057   5.786   3.949   5.453
 3386SOL    HW211058   5.836   4.006   5.308
 3387SOL     OW11059   2.515   1.906   2.964
 3387SOL    HW111060   2.460   1.984   2.991
 3387SOL    HW211061   2.461   1.844   2.907
 3388SOL     OW11062   5.806   3.191   0.909
 3388SOL    HW111063   5.855   3.108   0.934
 3388SOL    HW211064   5.842   3.268   0.962
 3389SOL     OW11065   4.492   4.495   4.544
 3389SOL    HW111066   4.422   4.549   4.592
 3389SOL    HW211067   4.507   4.533   4.453
 3390SOL     OW11068   5.061   3.525   5.533
 3390SOL    HW111069   5.093   3.538   5.626
 3390SOL    HW211070   4.970   3.482   5.535
 3391SOL     OW11071   4.056   1.727   4.689
 3391SOL    HW111072   3.977   1.743   4.630
 3391SOL    HW211073   4.114   1.808   4.689
 3392SOL     OW11074   2.322   0.921   4.138
 3392SOL    HW111075   2.418   0.899   4.117
 3392SOL    HW211076   2.283   0.847   4.193
 3393SOL     OW11077   6.502   6.570   0.457
 3393SOL    HW111078   6.434   6.499   0.473
 3393SOL    HW211079   6.456   6.657   0.438
 3394SOL     OW11080   5.573   3.067   1.323
 3394SOL    HW111081   5.603   2.993   1.262
 3394SOL    HW211082   5.520   3.133   1.272
 3395SOL     OW11083   6.321   3.283   3.952
 3395SOL    HW111084   6.413   3.321   3.944
 3395SOL    HW211085   6.301   3.224   3.874
 3396SOL     OW11086   0.386   3.121   3.759
 3396SOL    HW111087   0.350   3.067   3.836
 3396SOL    HW211088   0.371   3.218   3.777
 3397SOL     OW11089   3.567   1.232   5.266
 3397SOL    HW111090   3.493   1.173   5.297
 3397SOL    HW211091   3.654   1.200   5.305
 3398SOL     OW11092   0.813   0.149   4.086
 3398SOL    HW111093   0.738   0.154   4.020
 3398SOL    HW211094   0.900   0.143   4.037
 3399SOL     OW11095   4.505   4.534   4.036
 3399SOL    HW111096   4.489   4.515   3.939
 3399SOL    HW211097   4.569   4.466   4.073
 3400SOL     OW11098   4.073   1.727   5.848
 3400SOL    HW111099   4.101   1.691   5.759
 3400SOL    HW211100   4.054   1.652   5.910
 3401SOL     OW11101   0.006   4.001   0.597
 3401SOL    HW111102   0.027   3.991   0.499
 3401SOL    HW211103   0.058   3.934   0.649
 3402SOL     OW11104   5.411   5.688   1.139
 3402SOL    HW111105   5.316   5.677   1.111
 3402SOL    HW211106   5.472   5.661   1.064
 3403SOL     OW11107   3.964   0.461   5.296
 3403SOL    HW111108   3.907   0.528   5.250
 3403SOL    HW211109   3.997   0.499   5.383
 3404SOL     OW11110   4.112   1.559   1.012
 3404SOL    HW111111   4.040   1.511   1.061
 3404SOL    HW211112   4.086   1.568   0.916
 3405SOL     OW11113   6.581   3.569   5.350
 3405SOL    HW111114   6.523   3.632   5.402
 3405SOL    HW211115   6.570   3.585   5.252
 3406SOL     OW11116   2.093   4.092   1.783
 3406SOL    HW111117   2.174   4.142   1.750
 3406SOL    HW211118   2.100   4.077   1.881
 3407SOL     OW11119   1.756   5.249   1.315
 3407SOL    HW111120   1.779   5.163   1.269
 3407SOL    HW211121   1.660   5.247   1.343
 3408SOL     OW11122   4.687   4.303   4.159
 3408SOL    HW111123   4.728   4.354   4.234
 3408SOL    HW211124   4.714   4.206   4.165
 3409SOL     OW11125   4.083   6.832   5.752
 3409SOL    HW111126   4.002   6.814   5.697
 3409SOL    HW211127   4.152   6.762   5.734
 3410SOL     OW11128   6.143   6.098   6.692
 3410SOL    HW111129   6.139   6.198   6.695
 3410SOL    HW211130   6.075   6.060   6.754
 3411SOL     OW11131   6.180   2.967   2.279
 3411SOL    HW111132   6.217   2.880   2.246
 3411SOL    HW211133   6.232   3.042   2.238
 3412SOL     OW11134   4.047   3.005   7.005
 3412SOL    HW111135   3.971   2.985   6.943
 3412SOL    HW211136   4.010   3.027   0.073
 3413SOL     OW11137   3.971   1.318   2.777
 3413SOL    HW111138   4.004   1.319   2.683
 3413SOL    HW211139   3.950   1.412   2.806
 3414SOL     OW11140   3.159   1.308   5.174
 3414SOL    HW111141   3.066   1.289   5.142
 3414SOL    HW211142   3.183   1.402   5.151
 3415SOL     OW11143   1.414   4.117   4.326
 3415SOL    HW111144   1.409   4.196   4.388
 3415SOL    HW211145   1.427   4.149   4.232
 3416SOL     OW11146   0.191   4.818   5.865
 3416SOL    HW111147   0.178   4.882   5.941
 3416SOL    HW211148   0.176   4.724   5.897
 3417SOL     OW11149   6.089   5.942   2.711
 3417SOL    HW111150   6.162   5.929   2.778
 3417SOL    HW211151   6.001   5.944   2.758
 3418SOL     OW11152   4.261   1.164   4.202
 3418SOL    HW111153   4.227   1.215   4.123
 3418SOL    HW211154   4.356   1.190   4.220
 3419SOL     OW11155   3.703   5.601   5.818
 3419SOL    HW111156   3.770   5.527   5.824
 3419SOL    HW211157   3.683   5.620   5.722
 3420SOL     OW11158   4.955   2.157   3.982
 3420SOL    HW111159   5.046   2.114   3.978
 3420SOL    HW211160   4.965   2.256   3.991
 3421SOL     OW11161   6.301   0.742   5.476
 3421SOL    HW111162   6.225   0.799   5.444
 3421SOL    HW211163   6.384   0.764   5.426
 3422SOL     OW11164   3.605   6.942   0.980
 3422SOL    HW111165   3.529   6.889   1.018
 3422SOL    HW211166   3.642   7.003   1.050
 3423SOL     OW11167   1.881   0.495   0.711
 3423SOL    HW111168   1.925   0.448   0.634
 3423SOL    HW211169   1.800   0.544   0.678
 3424SOL     OW11170   3.734   0.928   2.341
 3424SOL    HW111171   3.709   0.961   2.432
 3424SOL    HW211172   3.748   0.829   2.344
 3425SOL     OW11173   5.187   4.142   2.333
 3425SOL    HW111174   5.183   4.142   2.433
 3425SOL    HW211175   5.121   4.077   2.297
 3426SOL     OW11176   3.451   3.445   0.458
 3426SOL    HW111177   3.412   3.465   0.548
 3426SOL    HW211178   3.380   3.407   0.398
 3427SOL     OW11179   6.468   6.207   0.057
 3427SOL    HW111180   6.562   6.242   0.054
 3427SOL    HW211181   6.404   6.284   0.059
 3428SOL     OW11182   3.997   4.965   1.596
 3428SOL    HW111183   3.987   5.038   1.528
 3428SOL    HW211184   4.016   5.006   1.686
 3429SOL     OW11185   0.571   2.022   6.950
 3429SOL    HW111186   0.482   1.979   6.936
 3429SOL    HW211187   0.642   1.951   6.946
 3430SOL     OW11188   1.049   6.592   6.235
 3430SOL    HW111189   1.025   6.549   6.323
 3430SOL    HW211190   1.133   6.644   6.246
 3431SOL     OW11191   2.665   6.593   0.844
 3431SOL    HW111192   2.599   6.520   0.827
 3431SOL    HW211193   2.755   6.565   0.811
 3432SOL     OW11194   2.782   2.501   5.287
 3432SOL    HW111195   2.738   2.456   5.209
 3432SOL    HW211196   2.719   2.568   5.327
 3433SOL     OW11197   2.390   0.703   6.533
 3433SOL    HW111198   2.357   0.638   6.601
 3433SOL    HW211199   2.459   0.762   6.574
 3434SOL     OW11200   3.537   2.829   0.817
 3434SOL    HW111201   3.464   2.897   0.813
 3434SOL    HW211202   3.504   2.742   0.779
 3435SOL     OW11203   0.089   1.828   1.589
 3435SOL    HW111204   0.096   1.739   1.545
 3435SOL    HW211205   0.175   1.877   1.580
 3436SOL     OW11206   4.376   6.837   5.330
 3436SOL    HW111207   4.459   6.847   5.274
 3436SOL    HW211208   4.329   6.925   5.334
 3437SOL     OW11209   4.523   1.093   6.181
 3437SOL    HW111210   4.558   1.180   6.147
 3437SOL    HW211211   4.423   1.096   6.182
 3438SOL     OW11212   1.646   2.733   6.142
 3438SOL    HW111213   1.583   2.737   6.065
 3438SOL    HW211214   1.615   2.795   6.214
 3439SOL     OW11215   2.892   0.035   5.415
 3439SOL    HW111216   2.965   0.098   5.387
 3439SOL    HW211217   2.831   0.081   5.479
 3440SOL     OW11218   5.046   3.282   1.533
 3440SOL    HW111219   5.089   3.202   1.493
 3440SOL    HW211220   5.111   3.328   1.593
 3441SOL     OW11221   4.921   0.492   3.127
 3441SOL    HW111222   4.960   0.584   3.134
 3441SOL    HW211223   4.872   0.483   3.041
 3442SOL     OW11224   2.508   4.533   3.202
 3442SOL    HW111225   2.440   4.480   3.150
 3442SOL    HW211226   2.519   4.623   3.158
 3443SOL     OW11227   5.447   0.820   2.816
 3443SOL    HW111228   5.370   0.879   2.837
 3443SOL    HW211229   5.417   0.745   2.757
 3444SOL     OW11230   5.239   5.501   6.623
 3444SOL    HW111231   5.160   5.439   6.622
 3444SOL    HW211232   5.310   5.464   6.682
 3445SOL     OW11233   6.364   4.200   4.022
 3445SOL    HW111234   6.338   4.295   4.008
 3445SOL    HW211235   6.294   4.140   3.982
 3446SOL     OW11236   5.576   0.462   3.051
 3446SOL    HW111237   5.649   0.410   3.097
 3446SOL    HW211238   5.593   0.560   3.063
 3447SOL     OW11239   5.109   5.107   0.101
 3447SOL    HW111240   5.184   5.094   0.166
 3447SOL    HW211241   5.117   5.040   0.027
 3448SOL     OW11242   3.853   6.803   0.873
 3448SOL    HW111243   3.773   6.850   0.910
 3448SOL    HW211244   3.877   6.725   0.932
 3449SOL     OW11245   5.885   6.322   3.264
 3449SOL    HW111246   5.895   6.232   3.222
 3449SOL    HW211247   5.809   6.370   3.222
 3450SOL     OW11248   0.858   2.611   0.943
 3450SOL    HW111249   0.803   2.588   1.024
 3450SOL    HW211250   0.921   2.686   0.966
 3451SOL     OW11251   0.570   5.753   2.816
 3451SOL    HW111252   0.636   5.791   2.751
 3451SOL    HW211253   0.506   5.824   2.844
 3452SOL     OW11254   6.223   1.327   0.169
 3452SOL    HW111255   6.317   1.361   0.179
 3452SOL    HW211256   6.159   1.403   0.180
 3453SOL     OW11257   5.900   5.959   5.714
 3453SOL    HW111258   5.909   5.966   5.814
 3453SOL    HW211259   5.918   5.865   5.686
 3454SOL     OW11260   1.834   0.737   5.940
 3454SOL    HW111261   1.871   0.817   5.988
 3454SOL    HW211262   1.909   0.684   5.900
 3455SOL     OW11263   1.165   3.074   4.508
 3455SOL    HW111264   1.247   3.066   4.564
 3455SOL    HW211265   1.172   3.015   4.428
 3456SOL     OW11266   5.757   6.011   2.230
 3456SOL    HW111267   5.731   5.958   2.149
 3456SOL    HW211268   5.684   6.077   2.250
 3457SOL     OW11269   2.429   5.069   4.354
 3457SOL    HW111270   2.504   5.044   4.292
 3457SOL    HW211271   2.342   5.058   4.307
 3458SOL     OW11272   5.763   6.531   6.652
 3458SOL    HW111273   5.815   6.460   6.603
 3458SOL    HW211274   5.721   6.490   6.733
 3459SOL     OW11275   0.379   4.088   3.173
 3459SOL    HW111276   0.356   4.069   3.077
 3459SOL    HW211277   0.323   4.030   3.232
 3460SOL     OW11278   3.474   3.055   0.591
 3460SOL    HW111279   3.489   3.104   0.677
 3460SOL    HW211280   3.388   3.004   0.596
 3461SOL     OW11281   4.397   5.418   4.285
 3461SOL    HW111282   4.442   5.481   4.221
 3461SOL    HW211283   4.452   5.335   4.293
 3462SOL     OW11284   6.059   3.708   1.835
 3462SOL    HW111285   6.025   3.732   1.744
 3462SOL    HW211286   6.138   3.647   1.826
 3463SOL     OW11287   0.805   3.373   2.723
 3463SOL    HW111288   0.781   3.380   2.820
 3463SOL    HW211289   0.874   3.442   2.701
 3464SOL     OW11290   5.537   2.429   6.914
 3464SOL    HW111291   5.611   2.398   6.854
 3464SOL    HW211292   5.531   2.368   6.993
 3465SOL     OW11293   1.544   3.222   1.953
 3465SOL    HW111294   1.636   3.254   1.927
 3465SOL    HW211295   1.524   3.252   2.046
 3466SOL     OW11296   5.375   5.172   5.656
 3466SOL    HW111297   5.368   5.086   5.606
 3466SOL    HW211298   5.285   5.197   5.691
 3467SOL     OW11299   2.528   1.553   1.107
 3467SOL    HW111300   2.547   1.521   1.200
 3467SOL    HW211301   2.435   1.590   1.103
 3468SOL     OW11302   5.897   2.029   2.881
 3468SOL    HW111303   5.978   2.061   2.931
 3468SOL    HW211304   5.819   2.024   2.944
 3469SOL     OW11305   5.324   1.057   5.820
 3469SOL    HW111306   5.327   0.958   5.829
 3469SOL    HW211307   5.334   1.099   5.910
 3470SOL     OW11308   0.414   2.981   2.211
 3470SOL    HW111309   0.398   2.977   2.113
 3470SOL    HW211310   0.327   2.984   2.260
 3471SOL     OW11311   4.500   4.441   3.761
 3471SOL    HW111312   4.547   4.506   3.700
 3471SOL    HW211313   4.546   4.353   3.758
 3472SOL     OW11314   3.819   1.030   1.496
 3472SOL    HW111315   3.751   0.958   1.512
 3472SOL    HW211316   3.911   0.991   1.501
 3473SOL     OW11317   6.142   3.310   3.243
 3473SOL    HW111318   6.173   3.399   3.209
 3473SOL    HW211319   6.211   3.241   3.222
 3474SOL     OW11320   0.975   4.060   3.600
 3474SOL    HW111321   1.037   4.135   3.627
 3474SOL    HW211322   0.941   4.077   3.508
 3475SOL     OW11323   1.208   4.498   4.672
 3475SOL    HW111324   1.113   4.503   4.642
 3475SOL    HW211325   1.230   4.405   4.701
 3476SOL     OW11326   1.302   1.779   2.969
 3476SOL    HW111327   1.289   1.699   3.027
 3476SOL    HW211328   1.213   1.820   2.949
 3477SOL     OW11329   0.695   4.124   0.571
 3477SOL    HW111330   0.637   4.045   0.588
 3477SOL    HW211331   0.787   4.107   0.607
 3478SOL     OW11332   2.915   6.478   6.918
 3478SOL    HW111333   2.925   6.554   6.853
 3478SOL    HW211334   2.824   6.438   6.908
 3479SOL     OW11335   0.624   0.962   3.305
 3479SOL    HW111336   0.583   1.050   3.328
 3479SOL    HW211337   0.688   0.974   3.229
 3480SOL     OW11338   1.241   6.181   5.703
 3480SOL    HW111339   1.311   6.138   5.645
 3480SOL    HW211340   1.279   6.264   5.744
 3481SOL     OW11341   5.000   0.461   0.247
 3481SOL    HW111342   5.011   0.364   0.222
 3481SOL    HW211343   4.905   0.488   0.236
 3482SOL     OW11344   5.906   1.208   2.400
 3482SOL    HW111345   5.943   1.170   2.316
 3482SOL    HW211346   5.948   1.297   2.419
 3483SOL     OW11347   5.641   2.038   2.997
 3483SOL    HW111348   5.563   1.989   2.959
 3483SOL    HW211349   5.635   2.039   3.097
 3484SOL     OW11350   1.308   2.952   6.764
 3484SOL    HW111351   1.383   2.999   6.811
 3484SOL    HW211352   1.345   2.877   6.708
 3485SOL     OW11353   1.266   2.096   4.772
 3485SOL    HW111354   1.255   2.067   4.867
 3485SOL    HW211355   1.346   2.051   4.732
 3486SOL     OW11356   1.894   0.307   4.067
 3486SOL    HW111357   1.971   0.246   4.048
 3486SOL    HW211358   1.913   0.360   4.149
 3487SOL     OW11359   6.466   2.537   6.831
 3487SOL    HW111360   6.517   2.458   6.865
 3487SOL    HW211361   6.475   2.613   6.896
 3488SOL     OW11362   5.595   0.862   4.808
 3488SOL    HW111363   5.633   0.776   4.773
 3488SOL    HW211364   5.530   0.899   4.741
 3489SOL     OW11365   3.536   0.517   1.825
 3489SOL    HW111366   3.634   0.512   1.804
 3489SOL    HW211367   3.491   0.434   1.792
 3490SOL     OW11368   3.291   4.800   1.192
 3490SOL    HW111369   3.377   4.756   1.164
 3490SOL    HW211370   3.215   4.739   1.171
 3491SOL     OW11371   3.949   3.217   5.920
 3491SOL    HW111372   3.867   3.190   5.970
 3491SOL    HW211373   3.925   3.285   5.850
 3492SOL     OW11374   5.727   4.040   0.716
 3492SOL    HW111375   5.763   4.132   0.700
 3492SOL    HW211376   5.803   3.975   0.721
 3493SOL     OW11377   5.992   3.594   4.065
 3493SOL    HW111378   6.085   3.628   4.060
 3493SOL    HW211379   5.956   3.606   4.157
 3494SOL     OW11380   2.827   0.569   1.726
 3494SOL    HW111381   2.805   0.664   1.703
 3494SOL    HW211382   2.856   0.520   1.644
 3495SOL     OW11383   0.576   3.863   2.477
 3495SOL    HW111384   0.581   3.841   2.380
 3495SOL    HW211385   0.484   3.844   2.511
 3496SOL     OW11386   6.008   5.420   1.468
 3496SOL    HW111387   6.003   5.328   1.506
 3496SOL    HW211388   6.054   5.417   1.379
 3497SOL     OW11389   2.488   1.540   4.114
 3497SOL    HW111390   2.470   1.630   4.156
 3497SOL    HW211391   2.419   1.521   4.045
 3498SOL     OW11392   3.169   1.145   2.522
 3498SOL    HW111393   3.136   1.150   2.428
 3498SOL    HW211394   3.101   1.186   2.584
 3499SOL     OW11395   6.598   4.947   4.018
 3499SOL    HW111396   6.625   4.895   3.938
 3499SOL    HW211397   6.667   5.017   4.038
 3500SOL     OW11398   1.923   2.953   3.216
 3500SOL    HW111399   1.929   2.914   3.124
 3500SOL    HW211400   1.914   2.878   3.283
 3501SOL     OW11401   3.414   6.818   6.818
 3501SOL    HW111402   3.486   6.808   6.887
 3501SOL    HW211403   3.347   6.886   6.849
 3502SOL     OW11404   6.768   2.815   1.707
 3502SOL    HW111405   6.732   2.868   1.631
 3502SOL    HW211406   6.846   2.863   1.748
 3503SOL     OW11407   0.176   6.384   5.476
 3503SOL    HW111408   0.270   6.397   5.444
 3503SOL    HW211409   0.174   6.313   5.547
 3504SOL     OW11410   2.028   0.820   2.099
 3504SOL    HW111411   1.950   0.761   2.077
 3504SOL    HW211412   2.041   0.823   2.198
 3505SOL     OW11413   5.340   5.127   5.152
 3505SOL    HW111414   5.335   5.132   5.053
 3505SOL    HW211415   5.305   5.212   5.192
 3506SOL     OW11416   5.413   4.764   5.004
 3506SOL    HW111417   5.456   4.844   4.961
 3506SOL    HW211418   5.328   4.743   4.957
 3507SOL     OW11419   2.614   0.440   0.447
 3507SOL    HW111420   2.670   0.454   0.366
 3507SOL    HW211421   2.635   0.510   0.516
 3508SOL     OW11422   2.663   1.973   6.616
 3508SOL    HW111423   2.690   1.991   6.522
 3508SOL    HW211424   2.606   1.891   6.619
 3509SOL     OW11425   5.771   0.054   6.849
 3509SOL    HW111426   5.740   0.110   6.925
 3509SOL    HW211427   5.836   0.107   6.793
 3510SOL     OW11428   1.594   0.382   1.975
 3510SOL    HW111429   1.584   0.374   1.876
 3510SOL    HW211430   1.503   0.379   2.018
 3511SOL     OW11431   1.830   4.038   1.790
 3511SOL    HW111432   1.815   3.940   1.778
 3511SOL    HW211433   1.924   4.060   1.765
 3512SOL     OW11434   0.407   4.362   1.126
 3512SOL    HW111435   0.506   4.373   1.133
 3512SOL    HW211436   0.384   4.317   1.039
 3513SOL     OW11437   5.984   2.056   0.408
 3513SOL    HW111438   5.941   2.003   0.481
 3513SOL    HW211439   6.034   2.133   0.448
 3514SOL     OW11440   6.683   1.104   1.256
 3514SOL    HW111441   6.733   1.189   1.276
 3514SOL    HW211442   6.748   1.030   1.241
 3515SOL     OW11443   5.286   6.240   2.908
 3515SOL    HW111444   5.233   6.296   2.972
 3515SOL    HW211445   5.378   6.278   2.899
 3516SOL     OW11446   4.472   6.412   0.926
 3516SOL    HW111447   4.470   6.508   0.897
 3516SOL    HW211448   4.444   6.353   0.850
 3517SOL     OW11449   7.011   1.564   0.910
 3517SOL    HW111450   0.082   1.537   0.931
 3517SOL    HW211451   6.986   1.532   0.819
 3518SOL     OW11452   4.923   2.646   5.001
 3518SOL    HW111453   4.975   2.685   5.077
 3518SOL    HW211454   4.937   2.547   4.998
 3519SOL     OW11455   1.720   0.277   5.701
 3519SOL    HW111456   1.691   0.261   5.795
 3519SOL    HW211457   1.820   0.281   5.698
 3520SOL     OW11458   3.586   6.380   0.492
 3520SOL    HW111459   3.589   6.358   0.589
 3520SOL    HW211460   3.563   6.477   0.481
 3521SOL     OW11461   4.379   2.637   0.398
 3521SOL    HW111462   4.396   2.635   0.497
 3521SOL    HW211463   4.339   2.725   0.372
 3522SOL     OW11464   6.794   5.865   6.453
 3522SOL    HW111465   6.815   5.945   6.397
 3522SOL    HW211466   6.804   5.888   6.550
 3523SOL     OW11467   1.852   4.417   5.085
 3523SOL    HW111468   1.859   4.510   5.120
 3523SOL    HW211469   1.760   4.400   5.051
 3524SOL     OW11470   4.942   2.008   1.846
 3524SOL    HW111471   4.884   2.049   1.916
 3524SOL    HW211472   5.038   2.013   1.874
 3525SOL     OW11473   6.722   3.304   3.971
 3525SOL    HW111474   6.820   3.312   3.992
 3525SOL    HW211475   6.670   3.357   4.038
 3526SOL     OW11476   2.052   6.682   3.695
 3526SOL    HW111477   2.001   6.767   3.710
 3526SOL    HW211478   2.044   6.655   3.599
 3527SOL     OW11479   5.849   3.791   6.256
 3527SOL    HW111480   5.831   3.693   6.254
 3527SOL    HW211481   5.839   3.829   6.164
 3528SOL     OW11482   2.346   6.802   4.989
 3528SOL    HW111483   2.417   6.732   4.982
 3528SOL    HW211484   2.353   6.865   4.912
 3529SOL     OW11485   3.840   6.477   0.713
 3529SOL    HW111486   3.932   6.503   0.682
 3529SOL    HW211487   3.772   6.530   0.664
 3530SOL     OW11488   6.800   5.517   1.427
 3530SOL    HW111489   6.815   5.457   1.349
 3530SOL    HW211490   6.886   5.534   1.474
 3531SOL     OW11491   5.337   2.242   0.426
 3531SOL    HW111492   5.335   2.155   0.376
 3531SOL    HW211493   5.247   2.285   0.422
 3532SOL     OW11494   2.858   0.470   1.495
 3532SOL    HW111495   2.911   0.395   1.535
 3532SOL    HW211496   2.871   0.471   1.396
 3533SOL     OW11497   0.008   1.079   2.544
 3533SOL    HW111498   0.082   1.034   2.494
 3533SOL    HW211499   7.008   1.165   2.500
 3534SOL     OW11500   0.621   2.066   0.806
 3534SOL    HW111501   0.714   2.056   0.770
 3534SOL    HW211502   0.559   2.089   0.732
 3535SOL     OW11503   1.864   5.262   6.171
 3535SOL    HW111504   1.782   5.272   6.115
 3535SOL    HW211505   1.846   5.198   6.245
 3536SOL     OW11506   3.180   1.782   2.833
 3536SOL    HW111507   3.178   1.841   2.913
 3536SOL    HW211508   3.107   1.808   2.770
 3537SOL     OW11509   2.403   5.389   2.563
 3537SOL    HW111510   2.307   5.384   2.534
 3537SOL    HW211511   2.419   5.477   2.608
 3538SOL     OW11512   2.666   6.116   5.340
 3538SOL    HW111513   2.754   6.081   5.311
 3538SOL    HW211514   2.597   6.096   5.271
 3539SOL     OW11515   3.661   3.628   5.033
 3539SOL    HW111516   3.690   3.574   4.955
 3539SOL    HW211517   3.741   3.660   5.084
 3540SOL     OW11518   2.238   2.818   4.465
 3540SOL    HW111519   2.147   2.788   4.439
 3540SOL    HW211520   2.230   2.888   4.537
 3541SOL     OW11521   2.740   2.600   6.025
 3541SOL    HW111522   2.689   2.686   6.028
 3541SOL    HW211523   2.825   2.613   5.975
 3542SOL     OW11524   1.001   5.498   3.183
 3542SOL    HW111525   0.904   5.472   3.185
 3542SOL    HW211526   1.054   5.434   3.238
 3543SOL     OW11527   0.199   2.519   5.024
 3543SOL    HW111528   0.275   2.575   4.990
 3543SOL    HW211529   0.230   2.425   5.038
 3544SOL     OW11530   1.301   4.042   6.171
 3544SOL    HW111531   1.254   4.112   6.118
 3544SOL    HW211532   1.371   4.085   6.227
 3545SOL     OW11533   3.652   6.083   6.798
 3545SOL    HW111534   3.581   6.017   6.773
 3545SOL    HW211535   3.660   6.088   6.897
 3546SOL     OW11536   0.978   4.902   3.731
 3546SOL    HW111537   1.002   4.829   3.794
 3546SOL    HW211538   0.879   4.903   3.717
 3547SOL     OW11539   5.432   4.198   3.765
 3547SOL    HW111540   5.389   4.254   3.836
 3547SOL    HW211541   5.531   4.213   3.766
 3548SOL     OW11542   5.756   1.363   6.086
 3548SOL    HW111543   5.693   1.289   6.063
 3548SOL    HW211544   5.832   1.325   6.139
 3549SOL     OW11545   6.783   4.481   4.848
 3549SOL    HW111546   6.726   4.563   4.851
 3549SOL    HW211547   6.875   4.503   4.880
 3550SOL     OW11548   5.397   2.082   2.672
 3550SOL    HW111549   5.460   2.159   2.684
 3550SOL    HW211550   5.321   2.091   2.738
 3551SOL     OW11551   4.039   6.309   2.523
 3551SOL    HW111552   3.950   6.316   2.478
 3551SOL    HW211553   4.038   6.230   2.585
 3552SOL     OW11554   4.836   6.299   1.912
 3552SOL    HW111555   4.907   6.330   1.849
 3552SOL    HW211556   4.863   6.210   1.950
 3553SOL     OW11557   5.950   2.977   1.383
 3553SOL    HW111558   5.886   2.952   1.455
 3553SOL    HW211559   5.944   2.911   1.308
 3554SOL     OW11560   3.903   2.761   1.248
 3554SOL    HW111561   3.869   2.715   1.330
 3554SOL    HW211562   3.827   2.774   1.183
 3555SOL     OW11563   1.152   3.335   3.167
 3555SOL    HW111564   1.077   3.363   3.226
 3555SOL    HW211565   1.229   3.398   3.179
 3556SOL     OW11566   4.140   0.675   4.587
 3556SOL    HW111567   4.217   0.678   4.650
 3556SOL    HW211568   4.166   0.719   4.500
 3557SOL     OW11569   0.321   0.390   3.359
 3557SOL    HW111570   0.258   0.402   3.282
 3557SOL    HW211571   0.319   0.471   3.417
 3558SOL     OW11572   0.820   5.684   0.885
 3558SOL    HW111573   0.865   5.602   0.921
 3558SOL    HW211574   0.868   5.715   0.803
 3559SOL     OW11575   0.294   6.786   4.602
 3559SOL    HW111576   0.329   6.872   4.564
 3559SOL    HW211577   0.195   6.794   4.616
 3560SOL     OW11578   1.234   5.275   0.794
 3560SOL    HW111579   1.206   5.344   0.727
 3560SOL    HW211580   1.153   5.234   0.836
 3561SOL     OW11581   3.768   4.964   5.455
 3561SOL    HW111582   3.811   4.928   5.372
 3561SOL    HW211583   3.742   4.889   5.515
 3562SOL     OW11584   5.002   0.750   4.410
 3562SOL    HW111585   5.083   0.797   4.374
 3562SOL    HW211586   5.028   0.695   4.490
 3563SOL     OW11587   5.387   0.232   1.510
 3563SOL    HW111588   5.452   0.300   1.544
 3563SOL    HW211589   5.315   0.277   1.457
 3564SOL     OW11590   1.552   5.180   4.202
 3564SOL    HW111591   1.474   5.242   4.195
 3564SOL    HW211592   1.541   5.121   4.282
 3565SOL     OW11593   4.043   6.555   4.617
 3565SOL    HW111594   3.996   6.474   4.583
 3565SOL    HW211595   4.142   6.545   4.602
 3566SOL     OW11596   6.721   3.546   6.361
 3566SOL    HW111597   6.655   3.565   6.289
 3566SOL    HW211598   6.814   3.565   6.327
 3567SOL     OW11599   0.898   2.643   0.110
 3567SOL    HW111600   0.936   2.713   0.050
 3567SOL    HW211601   0.886   2.557   0.059
 3568SOL     OW11602   5.084   5.237   3.331
 3568SOL    HW111603   5.160   5.225   3.395
 3568SOL    HW211604   5.117   5.230   3.237
 3569SOL     OW11605   2.512   2.597   5.824
 3569SOL    HW111606   2.476   2.507   5.799
 3569SOL    HW211607   2.597   2.614   5.773
 3570SOL     OW11608   5.352   0.370   4.822
 3570SOL    HW111609   5.383   0.315   4.744
 3570SOL    HW211610   5.427   0.381   4.887
 3571SOL     OW11611   2.296   0.944   5.176
 3571SOL    HW111612   2.243   1.027   5.195
 3571SOL    HW211613   2.364   0.963   5.106
 3572SOL     OW11614   5.609   3.604   2.814
 3572SOL    HW111615   5.611   3.507   2.839
 3572SOL    HW211616   5.635   3.614   2.718
 3573SOL     OW11617   6.543   4.694   2.339
 3573SOL    HW111618   6.510   4.647   2.258
 3573SOL    HW211619   6.484   4.673   2.417
 3574SOL     OW11620   1.605   3.797   0.192
 3574SOL    HW111621   1.689   3.848   0.176
 3574SOL    HW211622   1.621   3.700   0.177
 3575SOL     OW11623   5.216   5.680   1.785
 3575SOL    HW111624   5.202   5.737   1.866
 3575SOL    HW211625   5.288   5.613   1.803
 3576SOL     OW11626   0.187   2.175   0.055
 3576SOL    HW111627   0.278   2.213   0.037
 3576SOL    HW211628   0.142   2.230   0.126
 3577SOL     OW11629   2.516   2.809   6.000
 3577SOL    HW111630   2.509   2.729   5.941
 3577SOL    HW211631   2.563   2.882   5.952
 3578SOL     OW11632   4.344   2.669   1.161
 3578SOL    HW111633   4.312   2.714   1.078
 3578SOL    HW211634   4.332   2.731   1.239
 3579SOL     OW11635   0.124   2.854   2.892
 3579SOL    HW111636   0.030   2.836   2.919
 3579SOL    HW211637   0.147   2.949   2.912
 3580SOL     OW11638   6.500   3.666   0.879
 3580SOL    HW111639   6.528   3.570   0.882
 3580SOL    HW211640   6.571   3.723   0.919
 3581SOL     OW11641   0.464   6.360   2.658
 3581SOL    HW111642   0.419   6.446   2.683
 3581SOL    HW211643   0.549   6.380   2.609
 3582SOL     OW11644   2.485   4.993   5.619
 3582SOL    HW111645   2.408   4.937   5.592
 3582SOL    HW211646   2.571   4.945   5.598
 3583SOL     OW11647   1.194   4.285   0.292
 3583SOL    HW111648   1.181   4.186   0.287
 3583SOL    HW211649   1.182   4.316   0.386
 3584SOL     OW11650   5.506   4.673   5.603
 3584SOL    HW111651   5.500   4.724   5.689
 3584SOL    HW211652   5.565   4.723   5.539
 3585SOL     OW11653   3.145   1.835   4.620
 3585SOL    HW111654   3.124   1.793   4.531
 3585SOL    HW211655   3.182   1.927   4.605
 3586SOL     OW11656   6.967   2.464   5.224
 3586SOL    HW111657   0.003   2.499   5.150
 3586SOL    HW211658   6.978   2.522   5.305
 3587SOL     OW11659   3.290   5.233   6.309
 3587SOL    HW111660   3.268   5.293   6.386
 3587SOL    HW211661   3.368   5.269   6.259
 3588SOL     OW11662   6.856   3.890   4.353
 3588SOL    HW111663   6.866   3.792   4.373
 3588SOL    HW211664   6.823   3.901   4.260
 3589SOL     OW11665   6.126   6.415   6.405
 3589SOL    HW111666   6.196   6.472   6.447
 3589SOL    HW211667   6.169   6.351   6.341
 3590SOL     OW11668   0.385   3.478   0.916
 3590SOL    HW111669   0.450   3.409   0.884
 3590SOL    HW211670   0.302   3.473   0.860
 3591SOL     OW11671   5.616   3.021   0.848
 3591SOL    HW111672   5.691   3.085   0.861
 3591SOL    HW211673   5.532   3.072   0.827
 3592SOL     OW11674   0.209   0.077   2.605
 3592SOL    HW111675   0.177   0.108   2.695
 3592SOL    HW211676   0.308   0.091   2.599
 3593SOL     OW11677   0.720   4.643   5.750
 3593SOL    HW111678   0.800   4.670   5.695
 3593SOL    HW211679   0.748   4.572   5.815
 3594SOL     OW11680   4.681   0.179   4.665
 3594SOL    HW111681   4.615   0.173   4.739
 3594SOL    HW211682   4.716   0.272   4.658
 3595SOL     OW11683   6.290   5.972   0.394
 3595SOL    HW111684   6.313   6.046   0.457
 3595SOL    HW211685   6.262   5.891   0.446
 3596SOL     OW11686   4.391   2.354   3.400
 3596SOL    HW111687   4.487   2.354   3.428
 3596SOL    HW211688   4.385   2.332   3.302
 3597SOL     OW11689   1.913   2.928   5.934
 3597SOL    HW111690   1.881   2.840   5.970
 3597SOL    HW211691   2.011   2.922   5.914
 3598SOL     OW11692   1.880   6.024   5.570
 3598SOL    HW111693   1.911   6.020   5.665
 3598SOL    HW211694   1.959   6.037   5.510
 3599SOL     OW11695   4.896   1.807   6.275
 3599SOL    HW111696   4.866   1.734   6.213
 3599SOL    HW211697   4.930   1.884   6.222
 3600SOL     OW11698   1.655   3.422   1.547
 3600SOL    HW111699   1.616   3.513   1.560
 3600SOL    HW211700   1.739   3.414   1.601
 3601SOL     OW11701   5.431   1.937   5.745
 3601SOL    HW111702   5.491   1.975   5.815
 3601SOL    HW211703   5.335   1.952   5.772
 3602SOL     OW11704   1.980   3.144   0.581
 3602SOL    HW111705   1.899   3.137   0.523
 3602SOL    HW211706   1.983   3.065   0.643
 3603SOL     OW11707   3.463   0.903   6.087
 3603SOL    HW111708   3.541   0.894   6.025
 3603SOL    HW211709   3.446   0.815   6.132
 3604SOL     OW11710   5.990   0.891   3.611
 3604SOL    HW111711   6.045   0.974   3.603
 3604SOL    HW211712   6.050   0.812   3.628
 3605SOL     OW11713   0.714   5.128   3.820
 3605SOL    HW111714   0.670   5.186   3.889
 3605SOL    HW211715   0.649   5.109   3.747
 3606SOL     OW11716   1.677   6.441   2.057
 3606SOL    HW111717   1.657   6.484   1.970
 3606SOL    HW211718   1.694   6.343   2.044
 3607SOL     OW11719   4.969   2.578   2.545
 3607SOL    HW111720   5.025   2.602   2.624
 3607SOL    HW211721   4.922   2.659   2.512
 3608SOL     OW11722   5.187   1.482   3.823
 3608SOL    HW111723   5.233   1.512   3.906
 3608SOL    HW211724   5.247   1.422   3.771
 3609SOL     OW11725   2.365   6.495   4.510
 3609SOL    HW111726   2.365   6.526   4.605
 3609SOL    HW211727   2.351   6.574   4.450
 3610SOL     OW11728   1.866   0.370   5.369
 3610SOL    HW111729   1.929   0.399   5.442
 3610SOL    HW211730   1.775   0.354   5.408
 3611SOL     OW11731   4.481   4.617   4.284
 3611SOL    HW111732   4.461   4.559   4.205
 3611SOL    HW211733   4.408   4.685   4.296
 3612SOL     OW11734   6.588   1.639   6.758
 3612SOL    HW111735   6.516   1.651   6.827
 3612SOL    HW211736   6.639   1.724   6.747
 3613SOL     OW11737   4.282   5.149   2.282
 3613SOL    HW111738   4.185   5.139   2.262
 3613SOL    HW211739   4.336   5.125   2.201
 3614SOL     OW11740   3.153   3.252   6.915
 3614SOL    HW111741   3.063   3.256   6.957
 3614SOL    HW211742   3.216   3.313   6.964
 3615SOL     OW11743   6.165   3.151   6.299
 3615SOL    HW111744   6.091   3.144   6.232
 3615SOL    HW211745   6.223   3.229   6.275
 3616SOL     OW11746   1.660   1.339   6.571
 3616SOL    HW111747   1.688   1.246   6.596
 3616SOL    HW211748   1.683   1.356   6.476
 3617SOL     OW11749   4.702   0.195   5.899
 3617SOL    HW111750   4.714   0.223   5.804
 3617SOL    HW211751   4.609   0.219   5.929
 3618SOL     OW11752   2.170   3.483   5.082
 3618SOL    HW111753   2.258   3.527   5.096
 3618SOL    HW211754   2.097   3.540   5.119
 3619SOL     OW11755   5.406   3.100   0.637
 3619SOL    HW111756   5.379   3.149   0.721
 3619SOL    HW211757   5.339   3.029   0.616
 3620SOL     OW11758   6.155   5.842   4.519
 3620SOL    HW111759   6.207   5.759   4.497
 3620SOL    HW211760   6.089   5.821   4.592
 3621SOL     OW11761   3.174   2.993   4.040
 3621SOL    HW111762   3.095   3.050   4.064
 3621SOL    HW211763   3.195   2.930   4.115
 3622SOL     OW11764   0.665   0.166   1.299
 3622SOL    HW111765   0.716   0.246   1.331
 3622SOL    HW211766   0.580   0.159   1.352
 3623SOL     OW11767   0.774   5.921   4.998
 3623SOL    HW111768   0.690   5.869   5.012
 3623SOL    HW211769   0.852   5.868   5.031
 3624SOL     OW11770   1.451   6.984   1.806
 3624SOL    HW111771   1.366   6.933   1.810
 3624SOL    HW211772   1.508   6.950   1.731
 3625SOL     OW11773   0.359   3.169   6.701
 3625SOL    HW111774   0.270   3.135   6.734
 3625SOL    HW211775   0.348   3.262   6.666
 3626SOL     OW11776   0.546   3.817   4.852
 3626SOL    HW111777   0.595   3.745   4.900
 3626SOL    HW211778   0.605   3.855   4.780
 3627SOL     OW11779   5.135   2.975   1.515
 3627SOL    HW111780   5.140   2.875   1.521
 3627SOL    HW211781   5.083   3.010   1.592
 3628SOL     OW11782   1.413   1.545   2.014
 3628SOL    HW111783   1.468   1.624   2.042
 3628SOL    HW211784   1.473   1.467   1.999
 3629SOL     OW11785   1.245   0.559   4.027
 3629SOL    HW111786   1.248   0.560   4.126
 3629SOL    HW211787   1.318   0.500   3.992
 3630SOL     OW11788   6.863   2.817   2.914
 3630SOL    HW111789   6.901   2.804   3.005
 3630SOL    HW211790   6.771   2.777   2.910
 3631SOL     OW11791   2.041   6.646   3.953
 3631SOL    HW111792   2.052   6.649   3.854
 3631SOL    HW211793   2.093   6.720   3.995
 3632SOL     OW11794   4.475   4.182   1.349
 3632SOL    HW111795   4.418   4.250   1.394
 3632SOL    HW211796   4.570   4.192   1.380
 3633SOL     OW11797   3.592   2.474   5.356
 3633SOL    HW111798   3.686   2.442   5.346
 3633SOL    HW211799   3.593   2.570   5.384
 3634SOL     OW11800   1.968   6.446   6.231
 3634SOL    HW111801   2.052   6.448   6.176
 3634SOL    HW211802   1.889   6.455   6.170
 3635SOL     OW11803   2.170   1.620   1.709
 3635SOL    HW111804   2.153   1.543   1.649
 3635SOL    HW211805   2.226   1.689   1.661
 3636SOL     OW11806   6.968   5.331   0.854
 3636SOL    HW111807   0.039   5.312   0.880
 3636SOL    HW211808   6.922   5.382   0.927
 3637SOL     OW11809   1.055   2.513   0.316
 3637SOL    HW111810   1.151   2.515   0.289
 3637SOL    HW211811   0.999   2.548   0.241
 3638SOL     OW11812   6.920   3.808   2.818
 3638SOL    HW111813   6.947   3.731   2.760
 3638SOL    HW211814   6.893   3.775   2.908
 3639SOL     OW11815   3.497   4.025   5.518
 3639SOL    HW111816   3.532   4.049   5.427
 3639SOL    HW211817   3.433   4.095   5.549
 3640SOL     OW11818   5.545   2.498   0.614
 3640SOL    HW111819   5.541   2.480   0.516
 3640SOL    HW211820   5.461   2.465   0.657
 3641SOL     OW11821   5.156   4.357   0.966
 3641SOL    HW111822   5.167   4.281   1.031
 3641SOL    HW211823   5.074   4.410   0.990
 3642SOL     OW11824   5.429   2.051   6.345
 3642SOL    HW111825   5.448   2.040   6.442
 3642SOL    HW211826   5.496   2.113   6.304
 3643SOL     OW11827   4.307   6.817   6.186
 3643SOL    HW111828   4.343   6.781   6.099
 3643SOL    HW211829   4.280   6.912   6.174
 3644SOL     OW11830   3.411   1.100   1.720
 3644SOL    HW111831   3.362   1.106   1.633
 3644SOL    HW211832   3.345   1.084   1.794
 3645SOL     OW11833   1.763   3.727   3.867
 3645SOL    HW111834   1.763   3.812   3.816
 3645SOL    HW211835   1.807   3.741   3.956
 3646SOL     OW11836   2.484   4.938   4.845
 3646SOL    HW111837   2.466   5.035   4.860
 3646SOL    HW211838   2.572   4.914   4.886
 3647SOL     OW11839   2.795   0.119   6.969
 3647SOL    HW111840   2.756   0.155   0.031
 3647SOL    HW211841   2.759   0.170   6.891
 3648SOL     OW11842   5.172   6.076   3.141
 3648SOL    HW111843   5.255   6.103   3.092
 3648SOL    HW211844   5.122   6.008   3.088
 3649SOL     OW11845   5.398   3.768   6.771
 3649SOL    HW111846   5.408   3.820   6.856
 3649SOL    HW211847   5.432   3.822   6.695
 3650SOL     OW11848   5.376   4.002   0.765
 3650SOL    HW111849   5.293   3.995   0.710
 3650SOL    HW211850   5.361   4.067   0.839
 3651SOL     OW11851   2.179   1.589   5.754
 3651SOL    HW111852   2.102   1.632   5.801
 3651SOL    HW211853   2.164   1.490   5.748
 3652SOL     OW11854   5.449   0.680   2.485
 3652SOL    HW111855   5.484   0.609   2.546
 3652SOL    HW211856   5.369   0.723   2.527
 3653SOL     OW11857   0.860   0.924   2.674
 3653SOL    HW111858   0.803   0.997   2.711
 3653SOL    HW211859   0.956   0.945   2.692
 3654SOL     OW11860   4.575   6.081   1.005
 3654SOL    HW111861   4.527   6.156   1.051
 3654SOL    HW211862   4.672   6.103   0.999
 3655SOL     OW11863   2.784   1.119   4.088
 3655SOL    HW111864   2.812   1.098   3.995
 3655SOL    HW211865   2.751   1.213   4.093
 3656SOL     OW11866   0.855   5.548   1.624
 3656SOL    HW111867   0.760   5.517   1.624
 3656SOL    HW211868   0.911   5.482   1.574
 3657SOL     OW11869   4.497   5.686   5.664
 3657SOL    HW111870   4.543   5.756   5.609
 3657SOL    HW211871   4.482   5.721   5.756
 3658SOL     OW11872   1.357   5.318   6.419
 3658SOL    HW111873   1.322   5.319   6.513
 3658SOL    HW211874   1.451   5.353   6.418
 3659SOL     OW11875   0.326   1.437   6.552
 3659SOL    HW111876   0.304   1.377   6.475
 3659SOL    HW211877   0.264   1.418   6.628
 3660SOL     OW11878   5.624   6.493   5.993
 3660SOL    HW111879   5.611   6.406   6.042
 3660SOL    HW211880   5.721   6.514   5.990
 3661SOL     OW11881   6.883   0.550   4.203
 3661SOL    HW111882   6.938   0.480   4.158
 3661SOL    HW211883   6.812   0.582   4.140
 3662SOL     OW11884   4.049   1.059   5.426
 3662SOL    HW111885   4.134   1.046   5.477
 3662SOL    HW211886   4.005   0.971   5.411
 3663SOL     OW11887   2.216   2.466   6.692
 3663SOL    HW111888   2.285   2.519   6.643
 3663SOL    HW211889   2.225   2.369   6.668
 3664SOL     OW11890   4.473   1.520   2.242
 3664SOL    HW111891   4.430   1.584   2.305
 3664SOL    HW211892   4.521   1.571   2.170
 3665SOL     OW11893   0.845   6.144   5.267
 3665SOL    HW111894   0.773   6.155   5.198
 3665SOL    HW211895   0.893   6.230   5.280
 3666SOL     OW11896   1.369   2.427   3.303
 3666SOL    HW111897   1.274   2.413   3.332
 3666SOL    HW211898   1.381   2.521   3.271
 3667SOL     OW11899   1.171   1.537   3.165
 3667SOL    HW111900   1.226   1.455   3.183
 3667SOL    HW211901   1.144   1.539   3.069
 3668SOL     OW11902   1.041   6.994   1.954
 3668SOL    HW111903   1.077   0.065   1.957
 3668SOL    HW211904   0.943   6.996   1.937
 3669SOL     OW11905   6.232   1.751   4.488
 3669SOL    HW111906   6.150   1.767   4.542
 3669SOL    HW211907   6.311   1.793   4.534
 3670SOL     OW11908   3.463   4.887   1.409
 3670SOL    HW111909   3.417   4.919   1.491
 3670SOL    HW211910   3.395   4.868   1.338
 3671SOL     OW11911   6.328   1.145   3.290
 3671SOL    HW111912   6.315   1.046   3.290
 3671SOL    HW211913   6.286   1.185   3.209
 3672SOL     OW11914   5.772   1.496   2.666
 3672SOL    HW111915   5.727   1.442   2.738
 3672SOL    HW211916   5.704   1.528   2.600
 3673SOL     OW11917   4.736   5.948   0.337
 3673SOL    HW111918   4.705   6.008   0.264
 3673SOL    HW211919   4.759   6.002   0.417
 3674SOL     OW11920   1.447   6.199   6.119
 3674SOL    HW111921   1.422   6.172   6.026
 3674SOL    HW211922   1.546   6.190   6.131
 3675SOL     OW11923   0.297   1.974   3.711
 3675SOL    HW111924   0.204   1.975   3.747
 3675SOL    HW211925   0.326   1.880   3.694
 3676SOL     OW11926   4.829   3.121   3.290
 3676SOL    HW111927   4.770   3.045   3.263
 3676SOL    HW211928   4.824   3.193   3.222
 3677SOL     OW11929   2.203   1.139   4.824
 3677SOL    HW111930   2.179   1.042   4.819
 3677SOL    HW211931   2.290   1.154   4.778
 3678SOL     OW11932   1.388   0.342   3.893
 3678SOL    HW111933   1.351   0.368   3.804
 3678SOL    HW211934   1.483   0.374   3.900
 3679SOL     OW11935   6.068   0.287   2.872
 3679SOL    HW111936   6.086   0.378   2.910
 3679SOL    HW211937   6.133   0.269   2.798
 3680SOL     OW11938   4.578   1.699   2.944
 3680SOL    HW111939   4.601   1.607   2.977
 3680SOL    HW211940   4.488   1.697   2.901
 3681SOL     OW11941   0.902   0.826   5.623
 3681SOL    HW111942   0.912   0.730   5.594
 3681SOL    HW211943   0.983   0.877   5.594
 3682SOL     OW11944   5.608   2.180   1.212
 3682SOL    HW111945   5.531   2.218   1.161
 3682SOL    HW211946   5.577   2.099   1.262
 3683SOL     OW11947   0.123   0.778   4.094
 3683SOL    HW111948   0.030   0.806   4.069
 3683SOL    HW211949   0.134   0.784   4.193
 3684SOL     OW11950   1.815   6.899   6.182
 3684SOL    HW111951   1.836   6.996   6.169
 3684SOL    HW211952   1.899   6.848   6.199
 3685SOL     OW11953   2.613   5.808   5.222
 3685SOL    HW111954   2.602   5.807   5.322
 3685SOL    HW211955   2.704   5.842   5.199
 3686SOL     OW11956   0.102   3.513   3.664
 3686SOL    HW111957   0.155   3.523   3.580
 3686SOL    HW211958   0.032   3.444   3.651
 3687SOL     OW11959   4.886   6.492   3.134
 3687SOL    HW111960   4.923   6.410   3.092
 3687SOL    HW211961   4.833   6.467   3.215
 3688SOL     OW11962   6.055   3.488   0.215
 3688SOL    HW111963   6.060   3.426   0.137
 3688SOL    HW211964   6.071   3.438   0.299
 3689SOL     OW11965   1.875   1.702   5.202
 3689SOL    HW111966   1.974   1.693   5.192
 3689SOL    HW211967   1.834   1.611   5.208
 3690SOL     OW11968   5.393   5.507   0.785
 3690SOL    HW111969   5.383   5.606   0.776
 3690SOL    HW211970   5.393   5.466   0.694
 3691SOL     OW11971   3.028   1.978   6.073
 3691SOL    HW111972   2.994   1.925   5.995
 3691SOL    HW211973   2.974   2.061   6.082
 3692SOL     OW11974   6.778   4.083   6.117
 3692SOL    HW111975   6.809   4.176   6.136
 3692SOL    HW211976   6.819   4.019   6.182
 3693SOL     OW11977   0.789   1.762   2.774
 3693SOL    HW111978   0.785   1.861   2.760
 3693SOL    HW211979   0.872   1.726   2.733
 3694SOL     OW11980   1.015   0.485   1.719
 3694SOL    HW111981   1.017   0.438   1.631
 3694SOL    HW211982   0.928   0.534   1.728
 3695SOL     OW11983   6.832   2.601   2.495
 3695SOL    HW111984   6.928   2.629   2.506
 3695SOL    HW211985   6.808   2.602   2.398
 3696SOL     OW11986   4.925   0.873   4.963
 3696SOL    HW111987   4.994   0.944   4.976
 3696SOL    HW211988   4.912   0.857   4.865
 3697SOL     OW11989   6.605   5.887   3.312
 3697SOL    HW111990   6.542   5.846   3.246
 3697SOL    HW211991   6.613   5.828   3.392
 3698SOL     OW11992   1.851   0.814   3.779
 3698SOL    HW111993   1.876   0.732   3.831
 3698SOL    HW211994   1.753   0.831   3.790
 3699SOL     OW11995   2.219   2.096   3.860
 3699SOL    HW111996   2.303   2.137   3.897
 3699SOL    HW211997   2.230   2.080   3.762
 3700SOL     OW11998   1.826   5.378   5.220
 3700SOL    HW111999   1.786   5.469   5.207
 3700SOL    HW212000   1.861   5.345   5.132
 3701SOL     OW12001   1.090   6.338   1.780
 3701SOL    HW112002   1.058   6.359   1.873
 3701SOL    HW212003   1.028   6.380   1.714
 3702SOL     OW12004   5.895   6.566   4.152
 3702SOL    HW112005   5.858   6.492   4.096
 3702SOL    HW212006   5.950   6.528   4.227
 3703SOL     OW12007   1.271   1.337   6.421
 3703SOL    HW112008   1.320   1.411   6.373
 3703SOL    HW212009   1.179   1.328   6.383
 3704SOL     OW12010   5.568   2.847   1.099
 3704SOL    HW112011   5.638   2.775   1.103
 3704SOL    HW212012   5.593   2.914   1.030
 3705SOL     OW12013   4.973   4.944   3.681
 3705SOL    HW112014   4.992   5.036   3.713
 3705SOL    HW212015   4.989   4.938   3.582
 3706SOL     OW12016   0.520   3.905   0.584
 3706SOL    HW112017   0.507   3.840   0.659
 3706SOL    HW212018   0.448   3.892   0.516
 3707SOL     OW12019   3.465   5.223   3.930
 3707SOL    HW112020   3.478   5.204   4.028
 3707SOL    HW212021   3.409   5.304   3.919
 3708SOL     OW12022   4.186   6.602   1.471
 3708SOL    HW112023   4.177   6.527   1.536
 3708SOL    HW212024   4.174   6.568   1.378
 3709SOL     OW12025   1.623   0.295   1.415
 3709SOL    HW112026   1.677   0.293   1.330
 3709SOL    HW212027   1.665   0.234   1.482
 3710SOL     OW12028   0.892   4.783   5.172
 3710SOL    HW112029   0.833   4.726   5.229
 3710SOL    HW212030   0.964   4.726   5.132
 3711SOL     OW12031   1.681   6.191   4.850
 3711SOL    HW112032   1.652   6.161   4.941
 3711SOL    HW212033   1.648   6.125   4.782
 3712SOL     OW12034   2.404   5.194   6.933
 3712SOL    HW112035   2.497   5.162   6.911
 3712SOL    HW212036   2.360   5.226   6.850
 3713SOL     OW12037   6.788   6.831   4.716
 3713SOL    HW112038   6.782   6.850   4.814
 3713SOL    HW212039   6.765   6.735   4.699
 3714SOL     OW12040   0.804   4.787   6.903
 3714SOL    HW112041   0.761   4.835   6.826
 3714SOL    HW212042   0.735   4.730   6.949
 3715SOL     OW12043   0.649   5.938   3.325
 3715SOL    HW112044   0.720   5.873   3.300
 3715SOL    HW212045   0.638   5.939   3.424
 3716SOL     OW12046   6.426   5.755   4.043
 3716SOL    HW112047   6.382   5.812   3.973
 3716SOL    HW212048   6.358   5.696   4.087
 3717SOL     OW12049   4.684   1.260   0.227
 3717SOL    HW112050   4.713   1.355   0.239
 3717SOL    HW212051   4.762   1.206   0.193
 3718SOL     OW12052   0.441   0.054   6.732
 3718SOL    HW112053   0.367   0.022   6.791
 3718SOL    HW212054   0.406   0.128   6.674
 3719SOL     OW12055   4.230   3.225   6.155
 3719SOL    HW112056   4.269   3.134   6.142
 3719SOL    HW212057   4.235   3.249   6.252
 3720SOL     OW12058   5.760   3.458   1.182
 3720SOL    HW112059   5.761   3.423   1.275
 3720SOL    HW212060   5.680   3.517   1.169
 3721SOL     OW12061   6.349   5.584   6.846
 3721SOL    HW112062   6.288   5.620   6.917
 3721SOL    HW212063   6.413   5.520   6.887
 3722SOL     OW12064   4.592   6.887   1.773
 3722SOL    HW112065   4.568   6.879   1.676
 3722SOL    HW212066   4.691   6.890   1.782
 3723SOL     OW12067   4.735   5.212   0.335
 3723SOL    HW112068   4.686   5.186   0.419
 3723SOL    HW212069   4.669   5.224   0.261
 3724SOL     OW12070   1.844   5.317   5.481
 3724SOL    HW112071   1.869   5.342   5.388
 3724SOL    HW212072   1.838   5.217   5.488
 3725SOL     OW12073   0.143   6.350   6.970
 3725SOL    HW112074   0.139   6.419   6.898
 3725SOL    HW212075   0.223   6.292   6.955
 3726SOL     OW12076   5.501   4.720   4.550
 3726SOL    HW112077   5.518   4.658   4.627
 3726SOL    HW212078   5.492   4.814   4.584
 3727SOL     OW12079   0.082   3.769   4.627
 3727SOL    HW112080   0.066   3.757   4.725
 3727SOL    HW212081   0.178   3.794   4.612
 3728SOL     OW12082   3.112   2.954   0.243
 3728SOL    HW112083   3.166   2.871   0.254
 3728SOL    HW212084   3.146   3.025   0.305
 3729SOL     OW12085   0.664   0.237   5.045
 3729SOL    HW112086   0.601   0.264   5.118
 3729SOL    HW212087   0.612   0.200   4.968
 3730SOL     OW12088   4.731   6.795   5.742
 3730SOL    HW112089   4.752   6.863   5.812
 3730SOL    HW212090   4.648   6.822   5.693
 3731SOL     OW12091   0.716   1.278   6.987
 3731SOL    HW112092   0.743   1.185   7.012
 3731SOL    HW212093   0.750   1.299   6.895
 3732SOL     OW12094   1.720   1.995   0.859
 3732SOL    HW112095   1.804   2.034   0.895
 3732SOL    HW212096   1.651   2.066   0.848
 3733SOL     OW12097   1.718   2.948   3.506
 3733SOL    HW112098   1.687   2.858   3.477
 3733SOL    HW212099   1.789   2.939   3.575
 3734SOL     OW12100   4.450   0.410   1.372
 3734SOL    HW112101   4.462   0.312   1.357
 3734SOL    HW212102   4.430   0.455   1.285
 3735SOL     OW12103   4.354   6.638   2.339
 3735SOL    HW112104   4.310   6.584   2.411
 3735SOL    HW212105   4.360   6.733   2.367
 3736SOL     OW12106   6.348   0.619   0.629
 3736SOL    HW112107   6.444   0.606   0.652
 3736SOL    HW212108   6.333   0.712   0.597
 3737SOL     OW12109   6.179   2.791   3.485
 3737SOL    HW112110   6.082   2.808   3.471
 3737SOL    HW212111   6.229   2.878   3.481
 3738SOL     OW12112   6.594   5.871   1.091
 3738SOL    HW112113   6.691   5.888   1.106
 3738SOL    HW212114   6.539   5.934   1.146
 3739SOL     OW12115   2.886   4.753   1.628
 3739SOL    HW112116   2.983   4.757   1.604
 3739SOL    HW212117   2.877   4.729   1.725
 3740SOL     OW12118   6.195   6.010   7.012
 3740SOL    HW112119   6.285   5.978   6.984
 3740SOL    HW212120   6.126   5.941   6.987
 3741SOL     OW12121   5.062   2.656   0.065
 3741SOL    HW112122   5.067   2.573   0.009
 3741SOL    HW212123   4.968   2.690   0.064
 3742SOL     OW12124   5.014   5.791   0.110
 3742SOL    HW112125   4.969   5.846   0.180
 3742SOL    HW212126   5.102   5.760   0.144
 3743SOL     OW12127   4.685   4.212   1.512
 3743SOL    HW112128   4.705   4.183   1.606
 3743SOL    HW212129   4.752   4.282   1.485
 3744SOL     OW12130   1.331   6.626   1.849
 3744SOL    HW112131   1.263   6.697   1.863
 3744SOL    HW212132   1.324   6.557   1.921
 3745SOL     OW12133   4.860   3.571   2.649
 3745SOL    HW112134   4.771   3.609   2.624
 3745SOL    HW212135   4.879   3.490   2.593
 3746SOL     OW12136   6.748   0.397   3.631
 3746SOL    HW112137   6.654   0.421   3.605
 3746SOL    HW212138   6.810   0.418   3.556
 3747SOL     OW12139   4.397   6.736   5.936
 3747SOL    HW112140   4.407   6.835   5.933
 3747SOL    HW212141   4.483   6.694   5.964
 3748SOL     OW12142   5.932   0.857   2.512
 3748SOL    HW112143   5.949   0.953   2.531
 3748SOL    HW212144   5.841   0.846   2.473
 3749SOL     OW12145   1.294   5.433   2.794
 3749SOL    HW112146   1.316   5.529   2.812
 3749SOL    HW212147   1.327   5.377   2.869
 3750SOL     OW12148   5.673   4.884   0.772
 3750SOL    HW112149   5.755   4.909   0.824
 3750SOL    HW212150   5.695   4.811   0.707
 3751SOL     OW12151   1.320   3.070   0.986
 3751SOL    HW112152   1.366   3.140   0.931
 3751SOL    HW212153   1.261   3.014   0.927
 3752SOL     OW12154   0.414   0.528   6.767
 3752SOL    HW112155   0.358   0.522   6.849
 3752SOL    HW212156   0.384   0.459   6.701
 3753SOL     OW12157   0.621   6.293   5.087
 3753SOL    HW112158   0.657   6.227   5.021
 3753SOL    HW212159   0.528   6.268   5.112
 3754SOL     OW12160   5.360   6.156   1.472
 3754SOL    HW112161   5.354   6.057   1.456
 3754SOL    HW212162   5.269   6.196   1.466
 3755SOL     OW12163   5.651   5.569   4.140
 3755SOL    HW112164   5.664   5.665   4.116
 3755SOL    HW212165   5.681   5.511   4.064
 3756SOL     OW12166   2.398   0.485   6.064
 3756SOL    HW112167   2.337   0.418   6.022
 3756SOL    HW212168   2.453   0.530   5.993
 3757SOL     OW12169   3.580   5.867   5.963
 3757SOL    HW112170   3.622   5.802   5.900
 3757SOL    HW212171   3.538   5.942   5.912
 3758SOL     OW12172   1.890   1.694   4.336
 3758SOL    HW112173   1.842   1.659   4.256
 3758SOL    HW212174   1.827   1.745   4.394
 3759SOL     OW12175   4.609   5.221   5.394
 3759SOL    HW112176   4.530   5.282   5.383
 3759SOL    HW212177   4.617   5.193   5.490
 3760SOL     OW12178   1.197   3.622   3.000
 3760SOL    HW112179   1.170   3.717   2.984
 3760SOL    HW212180   1.289   3.607   2.963
 3761SOL     OW12181   0.734   6.929   4.981
 3761SOL    HW112182   0.759   6.832   4.973
 3761SOL    HW212183   0.698   6.961   4.893
 3762SOL     OW12184   0.969   4.329   6.755
 3762SOL    HW112185   1.047   4.290   6.706
 3762SOL    HW212186   0.996   4.416   6.796
 3763SOL     OW12187   6.636   4.520   6.757
 3763SOL    HW112188   6.559   4.573   6.721
 3763SOL    HW212189   6.617   4.422   6.745
 3764SOL     OW12190   2.062   0.898   4.837
 3764SOL    HW112191   2.106   0.820   4.880
 3764SOL    HW212192   1.963   0.892   4.849
 3765SOL     OW12193   4.767   0.826   3.067
 3765SOL    HW112194   4.731   0.916   3.043
 3765SOL    HW212195   4.699   0.777   3.121
 3766SOL     OW12196   0.673   0.647   4.100
 3766SOL    HW112197   0.761   0.668   4.143
 3766SOL    HW212198   0.687   0.585   4.023
 3767SOL     OW12199   1.834   4.729   0.465
 3767SOL    HW112200   1.801   4.765   0.553
 3767SOL    HW212201   1.758   4.684   0.418
 3768SOL     OW12202   3.701   6.506   6.346
 3768SOL    HW112203   3.774   6.441   6.368
 3768SOL    HW212204   3.620   6.456   6.316
 3769SOL     OW12205   5.175   6.011   5.365
 3769SOL    HW112206   5.126   6.087   5.408
 3769SOL    HW212207   5.272   6.017   5.388
 3770SOL     OW12208   2.516   1.027   6.080
 3770SOL    HW112209   2.468   1.031   6.168
 3770SOL    HW212210   2.586   1.098   6.078
 3771SOL     OW12211   5.368   1.982   0.362
 3771SOL    HW112212   5.281   1.934   0.374
 3771SOL    HW212213   5.441   1.929   0.405
 3772SOL     OW12214   6.155   1.267   0.657
 3772SOL    HW112215   6.090   1.319   0.602
 3772SOL    HW212216   6.227   1.231   0.598
 3773SOL     OW12217   5.729   3.357   6.072
 3773SOL    HW112218   5.812   3.396   6.031
 3773SOL    HW212219   5.752   3.316   6.160
 3774SOL     OW12220   1.253   6.686   6.768
 3774SOL    HW112221   1.347   6.702   6.736
 3774SOL    HW212222   1.192   6.753   6.726
 3775SOL     OW12223   5.551   3.706   2.307
 3775SOL    HW112224   5.526   3.765   2.230
 3775SOL    HW212225   5.537   3.611   2.282
 3776SOL     OW12226   2.532   1.239   2.135
 3776SOL    HW112227   2.569   1.157   2.178
 3776SOL    HW212228   2.565   1.246   2.041
 3777SOL     OW12229   2.955   4.998   4.664
 3777SOL    HW112230   2.927   4.903   4.679
 3777SOL    HW212231   3.033   5.019   4.723
 3778SOL     OW12232   2.445   5.608   2.950
 3778SOL    HW112233   2.425   5.669   3.027
 3778SOL    HW212234   2.377   5.623   2.878
 3779SOL     OW12235   2.806   4.914   6.866
 3779SOL    HW112236   2.804   4.883   6.771
 3779SOL    HW212237   2.900   4.924   6.896
 3780SOL     OW12238   3.733   5.113   4.736
 3780SOL    HW112239   3.656   5.084   4.791
 3780SOL    HW212240   3.762   5.204   4.766
 3781SOL     OW12241   1.935   6.016   4.081
 3781SOL    HW112242   1.956   5.921   4.106
 3781SOL    HW212243   1.936   6.026   3.982
 3782SOL     OW12244   2.603   2.427   4.503
 3782SOL    HW112245   2.651   2.405   4.418
 3782SOL    HW212246   2.563   2.518   4.495
 3783SOL     OW12247   6.578   0.087   4.872
 3783SOL    HW112248   6.675   0.110   4.884
 3783SOL    HW212249   6.538   0.148   4.803
 3784SOL     OW12250   5.331   1.475   3.446
 3784SOL    HW112251   5.365   1.386   3.479
 3784SOL    HW212252   5.240   1.463   3.406
 3785SOL     OW12253   2.392   1.581   0.564
 3785SOL    HW112254   2.364   1.525   0.643
 3785SOL    HW212255   2.336   1.556   0.485
 3786SOL     OW12256   3.023   4.930   4.085
 3786SOL    HW112257   3.006   4.886   4.173
 3786SOL    HW212258   3.109   4.896   4.047
 3787SOL     OW12259   4.997   0.117   3.948
 3787SOL    HW112260   4.995   0.215   3.928
 3787SOL    HW212261   4.923   0.094   4.010
 3788SOL     OW12262   6.311   3.467   3.614
 3788SOL    HW112263   6.229   3.485   3.669
 3788SOL    HW212264   6.355   3.554   3.590
 3789SOL     OW12265   1.699   4.402   4.173
 3789SOL    HW112266   1.634   4.472   4.202
 3789SOL    HW212267   1.651   4.330   4.124
 3790SOL     OW12268   2.086   3.674   4.734
 3790SOL    HW112269   2.085   3.644   4.638
 3790SOL    HW212270   2.140   3.757   4.742
 3791SOL     OW12271   5.417   6.659   1.193
 3791SOL    HW112272   5.482   6.642   1.119
 3791SOL    HW212273   5.460   6.717   1.262
 3792SOL     OW12274   0.053   0.170   5.103
 3792SOL    HW112275   6.987   0.209   5.077
 3792SOL    HW212276   0.111   0.165   5.022
 3793SOL     OW12277   2.280   1.181   2.822
 3793SOL    HW112278   2.349   1.127   2.869
 3793SOL    HW212279   2.297   1.177   2.723
 3794SOL     OW12280   3.929   5.273   1.715
 3794SOL    HW112281   3.974   5.361   1.731
 3794SOL    HW212282   3.831   5.283   1.729
 3795SOL     OW12283   4.450   6.679   6.364
 3795SOL    HW112284   4.440   6.745   6.439
 3795SOL    HW212285   4.382   6.699   6.293
 3796SOL     OW12286   1.703   1.965   1.371
 3796SOL    HW112287   1.710   2.064   1.367
 3796SOL    HW212288   1.777   1.924   1.318
 3797SOL     OW12289   6.794   5.449   2.071
 3797SOL    HW112290   6.823   5.413   2.160
 3797SOL    HW212291   6.750   5.538   2.085
 3798SOL     OW12292   2.592   4.940   2.761
 3798SOL    HW112293   2.504   4.892   2.757
 3798SOL    HW212294   2.664   4.875   2.784
 3799SOL     OW12295   1.132   2.009   4.339
 3799SOL    HW112296   1.096   2.019   4.432
 3799SOL    HW212297   1.057   1.995   4.275
 3800SOL     OW12298   5.168   2.480   4.820
 3800SOL    HW112299   5.072   2.463   4.799
 3800SOL    HW212300   5.204   2.548   4.757
 3801SOL     OW12301   6.374   5.588   5.466
 3801SOL    HW112302   6.334   5.508   5.420
 3801SOL    HW212303   6.307   5.662   5.468
 3802SOL     OW12304   1.162   2.327   5.133
 3802SOL    HW112305   1.186   2.347   5.038
 3802SOL    HW212306   1.107   2.403   5.169
 3803SOL     OW12307   4.195   0.958   2.438
 3803SOL    HW112308   4.106   0.994   2.412
 3803SOL    HW212309   4.210   0.870   2.392
 3804SOL     OW12310   4.456   2.017   4.787
 3804SOL    HW112311   4.505   2.083   4.731
 3804SOL    HW212312   4.521   1.952   4.827
 3805SOL     OW12313   3.441   4.089   1.695
 3805SOL    HW112314   3.397   4.053   1.778
 3805SOL    HW212315   3.484   4.176   1.716
 3806SOL     OW12316   3.013   2.498   0.144
 3806SOL    HW112317   2.981   2.418   0.093
 3806SOL    HW212318   3.112   2.489   0.160
 3807SOL     OW12319   1.414   0.968   4.155
 3807SOL    HW112320   1.344   1.032   4.123
 3807SOL    HW212321   1.493   0.971   4.094
 3808SOL     OW12322   3.189   0.231   2.037
 3808SOL    HW112323   3.239   0.298   2.092
 3808SOL    HW212324   3.198   0.140   2.078
 3809SOL     OW12325   5.903   1.709   0.008
 3809SOL    HW112326   5.916   1.700   6.932
 3809SOL    HW212327   5.808   1.737   0.026
 3810SOL     OW12328   4.079   3.094   5.240
 3810SOL    HW112329   4.013   3.037   5.191
 3810SOL    HW212330   4.065   3.190   5.216
 3811SOL     OW12331   0.500   4.048   4.151
 3811SOL    HW112332   0.406   4.075   4.172
 3811SOL    HW212333   0.502   4.006   4.060
 3812SOL     OW12334   6.085   1.451   5.968
 3812SOL    HW112335   6.087   1.541   6.011
 3812SOL    HW212336   6.021   1.452   5.891
 3813SOL     OW12337   4.205   4.926   1.081
 3813SOL    HW112338   4.214   4.863   1.158
 3813SOL    HW212339   4.114   4.916   1.040
 3814SOL     OW12340   0.030   5.652   1.108
 3814SOL    HW112341   0.043   5.679   1.013
 3814SOL    HW212342   0.103   5.690   1.164
 3815SOL     OW12343   4.829   2.244   0.570
 3815SOL    HW112344   4.747   2.238   0.627
 3815SOL    HW212345   4.906   2.276   0.626
 3816SOL     OW12346   0.188   6.077   1.815
 3816SOL    HW112347   0.163   6.168   1.782
 3816SOL    HW212348   0.131   6.008   1.769
 3817SOL     OW12349   4.739   2.737   4.471
 3817SOL    HW112350   4.675   2.705   4.401
 3817SOL    HW212351   4.690   2.749   4.558
 3818SOL     OW12352   4.329   6.399   1.950
 3818SOL    HW112353   4.403   6.459   1.919
 3818SOL    HW212354   4.257   6.396   1.880
 3819SOL     OW12355   5.531   5.771   0.227
 3819SOL    HW112356   5.534   5.758   0.326
 3819SOL    HW212357   5.610   5.726   0.186
 3820SOL     OW12358   6.205   5.791   3.671
 3820SOL    HW112359   6.214   5.802   3.572
 3820SOL    HW212360   6.252   5.865   3.718
 3821SOL     OW12361   1.879   3.338   1.703
 3821SOL    HW112362   1.847   3.243   1.704
 3821SOL    HW212363   1.978   3.340   1.709
 3822SOL     OW12364   1.566   5.584   2.094
 3822SOL    HW112365   1.508   5.657   2.130
 3822SOL    HW212366   1.509   5.509   2.062
 3823SOL     OW12367   4.079   2.171   4.946
 3823SOL    HW112368   4.004   2.183   5.011
 3823SOL    HW212369   4.147   2.243   4.961
 3824SOL     OW12370   6.076   2.100   5.936
 3824SOL    HW112371   6.151   2.163   5.912
 3824SOL    HW212372   6.020   2.083   5.854
 3825SOL     OW12373   6.879   0.038   6.710
 3825SOL    HW112374   6.869   0.116   6.648
 3825SOL    HW212375   6.809   6.992   6.689
 3826SOL     OW12376   0.167   3.540   0.522
 3826SOL    HW112377   0.163   3.588   0.435
 3826SOL    HW212378   0.243   3.475   0.521
 3827SOL     OW12379   3.995   4.496   0.705
 3827SOL    HW112380   3.932   4.459   0.637
 3827SOL    HW212381   3.990   4.441   0.788
 3828SOL     OW12382   4.617   2.044   0.706
 3828SOL    HW112383   4.534   1.989   0.708
 3828SOL    HW212384   4.593   2.141   0.706
 3829SOL     OW12385   2.600   5.060   3.682
 3829SOL    HW112386   2.691   5.051   3.640
 3829SOL    HW212387   2.607   5.120   3.762
 3830SOL     OW12388   1.588   0.063   5.579
 3830SOL    HW112389   1.652   0.134   5.608
 3830SOL    HW212390   1.632   6.996   5.588
 3831SOL     OW12391   3.828   1.867   2.080
 3831SOL    HW112392   3.774   1.936   2.127
 3831SOL    HW212393   3.774   1.826   2.006
 3832SOL     OW12394   6.502   1.160   1.432
 3832SOL    HW112395   6.545   1.239   1.475
 3832SOL    HW212396   6.566   1.117   1.369
 3833SOL     OW12397   0.487   5.092   0.371
 3833SOL    HW112398   0.452   5.008   0.414
 3833SOL    HW212399   0.444   5.103   0.281
 3834SOL     OW12400   2.929   2.082   0.623
 3834SOL    HW112401   2.900   2.175   0.601
 3834SOL    HW212402   3.029   2.078   0.628
 3835SOL     OW12403   3.805   5.728   5.531
 3835SOL    HW112404   3.876   5.749   5.463
 3835SOL    HW212405   3.783   5.631   5.527
 3836SOL     OW12406   2.134   3.450   5.928
 3836SOL    HW112407   2.155   3.493   5.840
 3836SOL    HW212408   2.086   3.364   5.913
 3837SOL     OW12409   4.502   3.622   0.147
 3837SOL    HW112410   4.487   3.526   0.126
 3837SOL    HW212411   4.415   3.664   0.174
 3838SOL     OW12412   5.250   2.837   4.389
 3838SOL    HW112413   5.310   2.863   4.314
 3838SOL    HW212414   5.212   2.919   4.431
 3839SOL     OW12415   5.508   7.002   5.391
 3839SOL    HW112416   5.585   6.954   5.433
 3839SOL    HW212417   5.477   0.053   5.452
 3840SOL     OW12418   1.381   1.008   4.996
 3840SOL    HW112419   1.306   0.972   4.940
 3840SOL    HW212420   1.441   1.065   4.940
 3841SOL     OW12421   0.834   4.081   5.082
 3841SOL    HW112422   0.925   4.081   5.123
 3841SOL    HW212423   0.829   4.152   5.012
 3842SOL     OW12424   0.701   5.482   7.005
 3842SOL    HW112425   0.720   5.576   0.011
 3842SOL    HW212426   0.611   5.454   0.015
 3843SOL     OW12427   6.684   3.148   0.656
 3843SOL    HW112428   6.728   3.172   0.743
 3843SOL    HW212429   6.751   3.106   0.595
 3844SOL     OW12430   1.292   5.574   5.715
 3844SOL    HW112431   1.348   5.621   5.647
 3844SOL    HW212432   1.328   5.482   5.731
 3845SOL     OW12433   3.462   2.846   2.869
 3845SOL    HW112434   3.419   2.904   2.938
 3845SOL    HW212435   3.481   2.757   2.908
 3846SOL     OW12436   6.576   4.682   3.621
 3846SOL    HW112437   6.579   4.712   3.526
 3846SOL    HW212438   6.592   4.584   3.626
 3847SOL     OW12439   6.557   1.083   6.680
 3847SOL    HW112440   6.471   1.045   6.645
 3847SOL    HW212441   6.557   1.080   6.780
 3848SOL     OW12442   2.113   5.344   2.543
 3848SOL    HW112443   2.101   5.252   2.504
 3848SOL    HW212444   2.055   5.409   2.494
 3849SOL     OW12445   0.715   1.566   5.933
 3849SOL    HW112446   0.709   1.613   5.845
 3849SOL    HW212447   0.740   1.631   6.004
 3850SOL     OW12448   3.166   4.137   1.896
 3850SOL    HW112449   3.243   4.074   1.907
 3850SOL    HW212450   3.080   4.085   1.894
 3851SOL     OW12451   2.102   3.970   3.196
 3851SOL    HW112452   2.166   3.997   3.269
 3851SOL    HW212453   2.133   4.008   3.109
 3852SOL     OW12454   4.657   1.066   5.026
 3852SOL    HW112455   4.652   1.135   5.098
 3852SOL    HW212456   4.724   0.996   5.052
 3853SOL     OW12457   0.798   3.121   2.386
 3853SOL    HW112458   0.894   3.126   2.413
 3853SOL    HW212459   0.748   3.062   2.449
 3854SOL     OW12460   1.098   3.437   3.780
 3854SOL    HW112461   1.059   3.376   3.711
 3854SOL    HW212462   1.050   3.425   3.867
 3855SOL     OW12463   5.995   4.923   5.789
 3855SOL    HW112464   6.057   4.903   5.713
 3855SOL    HW212465   6.012   4.859   5.863
 3856SOL     OW12466   0.034   0.566   6.127
 3856SOL    HW112467   0.132   0.553   6.112
 3856SOL    HW212468   0.012   0.663   6.124
 3857SOL     OW12469   0.846   6.626   4.961
 3857SOL    HW112470   0.808   6.556   5.022
 3857SOL    HW212471   0.927   6.667   5.003
 3858SOL     OW12472   1.002   5.787   6.259
 3858SOL    HW112473   1.085   5.731   6.251
 3858SOL    HW212474   0.989   5.814   6.354
 3859SOL     OW12475   6.781   2.822   3.509
 3859SOL    HW112476   6.821   2.744   3.558
 3859SOL    HW212477   6.853   2.885   3.483
 3860SOL     OW12478   2.228   5.752   5.519
 3860SOL    HW112479   2.279   5.705   5.591
 3860SOL    HW212480   2.264   5.725   5.429
 3861SOL     OW12481   5.104   4.599   1.664
 3861SOL    HW112482   5.032   4.611   1.596
 3861SOL    HW212483   5.100   4.506   1.701
 3862SOL     OW12484   0.284   6.819   5.966
 3862SOL    HW112485   0.316   6.725   5.958
 3862SOL    HW212486   0.299   6.851   6.060
 3863SOL     OW12487   3.311   3.627   0.945
 3863SOL    HW112488   3.329   3.725   0.956
 3863SOL    HW212489   3.367   3.575   1.009
 3864SOL     OW12490   3.722   1.985   6.825
 3864SOL    HW112491   3.772   2.068   6.803
 3864SOL    HW212492   3.699   1.984   6.923
 3865SOL     OW12493   3.930   0.314   1.934
 3865SOL    HW112494   3.889   0.379   1.870
 3865SOL    HW212495   3.877   0.312   2.019
 3866SOL     OW12496   4.159   6.829   1.140
 3866SOL    HW112497   4.234   6.818   1.075
 3866SOL    HW212498   4.110   6.743   1.150
 3867SOL     OW12499   2.078   3.530   3.165
 3867SOL    HW112500   2.018   3.610   3.174
 3867SOL    HW212501   2.070   3.474   3.248
 3868SOL     OW12502   2.613   6.691   1.876
 3868SOL    HW112503   2.657   6.695   1.966
 3868SOL    HW212504   2.644   6.768   1.821
 3869SOL     OW12505   0.270   2.462   3.436
 3869SOL    HW112506   0.340   2.466   3.365
 3869SOL    HW212507   0.251   2.366   3.458
 3870SOL     OW12508   3.027   5.096   0.151
 3870SOL    HW112509   3.087   5.035   0.099
 3870SOL    HW212510   2.945   5.045   0.179
 3871SOL     OW12511   3.304   0.140   2.662
 3871SOL    HW112512   3.276   0.044   2.658
 3871SOL    HW212513   3.343   0.159   2.752
 3872SOL     OW12514   4.381   3.933   1.279
 3872SOL    HW112515   4.424   3.908   1.192
 3872SOL    HW212516   4.425   4.016   1.314
 3873SOL     OW12517   5.686   5.236   1.494
 3873SOL    HW112518   5.757   5.222   1.564
 3873SOL    HW212519   5.617   5.298   1.529
 3874SOL     OW12520   3.889   6.551   0.226
 3874SOL    HW112521   3.983   6.545   0.192
 3874SOL    HW212522   3.825   6.537   0.151
 3875SOL     OW12523   1.433   4.364   1.230
 3875SOL    HW112524   1.372   4.284   1.226
 3875SOL    HW212525   1.496   4.354   1.307
 3876SOL     OW12526   5.890   4.852   4.735
 3876SOL    HW112527   5.818   4.889   4.795
 3876SOL    HW212528   5.906   4.915   4.659
 3877SOL     OW12529   6.287   1.176   2.303
 3877SOL    HW112530   6.382   1.144   2.297
 3877SOL    HW212531   6.266   1.200   2.397
 3878SOL     OW12532   4.036   6.649   6.410
 3878SOL    HW112533   3.967   6.702   6.360
 3878SOL    HW212534   4.095   6.601   6.345
 3879SOL     OW12535   4.236   5.390   1.851
 3879SOL    HW112536   4.161   5.425   1.795
 3879SOL    HW212537   4.317   5.446   1.838
 3880SOL     OW12538   5.661   3.122   2.796
 3880SOL    HW112539   5.750   3.090   2.763
 3880SOL    HW212540   5.637   3.207   2.751
 3881SOL     OW12541   0.911   4.591   0.637
 3881SOL    HW112542   0.889   4.579   0.540
 3881SOL    HW212543   0.971   4.670   0.648
 3882SOL     OW12544   6.503   1.515   5.321
 3882SOL    HW112545   6.595   1.481   5.300
 3882SOL    HW212546   6.501   1.614   5.312
 3883SOL     OW12547   4.094   1.320   3.577
 3883SOL    HW112548   4.094   1.397   3.641
 3883SOL    HW212549   4.157   1.339   3.502
 3884SOL     OW12550   1.608   6.156   5.132
 3884SOL    HW112551   1.515   6.180   5.103
 3884SOL    HW212552   1.604   6.085   5.202
 3885SOL     OW12553   6.447   1.128   3.754
 3885SOL    HW112554   6.449   1.217   3.799
 3885SOL    HW212555   6.481   1.137   3.660
 3886SOL     OW12556   6.820   6.987   4.964
 3886SOL    HW112557   6.781   6.906   5.007
 3886SOL    HW212558   6.906   6.963   4.918
 3887SOL     OW12559   3.986   2.056   5.331
 3887SOL    HW112560   3.894   2.033   5.361
 3887SOL    HW212561   4.043   2.077   5.411
 3888SOL     OW12562   6.381   1.656   0.853
 3888SOL    HW112563   6.462   1.663   0.912
 3888SOL    HW212564   6.332   1.571   0.874
 3889SOL     OW12565   0.695   5.753   6.536
 3889SOL    HW112566   0.624   5.822   6.519
 3889SOL    HW212567   0.666   5.694   6.612
 3890SOL     OW12568   5.566   4.786   3.045
 3890SOL    HW112569   5.645   4.837   3.011
 3890SOL    HW212570   5.483   4.820   3.002
 3891SOL     OW12571   5.296   5.148   4.892
 3891SOL    HW112572   5.217   5.125   4.835
 3891SOL    HW212573   5.344   5.226   4.853
 3892SOL     OW12574   5.884   6.782   2.604
 3892SOL    HW112575   5.802   6.831   2.573
 3892SOL    HW212576   5.932   6.838   2.671
 3893SOL     OW12577   3.359   5.645   4.576
 3893SOL    HW112578   3.400   5.702   4.648
 3893SOL    HW212579   3.315   5.704   4.508
 3894SOL     OW12580   4.540   3.563   0.478
 3894SOL    HW112581   4.575   3.475   0.508
 3894SOL    HW212582   4.611   3.613   0.428
 3895SOL     OW12583   2.485   1.296   5.903
 3895SOL    HW112584   2.516   1.333   5.816
 3895SOL    HW212585   2.493   1.196   5.901
 3896SOL     OW12586   6.967   2.976   5.272
 3896SOL    HW112587   0.014   2.906   5.254
 3896SOL    HW212588   6.972   3.002   5.369
 3897SOL     OW12589   3.386   0.416   2.124
 3897SOL    HW112590   3.414   0.432   2.218
 3897SOL    HW212591   3.454   0.453   2.061
 3898SOL     OW12592   4.082   3.235   3.951
 3898SOL    HW112593   4.104   3.138   3.950
 3898SOL    HW212594   4.004   3.251   4.012
 3899SOL     OW12595   4.467   1.925   5.723
 3899SOL    HW112596   4.432   1.912   5.816
 3899SOL    HW212597   4.566   1.915   5.722
 3900SOL     OW12598   6.029   2.685   3.152
 3900SOL    HW112599   6.107   2.737   3.187
 3900SOL    HW212600   6.015   2.603   3.209
 3901SOL     OW12601   1.405   6.778   5.373
 3901SOL    HW112602   1.334   6.813   5.434
 3901SOL    HW212603   1.459   6.854   5.337
 3902SOL     OW12604   4.937   5.088   1.598
 3902SOL    HW112605   4.848   5.053   1.572
 3902SOL    HW212606   5.009   5.029   1.560
 3903SOL     OW12607   4.588   2.583   6.546
 3903SOL    HW112608   4.529   2.520   6.596
 3903SOL    HW212609   4.679   2.542   6.535
 3904SOL     OW12610   1.133   6.195   0.652
 3904SOL    HW112611   1.213   6.214   0.595
 3904SOL    HW212612   1.132   6.256   0.731
 3905SOL     OW12613   6.873   0.744   5.352
 3905SOL    HW112614   6.949   0.788   5.304
 3905SOL    HW212615   6.795   0.735   5.291
 3906SOL     OW12616   2.199   4.970   4.185
 3906SOL    HW112617   2.249   4.992   4.102
 3906SOL    HW212618   2.163   4.877   4.178
 3907SOL     OW12619   6.716   1.075   3.914
 3907SOL    HW112620   6.736   1.173   3.910
 3907SOL    HW212621   6.618   1.061   3.928
 3908SOL     OW12622   1.349   0.509   4.809
 3908SOL    HW112623   1.323   0.413   4.813
 3908SOL    HW212624   1.331   0.553   4.897
 3909SOL     OW12625   5.765   3.223   6.289
 3909SOL    HW112626   5.831   3.175   6.231
 3909SOL    HW212627   5.704   3.157   6.333
 3910SOL     OW12628   3.455   2.202   0.530
 3910SOL    HW112629   3.388   2.240   0.593
 3910SOL    HW212630   3.419   2.118   0.489
 3911SOL     OW12631   6.426   1.171   1.131
 3911SOL    HW112632   6.513   1.186   1.179
 3911SOL    HW212633   6.372   1.102   1.181
 3912SOL     OW12634   4.334   1.547   0.433
 3912SOL    HW112635   4.327   1.577   0.528
 3912SOL    HW212636   4.298   1.454   0.425
 3913SOL     OW12637   4.856   5.498   0.397
 3913SOL    HW112638   4.911   5.576   0.426
 3913SOL    HW212639   4.916   5.420   0.380
 3914SOL     OW12640   5.796   1.167   0.586
 3914SOL    HW112641   5.781   1.265   0.571
 3914SOL    HW212642   5.715   1.127   0.628
 3915SOL     OW12643   4.567   5.320   0.127
 3915SOL    HW112644   4.599   5.311   0.033
 3915SOL    HW212645   4.611   5.400   0.169
 3916SOL     OW12646   1.683   1.104   2.119
 3916SOL    HW112647   1.774   1.078   2.087
 3916SOL    HW212648   1.674   1.082   2.216
 3917SOL     OW12649   2.888   5.312   0.787
 3917SOL    HW112650   2.807   5.347   0.836
 3917SOL    HW212651   2.964   5.303   0.851
 3918SOL     OW12652   5.645   0.741   0.661
 3918SOL    HW112653   5.603   0.699   0.741
 3918SOL    HW212654   5.714   0.807   0.689
 3919SOL     OW12655   3.645   6.988   1.856
 3919SOL    HW112656   3.740   7.016   1.870
 3919SOL    HW212657   3.631   6.962   1.760
 3920SOL     OW12658   3.074   1.023   5.808
 3920SOL    HW112659   3.160   0.978   5.787
 3920SOL    HW212660   3.069   1.111   5.761
 3921SOL     OW12661   0.958   2.837   6.372
 3921SOL    HW112662   0.906   2.921   6.387
 3921SOL    HW212663   0.950   2.810   6.277
 3922SOL     OW12664   4.842   4.980   2.804
 3922SOL    HW112665   4.867   4.897   2.753
 3922SOL    HW212666   4.785   5.038   2.746
 3923SOL     OW12667   5.481   1.137   1.242
 3923SOL    HW112668   5.494   1.198   1.164
 3923SOL    HW212669   5.509   1.044   1.216
 3924SOL     OW12670   6.118   4.478   4.410
 3924SOL    HW112671   6.202   4.531   4.402
 3924SOL    HW212672   6.103   4.426   4.326
 3925SOL     OW12673   4.609   3.918   1.019
 3925SOL    HW112674   4.688   3.942   0.962
 3925SOL    HW212675   4.634   3.842   1.080
 3926SOL     OW12676   0.283   6.779   5.557
 3926SOL    HW112677   0.298   6.873   5.588
 3926SOL    HW212678   0.248   6.780   5.464
 3927SOL     OW12679   5.899   3.216   5.101
 3927SOL    HW112680   5.806   3.181   5.108
 3927SOL    HW212681   5.900   3.301   5.049
 3928SOL     OW12682   2.354   6.239   2.599
 3928SOL    HW112683   2.293   6.222   2.522
 3928SOL    HW212684   2.417   6.162   2.609
 3929SOL     OW12685   0.420   2.029   5.310
 3929SOL    HW112686   0.434   1.934   5.281
 3929SOL    HW212687   0.322   2.049   5.310
 3930SOL     OW12688   0.801   4.319   3.560
 3930SOL    HW112689   0.743   4.258   3.614
 3930SOL    HW212690   0.875   4.355   3.618
 3931SOL     OW12691   1.598   2.794   1.445
 3931SOL    HW112692   1.660   2.743   1.505
 3931SOL    HW212693   1.514   2.816   1.494
 3932SOL     OW12694   2.017   5.476   4.189
 3932SOL    HW112695   2.044   5.404   4.125
 3932SOL    HW212696   2.098   5.528   4.216
 3933SOL     OW12697   2.066   5.001   0.825
 3933SOL    HW112698   1.992   4.985   0.761
 3933SOL    HW212699   2.079   5.100   0.838
 3934SOL     OW12700   0.485   1.324   1.141
 3934SOL    HW112701   0.531   1.323   1.230
 3934SOL    HW212702   0.491   1.234   1.098
 3935SOL     OW12703   6.169   3.625   6.734
 3935SOL    HW112704   6.152   3.714   6.691
 3935SOL    HW212705   6.122   3.621   6.823
 3936SOL     OW12706   0.540   5.331   5.223
 3936SOL    HW112707   0.545   5.239   5.185
 3936SOL    HW212708   0.459   5.339   5.282
 3937SOL     OW12709   6.915   0.440   1.661
 3937SOL    HW112710   6.994   0.384   1.685
 3937SOL    HW212711   6.835   0.381   1.647
 3938SOL     OW12712   0.571   4.628   2.711
 3938SOL    HW112713   0.521   4.547   2.740
 3938SOL    HW212714   0.650   4.601   2.657
 3939SOL     OW12715   1.366   0.914   2.385
 3939SOL    HW112716   1.326   1.001   2.356
 3939SOL    HW212717   1.421   0.876   2.310
 3940SOL     OW12718   3.475   5.396   1.591
 3940SOL    HW112719   3.520   5.435   1.511
 3940SOL    HW212720   3.387   5.441   1.605
 3941SOL     OW12721   5.571   6.863   3.806
 3941SOL    HW112722   5.554   6.799   3.880
 3941SOL    HW212723   5.627   6.818   3.736
 3942SOL     OW12724   6.829   5.654   5.471
 3942SOL    HW112725   6.871   5.564   5.481
 3942SOL    HW212726   6.825   5.699   5.560
 3943SOL     OW12727   1.222   2.750   0.056
 3943SOL    HW112728   1.264   2.712   0.138
 3943SOL    HW212729   1.224   2.682   7.006
 3944SOL     OW12730   5.980   2.135   6.814
 3944SOL    HW112731   5.966   2.058   6.751
 3944SOL    HW212732   6.075   2.136   6.845
 3945SOL     OW12733   6.477   0.528   3.726
 3945SOL    HW112734   6.415   0.522   3.804
 3945SOL    HW212735   6.548   0.596   3.745
 3946SOL     OW12736   1.228   2.856   0.836
 3946SOL    HW112737   1.239   2.759   0.816
 3946SOL    HW212738   1.170   2.898   0.766
 3947SOL     OW12739   5.611   4.921   1.860
 3947SOL    HW112740   5.565   4.856   1.800
 3947SOL    HW212741   5.708   4.897   1.868
 3948SOL     OW12742   1.426   2.762   5.992
 3948SOL    HW112743   1.328   2.752   6.011
 3948SOL    HW212744   1.443   2.741   5.896
 3949SOL     OW12745   6.271   6.339   2.610
 3949SOL    HW112746   6.354   6.384   2.578
 3949SOL    HW212747   6.199   6.349   2.540
 3950SOL     OW12748   2.984   4.617   1.297
 3950SOL    HW112749   2.913   4.685   1.278
 3950SOL    HW212750   2.948   4.549   1.361
 3951SOL     OW12751   0.770   2.574   5.586
 3951SOL    HW112752   0.693   2.553   5.646
 3951SOL    HW212753   0.851   2.591   5.640
 3952SOL     OW12754   6.170   3.668   5.469
 3952SOL    HW112755   6.133   3.754   5.505
 3952SOL    HW212756   6.268   3.679   5.452
 3953SOL     OW12757   3.615   4.126   6.375
 3953SOL    HW112758   3.635   4.038   6.330
 3953SOL    HW212759   3.572   4.188   6.310
 3954SOL     OW12760   0.925   2.889   5.411
 3954SOL    HW112761   0.926   2.859   5.315
 3954SOL    HW212762   0.830   2.897   5.442
 3955SOL     OW12763   6.021   4.756   0.078
 3955SOL    HW112764   6.041   4.833   0.138
 3955SOL    HW212765   5.931   4.769   0.037
 3956SOL     OW12766   1.200   2.595   5.410
 3956SOL    HW112767   1.184   2.647   5.494
 3956SOL    HW212768   1.282   2.539   5.421
 3957SOL     OW12769   1.165   0.707   3.078
 3957SOL    HW112770   1.079   0.666   3.108
 3957SOL    HW212771   1.233   0.702   3.152
 3958SOL     OW12772   5.161   6.263   5.096
 3958SOL    HW112773   5.237   6.220   5.047
 3958SOL    HW212774   5.074   6.226   5.064
 3959SOL     OW12775   2.645   4.896   0.572
 3959SOL    HW112776   2.734   4.855   0.590
 3959SOL    HW212777   2.656   4.994   0.555
 3960SOL     OW12778   4.183   3.223   0.410
 3960SOL    HW112779   4.153   3.316   0.387
 3960SOL    HW212780   4.216   3.178   0.327
 3961SOL     OW12781   5.527   0.926   2.008
 3961SOL    HW112782   5.478   0.986   1.945
 3961SOL    HW212783   5.463   0.885   2.072
 3962SOL     OW12784   0.271   0.415   6.160
 3962SOL    HW112785   0.323   0.363   6.228
 3962SOL    HW212786   0.301   0.390   6.068
 3963SOL     OW12787   5.058   5.658   3.325
 3963SOL    HW112788   5.008   5.665   3.411
 3963SOL    HW212789   5.032   5.573   3.279
 3964SOL     OW12790   5.761   6.229   4.892
 3964SOL    HW112791   5.823   6.294   4.849
 3964SOL    HW212792   5.705   6.184   4.823
 3965SOL     OW12793   3.767   3.597   0.380
 3965SOL    HW112794   3.815   3.570   0.463
 3965SOL    HW212795   3.800   3.687   0.350
 3966SOL     OW12796   5.708   3.781   4.825
 3966SOL    HW112797   5.795   3.812   4.864
 3966SOL    HW212798   5.686   3.691   4.862
 3967SOL     OW12799   0.439   5.748   6.285
 3967SOL    HW112800   0.467   5.652   6.287
 3967SOL    HW212801   0.388   5.766   6.201
 3968SOL     OW12802   6.206   0.554   1.840
 3968SOL    HW112803   6.142   0.553   1.917
 3968SOL    HW212804   6.182   0.480   1.776
 3969SOL     OW12805   0.674   5.061   2.290
 3969SOL    HW112806   0.760   5.111   2.301
 3969SOL    HW212807   0.674   4.980   2.349
 3970SOL     OW12808   5.214   4.476   3.211
 3970SOL    HW112809   5.313   4.468   3.215
 3970SOL    HW212810   5.177   4.405   3.151
 3971SOL     OW12811   1.226   5.915   3.195
 3971SOL    HW112812   1.197   5.976   3.121
 3971SOL    HW212813   1.239   5.823   3.159
 3972SOL     OW12814   1.592   6.752   0.199
 3972SOL    HW112815   1.570   6.710   0.110
 3972SOL    HW212816   1.610   6.850   0.186
 3973SOL     OW12817   3.094   3.733   3.774
 3973SOL    HW112818   3.152   3.814   3.768
 3973SOL    HW212819   3.145   3.653   3.742
 3974SOL     OW12820   5.909   1.718   6.768
 3974SOL    HW112821   5.838   1.762   6.713
 3974SOL    HW212822   5.945   1.639   6.718
 3975SOL     OW12823   7.011   1.144   5.442
 3975SOL    HW112824   0.020   1.236   5.415
 3975SOL    HW212825   0.064   1.096   5.486
 3976SOL     OW12826   1.085   3.224   0.543
 3976SOL    HW112827   1.039   3.220   0.453
 3976SOL    HW212828   1.032   3.283   0.604
 3977SOL     OW12829   3.753   5.914   6.442
 3977SOL    HW112830   3.737   5.829   6.493
 3977SOL    HW212831   3.771   5.893   6.346
 3978SOL     OW12832   6.023   3.465   6.091
 3978SOL    HW112833   6.113   3.485   6.130
 3978SOL    HW212834   6.032   3.393   6.022
 3979SOL     OW12835   0.722   6.964   2.632
 3979SOL    HW112836   0.656   6.889   2.635
 3979SOL    HW212837   0.675   0.028   2.646
 3980SOL     OW12838   5.209   3.287   4.375
 3980SOL    HW112839   5.152   3.219   4.421
 3980SOL    HW212840   5.175   3.301   4.282
 3981SOL     OW12841   6.856   2.412   6.846
 3981SOL    HW112842   6.791   2.454   6.909
 3981SOL    HW212843   6.917   2.483   6.810
 3982SOL     OW12844   2.195   1.743   3.824
 3982SOL    HW112845   2.256   1.794   3.764
 3982SOL    HW212846   2.145   1.807   3.883
 3983SOL     OW12847   3.660   6.212   4.380
 3983SOL    HW112848   3.705   6.266   4.450
 3983SOL    HW212849   3.599   6.271   4.327
 3984SOL     OW12850   1.927   6.904   1.562
 3984SOL    HW112851   1.984   6.838   1.610
 3984SOL    HW212852   1.985   6.969   1.512
 3985SOL     OW12853   2.102   2.712   1.566
 3985SOL    HW112854   2.134   2.792   1.617
 3985SOL    HW212855   2.179   2.650   1.548
 3986SOL     OW12856   0.723   2.398   1.640
 3986SOL    HW112857   0.774   2.322   1.680
 3986SOL    HW212858   0.633   2.404   1.683
 3987SOL     OW12859   2.866   4.626   6.543
 3987SOL    HW112860   2.777   4.630   6.589
 3987SOL    HW212861   2.890   4.530   6.527
 3988SOL     OW12862   4.157   2.872   0.694
 3988SOL    HW112863   4.220   2.947   0.671
 3988SOL    HW212864   4.087   2.865   0.624
 3989SOL     OW12865   5.137   6.834   6.663
 3989SOL    HW112866   5.068   6.788   6.719
 3989SOL    HW212867   5.215   6.773   6.649
 3990SOL     OW12868   0.887   3.327   3.372
 3990SOL    HW112869   0.891   3.414   3.323
 3990SOL    HW212870   0.813   3.271   3.336
 3991SOL     OW12871   0.451   2.104   4.331
 3991SOL    HW112872   0.373   2.126   4.390
 3991SOL    HW212873   0.476   2.185   4.278
 3992SOL     OW12874   4.219   3.352   6.428
 3992SOL    HW112875   4.240   3.448   6.442
 3992SOL    HW212876   4.222   3.304   6.516
 3993SOL     OW12877   2.630   2.420   2.667
 3993SOL    HW112878   2.584   2.466   2.743
 3993SOL    HW212879   2.653   2.327   2.693
 3994SOL     OW12880   2.344   2.856   3.909
 3994SOL    HW112881   2.414   2.801   3.864
 3994SOL    HW212882   2.297   2.800   3.978
 3995SOL     OW12883   2.087   3.591   2.699
 3995SOL    HW112884   2.116   3.642   2.780
 3995SOL    HW212885   2.100   3.493   2.715
 3996SOL     OW12886   6.395   0.789   3.054
 3996SOL    HW112887   6.377   0.693   3.075
 3996SOL    HW212888   6.481   0.817   3.097
 3997SOL     OW12889   5.616   3.993   2.833
 3997SOL    HW112890   5.557   3.916   2.858
 3997SOL    HW212891   5.691   3.960   2.775
 3998SOL     OW12892   6.579   1.732   2.974
 3998SOL    HW112893   6.616   1.668   3.041
 3998SOL    HW212894   6.502   1.690   2.926
 3999SOL     OW12895   5.709   2.897   2.525
 3999SOL    HW112896   5.805   2.868   2.525
 3999SOL    HW212897   5.705   2.996   2.518
 4000SOL     OW12898   2.599   5.937   2.441
 4000SOL    HW112899   2.651   6.020   2.461
 4000SOL    HW212900   2.609   5.872   2.516
 4001SOL     OW12901   2.464   4.057   5.418
 4001SOL    HW112902   2.400   4.048   5.494
 4001SOL    HW212903   2.440   3.992   5.346
 4002SOL     OW12904   3.124   3.320   4.399
 4002SOL    HW112905   3.200   3.357   4.453
 4002SOL    HW212906   3.040   3.367   4.423
 4003SOL     OW12907   2.343   0.690   5.311
 4003SOL    HW112908   2.266   0.703   5.373
 4003SOL    HW212909   2.351   0.769   5.250
 4004SOL     OW12910   0.627   3.968   3.230
 4004SOL    HW112911   0.599   3.886   3.180
 4004SOL    HW212912   0.561   4.041   3.212
 4005SOL     OW12913   4.431   3.589   1.542
 4005SOL    HW112914   4.353   3.594   1.480
 4005SOL    HW212915   4.516   3.591   1.489
 4006SOL     OW12916   4.907   5.478   3.526
 4006SOL    HW112917   4.964   5.402   3.496
 4006SOL    HW212918   4.879   5.463   3.621
 4007SOL     OW12919   0.182   1.526   2.941
 4007SOL    HW112920   0.217   1.533   2.847
 4007SOL    HW212921   0.091   1.565   2.946
 4008SOL     OW12922   2.687   6.947   0.478
 4008SOL    HW112923   2.731   6.960   0.567
 4008SOL    HW212924   2.713   6.858   0.441
 4009SOL     OW12925   4.316   2.001   0.832
 4009SOL    HW112926   4.302   1.936   0.906
 4009SOL    HW212927   4.279   1.963   0.747
 4010SOL     OW12928   2.751   5.074   1.403
 4010SOL    HW112929   2.837   5.022   1.402
 4010SOL    HW212930   2.694   5.044   1.479
 4011SOL     OW12931   6.426   6.208   0.485
 4011SOL    HW112932   6.498   6.212   0.416
 4011SOL    HW212933   6.453   6.263   0.565
 4012SOL     OW12934   3.920   6.496   2.081
 4012SOL    HW112935   3.902   6.538   1.992
 4012SOL    HW212936   4.008   6.527   2.116
 4013SOL     OW12937   1.316   1.112   1.205
 4013SOL    HW112938   1.403   1.132   1.161
 4013SOL    HW212939   1.326   1.120   1.304
 4014SOL     OW12940   2.417   5.542   3.810
 4014SOL    HW112941   2.367   5.465   3.850
 4014SOL    HW212942   2.430   5.525   3.712
 4015SOL     OW12943   4.494   5.106   6.572
 4015SOL    HW112944   4.587   5.072   6.557
 4015SOL    HW212945   4.490   5.203   6.549
 4016SOL     OW12946   3.736   5.812   6.175
 4016SOL    HW112947   3.801   5.748   6.134
 4016SOL    HW212948   3.684   5.858   6.103
 4017SOL     OW12949   0.326   5.372   5.418
 4017SOL    HW112950   0.238   5.388   5.373
 4017SOL    HW212951   0.358   5.458   5.458
 4018SOL     OW12952   3.991   6.209   2.149
 4018SOL    HW112953   3.961   6.302   2.130
 4018SOL    HW212954   4.084   6.196   2.113
 4019SOL     OW12955   5.198   3.450   3.115
 4019SOL    HW112956   5.218   3.421   3.208
 4019SOL    HW212957   5.178   3.548   3.114
 4020SOL     OW12958   6.967   4.445   4.599
 4020SOL    HW112959   6.911   4.508   4.653
 4020SOL    HW212960   7.001   4.372   4.658
 4021SOL     OW12961   3.390   3.640   6.066
 4021SOL    HW112962   3.305   3.594   6.039
 4021SOL    HW212963   3.434   3.679   5.985
 4022SOL     OW12964   3.118   7.010   0.635
 4022SOL    HW112965   3.129   6.946   0.559
 4022SOL    HW212966   3.191   6.993   0.703
 4023SOL     OW12967   0.522   2.110   5.994
 4023SOL    HW112968   0.566   2.164   6.065
 4023SOL    HW212969   0.587   2.041   5.960
 4024SOL     OW12970   0.966   5.244   3.724
 4024SOL    HW112971   0.911   5.161   3.735
 4024SOL    HW212972   1.052   5.234   3.774
 4025SOL     OW12973   1.403   6.164   4.114
 4025SOL    HW112974   1.489   6.121   4.145
 4025SOL    HW212975   1.424   6.244   4.058
 4026SOL     OW12976   6.652   6.477   4.018
 4026SOL    HW112977   6.558   6.472   4.051
 4026SOL    HW212978   6.659   6.426   3.932
 4027SOL     OW12979   2.792   2.823   6.601
 4027SOL    HW112980   2.755   2.733   6.624
 4027SOL    HW212981   2.832   2.820   6.509
 4028SOL     OW12982   4.615   1.642   3.284
 4028SOL    HW112983   4.639   1.574   3.215
 4028SOL    HW212984   4.527   1.684   3.259
 4029SOL     OW12985   2.840   4.018   6.755
 4029SOL    HW112986   2.843   3.927   6.712
 4029SOL    HW212987   2.768   4.073   6.712
 4030SOL     OW12988   6.967   0.979   1.737
 4030SOL    HW112989   0.035   0.994   1.698
 4030SOL    HW212990   6.929   0.895   1.698
 4031SOL     OW12991   5.584   0.137   2.124
 4031SOL    HW112992   5.573   0.212   2.059
 4031SOL    HW212993   5.512   0.069   2.109
 4032SOL     OW12994   6.308   6.737   1.405
 4032SOL    HW112995   6.279   6.697   1.491
 4032SOL    HW212996   6.367   6.673   1.355
 4033SOL     OW12997   3.036   2.221   2.479
 4033SOL    HW112998   2.963   2.280   2.512
 4033SOL    HW212999   3.012   2.186   2.388
 4034SOL     OW13000   6.762   2.710   5.005
 4034SOL    HW113001   6.733   2.761   5.086
 4034SOL    HW213002   6.851   2.743   4.975
 4035SOL     OW13003   6.547   2.490   1.087
 4035SOL    HW113004   6.483   2.433   1.034
 4035SOL    HW213005   6.623   2.433   1.119
 4036SOL     OW13006   3.555   5.023   2.815
 4036SOL    HW113007   3.617   5.078   2.759
 4036SOL    HW213008   3.608   4.961   2.872
 4037SOL     OW13009   3.027   0.577   6.056
 4037SOL    HW113010   3.034   0.638   5.978
 4037SOL    HW213011   2.935   0.584   6.095
 4038SOL     OW13012   4.089   3.303   6.752
 4038SOL    HW113013   4.105   3.226   6.691
 4038SOL    HW213014   3.994   3.303   6.782
 4039SOL     OW13015   5.416   5.530   1.881
 4039SOL    HW113016   5.497   5.488   1.923
 4039SOL    HW213017   5.341   5.465   1.881
 4040SOL     OW13018   3.407   5.072   5.145
 4040SOL    HW113019   3.315   5.038   5.127
 4040SOL    HW213020   3.469   4.994   5.158
 4041SOL     OW13021   2.195   6.438   1.593
 4041SOL    HW113022   2.292   6.441   1.613
 4041SOL    HW213023   2.152   6.525   1.618
 4042SOL     OW13024   6.143   6.533   2.868
 4042SOL    HW113025   6.065   6.595   2.873
 4042SOL    HW213026   6.223   6.584   2.836
 4043SOL     OW13027   6.069   2.588   7.020
 4043SOL    HW113028   6.052   2.605   6.923
 4043SOL    HW213029   5.993   2.536   0.035
 4044SOL     OW13030   4.187   4.711   3.014
 4044SOL    HW113031   4.115   4.766   3.056
 4044SOL    HW213032   4.170   4.705   2.915
 4045SOL     OW13033   4.984   6.941   6.433
 4045SOL    HW113034   4.998   6.936   6.532
 4045SOL    HW213035   5.071   6.925   6.386
 4046SOL     OW13036   0.556   1.231   3.332
 4046SOL    HW113037   0.476   1.288   3.315
 4046SOL    HW213038   0.631   1.289   3.365
 4047SOL     OW13039   1.793   2.977   6.875
 4047SOL    HW113040   1.840   2.932   6.951
 4047SOL    HW213041   1.798   2.919   6.794
 4048SOL     OW13042   4.948   1.383   2.257
 4048SOL    HW113043   5.025   1.420   2.205
 4048SOL    HW213044   4.914   1.300   2.212
 4049SOL     OW13045   4.160   5.569   6.934
 4049SOL    HW113046   4.144   5.551   0.008
 4049SOL    HW213047   4.256   5.550   6.912
 4050SOL     OW13048   1.115   5.588   2.051
 4050SOL    HW113049   1.058   5.541   2.119
 4050SOL    HW213050   1.059   5.611   1.971
 4051SOL     OW13051   5.181   1.359   6.232
 4051SOL    HW113052   5.096   1.337   6.185
 4051SOL    HW213053   5.201   1.457   6.221
 4052SOL     OW13054   6.468   2.112   2.980
 4052SOL    HW113055   6.530   2.074   3.049
 4052SOL    HW213056   6.490   2.074   2.890
 4053SOL     OW13057   1.157   6.227   4.602
 4053SOL    HW113058   1.078   6.252   4.659
 4053SOL    HW213059   1.238   6.277   4.633
 4054SOL     OW13060   4.908   4.099   1.269
 4054SOL    HW113061   4.968   4.030   1.227
 4054SOL    HW213062   4.848   4.055   1.336
 4055SOL     OW13063   1.158   3.759   1.934
 4055SOL    HW113064   1.191   3.780   2.026
 4055SOL    HW213065   1.161   3.841   1.878
 4056SOL     OW13066   5.489   3.465   0.962
 4056SOL    HW113067   5.445   3.550   0.934
 4056SOL    HW213068   5.574   3.453   0.913
 4057SOL     OW13069   6.412   3.317   6.554
 4057SOL    HW113070   6.509   3.295   6.565
 4057SOL    HW213071   6.379   3.277   6.469
 4058SOL     OW13072   2.768   6.314   4.923
 4058SOL    HW113073   2.762   6.376   5.002
 4058SOL    HW213074   2.837   6.244   4.941
 4059SOL     OW13075   0.363   2.890   3.917
 4059SOL    HW113076   0.427   2.836   3.861
 4059SOL    HW213077   0.272   2.848   3.913
 4060SOL     OW13078   5.969   5.770   4.724
 4060SOL    HW113079   6.037   5.697   4.735
 4060SOL    HW213080   5.951   5.812   4.813
 4061SOL     OW13081   2.372   4.751   2.138
 4061SOL    HW113082   2.437   4.676   2.127
 4061SOL    HW213083   2.313   4.733   2.216
 4062SOL     OW13084   3.063   1.213   1.378
 4062SOL    HW113085   3.068   1.113   1.377
 4062SOL    HW213086   3.011   1.245   1.300
 4063SOL     OW13087   5.617   6.669   1.017
 4063SOL    HW113088   5.705   6.703   1.051
 4063SOL    HW213089   5.633   6.592   0.956
 4064SOL     OW13090   2.114   1.804   4.884
 4064SOL    HW113091   2.181   1.809   4.809
 4064SOL    HW213092   2.035   1.750   4.854
 4065SOL     OW13093   0.917   7.019   0.397
 4065SOL    HW113094   0.923   6.920   0.384
 4065SOL    HW213095   0.946   0.043   0.314
 4066SOL     OW13096   6.333   4.202   2.905
 4066SOL    HW113097   6.296   4.266   2.838
 4066SOL    HW213098   6.392   4.135   2.859
 4067SOL     OW13099   5.999   4.430   3.269
 4067SOL    HW113100   5.912   4.444   3.315
 4067SOL    HW213101   6.017   4.507   3.207
 4068SOL     OW13102   1.872   2.663   4.123
 4068SOL    HW113103   1.884   2.612   4.209
 4068SOL    HW213104   1.775   2.672   4.103
 4069SOL     OW13105   3.215   5.883   6.873
 4069SOL    HW113106   3.131   5.884   6.818
 4069SOL    HW213107   3.213   5.805   6.936
 4070SOL     OW13108   1.147   3.234   2.893
 4070SOL    HW113109   1.105   3.277   2.973
 4070SOL    HW213110   1.220   3.172   2.922
 4071SOL     OW13111   1.655   0.381   4.681
 4071SOL    HW113112   1.668   0.476   4.652
 4071SOL    HW213113   1.740   0.331   4.668
 4072SOL     OW13114   1.272   4.885   4.907
 4072SOL    HW113115   1.297   4.819   4.836
 4072SOL    HW213116   1.333   4.964   4.903
 4073SOL     OW13117   2.505   5.175   6.173
 4073SOL    HW113118   2.522   5.105   6.242
 4073SOL    HW213119   2.531   5.140   6.083
 4074SOL     OW13120   1.321   4.496   1.596
 4074SOL    HW113121   1.366   4.584   1.582
 4074SOL    HW213122   1.389   4.425   1.612
 4075SOL     OW13123   5.035   1.636   0.604
 4075SOL    HW113124   5.039   1.729   0.640
 4075SOL    HW213125   4.952   1.591   0.637
 4076SOL     OW13126   3.539   3.584   5.475
 4076SOL    HW113127   3.555   3.625   5.565
 4076SOL    HW213128   3.482   3.503   5.485
 4077SOL     OW13129   4.875   0.873   1.674
 4077SOL    HW113130   4.833   0.807   1.611
 4077SOL    HW213131   4.836   0.862   1.765
 4078SOL     OW13132   2.679   5.338   2.598
 4078SOL    HW113133   2.587   5.375   2.610
 4078SOL    HW213134   2.744   5.413   2.585
 4079SOL     OW13135   1.745   1.871   3.915
 4079SOL    HW113136   1.648   1.889   3.929
 4079SOL    HW213137   1.794   1.958   3.908
 4080SOL     OW13138   4.949   2.334   5.138
 4080SOL    HW113139   4.913   2.270   5.070
 4080SOL    HW213140   5.041   2.306   5.164
 4081SOL     OW13141   1.571   3.001   4.223
 4081SOL    HW113142   1.598   3.003   4.319
 4081SOL    HW213143   1.638   3.052   4.169
 4082SOL     OW13144   1.337   3.248   0.458
 4082SOL    HW113145   1.323   3.226   0.362
 4082SOL    HW213146   1.249   3.253   0.505
 4083SOL     OW13147   6.056   3.027   3.311
 4083SOL    HW113148   6.119   3.047   3.386
 4083SOL    HW213149   6.059   3.101   3.244
 4084SOL     OW13150   5.928   1.901   3.919
 4084SOL    HW113151   5.830   1.912   3.905
 4084SOL    HW213152   5.945   1.854   4.005
 4085SOL     OW13153   3.959   6.044   0.687
 4085SOL    HW113154   3.916   5.984   0.755
 4085SOL    HW213155   3.977   6.133   0.728
 4086SOL     OW13156   2.121   6.004   1.436
 4086SOL    HW113157   2.137   6.052   1.522
 4086SOL    HW213158   2.025   5.977   1.430
 4087SOL     OW13159   2.570   2.463   3.419
 4087SOL    HW113160   2.524   2.534   3.472
 4087SOL    HW213161   2.545   2.473   3.322
 4088SOL     OW13162   6.625   1.593   0.495
 4088SOL    HW113163   6.606   1.523   0.427
 4088SOL    HW213164   6.659   1.551   0.579
 4089SOL     OW13165   6.872   6.372   3.001
 4089SOL    HW113166   6.810   6.313   2.949
 4089SOL    HW213167   6.866   6.350   3.098
 4090SOL     OW13168   2.583   4.006   5.868
 4090SOL    HW113169   2.596   4.071   5.793
 4090SOL    HW213170   2.667   3.953   5.880
 4091SOL     OW13171   6.138   6.666   0.170
 4091SOL    HW113172   6.128   6.753   0.219
 4091SOL    HW213173   6.182   6.599   0.230
 4092SOL     OW13174   6.712   2.891   5.226
 4092SOL    HW113175   6.812   2.895   5.236
 4092SOL    HW213176   6.670   2.956   5.289
 4093SOL     OW13177   4.969   0.256   3.649
 4093SOL    HW113178   5.047   0.311   3.621
 4093SOL    HW213179   4.994   0.159   3.648
 4094SOL     OW13180   2.395   5.422   5.048
 4094SOL    HW113181   2.397   5.365   5.130
 4094SOL    HW213182   2.477   5.479   5.045
 4095SOL     OW13183   0.815   3.905   6.330
 4095SOL    HW113184   0.822   4.005   6.337
 4095SOL    HW213185   0.907   3.866   6.322
 4096SOL     OW13186   4.587   5.817   0.616
 4096SOL    HW113187   4.655   5.745   0.604
 4096SOL    HW213188   4.500   5.788   0.575
 4097SOL     OW13189   3.859   3.734   6.129
 4097SOL    HW113190   3.789   3.677   6.174
 4097SOL    HW213191   3.891   3.687   6.046
 4098SOL     OW13192   0.285   3.110   2.653
 4098SOL    HW113193   0.219   3.133   2.724
 4098SOL    HW213194   0.358   3.179   2.650
 4099SOL     OW13195   2.930   4.874   1.095
 4099SOL    HW113196   2.840   4.908   1.069
 4099SOL    HW213197   2.948   4.897   1.191
 4100SOL     OW13198   5.602   6.021   4.435
 4100SOL    HW113199   5.673   6.005   4.504
 4100SOL    HW213200   5.575   5.934   4.395
 4101SOL     OW13201   6.018   0.631   6.973
 4101SOL    HW113202   6.033   0.728   6.990
 4101SOL    HW213203   5.920   0.613   6.965
 4102SOL     OW13204   0.075   0.777   1.410
 4102SOL    HW113205   0.005   0.706   1.424
 4102SOL    HW213206   0.050   0.858   1.462
 4103SOL     OW13207   0.820   0.649   2.090
 4103SOL    HW113208   0.827   0.556   2.056
 4103SOL    HW213209   0.790   0.710   2.016
 4104SOL     OW13210   1.256   4.519   2.435
 4104SOL    HW113211   1.279   4.423   2.417
 4104SOL    HW213212   1.290   4.544   2.526
 4105SOL     OW13213   4.014   5.387   1.005
 4105SOL    HW113214   4.087   5.339   1.055
 4105SOL    HW213215   3.970   5.453   1.067
 4106SOL     OW13216   0.469   3.108   4.968
 4106SOL    HW113217   0.447   3.019   5.009
 4106SOL    HW213218   0.506   3.169   5.038
 4107SOL     OW13219   1.009   6.446   0.606
 4107SOL    HW113220   1.106   6.471   0.599
 4107SOL    HW213221   1.001   6.347   0.612
 4108SOL     OW13222   0.472   4.695   6.146
 4108SOL    HW113223   0.418   4.779   6.153
 4108SOL    HW213224   0.566   4.713   6.172
 4109SOL     OW13225   4.602   6.565   4.981
 4109SOL    HW113226   4.700   6.565   4.961
 4109SOL    HW213227   4.578   6.482   5.031
 4110SOL     OW13228   4.289   3.484   6.867
 4110SOL    HW113229   4.370   3.428   6.851
 4110SOL    HW213230   4.209   3.440   6.825
 4111SOL     OW13231   3.507   2.687   7.001
 4111SOL    HW113232   3.550   2.609   6.954
 4111SOL    HW213233   3.507   2.670   0.077
 4112SOL     OW13234   5.230   1.502   5.798
 4112SOL    HW113235   5.305   1.453   5.842
 4112SOL    HW213236   5.265   1.589   5.762
 4113SOL     OW13237   4.072   5.889   4.789
 4113SOL    HW113238   4.069   5.918   4.885
 4113SOL    HW213239   4.150   5.827   4.775
 4114SOL     OW13240   3.803   2.141   3.710
 4114SOL    HW113241   3.872   2.164   3.642
 4114SOL    HW213242   3.845   2.142   3.801
 4115SOL     OW13243   4.915   6.065   2.050
 4115SOL    HW113244   4.844   6.006   2.089
 4115SOL    HW213245   4.947   6.128   2.121
 4116SOL     OW13246   4.182   2.356   1.687
 4116SOL    HW113247   4.092   2.353   1.731
 4116SOL    HW213248   4.235   2.275   1.713
 4117SOL     OW13249   0.652   4.764   1.636
 4117SOL    HW113250   0.559   4.780   1.670
 4117SOL    HW213251   0.704   4.713   1.703
 4118SOL     OW13252   1.557   6.168   0.644
 4118SOL    HW113253   1.632   6.172   0.710
 4118SOL    HW213254   1.548   6.257   0.598
 4119SOL     OW13255   4.047   1.461   3.287
 4119SOL    HW113256   4.066   1.547   3.335
 4119SOL    HW213257   4.111   1.452   3.211
 4120SOL     OW13258   4.872   6.610   1.393
 4120SOL    HW113259   4.896   6.629   1.488
 4120SOL    HW213260   4.831   6.519   1.387
 4121SOL     OW13261   6.305   1.376   4.708
 4121SOL    HW113262   6.400   1.390   4.736
 4121SOL    HW213263   6.251   1.349   4.787
 4122SOL     OW13264   1.015   6.298   5.585
 4122SOL    HW113265   1.029   6.308   5.486
 4122SOL    HW213266   1.096   6.255   5.625
 4123SOL     OW13267   4.848   4.720   5.658
 4123SOL    HW113268   4.790   4.659   5.603
 4123SOL    HW213269   4.943   4.712   5.628
 4124SOL     OW13270   6.026   5.660   5.253
 4124SOL    HW113271   6.043   5.672   5.351
 4124SOL    HW213272   5.981   5.572   5.238
 4125SOL     OW13273   4.826   0.508   1.867
 4125SOL    HW113274   4.787   0.532   1.778
 4125SOL    HW213275   4.755   0.467   1.925
 4126SOL     OW13276   1.201   4.403   3.939
 4126SOL    HW113277   1.143   4.443   4.010
 4126SOL    HW213278   1.261   4.334   3.979
 4127SOL     OW13279   5.382   4.173   4.215
 4127SOL    HW113280   5.303   4.116   4.241
 4127SOL    HW213281   5.385   4.254   4.273
 4128SOL     OW13282   1.898   3.586   2.501
 4128SOL    HW113283   1.822   3.607   2.562
 4128SOL    HW213284   1.980   3.570   2.555
 4129SOL     OW13285   5.604   1.755   6.594
 4129SOL    HW113286   5.521   1.791   6.637
 4129SOL    HW213287   5.674   1.827   6.591
 4130SOL     OW13288   0.091   3.753   5.919
 4130SOL    HW113289   0.129   3.725   5.830
 4130SOL    HW213290   0.075   3.851   5.919
 4131SOL     OW13291   0.884   5.836   3.716
 4131SOL    HW113292   0.917   5.764   3.655
 4131SOL    HW213293   0.926   5.923   3.691
 4132SOL     OW13294   5.756   3.967   4.035
 4132SOL    HW113295   5.659   3.943   4.038
 4132SOL    HW213296   5.805   3.900   3.979
 4133SOL     OW13297   2.981   6.668   1.665
 4133SOL    HW113298   3.058   6.635   1.612
 4133SOL    HW213299   2.922   6.725   1.607
 4134SOL     OW13300   1.521   2.483   0.754
 4134SOL    HW113301   1.561   2.421   0.822
 4134SOL    HW213302   1.554   2.576   0.770
 4135SOL     OW13303   2.144   0.829   2.773
 4135SOL    HW113304   2.183   0.754   2.720
 4135SOL    HW213305   2.131   0.908   2.714
 4136SOL     OW13306   0.621   1.945   3.856
 4136SOL    HW113307   0.573   1.868   3.814
 4136SOL    HW213308   0.571   2.030   3.838
 4137SOL     OW13309   2.367   3.901   1.319
 4137SOL    HW113310   2.446   3.908   1.257
 4137SOL    HW213311   2.333   3.807   1.318
 4138SOL     OW13312   3.812   5.156   4.057
 4138SOL    HW113313   3.765   5.196   4.136
 4138SOL    HW213314   3.760   5.175   3.974
 4139SOL     OW13315   2.202   2.108   6.173
 4139SOL    HW113316   2.169   2.033   6.231
 4139SOL    HW213317   2.182   2.087   6.078
 4140SOL     OW13318   3.661   0.478   5.062
 4140SOL    HW113319   3.708   0.401   5.104
 4140SOL    HW213320   3.607   0.446   4.984
 4141SOL     OW13321   5.134   5.657   1.052
 4141SOL    HW113322   5.039   5.669   1.081
 4141SOL    HW213323   5.151   5.562   1.029
 4142SOL     OW13324   6.515   5.551   0.860
 4142SOL    HW113325   6.532   5.541   0.958
 4142SOL    HW213326   6.552   5.638   0.829
 4143SOL     OW13327   6.799   3.600   0.877
 4143SOL    HW113328   6.844   3.605   0.788
 4143SOL    HW213329   6.792   3.691   0.917
 4144SOL     OW13330   5.846   2.360   0.788
 4144SOL    HW113331   5.802   2.291   0.731
 4144SOL    HW213332   5.792   2.444   0.785
 4145SOL     OW13333   6.976   5.933   1.693
 4145SOL    HW113334   6.903   5.987   1.649
 4145SOL    HW213335   7.016   5.871   1.625
 4146SOL     OW13336   5.942   0.734   5.350
 4146SOL    HW113337   5.970   0.641   5.329
 4146SOL    HW213338   6.009   0.798   5.314
 4147SOL     OW13339   3.439   1.873   5.314
 4147SOL    HW113340   3.401   1.796   5.365
 4147SOL    HW213341   3.387   1.956   5.334
 4148SOL     OW13342   0.333   0.069   3.659
 4148SOL    HW113343   0.431   0.052   3.670
 4148SOL    HW213344   0.312   0.163   3.683
 4149SOL     OW13345   0.463   3.644   0.410
 4149SOL    HW113346   0.555   3.676   0.431
 4149SOL    HW213347   0.396   3.697   0.462
 4150SOL     OW13348   6.097   0.581   5.993
 4150SOL    HW113349   6.147   0.659   6.032
 4150SOL    HW213350   5.999   0.597   6.001
 4151SOL     OW13351   5.487   6.191   6.760
 4151SOL    HW113352   5.459   6.104   6.719
 4151SOL    HW213353   5.433   6.265   6.720
 4152SOL     OW13354   3.155   5.411   1.571
 4152SOL    HW113355   3.076   5.473   1.574
 4152SOL    HW213356   3.131   5.325   1.615
 4153SOL     OW13357   5.380   5.628   6.251
 4153SOL    HW113358   5.377   5.557   6.181
 4153SOL    HW213359   5.288   5.666   6.264
 4154SOL     OW13360   6.553   3.953   5.324
 4154SOL    HW113361   6.594   4.019   5.387
 4154SOL    HW213362   6.618   3.931   5.251
 4155SOL     OW13363   0.270   3.233   3.430
 4155SOL    HW113364   0.304   3.142   3.455
 4155SOL    HW213365   0.171   3.235   3.439
 4156SOL     OW13366   5.752   6.962   5.256
 4156SOL    HW113367   5.746   6.962   5.356
 4156SOL    HW213368   5.756   6.868   5.222
 4157SOL     OW13369   3.561   0.159   3.659
 4157SOL    HW113370   3.517   0.198   3.578
 4157SOL    HW213371   3.515   0.074   3.685
 4158SOL     OW13372   1.474   5.217   3.937
 4158SOL    HW113373   1.482   5.164   4.021
 4158SOL    HW213374   1.557   5.273   3.926
 4159SOL     OW13375   1.664   3.243   3.996
 4159SOL    HW113376   1.698   3.297   3.919
 4159SOL    HW213377   1.586   3.288   4.038
 4160SOL     OW13378   6.319   0.414   0.915
 4160SOL    HW113379   6.356   0.494   0.868
 4160SOL    HW213380   6.237   0.440   0.966
 4161SOL     OW13381   1.715   6.951   6.576
 4161SOL    HW113382   1.661   6.870   6.600
 4161SOL    HW213383   1.666   7.004   6.506
 4162SOL     OW13384   6.312   0.462   4.927
 4162SOL    HW113385   6.298   0.435   5.022
 4162SOL    HW213386   6.227   0.501   4.891
 4163SOL     OW13387   6.234   1.453   3.267
 4163SOL    HW113388   6.185   1.373   3.232
 4163SOL    HW213389   6.204   1.535   3.218
 4164SOL     OW13390   1.534   0.188   6.724
 4164SOL    HW113391   1.561   0.111   6.783
 4164SOL    HW213392   1.592   0.189   6.643
 4165SOL     OW13393   4.724   0.113   0.908
 4165SOL    HW113394   4.823   0.107   0.897
 4165SOL    HW213395   4.696   0.208   0.904
 4166SOL     OW13396   5.123   2.377   1.145
 4166SOL    HW113397   5.128   2.392   1.244
 4166SOL    HW213398   5.108   2.464   1.099
 4167SOL     OW13399   2.531   3.293   1.182
 4167SOL    HW113400   2.588   3.211   1.180
 4167SOL    HW213401   2.587   3.374   1.162
 4168SOL     OW13402   0.291   4.722   1.110
 4168SOL    HW113403   0.258   4.735   1.016
 4168SOL    HW213404   0.390   4.737   1.113
 4169SOL     OW13405   5.121   4.143   4.552
 4169SOL    HW113406   5.109   4.084   4.471
 4169SOL    HW213407   5.075   4.101   4.630
 4170SOL     OW13408   3.903   2.986   4.753
 4170SOL    HW113409   3.912   2.998   4.654
 4170SOL    HW213410   3.846   2.906   4.771
 4171SOL     OW13411   5.232   4.120   1.120
 4171SOL    HW113412   5.225   4.164   1.210
 4171SOL    HW213413   5.322   4.078   1.110
 4172SOL     OW13414   0.020   2.607   6.792
 4172SOL    HW113415   6.986   2.659   6.728
 4172SOL    HW213416   0.100   2.572   6.743
 4173SOL     OW13417   5.461   3.272   5.260
 4173SOL    HW113418   5.518   3.334   5.314
 4173SOL    HW213419   5.368   3.308   5.256
 4174SOL     OW13420   5.028   0.854   4.049
 4174SOL    HW113421   5.123   0.837   4.076
 4174SOL    HW213422   4.968   0.797   4.105
 4175SOL     OW13423   3.211   6.651   4.583
 4175SOL    HW113424   3.160   6.682   4.503
 4175SOL    HW213425   3.215   6.551   4.584
 4176SOL     OW13426   3.817   0.252   2.175
 4176SOL    HW113427   3.793   0.321   2.244
 4176SOL    HW213428   3.778   0.164   2.202
 4177SOL     OW13429   0.604   5.041   5.124
 4177SOL    HW113430   0.658   4.980   5.066
 4177SOL    HW213431   0.620   5.018   5.220
 4178SOL     OW13432   3.788   1.025   5.050
 4178SOL    HW113433   3.770   1.112   5.005
 4178SOL    HW213434   3.880   1.025   5.088
 4179SOL     OW13435   5.542   3.493   4.056
 4179SOL    HW113436   5.503   3.532   4.139
 4179SOL    HW213437   5.476   3.500   3.981
 4180SOL     OW13438   5.440   4.497   2.003
 4180SOL    HW113439   5.413   4.422   2.063
 4180SOL    HW213440   5.360   4.552   1.980
 4181SOL     OW13441   1.638   2.065   6.218
 4181SOL    HW113442   1.722   2.094   6.172
 4181SOL    HW213443   1.659   1.992   6.282
 4182SOL     OW13444   0.092   0.676   2.614
 4182SOL    HW113445   0.008   0.663   2.666
 4182SOL    HW213446   0.072   0.720   2.527
 4183SOL     OW13447   2.772   1.413   2.051
 4183SOL    HW113448   2.683   1.459   2.050
 4183SOL    HW213449   2.760   1.319   2.019
 4184SOL     OW13450   3.932   4.812   1.367
 4184SOL    HW113451   3.915   4.862   1.452
 4184SOL    HW213452   3.851   4.757   1.345
 4185SOL     OW13453   0.594   5.617   3.350
 4185SOL    HW113454   0.545   5.666   3.278
 4185SOL    HW213455   0.538   5.611   3.432
 4186SOL     OW13456   1.933   4.312   0.075
 4186SOL    HW113457   1.935   4.366   0.159
 4186SOL    HW213458   1.884   4.362   0.004
 4187SOL     OW13459   3.769   3.465   5.718
 4187SOL    HW113460   3.766   3.534   5.645
 4187SOL    HW213461   3.740   3.377   5.681
 4188SOL     OW13462   4.649   0.852   4.230
 4188SOL    HW113463   4.727   0.806   4.186
 4188SOL    HW213464   4.655   0.841   4.329
 4189SOL     OW13465   2.814   1.940   4.157
 4189SOL    HW113466   2.909   1.911   4.164
 4189SOL    HW213467   2.775   1.910   4.070
 4190SOL     OW13468   3.246   0.068   6.125
 4190SOL    HW113469   3.258   0.027   6.215
 4190SOL    HW213470   3.202   0.157   6.134
 4191SOL     OW13471   5.701   3.219   3.241
 4191SOL    HW113472   5.624   3.157   3.253
 4191SOL    HW213473   5.765   3.181   3.174
 4192SOL     OW13474   6.607   1.951   3.148
 4192SOL    HW113475   6.606   1.903   3.236
 4192SOL    HW213476   6.602   1.885   3.074
 4193SOL     OW13477   2.302   6.407   2.027
 4193SOL    HW113478   2.342   6.366   2.109
 4193SOL    HW213479   2.341   6.498   2.012
 4194SOL     OW13480   6.796   1.941   4.520
 4194SOL    HW113481   6.878   1.983   4.559
 4194SOL    HW213482   6.779   1.853   4.565
 4195SOL     OW13483   4.222   0.685   1.338
 4195SOL    HW113484   4.180   0.596   1.317
 4195SOL    HW213485   4.269   0.719   1.257
 4196SOL     OW13486   5.687   2.777   4.060
 4196SOL    HW113487   5.758   2.706   4.055
 4196SOL    HW213488   5.599   2.739   4.033
 4197SOL     OW13489   5.270   4.384   3.941
 4197SOL    HW113490   5.234   4.477   3.943
 4197SOL    HW213491   5.198   4.319   3.964
 4198SOL     OW13492   6.581   3.871   6.729
 4198SOL    HW113493   6.621   3.844   6.816
 4198SOL    HW213494   6.652   3.875   6.659
 4199SOL     OW13495   2.912   3.214   5.417
 4199SOL    HW113496   2.817   3.237   5.397
 4199SOL    HW213497   2.953   3.168   5.338
 4200SOL     OW13498   2.638   6.422   6.462
 4200SOL    HW113499   2.657   6.512   6.423
 4200SOL    HW213500   2.644   6.353   6.390
 4201SOL     OW13501   6.452   6.465   3.450
 4201SOL    HW113502   6.356   6.440   3.464
 4201SOL    HW213503   6.464   6.563   3.463
 4202SOL     OW13504   4.974   4.541   5.960
 4202SOL    HW113505   4.883   4.577   5.978
 4202SOL    HW213506   4.968   4.442   5.944
 4203SOL     OW13507   4.328   5.985   2.901
 4203SOL    HW113508   4.428   5.994   2.897
 4203SOL    HW213509   4.296   5.941   2.817
 4204SOL     OW13510   3.184   2.955   1.997
 4204SOL    HW113511   3.147   2.950   2.090
 4204SOL    HW213512   3.277   2.918   1.996
 4205SOL     OW13513   3.502   5.045   4.200
 4205SOL    HW113514   3.591   5.051   4.247
 4205SOL    HW213515   3.443   4.981   4.248
 4206SOL     OW13516   4.895   0.855   5.954
 4206SOL    HW113517   4.913   0.863   6.052
 4206SOL    HW213518   4.828   0.783   5.938
 4207SOL     OW13519   1.807   1.393   1.708
 4207SOL    HW113520   1.720   1.437   1.728
 4207SOL    HW213521   1.831   1.407   1.612
 4208SOL     OW13522   1.529   2.429   1.097
 4208SOL    HW113523   1.486   2.515   1.127
 4208SOL    HW213524   1.460   2.369   1.058
 4209SOL     OW13525   1.653   0.778   5.237
 4209SOL    HW113526   1.725   0.770   5.305
 4209SOL    HW213527   1.639   0.874   5.214
 4210SOL     OW13528   3.609   3.519   1.696
 4210SOL    HW113529   3.535   3.487   1.755
 4210SOL    HW213530   3.589   3.612   1.665
 4211SOL     OW13531   4.745   5.001   5.073
 4211SOL    HW113532   4.834   5.045   5.060
 4211SOL    HW213533   4.738   4.966   5.166
 4212SOL     OW13534   6.635   1.650   2.021
 4212SOL    HW113535   6.592   1.592   2.090
 4212SOL    HW213536   6.575   1.727   2.000
 4213SOL     OW13537   2.284   0.632   2.595
 4213SOL    HW113538   2.261   0.550   2.648
 4213SOL    HW213539   2.349   0.608   2.523
 4214SOL     OW13540   0.410   3.437   6.617
 4214SOL    HW113541   0.431   3.534   6.608
 4214SOL    HW213542   0.493   3.383   6.604
 4215SOL     OW13543   0.460   5.818   4.333
 4215SOL    HW113544   0.548   5.851   4.299
 4215SOL    HW213545   0.387   5.848   4.271
 4216SOL     OW13546   1.286   2.228   4.187
 4216SOL    HW113547   1.246   2.136   4.184
 4216SOL    HW213548   1.368   2.230   4.130
 4217SOL     OW13549   0.104   6.789   2.642
 4217SOL    HW113550   0.190   6.840   2.645
 4217SOL    HW213551   0.119   6.700   2.599
 4218SOL     OW13552   5.030   0.160   1.713
 4218SOL    HW113553   5.083   0.076   1.729
 4218SOL    HW213554   4.940   0.151   1.756
 4219SOL     OW13555   3.334   4.718   5.332
 4219SOL    HW113556   3.397   4.642   5.319
 4219SOL    HW213557   3.241   4.689   5.309
 4220SOL     OW13558   6.572   3.793   3.183
 4220SOL    HW113559   6.497   3.758   3.126
 4220SOL    HW213560   6.537   3.859   3.248
 4221SOL     OW13561   5.411   5.965   6.638
 4221SOL    HW113562   5.382   6.030   6.568
 4221SOL    HW213563   5.419   5.874   6.597
 4222SOL     OW13564   6.097   2.064   2.295
 4222SOL    HW113565   6.081   2.158   2.266
 4222SOL    HW213566   6.133   2.063   2.388
 4223SOL     OW13567   3.478   3.162   2.842
 4223SOL    HW113568   3.414   3.154   2.765
 4223SOL    HW213569   3.540   3.083   2.842
 4224SOL     OW13570   4.829   3.015   4.415
 4224SOL    HW113571   4.764   3.035   4.489
 4224SOL    HW213572   4.822   2.918   4.391
 4225SOL     OW13573   5.714   1.008   5.004
 4225SOL    HW113574   5.673   0.951   4.933
 4225SOL    HW213575   5.708   0.961   5.092
 4226SOL     OW13576   1.612   1.152   3.829
 4226SOL    HW113577   1.602   1.215   3.906
 4226SOL    HW213578   1.708   1.126   3.819
 4227SOL     OW13579   4.012   4.669   6.764
 4227SOL    HW113580   4.080   4.607   6.725
 4227SOL    HW213581   4.027   4.761   6.728
 4228SOL     OW13582   5.511   6.468   4.074
 4228SOL    HW113583   5.455   6.414   4.137
 4228SOL    HW213584   5.496   6.436   3.980
 4229SOL     OW13585   3.818   4.689   6.143
 4229SOL    HW113586   3.858   4.599   6.159
 4229SOL    HW213587   3.721   4.680   6.123
 4230SOL     OW13588   2.721   0.171   5.177
 4230SOL    HW113589   2.711   0.270   5.184
 4230SOL    HW213590   2.818   0.147   5.183
 4231SOL     OW13591   4.870   6.013   5.291
 4231SOL    HW113592   4.782   6.051   5.320
 4231SOL    HW213593   4.943   6.074   5.320
 4232SOL     OW13594   1.110   5.834   1.723
 4232SOL    HW113595   1.029   5.776   1.732
 4232SOL    HW213596   1.186   5.780   1.687
 4233SOL     OW13597   6.218   0.591   6.604
 4233SOL    HW113598   6.236   0.500   6.640
 4233SOL    HW213599   6.190   0.584   6.508
 4234SOL     OW13600   2.441   4.849   6.005
 4234SOL    HW113601   2.447   4.758   6.046
 4234SOL    HW213602   2.347   4.864   5.973
 4235SOL     OW13603   6.255   4.565   5.604
 4235SOL    HW113604   6.257   4.481   5.658
 4235SOL    HW213605   6.348   4.595   5.585
 4236SOL     OW13606   0.149   2.345   3.761
 4236SOL    HW113607   0.233   2.363   3.812
 4236SOL    HW213608   0.070   2.370   3.816
 4237SOL     OW13609   6.058   4.121   4.651
 4237SOL    HW113610   5.965   4.111   4.615
 4237SOL    HW213611   6.121   4.068   4.595
 4238SOL     OW13612   4.103   5.085   3.435
 4238SOL    HW113613   4.144   5.067   3.524
 4238SOL    HW213614   4.157   5.043   3.363
 4239SOL     OW13615   4.468   0.143   4.902
 4239SOL    HW113616   4.522   0.129   4.985
 4239SOL    HW213617   4.404   0.067   4.890
 4240SOL     OW13618   2.890   5.559   6.682
 4240SOL    HW113619   2.870   5.561   6.780
 4240SOL    HW213620   2.855   5.474   6.643
 4241SOL     OW13621   5.088   0.325   1.173
 4241SOL    HW113622   5.043   0.242   1.204
 4241SOL    HW213623   5.144   0.362   1.247
 4242SOL     OW13624   2.270   6.481   2.673
 4242SOL    HW113625   2.297   6.391   2.638
 4242SOL    HW213626   2.352   6.532   2.701
 4243SOL     OW13627   0.603   3.545   2.546
 4243SOL    HW113628   0.608   3.645   2.549
 4243SOL    HW213629   0.685   3.509   2.501
 4244SOL     OW13630   4.898   6.473   0.920
 4244SOL    HW113631   4.924   6.506   0.829
 4244SOL    HW213632   4.843   6.390   0.911
 4245SOL     OW13633   6.369   3.125   0.192
 4245SOL    HW113634   6.396   3.218   0.217
 4245SOL    HW213635   6.270   3.117   0.197
 4246SOL     OW13636   5.449   2.468   3.115
 4246SOL    HW113637   5.410   2.380   3.141
 4246SOL    HW213638   5.497   2.507   3.193
 4247SOL     OW13639   2.140   5.353   4.767
 4247SOL    HW113640   2.173   5.279   4.826
 4247SOL    HW213641   2.168   5.441   4.807
 4248SOL     OW13642   1.822   0.685   2.860
 4248SOL    HW113643   1.765   0.751   2.909
 4248SOL    HW213644   1.771   0.647   2.783
 4249SOL     OW13645   0.121   1.559   4.374
 4249SOL    HW113646   0.215   1.584   4.349
 4249SOL    HW213647   0.077   1.514   4.296
 4250SOL     OW13648   0.450   5.593   3.880
 4250SOL    HW113649   0.371   5.554   3.927
 4250SOL    HW213650   0.507   5.520   3.844
 4251SOL     OW13651   5.779   2.880   0.125
 4251SOL    HW113652   5.740   2.844   0.210
 4251SOL    HW213653   5.788   2.979   0.132
 4252SOL     OW13654   5.940   6.248   5.425
 4252SOL    HW113655   5.927   6.306   5.345
 4252SOL    HW213656   6.006   6.291   5.486
 4253SOL     OW13657   3.876   5.960   2.234
 4253SOL    HW113658   3.869   5.937   2.137
 4253SOL    HW213659   3.909   6.054   2.244
 4254SOL     OW13660   2.597   3.202   0.229
 4254SOL    HW113661   2.542   3.177   0.309
 4254SOL    HW213662   2.639   3.292   0.245
 4255SOL     OW13663   0.733   4.521   3.096
 4255SOL    HW113664   0.712   4.597   3.035
 4255SOL    HW213665   0.687   4.534   3.184
 4256SOL     OW13666   0.919   4.385   1.724
 4256SOL    HW113667   1.013   4.414   1.740
 4256SOL    HW213668   0.888   4.327   1.799
 4257SOL     OW13669   6.135   1.830   5.197
 4257SOL    HW113670   6.054   1.817   5.256
 4257SOL    HW213671   6.136   1.758   5.127
 4258SOL     OW13672   3.021   5.580   0.753
 4258SOL    HW113673   2.965   5.500   0.733
 4258SOL    HW213674   3.099   5.583   0.689
 4259SOL     OW13675   1.678   6.749   1.158
 4259SOL    HW113676   1.707   6.734   1.063
 4259SOL    HW213677   1.613   6.678   1.184
 4260SOL     OW13678   4.781   6.686   4.709
 4260SOL    HW113679   4.842   6.693   4.788
 4260SOL    HW213680   4.793   6.767   4.651
 4261SOL     OW13681   2.531   0.097   4.729
 4261SOL    HW113682   2.435   0.104   4.704
 4261SOL    HW213683   2.575   0.186   4.717
 4262SOL     OW13684   1.224   4.960   6.475
 4262SOL    HW113685   1.247   4.881   6.532
 4262SOL    HW213686   1.181   4.929   6.390
 4263SOL     OW13687   2.849   2.290   3.324
 4263SOL    HW113688   2.781   2.224   3.293
 4263SOL    HW213689   2.812   2.382   3.318
 4264SOL     OW13690   5.443   1.396   4.418
 4264SOL    HW113691   5.511   1.424   4.486
 4264SOL    HW213692   5.383   1.327   4.457
 4265SOL     OW13693   2.930   0.189   1.231
 4265SOL    HW113694   2.909   0.274   1.183
 4265SOL    HW213695   2.920   0.112   1.168
 4266SOL     OW13696   1.077   0.074   0.192
 4266SOL    HW113697   1.169   0.107   0.214
 4266SOL    HW213698   1.083   0.008   0.117
 4267SOL     OW13699   2.205   4.059   3.745
 4267SOL    HW113700   2.255   4.135   3.702
 4267SOL    HW213701   2.223   4.059   3.843
 4268SOL     OW13702   1.479   4.999   6.607
 4268SOL    HW113703   1.454   5.042   6.694
 4268SOL    HW213704   1.417   5.030   6.535
 4269SOL     OW13705   3.089   1.886   4.166
 4269SOL    HW113706   3.106   1.984   4.182
 4269SOL    HW213707   3.128   1.860   4.078
 4270SOL     OW13708   3.487   3.283   1.230
 4270SOL    HW113709   3.512   3.192   1.197
 4270SOL    HW213710   3.395   3.279   1.269
 4271SOL     OW13711   6.513   0.386   1.096
 4271SOL    HW113712   6.527   0.479   1.130
 4271SOL    HW213713   6.467   0.390   1.007
 4272SOL     OW13714   0.039   3.055   5.526
 4272SOL    HW113715   0.109   3.113   5.485
 4272SOL    HW213716   0.013   3.093   5.615
 4273SOL     OW13717   4.479   6.420   4.736
 4273SOL    HW113718   4.449   6.482   4.664
 4273SOL    HW213719   4.532   6.470   4.804
 4274SOL     OW13720   6.989   6.331   1.417
 4274SOL    HW113721   6.996   6.380   1.503
 4274SOL    HW213722   0.001   6.238   1.429
 4275SOL     OW13723   0.804   2.377   3.651
 4275SOL    HW113724   0.895   2.335   3.654
 4275SOL    HW213725   0.775   2.399   3.744
 4276SOL     OW13726   2.893   5.534   4.182
 4276SOL    HW113727   2.830   5.515   4.257
 4276SOL    HW213728   2.854   5.604   4.122
 4277SOL     OW13729   6.551   5.427   4.156
 4277SOL    HW113730   6.599   5.339   4.158
 4277SOL    HW213731   6.615   5.499   4.182
 4278SOL     OW13732   0.135   6.544   2.536
 4278SOL    HW113733   0.155   6.488   2.616
 4278SOL    HW213734   0.053   6.509   2.490
 4279SOL     OW13735   1.253   1.664   2.493
 4279SOL    HW113736   1.228   1.761   2.497
 4279SOL    HW213737   1.205   1.621   2.416
 4280SOL     OW13738   6.574   6.801   6.555
 4280SOL    HW113739   6.573   6.847   6.644
 4280SOL    HW213740   6.495   6.831   6.501
 4281SOL     OW13741   4.485   5.594   3.893
 4281SOL    HW113742   4.523   5.526   3.955
 4281SOL    HW213743   4.540   5.678   3.896
 4282SOL     OW13744   2.933   4.119   1.293
 4282SOL    HW113745   2.989   4.079   1.365
 4282SOL    HW213746   2.981   4.112   1.206
 4283SOL     OW13747   4.981   0.905   3.322
 4283SOL    HW113748   4.919   0.982   3.330
 4283SOL    HW213749   4.955   0.833   3.387
 4284SOL     OW13750   5.051   5.363   0.203
 4284SOL    HW113751   5.066   5.273   0.163
 4284SOL    HW213752   4.977   5.409   0.154
 4285SOL     OW13753   3.475   0.666   6.294
 4285SOL    HW113754   3.436   0.695   6.381
 4285SOL    HW213755   3.561   0.713   6.278
 4286SOL     OW13756   6.493   1.243   6.913
 4286SOL    HW113757   6.482   1.323   6.972
 4286SOL    HW213758   6.429   1.248   6.837
 4287SOL     OW13759   4.392   0.947   0.003
 4287SOL    HW113760   4.476   0.915   6.981
 4287SOL    HW213761   4.402   1.044   0.026
 4288SOL     OW13762   6.380   6.258   1.719
 4288SOL    HW113763   6.459   6.246   1.779
 4288SOL    HW213764   6.306   6.199   1.750
 4289SOL     OW13765   0.676   2.832   5.529
 4289SOL    HW113766   0.706   2.737   5.520
 4289SOL    HW213767   0.705   2.867   5.618
 4290SOL     OW13768   0.206   0.738   2.866
 4290SOL    HW113769   0.186   0.832   2.894
 4290SOL    HW213770   0.167   0.721   2.775
 4291SOL     OW13771   5.071   3.276   5.902
 4291SOL    HW113772   4.973   3.292   5.889
 4291SOL    HW213773   5.100   3.198   5.846
 4292SOL     OW13774   5.076   1.872   0.403
 4292SOL    HW113775   5.056   1.856   0.500
 4292SOL    HW213776   5.068   1.969   0.382
 4293SOL     OW13777   5.108   3.819   6.596
 4293SOL    HW113778   5.161   3.737   6.574
 4293SOL    HW213779   5.031   3.828   6.533
 4294SOL     OW13780   3.164   2.278   6.323
 4294SOL    HW113781   3.202   2.203   6.377
 4294SOL    HW213782   3.226   2.300   6.248
 4295SOL     OW13783   4.489   6.617   1.876
 4295SOL    HW113784   4.470   6.652   1.784
 4295SOL    HW213785   4.495   6.693   1.941
 4296SOL     OW13786   2.816   6.427   1.267
 4296SOL    HW113787   2.818   6.378   1.179
 4296SOL    HW213788   2.737   6.397   1.320
 4297SOL     OW13789   6.443   5.206   1.044
 4297SOL    HW113790   6.489   5.177   1.128
 4297SOL    HW213791   6.405   5.126   0.997
 4298SOL     OW13792   3.566   6.367   1.525
 4298SOL    HW113793   3.468   6.383   1.525
 4298SOL    HW213794   3.597   6.352   1.431
 4299SOL     OW13795   0.505   2.556   0.130
 4299SOL    HW113796   0.556   2.621   0.186
 4299SOL    HW213797   0.549   2.548   0.040
 4300SOL     OW13798   4.047   0.861   0.933
 4300SOL    HW113799   4.001   0.896   1.015
 4300SOL    HW213800   3.982   0.808   0.879
 4301SOL     OW13801   3.247   6.202   1.831
 4301SOL    HW113802   3.288   6.190   1.922
 4301SOL    HW213803   3.282   6.286   1.790
 4302SOL     OW13804   1.472   6.413   6.550
 4302SOL    HW113805   1.565   6.414   6.513
 4302SOL    HW213806   1.409   6.376   6.481
 4303SOL     OW13807   6.606   4.491   4.295
 4303SOL    HW113808   6.686   4.431   4.305
 4303SOL    HW213809   6.526   4.446   4.336
 4304SOL     OW13810   3.207   3.806   1.600
 4304SOL    HW113811   3.305   3.793   1.615
 4304SOL    HW213812   3.167   3.721   1.564
 4305SOL     OW13813   6.935   0.422   5.806
 4305SOL    HW113814   6.893   0.333   5.824
 4305SOL    HW213815   6.923   0.445   5.710
 4306SOL     OW13816   5.065   3.952   4.782
 4306SOL    HW113817   5.013   3.868   4.799
 4306SOL    HW213818   5.011   4.031   4.812
 4307SOL     OW13819   6.404   2.761   5.334
 4307SOL    HW113820   6.402   2.859   5.357
 4307SOL    HW213821   6.310   2.729   5.322
 4308SOL     OW13822   5.336   4.717   1.587
 4308SOL    HW113823   5.251   4.680   1.625
 4308SOL    HW213824   5.404   4.722   1.660
 4309SOL     OW13825   0.925   3.365   0.700
 4309SOL    HW113826   0.901   3.442   0.759
 4309SOL    HW213827   0.911   3.279   0.750
 4310SOL     OW13828   0.367   1.733   2.329
 4310SOL    HW113829   0.307   1.767   2.401
 4310SOL    HW213830   0.323   1.743   2.240
 4311SOL     OW13831   0.991   6.290   2.076
 4311SOL    HW113832   0.979   6.194   2.052
 4311SOL    HW213833   0.942   6.311   2.160
 4312SOL     OW13834   0.910   5.049   2.055
 4312SOL    HW113835   0.861   5.069   1.970
 4312SOL    HW213836   0.936   5.134   2.101
 4313SOL     OW13837   5.592   1.859   0.460
 4313SOL    HW113838   5.604   1.776   0.406
 4313SOL    HW213839   5.682   1.893   0.488
 4314SOL     OW13840   6.643   3.027   5.517
 4314SOL    HW113841   6.659   3.076   5.431
 4314SOL    HW213842   6.696   3.071   5.590
 4315SOL     OW13843   2.311   1.487   3.834
 4315SOL    HW113844   2.265   1.574   3.848
 4315SOL    HW213845   2.366   1.491   3.751
 4316SOL     OW13846   5.504   0.592   2.194
 4316SOL    HW113847   5.460   0.624   2.277
 4316SOL    HW213848   5.556   0.667   2.153
 4317SOL     OW13849   4.537   0.943   5.685
 4317SOL    HW113850   4.560   0.937   5.782
 4317SOL    HW213851   4.443   0.974   5.675
 4318SOL     OW13852   0.544   0.901   3.804
 4318SOL    HW113853   0.580   0.883   3.895
 4318SOL    HW213854   0.447   0.925   3.810
 4319SOL     OW13855   1.401   2.991   1.931
 4319SOL    HW113856   1.464   2.925   1.971
 4319SOL    HW213857   1.436   3.084   1.942
 4320SOL     OW13858   3.545   6.211   0.743
 4320SOL    HW113859   3.449   6.221   0.768
 4320SOL    HW213860   3.552   6.162   0.656
 4321SOL     OW13861   6.638   5.906   2.310
 4321SOL    HW113862   6.729   5.881   2.343
 4321SOL    HW213863   6.568   5.865   2.369
 4322SOL     OW13864   0.658   2.067   5.402
 4322SOL    HW113865   0.652   2.162   5.371
 4322SOL    HW213866   0.570   2.022   5.390
 4323SOL     OW13867   4.019   5.290   0.132
 4323SOL    HW113868   4.096   5.349   0.157
 4323SOL    HW213869   4.021   5.207   0.187
 4324SOL     OW13870   0.071   3.855   5.453
 4324SOL    HW113871   0.012   3.781   5.485
 4324SOL    HW213872   0.141   3.874   5.523
 4325SOL     OW13873   2.989   0.655   3.110
 4325SOL    HW113874   2.972   0.752   3.128
 4325SOL    HW213875   2.964   0.635   3.015
 4326SOL     OW13876   5.093   2.430   2.346
 4326SOL    HW113877   5.050   2.470   2.427
 4326SOL    HW213878   5.192   2.428   2.359
 4327SOL     OW13879   3.455   5.410   4.365
 4327SOL    HW113880   3.419   5.468   4.438
 4327SOL    HW213881   3.469   5.317   4.399
 4328SOL     OW13882   6.254   5.354   5.327
 4328SOL    HW113883   6.215   5.299   5.253
 4328SOL    HW213884   6.215   5.324   5.414
 4329SOL     OW13885   5.757   3.086   5.867
 4329SOL    HW113886   5.701   3.166   5.887
 4329SOL    HW213887   5.719   3.036   5.789
 4330SOL     OW13888   2.550   5.780   5.491
 4330SOL    HW113889   2.527   5.874   5.519
 4330SOL    HW213890   2.483   5.717   5.529
 4331SOL     OW13891   6.255   0.740   1.553
 4331SOL    HW113892   6.294   0.653   1.581
 4331SOL    HW213893   6.261   0.749   1.453
 4332SOL     OW13894   6.504   3.989   2.753
 4332SOL    HW113895   6.439   3.932   2.703
 4332SOL    HW213896   6.596   3.975   2.718
 4333SOL     OW13897   4.212   1.947   4.852
 4333SOL    HW113898   4.161   2.031   4.870
 4333SOL    HW213899   4.288   1.966   4.790
 4334SOL     OW13900   1.105   2.643   2.994
 4334SOL    HW113901   1.105   2.660   2.896
 4334SOL    HW213902   1.012   2.634   3.028
 4335SOL     OW13903   3.388   3.060   0.923
 4335SOL    HW113904   3.403   3.146   0.875
 4335SOL    HW213905   3.459   3.049   0.994
 4336SOL     OW13906   1.930   5.630   6.377
 4336SOL    HW113907   1.938   5.603   6.281
 4336SOL    HW213908   2.003   5.694   6.400
 4337SOL     OW13909   1.150   6.045   2.194
 4337SOL    HW113910   1.152   5.980   2.119
 4337SOL    HW213911   1.243   6.061   2.227
 4338SOL     OW13912   6.001   0.359   5.620
 4338SOL    HW113913   6.054   0.301   5.682
 4338SOL    HW213914   5.907   0.368   5.654
 4339SOL     OW13915   3.998   2.753   6.361
 4339SOL    HW113916   4.048   2.764   6.447
 4339SOL    HW213917   4.035   2.675   6.311
 4340SOL     OW13918   6.343   4.035   0.773
 4340SOL    HW113919   6.414   4.060   0.839
 4340SOL    HW213920   6.378   3.967   0.709
 4341SOL     OW13921   0.942   6.111   1.697
 4341SOL    HW113922   1.020   6.174   1.701
 4341SOL    HW213923   0.968   6.028   1.648
 4342SOL     OW13924   5.101   3.762   2.638
 4342SOL    HW113925   5.047   3.695   2.689
 4342SOL    HW213926   5.144   3.717   2.559
 4343SOL     OW13927   4.670   0.532   5.446
 4343SOL    HW113928   4.576   0.522   5.414
 4343SOL    HW213929   4.685   0.626   5.476
 4344SOL     OW13930   0.098   2.954   4.157
 4344SOL    HW113931   0.168   2.908   4.102
 4344SOL    HW213932   0.141   3.005   4.230
 4345SOL     OW13933   2.902   3.511   2.358
 4345SOL    HW113934   2.857   3.498   2.270
 4345SOL    HW213935   2.932   3.606   2.367
 4346SOL     OW13936   2.434   2.661   2.558
 4346SOL    HW113937   2.417   2.714   2.474
 4346SOL    HW213938   2.472   2.572   2.533
 4347SOL     OW13939   5.904   5.178   1.672
 4347SOL    HW113940   5.960   5.226   1.740
 4347SOL    HW213941   5.911   5.080   1.687
 4348SOL     OW13942   6.941   6.282   3.522
 4348SOL    HW113943   6.982   6.294   3.612
 4348SOL    HW213944   6.850   6.324   3.521
 4349SOL     OW13945   0.261   4.031   3.705
 4349SOL    HW113946   0.264   3.936   3.675
 4349SOL    HW213947   0.295   4.090   3.632
 4350SOL     OW13948   5.470   1.520   4.685
 4350SOL    HW113949   5.414   1.486   4.760
 4350SOL    HW213950   5.542   1.453   4.664
 4351SOL     OW13951   1.134   0.107   1.162
 4351SOL    HW113952   1.168   0.066   1.247
 4351SOL    HW213953   1.038   0.082   1.149
 4352SOL     OW13954   4.534   4.185   1.077
 4352SOL    HW113955   4.577   4.100   1.048
 4352SOL    HW213956   4.510   4.179   1.174
 4353SOL     OW13957   2.788   3.651   6.900
 4353SOL    HW113958   2.838   3.612   6.977
 4353SOL    HW213959   2.812   3.602   6.816
 4354SOL     OW13960   6.603   0.063   3.948
 4354SOL    HW113961   6.693   0.092   3.981
 4354SOL    HW213962   6.551   0.023   4.023
 4355SOL     OW13963   1.051   0.335   3.869
 4355SOL    HW113964   1.059   0.265   3.939
 4355SOL    HW213965   1.086   0.422   3.905
 4356SOL     OW13966   5.119   2.806   5.812
 4356SOL    HW113967   5.057   2.793   5.734
 4356SOL    HW213968   5.123   2.903   5.836
 4357SOL     OW13969   6.366   0.855   2.106
 4357SOL    HW113970   6.301   0.845   2.182
 4357SOL    HW213971   6.448   0.903   2.138
 4358SOL     OW13972   0.420   1.041   0.336
 4358SOL    HW113973   0.486   1.072   0.404
 4358SOL    HW213974   0.469   1.015   0.252
 4359SOL     OW13975   2.559   0.880   6.649
 4359SOL    HW113976   2.531   0.966   6.606
 4359SOL    HW213977   2.632   0.897   6.714
 4360SOL     OW13978   1.336   2.645   3.148
 4360SOL    HW113979   1.350   2.733   3.193
 4360SOL    HW213980   1.250   2.646   3.098
 4361SOL     OW13981   1.136   1.933   1.267
 4361SOL    HW113982   1.167   1.841   1.289
 4361SOL    HW213983   1.043   1.929   1.231
 4362SOL     OW13984   0.831   6.237   3.908
 4362SOL    HW113985   0.891   6.170   3.952
 4362SOL    HW213986   0.789   6.296   3.977
 4363SOL     OW13987   4.345   0.719   3.003
 4363SOL    HW113988   4.382   0.782   2.935
 4363SOL    HW213989   4.288   0.650   2.957
 4364SOL     OW13990   3.208   3.805   2.601
 4364SOL    HW113991   3.291   3.769   2.644
 4364SOL    HW213992   3.210   3.905   2.605
 4365SOL     OW13993   2.763   2.126   1.895
 4365SOL    HW113994   2.809   2.202   1.941
 4365SOL    HW213995   2.830   2.073   1.844
 4366SOL     OW13996   4.849   5.687   5.300
 4366SOL    HW113997   4.764   5.667   5.250
 4366SOL    HW213998   4.916   5.725   5.237
 4367SOL     OW13999   3.088   5.370   4.096
 4367SOL    HW114000   3.005   5.420   4.120
 4367SOL    HW214001   3.160   5.436   4.073
 4368SOL     OW14002   5.123   5.594   2.617
 4368SOL    HW114003   5.137   5.495   2.616
 4368SOL    HW214004   5.027   5.613   2.639
 4369SOL     OW14005   4.707   5.336   2.820
 4369SOL    HW114006   4.743   5.428   2.835
 4369SOL    HW214007   4.738   5.275   2.893
 4370SOL     OW14008   3.681   4.690   1.345
 4370SOL    HW114009   3.716   4.626   1.414
 4370SOL    HW214010   3.612   4.749   1.387
 4371SOL     OW14011   2.374   0.657   1.577
 4371SOL    HW114012   2.287   0.637   1.531
 4371SOL    HW214013   2.436   0.580   1.565
 4372SOL     OW14014   1.645   2.329   4.768
 4372SOL    HW114015   1.586   2.296   4.694
 4372SOL    HW214016   1.589   2.374   4.837
 4373SOL     OW14017   4.584   0.925   5.973
 4373SOL    HW114018   4.547   0.967   6.055
 4373SOL    HW214019   4.684   0.925   5.977
 4374SOL     OW14020   2.766   1.939   1.340
 4374SOL    HW114021   2.821   1.855   1.342
 4374SOL    HW214022   2.794   2.000   1.414
 4375SOL     OW14023   3.488   0.576   3.262
 4375SOL    HW114024   3.396   0.547   3.289
 4375SOL    HW214025   3.527   0.509   3.199
 4376SOL     OW14026   6.661   6.546   1.480
 4376SOL    HW114027   6.629   6.574   1.390
 4376SOL    HW214028   6.664   6.625   1.541
 4377SOL     OW14029   5.810   6.297   6.871
 4377SOL    HW114030   5.905   6.275   6.851
 4377SOL    HW214031   5.806   6.385   6.919
 4378SOL     OW14032   2.062   5.892   2.567
 4378SOL    HW114033   1.995   5.936   2.507
 4378SOL    HW214034   2.067   5.943   2.653
 4379SOL     OW14035   1.172   0.577   1.932
 4379SOL    HW114036   1.112   0.551   1.856
 4379SOL    HW214037   1.238   0.645   1.899
 4380SOL     OW14038   2.161   6.028   5.427
 4380SOL    HW114039   2.222   5.951   5.445
 4380SOL    HW214040   2.158   6.045   5.328
 4381SOL     OW14041   4.314   6.121   4.367
 4381SOL    HW114042   4.276   6.095   4.456
 4381SOL    HW214043   4.277   6.060   4.296
 4382SOL     OW14044   4.703   4.147   4.458
 4382SOL    HW114045   4.748   4.217   4.513
 4382SOL    HW214046   4.604   4.154   4.469
 4383SOL     OW14047   1.696   2.011   5.882
 4383SOL    HW114048   1.707   1.913   5.899
 4383SOL    HW214049   1.759   2.062   5.940
 4384SOL     OW14050   3.814   6.626   1.075
 4384SOL    HW114051   3.732   6.578   1.044
 4384SOL    HW214052   3.817   6.625   1.175
 4385SOL     OW14053   7.019   1.628   3.531
 4385SOL    HW114054   0.077   1.687   3.520
 4385SOL    HW214055   0.017   1.554   3.594
 4386SOL     OW14056   0.668   3.921   6.908
 4386SOL    HW114057   0.751   3.934   6.853
 4386SOL    HW214058   0.689   3.863   6.986
 4387SOL     OW14059   6.465   3.153   1.461
 4387SOL    HW114060   6.480   3.246   1.428
 4387SOL    HW214061   6.367   3.136   1.471
 4388SOL     OW14062   3.681   0.256   5.804
 4388SOL    HW114063   3.644   0.189   5.868
 4388SOL    HW214064   3.610   0.282   5.739
 4389SOL     OW14065   5.736   2.844   1.506
 4389SOL    HW114066   5.640   2.822   1.487
 4389SOL    HW214067   5.788   2.759   1.515
 4390SOL     OW14068   4.971   2.044   1.575
 4390SOL    HW114069   4.952   2.016   1.669
 4390SOL    HW214070   5.053   2.103   1.575
 4391SOL     OW14071   1.060   5.678   0.165
 4391SOL    HW114072   0.985   5.744   0.158
 4391SOL    HW214073   1.144   5.720   0.130
 4392SOL     OW14074   5.091   3.074   4.501
 4392SOL    HW114075   5.085   3.086   4.601
 4392SOL    HW214076   4.999   3.058   4.464
 4393SOL     OW14077   5.273   0.121   3.174
 4393SOL    HW114078   5.281   0.029   3.135
 4393SOL    HW214079   5.246   0.115   3.270
 4394SOL     OW14080   6.024   6.270   2.769
 4394SOL    HW114081   6.099   6.327   2.735
 4394SOL    HW214082   5.999   6.202   2.699
 4395SOL     OW14083   4.540   1.681   2.017
 4395SOL    HW114084   4.599   1.753   2.053
 4395SOL    HW214085   4.452   1.720   1.990
 4396SOL     OW14086   1.076   1.404   4.398
 4396SOL    HW114087   1.159   1.348   4.397
 4396SOL    HW214088   1.101   1.500   4.383
 4397SOL     OW14089   0.046   1.316   4.472
 4397SOL    HW114090   0.086   1.408   4.462
 4397SOL    HW214091   0.053   1.267   4.385
 4398SOL     OW14092   1.015   3.736   4.307
 4398SOL    HW114093   0.923   3.765   4.332
 4398SOL    HW214094   1.073   3.817   4.296
 4399SOL     OW14095   2.243   0.549   0.356
 4399SOL    HW114096   2.221   0.491   0.434
 4399SOL    HW214097   2.289   0.632   0.389
 4400SOL     OW14098   2.503   6.670   4.209
 4400SOL    HW114099   2.499   6.708   4.116
 4400SOL    HW214100   2.581   6.608   4.216
 4401SOL     OW14101   5.565   5.937   4.756
 4401SOL    HW114102   5.482   5.924   4.702
 4401SOL    HW214103   5.623   6.005   4.713
 4402SOL     OW14104   0.981   5.730   2.741
 4402SOL    HW114105   0.982   5.647   2.796
 4402SOL    HW214106   0.980   5.810   2.800
 4403SOL     OW14107   6.677   0.094   3.218
 4403SOL    HW114108   6.749   0.025   3.218
 4403SOL    HW214109   6.718   0.184   3.234
 4404SOL     OW14110   0.957   4.582   3.667
 4404SOL    HW114111   0.869   4.604   3.709
 4404SOL    HW214112   0.989   4.659   3.612
 4405SOL     OW14113   3.229   4.421   6.176
 4405SOL    HW114114   3.192   4.371   6.254
 4405SOL    HW214115   3.228   4.519   6.195
 4406SOL     OW14116   4.765   4.685   1.638
 4406SOL    HW114117   4.840   4.669   1.574
 4406SOL    HW214118   4.779   4.632   1.721
 4407SOL     OW14119   6.995   6.126   0.419
 4407SOL    HW114120   6.944   6.211   0.432
 4407SOL    HW214121   0.022   6.103   0.502
 4408SOL     OW14122   4.542   0.426   0.713
 4408SOL    HW114123   4.473   0.496   0.732
 4408SOL    HW214124   4.621   0.441   0.773
 4409SOL     OW14125   4.104   1.959   1.892
 4409SOL    HW114126   4.079   1.896   1.818
 4409SOL    HW214127   4.100   1.911   1.979
 4410SOL     OW14128   2.418   4.803   1.035
 4410SOL    HW114129   2.485   4.762   0.974
 4410SOL    HW214130   2.465   4.856   1.105
 4411SOL     OW14131   3.796   3.238   2.838
 4411SOL    HW114132   3.806   3.244   2.938
 4411SOL    HW214133   3.829   3.148   2.807
 4412SOL     OW14134   3.822   1.375   5.779
 4412SOL    HW114135   3.793   1.455   5.830
 4412SOL    HW214136   3.848   1.401   5.686
 4413SOL     OW14137   4.022   5.565   3.828
 4413SOL    HW114138   3.995   5.595   3.919
 4413SOL    HW214139   4.038   5.645   3.770
 4414SOL     OW14140   4.018   4.789   2.167
 4414SOL    HW114141   3.985   4.697   2.189
 4414SOL    HW214142   4.100   4.809   2.221
 4415SOL     OW14143   5.697   4.058   5.981
 4415SOL    HW114144   5.610   4.066   6.029
 4415SOL    HW214145   5.686   4.089   5.887
 4416SOL     OW14146   2.723   1.564   4.460
 4416SOL    HW114147   2.808   1.530   4.500
 4416SOL    HW214148   2.734   1.660   4.434
 4417SOL     OW14149   0.347   4.796   1.773
 4417SOL    HW114150   0.301   4.873   1.817
 4417SOL    HW214151   0.303   4.777   1.685
 4418SOL     OW14152   4.303   6.530   3.724
 4418SOL    HW114153   4.260   6.615   3.693
 4418SOL    HW214154   4.247   6.487   3.794
 4419SOL     OW14155   6.155   5.296   0.624
 4419SOL    HW114156   6.251   5.323   0.634
 4419SOL    HW214157   6.100   5.339   0.695
 4420SOL     OW14158   4.491   0.822   0.983
 4420SOL    HW114159   4.579   0.797   1.023
 4420SOL    HW214160   4.504   0.893   0.914
 4421SOL     OW14161   1.862   1.609   2.518
 4421SOL    HW114162   1.942   1.549   2.513
 4421SOL    HW214163   1.822   1.603   2.609
 4422SOL     OW14164   3.116   3.773   5.968
 4422SOL    HW114165   3.183   3.777   5.894
 4422SOL    HW214166   3.100   3.677   5.994
 4423SOL     OW14167   1.226   2.025   6.291
 4423SOL    HW114168   1.278   2.037   6.376
 4423SOL    HW214169   1.288   1.992   6.219
 4424SOL     OW14170   5.311   6.041   3.390
 4424SOL    HW114171   5.230   6.035   3.330
 4424SOL    HW214172   5.393   6.043   3.334
 4425SOL     OW14173   3.452   5.640   5.489
 4425SOL    HW114174   3.525   5.581   5.452
 4425SOL    HW214175   3.364   5.597   5.471
 4426SOL     OW14176   6.985   1.051   5.043
 4426SOL    HW114177   7.004   1.013   5.133
 4426SOL    HW214178   6.986   0.977   4.975
 4427SOL     OW14179   0.329   0.776   3.208
 4427SOL    HW114180   0.359   0.686   3.176
 4427SOL    HW214181   0.398   0.844   3.185
 4428SOL     OW14182   2.800   4.768   4.206
 4428SOL    HW114183   2.812   4.672   4.179
 4428SOL    HW214184   2.786   4.772   4.305
 4429SOL     OW14185   2.919   6.822   3.258
 4429SOL    HW114186   2.879   6.839   3.168
 4429SOL    HW214187   2.871   6.876   3.327
 4430SOL     OW14188   3.996   1.897   2.774
 4430SOL    HW114189   4.027   1.984   2.735
 4430SOL    HW214190   3.921   1.861   2.718
 4431SOL     OW14191   2.938   2.094   3.636
 4431SOL    HW114192   2.990   2.019   3.674
 4431SOL    HW214193   2.977   2.121   3.548
 4432SOL     OW14194   3.453   3.214   3.120
 4432SOL    HW114195   3.520   3.233   3.192
 4432SOL    HW214196   3.496   3.227   3.031
 4433SOL     OW14197   5.738   6.810   3.282
 4433SOL    HW114198   5.733   6.841   3.377
 4433SOL    HW214199   5.781   6.881   3.227
 4434SOL     OW14200   5.382   1.835   3.885
 4434SOL    HW114201   5.337   1.888   3.813
 4434SOL    HW214202   5.330   1.845   3.970
 4435SOL     OW14203   3.558   3.186   1.501
 4435SOL    HW114204   3.578   3.221   1.410
 4435SOL    HW214205   3.638   3.139   1.538
 4436SOL     OW14206   3.162   2.315   0.458
 4436SOL    HW114207   3.164   2.217   0.477
 4436SOL    HW214208   3.071   2.351   0.478
 4437SOL     OW14209   4.207   0.803   4.347
 4437SOL    HW114210   4.251   0.850   4.270
 4437SOL    HW214211   4.140   0.738   4.312
 4438SOL     OW14212   4.035   2.330   0.235
 4438SOL    HW114213   4.005   2.310   0.328
 4438SOL    HW214214   4.053   2.428   0.225
 4439SOL     OW14215   0.636   5.376   1.655
 4439SOL    HW114216   0.660   5.315   1.730
 4439SOL    HW214217   0.640   5.326   1.569
 4440SOL     OW14218   2.002   5.746   0.112
 4440SOL    HW114219   2.059   5.690   0.173
 4440SOL    HW214220   2.048   5.756   0.024
 4441SOL     OW14221   6.457   2.582   2.341
 4441SOL    HW114222   6.551   2.556   2.320
 4441SOL    HW214223   6.429   2.537   2.426
 4442SOL     OW14224   3.817   6.275   3.594
 4442SOL    HW114225   3.778   6.360   3.560
 4442SOL    HW214226   3.884   6.240   3.529
 4443SOL     OW14227   2.288   1.826   6.324
 4443SOL    HW114228   2.295   1.880   6.409
 4443SOL    HW214229   2.361   1.853   6.262
 4444SOL     OW14230   4.712   6.657   0.940
 4444SOL    HW114231   4.789   6.595   0.955
 4444SOL    HW214232   4.721   6.736   1.001
 4445SOL     OW14233   1.401   1.076   6.489
 4445SOL    HW114234   1.366   1.163   6.454
 4445SOL    HW214235   1.488   1.055   6.445
 4446SOL     OW14236   5.795   0.424   1.977
 4446SOL    HW114237   5.778   0.515   2.015
 4446SOL    HW214238   5.712   0.392   1.931
 4447SOL     OW14239   5.511   3.258   5.646
 4447SOL    HW114240   5.428   3.246   5.592
 4447SOL    HW214241   5.522   3.354   5.671
 4448SOL     OW14242   2.885   3.760   0.479
 4448SOL    HW114243   2.974   3.785   0.516
 4448SOL    HW214244   2.874   3.661   0.485
 4449SOL     OW14245   2.902   0.351   5.468
 4449SOL    HW114246   2.821   0.308   5.508
 4449SOL    HW214247   2.983   0.324   5.520
 4450SOL     OW14248   3.058   3.270   2.519
 4450SOL    HW114249   2.993   3.302   2.450
 4450SOL    HW214250   3.143   3.323   2.513
 4451SOL     OW14251   6.186   4.254   2.594
 4451SOL    HW114252   6.232   4.321   2.653
 4451SOL    HW214253   6.218   4.265   2.500
 4452SOL     OW14254   5.932   6.708   5.626
 4452SOL    HW114255   5.893   6.619   5.650
 4452SOL    HW214256   5.947   6.761   5.710
 4453SOL     OW14257   6.042   2.813   1.742
 4453SOL    HW114258   6.096   2.747   1.690
 4453SOL    HW214259   6.005   2.769   1.824
 4454SOL     OW14260   5.367   2.306   1.086
 4454SOL    HW114261   5.401   2.399   1.078
 4454SOL    HW214262   5.268   2.307   1.102
 4455SOL     OW14263   3.391   6.602   2.139
 4455SOL    HW114264   3.426   6.525   2.086
 4455SOL    HW214265   3.438   6.607   2.227
 4456SOL     OW14266   2.330   5.507   2.301
 4456SOL    HW114267   2.419   5.492   2.344
 4456SOL    HW214268   2.282   5.582   2.347
 4457SOL     OW14269   4.308   2.012   6.186
 4457SOL    HW114270   4.276   1.926   6.227
 4457SOL    HW214271   4.338   2.074   6.258
 4458SOL     OW14272   2.396   3.063   6.555
 4458SOL    HW114273   2.431   3.107   6.472
 4458SOL    HW214274   2.405   3.126   6.632
 4459SOL     OW14275   4.496   0.028   4.508
 4459SOL    HW114276   4.573   0.074   4.551
 4459SOL    HW214277   4.448   0.092   4.449
 4460SOL     OW14278   2.278   3.144   6.934
 4460SOL    HW114279   2.344   3.091   6.987
 4460SOL    HW214280   2.186   3.111   6.953
 4461SOL     OW14281   1.092   0.050   2.327
 4461SOL    HW114282   1.130   6.988   2.291
 4461SOL    HW214283   1.008   0.031   2.377
 4462SOL     OW14284   6.201   4.867   1.036
 4462SOL    HW114285   6.153   4.922   1.104
 4462SOL    HW214286   6.232   4.926   0.962
 4463SOL     OW14287   1.957   3.000   6.464
 4463SOL    HW114288   2.044   3.047   6.470
 4463SOL    HW214289   1.885   3.058   6.502
 4464SOL     OW14290   5.908   4.717   6.386
 4464SOL    HW114291   5.888   4.780   6.461
 4464SOL    HW214292   5.906   4.766   6.299
 4465SOL     OW14293   2.063   6.498   2.359
 4465SOL    HW114294   2.038   6.562   2.431
 4465SOL    HW214295   2.018   6.524   2.273
 4466SOL     OW14296   0.936   1.332   2.331
 4466SOL    HW114297   0.927   1.236   2.305
 4466SOL    HW214298   1.024   1.367   2.301
 4467SOL     OW14299   1.348   6.942   2.965
 4467SOL    HW114300   1.276   6.889   3.008
 4467SOL    HW214301   1.437   6.898   2.981
 4468SOL     OW14302   1.133   2.069   6.675
 4468SOL    HW114303   1.230   2.090   6.684
 4468SOL    HW214304   1.120   1.970   6.669
 4469SOL     OW14305   3.354   0.201   1.793
 4469SOL    HW114306   3.298   0.211   1.876
 4469SOL    HW214307   3.313   0.254   1.719
 4470SOL     OW14308   5.261   3.680   1.772
 4470SOL    HW114309   5.310   3.603   1.813
 4470SOL    HW214310   5.305   3.766   1.798
 4471SOL     OW14311   0.614   2.665   1.118
 4471SOL    HW114312   0.580   2.687   1.026
 4471SOL    HW214313   0.662   2.745   1.155
 4472SOL     OW14314   1.805   3.950   2.419
 4472SOL    HW114315   1.870   3.895   2.472
 4472SOL    HW214316   1.854   4.026   2.375
 4473SOL     OW14317   0.284   0.434   4.989
 4473SOL    HW114318   0.190   0.445   5.020
 4473SOL    HW214319   0.312   0.515   4.937
 4474SOL     OW14320   3.518   0.096   2.090
 4474SOL    HW114321   3.581   0.019   2.083
 4474SOL    HW214322   3.504   0.136   1.999
 4475SOL     OW14323   1.386   3.749   1.133
 4475SOL    HW114324   1.372   3.824   1.198
 4475SOL    HW214325   1.478   3.712   1.144
 4476SOL     OW14326   5.277   6.548   2.788
 4476SOL    HW114327   5.275   6.489   2.868
 4476SOL    HW214328   5.215   6.626   2.802
 4477SOL     OW14329   2.227   0.517   6.671
 4477SOL    HW114330   2.244   0.419   6.673
 4477SOL    HW214331   2.145   0.538   6.724
 4478SOL     OW14332   2.380   6.848   2.515
 4478SOL    HW114333   2.477   6.859   2.490
 4478SOL    HW214334   2.344   6.765   2.473
 4479SOL     OW14335   1.097   0.209   6.501
 4479SOL    HW114336   0.997   0.208   6.504
 4479SOL    HW214337   1.128   0.292   6.456
 4480SOL     OW14338   1.745   3.926   4.337
 4480SOL    HW114339   1.796   3.899   4.418
 4480SOL    HW214340   1.786   4.008   4.298
 4481SOL     OW14341   1.625   6.447   4.347
 4481SOL    HW114342   1.555   6.463   4.417
 4481SOL    HW214343   1.691   6.522   4.349
 4482SOL     OW14344   1.125   4.252   4.276
 4482SOL    HW114345   1.198   4.202   4.228
 4482SOL    HW214346   1.036   4.214   4.249
 4483SOL     OW14347   6.710   2.816   1.189
 4483SOL    HW114348   6.612   2.814   1.169
 4483SOL    HW214349   6.725   2.844   1.283
 4484SOL     OW14350   3.883   2.803   5.382
 4484SOL    HW114351   3.919   2.878   5.328
 4484SOL    HW214352   3.944   2.724   5.376
 4485SOL     OW14353   5.080   2.294   6.420
 4485SOL    HW114354   5.105   2.213   6.366
 4485SOL    HW214355   5.161   2.328   6.469
 4486SOL     OW14356   0.133   4.145   5.159
 4486SOL    HW114357   0.174   4.067   5.112
 4486SOL    HW214358   0.199   4.219   5.165
 4487SOL     OW14359   2.494   3.883   6.411
 4487SOL    HW114360   2.589   3.851   6.405
 4487SOL    HW214361   2.485   3.945   6.488
 4488SOL     OW14362   5.838   2.621   5.504
 4488SOL    HW114363   5.935   2.609   5.482
 4488SOL    HW214364   5.808   2.712   5.475
 4489SOL     OW14365   5.728   5.623   4.592
 4489SOL    HW114366   5.667   5.692   4.552
 4489SOL    HW214367   5.802   5.669   4.642
 4490SOL     OW14368   6.185   1.562   1.390
 4490SOL    HW114369   6.114   1.581   1.458
 4490SOL    HW214370   6.188   1.464   1.370
 4491SOL     OW14371   1.366   3.576   2.340
 4491SOL    HW114372   1.324   3.661   2.310
 4491SOL    HW214373   1.367   3.572   2.440
 4492SOL     OW14374   5.021   2.407   6.982
 4492SOL    HW114375   5.049   2.402   6.887
 4492SOL    HW214376   4.922   2.391   6.989
 4493SOL     OW14377   4.479   5.398   4.843
 4493SOL    HW114378   4.479   5.321   4.906
 4493SOL    HW214379   4.569   5.407   4.800
 4494SOL     OW14380   0.275   3.236   5.714
 4494SOL    HW114381   0.257   3.145   5.751
 4494SOL    HW214382   0.188   3.281   5.692
 4495SOL     OW14383   5.525   6.546   2.707
 4495SOL    HW114384   5.431   6.540   2.742
 4495SOL    HW214385   5.575   6.617   2.758
 4496SOL     OW14386   5.502   4.825   6.928
 4496SOL    HW114387   5.465   4.856   7.015
 4496SOL    HW214388   5.435   4.769   6.880
 4497SOL     OW14389   5.251   6.095   6.455
 4497SOL    HW114390   5.278   6.053   6.368
 4497SOL    HW214391   5.154   6.080   6.471
 4498SOL     OW14392   0.307   4.363   6.889
 4498SOL    HW114393   0.208   4.367   6.897
 4498SOL    HW214394   0.337   4.268   6.886
 4499SOL     OW14395   6.848   3.119   4.338
 4499SOL    HW114396   6.887   3.090   4.425
 4499SOL    HW214397   6.828   3.038   4.283
 4500SOL     OW14398   3.254   4.119   3.993
 4500SOL    HW114399   3.346   4.114   4.033
 4500SOL    HW214400   3.255   4.081   3.901
 4501SOL     OW14401   1.444   3.851   5.573
 4501SOL    HW114402   1.345   3.843   5.571
 4501SOL    HW214403   1.480   3.800   5.651
 4502SOL     OW14404   1.717   2.489   6.165
 4502SOL    HW114405   1.682   2.582   6.155
 4502SOL    HW214406   1.798   2.489   6.224
 4503SOL     OW14407   2.312   1.007   3.473
 4503SOL    HW114408   2.230   0.992   3.417
 4503SOL    HW214409   2.284   1.020   3.569
 4504SOL     OW14410   5.979   2.484   5.858
 4504SOL    HW114411   5.909   2.534   5.908
 4504SOL    HW214412   5.936   2.423   5.792
 4505SOL     OW14413   0.626   6.095   4.616
 4505SOL    HW114414   0.700   6.098   4.549
 4505SOL    HW214415   0.563   6.021   4.593
 4506SOL     OW14416   3.435   1.511   4.811
 4506SOL    HW114417   3.445   1.490   4.908
 4506SOL    HW214418   3.522   1.495   4.765
 4507SOL     OW14419   4.863   4.976   1.269
 4507SOL    HW114420   4.765   4.991   1.282
 4507SOL    HW214421   4.902   5.053   1.219
 4508SOL     OW14422   1.820   3.765   6.980
 4508SOL    HW114423   1.851   3.742   0.049
 4508SOL    HW214424   1.867   3.847   6.947
 4509SOL     OW14425   4.209   1.946   4.520
 4509SOL    HW114426   4.293   1.892   4.530
 4509SOL    HW214427   4.229   2.042   4.542
 4510SOL     OW14428   5.750   0.640   5.017
 4510SOL    HW114429   5.666   0.687   5.045
 4510SOL    HW214430   5.735   0.541   5.022
 4511SOL     OW14431   0.317   3.320   0.417
 4511SOL    HW114432   0.234   3.308   0.361
 4511SOL    HW214433   0.392   3.350   0.359
 4512SOL     OW14434   2.673   6.888   6.879
 4512SOL    HW114435   2.739   6.958   6.907
 4512SOL    HW214436   2.661   6.822   6.953
 4513SOL     OW14437   4.686   6.363   1.375
 4513SOL    HW114438   4.612   6.396   1.317
 4513SOL    HW214439   4.655   6.359   1.470
 4514SOL     OW14440   3.815   1.170   4.653
 4514SOL    HW114441   3.904   1.132   4.679
 4514SOL    HW214442   3.776   1.114   4.580
 4515SOL     OW14443   6.453   4.698   6.530
 4515SOL    HW114444   6.402   4.612   6.540
 4515SOL    HW214445   6.423   4.744   6.446
 4516SOL     OW14446   1.119   0.964   5.544
 4516SOL    HW114447   1.117   1.047   5.487
 4516SOL    HW214448   1.208   0.919   5.534
 4517SOL     OW14449   3.098   0.113   6.632
 4517SOL    HW114450   3.074   0.027   6.587
 4517SOL    HW214451   3.075   0.189   6.572
 4518SOL     OW14452   0.898   2.053   3.911
 4518SOL    HW114453   0.810   2.007   3.902
 4518SOL    HW214454   0.957   2.000   3.972
 4519SOL     OW14455   0.465   1.718   3.794
 4519SOL    HW114456   0.401   1.651   3.756
 4519SOL    HW214457   0.487   1.694   3.888
 4520SOL     OW14458   6.026   4.525   2.558
 4520SOL    HW114459   6.123   4.542   2.541
 4520SOL    HW214460   6.010   4.427   2.571
 4521SOL     OW14461   4.867   2.309   5.920
 4521SOL    HW114462   4.951   2.291   5.971
 4521SOL    HW214463   4.819   2.223   5.903
 4522SOL     OW14464   5.212   6.689   4.023
 4522SOL    HW114465   5.303   6.703   3.985
 4522SOL    HW214466   5.172   6.778   4.047
 4523SOL     OW14467   2.784   4.939   0.197
 4523SOL    HW114468   2.693   4.979   0.208
 4523SOL    HW214469   2.781   4.867   0.128
 4524SOL     OW14470   5.452   1.665   5.674
 4524SOL    HW114471   5.438   1.756   5.713
 4524SOL    HW214472   5.530   1.621   5.719
 4525SOL     OW14473   6.647   1.658   4.107
 4525SOL    HW114474   6.597   1.597   4.169
 4525SOL    HW214475   6.694   1.728   4.161
 4526SOL     OW14476   5.162   6.984   1.117
 4526SOL    HW114477   5.246   0.010   1.094
 4526SOL    HW214478   5.143   6.994   1.214
 4527SOL     OW14479   4.044   0.640   3.461
 4527SOL    HW114480   3.984   0.640   3.541
 4527SOL    HW214481   4.091   0.552   3.455
 4528SOL     OW14482   4.960   6.836   6.951
 4528SOL    HW114483   4.866   6.869   6.956
 4528SOL    HW214484   5.020   6.900   6.999
 4529SOL     OW14485   2.647   0.987   3.592
 4529SOL    HW114486   2.655   1.019   3.498
 4529SOL    HW214487   2.580   0.913   3.596
 4530SOL     OW14488   0.520   3.172   5.622
 4530SOL    HW114489   0.518   3.181   5.522
 4530SOL    HW214490   0.426   3.168   5.657
 4531SOL     OW14491   1.298   3.930   2.861
 4531SOL    HW114492   1.222   3.894   2.807
 4531SOL    HW214493   1.271   4.017   2.902
 4532SOL     OW14494   6.664   1.095   0.963
 4532SOL    HW114495   6.618   1.112   1.050
 4532SOL    HW214496   6.693   1.182   0.922
 4533SOL     OW14497   1.349   0.119   3.591
 4533SOL    HW114498   1.433   0.080   3.555
 4533SOL    HW214499   1.336   0.212   3.555
 4534SOL     OW14500   5.950   3.673   5.193
 4534SOL    HW114501   6.003   3.634   5.269
 4534SOL    HW214502   5.895   3.749   5.228
 4535SOL     OW14503   4.729   2.709   2.072
 4535SOL    HW114504   4.813   2.667   2.106
 4535SOL    HW214505   4.734   2.808   2.086
 4536SOL     OW14506   4.833   0.811   4.697
 4536SOL    HW114507   4.896   0.737   4.671
 4536SOL    HW214508   4.838   0.884   4.630
 4537SOL     OW14509   3.628   3.209   6.824
 4537SOL    HW114510   3.701   3.265   6.864
 4537SOL    HW214511   3.639   3.114   6.852
 4538SOL     OW14512   3.371   1.778   3.566
 4538SOL    HW114513   3.444   1.738   3.620
 4538SOL    HW214514   3.302   1.708   3.546
 4539SOL     OW14515   2.955   2.234   4.112
 4539SOL    HW114516   2.949   2.282   4.025
 4539SOL    HW214517   3.051   2.225   4.139
 4540SOL     OW14518   3.444   3.836   3.909
 4540SOL    HW114519   3.434   3.802   3.815
 4540SOL    HW214520   3.448   3.936   3.907
 4541SOL     OW14521   5.400   0.674   0.169
 4541SOL    HW114522   5.465   0.747   0.149
 4541SOL    HW214523   5.329   0.673   0.099
 4542SOL     OW14524   6.186   6.075   1.775
 4542SOL    HW114525   6.157   6.086   1.870
 4542SOL    HW214526   6.156   5.986   1.741
 4543SOL     OW14527   4.690   1.744   0.660
 4543SOL    HW114528   4.683   1.839   0.692
 4543SOL    HW214529   4.738   1.742   0.572
 4544SOL     OW14530   2.292   6.252   6.817
 4544SOL    HW114531   2.390   6.257   6.837
 4544SOL    HW214532   2.277   6.262   6.718
 4545SOL     OW14533   4.265   2.219   5.289
 4545SOL    HW114534   4.174   2.195   5.255
 4545SOL    HW214535   4.279   2.174   5.377
 4546SOL     OW14536   0.737   6.880   6.051
 4546SOL    HW114537   0.826   6.923   6.062
 4546SOL    HW214538   0.727   6.847   5.957
 4547SOL     OW14539   5.416   2.461   1.389
 4547SOL    HW114540   5.429   2.380   1.446
 4547SOL    HW214541   5.325   2.459   1.348
 4548SOL     OW14542   0.686   4.928   4.017
 4548SOL    HW114543   0.717   4.964   4.106
 4548SOL    HW214544   0.704   4.995   3.946
 4549SOL     OW14545   6.970   3.052   3.539
 4549SOL    HW114546   6.938   3.102   3.458
 4549SOL    HW214547   0.016   2.985   3.511
 4550SOL     OW14548   1.026   6.352   3.725
 4550SOL    HW114549   0.973   6.310   3.799
 4550SOL    HW214550   1.118   6.315   3.725
 4551SOL     OW14551   0.521   2.610   5.203
 4551SOL    HW114552   0.603   2.580   5.253
 4551SOL    HW214553   0.441   2.564   5.240
 4552SOL     OW14554   0.751   3.119   5.741
 4552SOL    HW114555   0.656   3.116   5.710
 4552SOL    HW214556   0.762   3.189   5.811
 4553SOL     OW14557   4.236   4.752   7.022
 4553SOL    HW114558   4.234   4.772   6.924
 4553SOL    HW214559   4.158   4.693   0.023
 4554SOL     OW14560   4.266   0.405   2.306
 4554SOL    HW114561   4.356   0.440   2.332
 4554SOL    HW214562   4.198   0.436   2.372
 4555SOL     OW14563   4.487   2.117   6.607
 4555SOL    HW114564   4.409   2.062   6.635
 4555SOL    HW214565   4.465   2.214   6.616
 4556SOL     OW14566   3.963   0.918   3.428
 4556SOL    HW114567   3.982   0.821   3.442
 4556SOL    HW214568   3.865   0.932   3.420
 4557SOL     OW14569   5.101   0.299   4.848
 4557SOL    HW114570   5.111   0.201   4.864
 4557SOL    HW214571   5.191   0.342   4.841
 4558SOL     OW14572   6.468   3.862   6.437
 4558SOL    HW114573   6.565   3.859   6.458
 4558SOL    HW214574   6.422   3.785   6.480
 4559SOL     OW14575   1.513   6.518   1.139
 4559SOL    HW114576   1.587   6.457   1.113
 4559SOL    HW214577   1.445   6.468   1.192
 4560SOL     OW14578   4.963   3.727   3.240
 4560SOL    HW114579   5.021   3.730   3.159
 4560SOL    HW214580   4.936   3.633   3.260
 4561SOL     OW14581   2.920   1.224   0.345
 4561SOL    HW114582   2.879   1.307   0.307
 4561SOL    HW214583   2.856   1.182   0.409
 4562SOL     OW14584   3.086   5.836   5.783
 4562SOL    HW114585   3.171   5.788   5.765
 4562SOL    HW214586   3.070   5.903   5.710
 4563SOL     OW14587   5.753   2.485   0.176
 4563SOL    HW114588   5.669   2.495   0.229
 4563SOL    HW214589   5.774   2.388   0.165
 4564SOL     OW14590   0.742   5.399   0.584
 4564SOL    HW114591   0.727   5.404   0.683
 4564SOL    HW214592   0.655   5.382   0.538
 4565SOL     OW14593   0.459   1.783   5.193
 4565SOL    HW114594   0.411   1.714   5.139
 4565SOL    HW214595   0.530   1.826   5.136
 4566SOL     OW14596   6.839   0.218   6.518
 4566SOL    HW114597   6.787   0.302   6.508
 4566SOL    HW214598   6.861   0.181   6.428
 4567SOL     OW14599   0.462   0.375   0.953
 4567SOL    HW114600   0.529   0.363   0.880
 4567SOL    HW214601   0.370   0.366   0.915
 4568SOL     OW14602   2.483   4.732   5.323
 4568SOL    HW114603   2.441   4.660   5.266
 4568SOL    HW214604   2.578   4.707   5.342
 4569SOL     OW14605   0.911   1.916   4.191
 4569SOL    HW114606   0.882   1.846   4.125
 4569SOL    HW214607   0.830   1.962   4.228
 4570SOL     OW14608   6.908   6.045   3.332
 4570SOL    HW114609   6.992   6.015   3.377
 4570SOL    HW214610   6.903   6.005   3.240
 4571SOL     OW14611   3.109   3.586   4.815
 4571SOL    HW114612   3.115   3.535   4.900
 4571SOL    HW214613   3.173   3.548   4.748
 4572SOL     OW14614   0.181   6.672   0.529
 4572SOL    HW114615   0.206   6.577   0.546
 4572SOL    HW214616   0.139   6.710   0.611
 4573SOL     OW14617   5.623   6.161   1.324
 4573SOL    HW114618   5.578   6.110   1.250
 4573SOL    HW214619   5.556   6.182   1.395
 4574SOL     OW14620   0.055   4.896   1.406
 4574SOL    HW114621   0.007   4.876   1.320
 4574SOL    HW214622   0.045   4.992   1.428
 4575SOL     OW14623   6.283   1.995   0.377
 4575SOL    HW114624   6.254   1.923   0.314
 4575SOL    HW214625   6.202   2.044   0.410
 4576SOL     OW14626   2.963   5.823   6.753
 4576SOL    HW114627   2.931   5.729   6.762
 4576SOL    HW214628   3.025   5.830   6.675
 4577SOL     OW14629   0.994   3.606   3.248
 4577SOL    HW114630   0.962   3.676   3.313
 4577SOL    HW214631   1.081   3.635   3.208
 4578SOL     OW14632   0.706   3.597   3.582
 4578SOL    HW114633   0.634   3.529   3.575
 4578SOL    HW214634   0.748   3.611   3.493
 4579SOL     OW14635   4.650   1.781   2.663
 4579SOL    HW114636   4.613   1.809   2.751
 4579SOL    HW214637   4.662   1.682   2.661
 4580SOL     OW14638   5.855   5.221   0.694
 4580SOL    HW114639   5.876   5.313   0.726
 4580SOL    HW214640   5.893   5.153   0.757
 4581SOL     OW14641   3.111   4.907   3.596
 4581SOL    HW114642   3.200   4.903   3.551
 4581SOL    HW214643   3.041   4.872   3.535
 4582SOL     OW14644   5.486   6.739   4.072
 4582SOL    HW114645   5.514   6.644   4.059
 4582SOL    HW214646   5.435   6.747   4.158
 4583SOL     OW14647   3.080   2.006   5.077
 4583SOL    HW114648   3.096   2.104   5.077
 4583SOL    HW214649   3.033   1.980   4.993
 4584SOL     OW14650   6.927   6.028   5.570
 4584SOL    HW114651   6.904   5.979   5.486
 4584SOL    HW214652   6.921   5.966   5.648
 4585SOL     OW14653   3.239   6.486   2.733
 4585SOL    HW114654   3.215   6.536   2.649
 4585SOL    HW214655   3.338   6.492   2.748
 4586SOL     OW14656   3.272   5.047   1.044
 4586SOL    HW114657   3.213   5.118   1.081
 4586SOL    HW214658   3.257   4.961   1.093
 4587SOL     OW14659   4.193   3.575   1.883
 4587SOL    HW114660   4.167   3.573   1.979
 4587SOL    HW214661   4.286   3.538   1.873
 4588SOL     OW14662   3.898   3.808   4.679
 4588SOL    HW114663   3.841   3.778   4.602
 4588SOL    HW214664   3.945   3.893   4.654
 4589SOL     OW14665   6.265   1.998   2.562
 4589SOL    HW114666   6.178   1.981   2.607
 4589SOL    HW214667   6.290   2.094   2.574
 4590SOL     OW14668   4.391   6.231   2.755
 4590SOL    HW114669   4.442   6.205   2.838
 4590SOL    HW214670   4.304   6.182   2.752
 4591SOL     OW14671   6.578   5.733   5.621
 4591SOL    HW114672   6.516   5.682   5.561
 4591SOL    HW214673   6.606   5.818   5.576
 4592SOL     OW14674   4.295   2.855   0.962
 4592SOL    HW114675   4.256   2.869   0.870
 4592SOL    HW214676   4.235   2.898   1.030
 4593SOL     OW14677   4.261   5.748   3.099
 4593SOL    HW114678   4.207   5.823   3.060
 4593SOL    HW214679   4.203   5.668   3.111
 4594SOL     OW14680   3.553   2.041   2.404
 4594SOL    HW114681   3.532   1.943   2.404
 4594SOL    HW214682   3.473   2.092   2.435
 4595SOL     OW14683   3.546   2.999   6.495
 4595SOL    HW114684   3.631   2.995   6.442
 4595SOL    HW214685   3.528   2.910   6.536
 4596SOL     OW14686   5.999   6.227   2.191
 4596SOL    HW114687   6.050   6.292   2.134
 4596SOL    HW214688   5.901   6.242   2.178
 4597SOL     OW14689   5.516   5.254   6.375
 4597SOL    HW114690   5.579   5.295   6.441
 4597SOL    HW214691   5.545   5.276   6.282
 4598SOL     OW14692   1.696   5.041   6.256
 4598SOL    HW114693   1.614   4.983   6.264
 4598SOL    HW214694   1.775   4.984   6.237
 4599SOL     OW14695   1.098   4.050   1.032
 4599SOL    HW114696   1.147   4.050   0.945
 4599SOL    HW214697   1.038   3.970   1.037
 4600SOL     OW14698   2.821   5.357   6.512
 4600SOL    HW114699   2.859   5.282   6.458
 4600SOL    HW214700   2.724   5.367   6.493
 4601SOL     OW14701   1.777   0.743   5.473
 4601SOL    HW114702   1.758   0.812   5.542
 4601SOL    HW214703   1.726   0.659   5.495
 4602SOL     OW14704   1.247   6.670   1.099
 4602SOL    HW114705   1.341   6.638   1.090
 4602SOL    HW214706   1.237   6.758   1.052
 4603SOL     OW14707   3.680   6.360   1.758
 4603SOL    HW114708   3.728   6.273   1.761
 4603SOL    HW214709   3.644   6.375   1.665
 4604SOL     OW14710   4.074   0.400   1.680
 4604SOL    HW114711   4.074   0.380   1.778
 4604SOL    HW214712   4.136   0.477   1.662
 4605SOL     OW14713   4.659   0.486   4.160
 4605SOL    HW114714   4.661   0.447   4.253
 4605SOL    HW214715   4.690   0.417   4.095
 4606SOL     OW14716   0.245   6.672   3.494
 4606SOL    HW114717   0.316   6.605   3.517
 4606SOL    HW214718   0.287   6.753   3.455
 4607SOL     OW14719   2.585   2.451   1.351
 4607SOL    HW114720   2.659   2.505   1.389
 4607SOL    HW214721   2.574   2.367   1.405
 4608SOL     OW14722   1.692   5.079   5.174
 4608SOL    HW114723   1.598   5.043   5.178
 4608SOL    HW214724   1.692   5.176   5.199
 4609SOL     OW14725   4.065   5.570   6.354
 4609SOL    HW114726   4.104   5.655   6.390
 4609SOL    HW214727   3.982   5.547   6.404
 4610SOL     OW14728   6.583   2.346   0.586
 4610SOL    HW114729   6.503   2.382   0.536
 4610SOL    HW214730   6.658   2.331   0.522
 4611SOL     OW14731   6.486   4.028   6.999
 4611SOL    HW114732   6.467   4.062   0.068
 4611SOL    HW214733   6.489   3.928   7.001
 4612SOL     OW14734   2.090   6.006   6.489
 4612SOL    HW114735   2.058   6.086   6.438
 4612SOL    HW214736   2.162   6.033   6.552
 4613SOL     OW14737   2.483   5.345   2.924
 4613SOL    HW114738   2.496   5.444   2.930
 4613SOL    HW214739   2.572   5.301   2.910
 4614SOL     OW14740   1.720   5.242   6.785
 4614SOL    HW114741   1.731   5.227   6.686
 4614SOL    HW214742   1.804   5.215   6.832
 4615SOL     OW14743   1.584   1.380   0.773
 4615SOL    HW114744   1.555   1.376   0.678
 4615SOL    HW214745   1.679   1.412   0.778
 4616SOL     OW14746   6.575   0.379   6.813
 4616SOL    HW114747   6.545   0.305   6.752
 4616SOL    HW214748   6.601   0.340   6.901
 4617SOL     OW14749   0.738   2.423   2.822
 4617SOL    HW114750   0.690   2.420   2.734
 4617SOL    HW214751   0.832   2.391   2.810
 4618SOL     OW14752   1.471   2.163   5.392
 4618SOL    HW114753   1.401   2.140   5.459
 4618SOL    HW214754   1.562   2.157   5.435
 4619SOL     OW14755   4.244   0.349   3.650
 4619SOL    HW114756   4.324   0.408   3.656
 4619SOL    HW214757   4.259   0.267   3.706
 4620SOL     OW14758   3.979   4.195   0.013
 4620SOL    HW114759   4.041   4.236   6.969
 4620SOL    HW214760   4.023   4.194   0.103
 4621SOL     OW14761   6.521   1.598   5.021
 4621SOL    HW114762   6.489   1.507   5.048
 4621SOL    HW214763   6.499   1.664   5.093
 4622SOL     OW14764   1.452   2.796   1.017
 4622SOL    HW114765   1.377   2.862   1.008
 4622SOL    HW214766   1.430   2.731   1.090
 4623SOL     OW14767   0.000   5.034   1.044
 4623SOL    HW114768   0.051   5.000   1.123
 4623SOL    HW214769   6.936   4.984   1.037
 4624SOL     OW14770   4.588   0.861   3.886
 4624SOL    HW114771   4.611   0.863   3.788
 4624SOL    HW214772   4.632   0.783   3.929
 4625SOL     OW14773   1.259   4.324   6.988
 4625SOL    HW114774   1.281   4.340   0.062
 4625SOL    HW214775   1.229   4.410   6.947
 4626SOL     OW14776   6.401   4.516   1.688
 4626SOL    HW114777   6.485   4.511   1.634
 4626SOL    HW214778   6.413   4.464   1.773
 4627SOL     OW14779   3.688   6.133   5.860
 4627SOL    HW114780   3.728   6.048   5.826
 4627SOL    HW214781   3.659   6.121   5.955
 4628SOL     OW14782   6.391   4.652   2.007
 4628SOL    HW114783   6.397   4.749   2.033
 4628SOL    HW214784   6.297   4.630   1.982
 4629SOL     OW14785   1.880   4.921   6.091
 4629SOL    HW114786   1.851   4.949   5.999
 4629SOL    HW214787   1.844   4.830   6.111
 4630SOL     OW14788   2.731   5.955   3.823
 4630SOL    HW114789   2.657   5.957   3.755
 4630SOL    HW214790   2.743   5.861   3.855
 4631SOL     OW14791   2.071   6.612   3.435
 4631SOL    HW114792   2.103   6.519   3.416
 4631SOL    HW214793   2.126   6.677   3.383
 4632SOL     OW14794   4.303   5.298   3.932
 4632SOL    HW114795   4.389   5.259   3.965
 4632SOL    HW214796   4.280   5.378   3.988
 4633SOL     OW14797   6.945   2.215   5.353
 4633SOL    HW114798   6.946   2.304   5.308
 4633SOL    HW214799   6.854   2.174   5.343
 4634SOL     OW14800   2.653   4.559   0.311
 4634SOL    HW114801   2.586   4.502   0.359
 4634SOL    HW214802   2.722   4.501   0.269
 4635SOL     OW14803   5.608   3.334   2.623
 4635SOL    HW114804   5.522   3.334   2.571
 4635SOL    HW214805   5.643   3.427   2.630
 4636SOL     OW14806   2.678   5.139   6.806
 4636SOL    HW114807   2.748   5.200   6.769
 4636SOL    HW214808   2.722   5.062   6.853
 4637SOL     OW14809   1.152   0.714   0.135
 4637SOL    HW114810   1.142   0.766   0.220
 4637SOL    HW214811   1.067   0.719   0.082
 4638SOL     OW14812   3.705   3.108   6.000
 4638SOL    HW114813   3.620   3.152   5.971
 4638SOL    HW214814   3.688   3.010   6.015
 4639SOL     OW14815   0.991   4.026   6.013
 4639SOL    HW114816   1.030   3.944   6.055
 4639SOL    HW214817   0.924   4.000   5.944
 4640SOL     OW14818   4.765   4.670   3.980
 4640SOL    HW114819   4.826   4.595   4.007
 4640SOL    HW214820   4.670   4.638   3.985
 4641SOL     OW14821   2.665   5.015   4.227
 4641SOL    HW114822   2.721   4.932   4.221
 4641SOL    HW214823   2.723   5.093   4.247
 4642SOL     OW14824   6.400   5.169   4.888
 4642SOL    HW114825   6.474   5.236   4.892
 4642SOL    HW214826   6.431   5.089   4.836
 4643SOL     OW14827   4.607   2.359   0.705
 4643SOL    HW114828   4.611   2.457   0.690
 4643SOL    HW214829   4.525   2.336   0.758
 4644SOL     OW14830   1.221   5.324   4.621
 4644SOL    HW114831   1.252   5.254   4.685
 4644SOL    HW214832   1.198   5.407   4.671
 4645SOL     OW14833   2.100   6.189   4.699
 4645SOL    HW114834   2.122   6.253   4.773
 4645SOL    HW214835   2.162   6.205   4.622
 4646SOL     OW14836   2.760   0.361   2.311
 4646SOL    HW114837   2.731   0.304   2.234
 4646SOL    HW214838   2.697   0.438   2.322
 4647SOL     OW14839   0.892   6.851   3.352
 4647SOL    HW114840   0.939   6.860   3.440
 4647SOL    HW214841   0.892   6.940   3.305
 4648SOL     OW14842   3.488   6.640   2.397
 4648SOL    HW114843   3.391   6.631   2.422
 4648SOL    HW214844   3.536   6.690   2.468
 4649SOL     OW14845   4.836   1.166   5.897
 4649SOL    HW114846   4.850   1.067   5.906
 4649SOL    HW214847   4.795   1.186   5.808
 4650SOL     OW14848   3.617   6.302   2.965
 4650SOL    HW114849   3.631   6.245   3.045
 4650SOL    HW214850   3.623   6.246   2.882
 4651SOL     OW14851   0.455   2.380   1.766
 4651SOL    HW114852   0.403   2.320   1.827
 4651SOL    HW214853   0.399   2.458   1.739
 4652SOL     OW14854   0.742   0.088   3.288
 4652SOL    HW114855   0.690   0.029   3.226
 4652SOL    HW214856   0.697   0.177   3.294
 4653SOL     OW14857   6.984   6.049   0.083
 4653SOL    HW114858   0.046   6.000   0.102
 4653SOL    HW214859   6.909   6.008   0.135
 4654SOL     OW14860   0.600   0.188   0.160
 4654SOL    HW114861   0.686   0.208   0.206
 4654SOL    HW214862   0.615   0.184   0.061
 4655SOL     OW14863   0.583   5.038   2.820
 4655SOL    HW114864   0.596   5.132   2.789
 4655SOL    HW214865   0.511   4.995   2.766
 4656SOL     OW14866   1.071   0.382   3.140
 4656SOL    HW114867   1.151   0.365   3.084
 4656SOL    HW214868   1.064   0.313   3.212
 4657SOL     OW14869   5.114   0.106   1.367
 4657SOL    HW114870   5.092   0.043   1.442
 4657SOL    HW214871   5.180   0.174   1.400
 4658SOL     OW14872   4.088   0.010   2.681
 4658SOL    HW114873   4.041   0.003   2.594
 4658SOL    HW214874   4.170   0.067   2.671
 4659SOL     OW14875   1.519   3.416   5.242
 4659SOL    HW114876   1.487   3.489   5.302
 4659SOL    HW214877   1.537   3.334   5.297
 4660SOL     OW14878   1.212   2.056   5.061
 4660SOL    HW114879   1.280   2.017   5.122
 4660SOL    HW214880   1.182   2.145   5.096
 4661SOL     OW14881   3.517   3.978   4.812
 4661SOL    HW114882   3.582   4.040   4.856
 4661SOL    HW214883   3.548   3.958   4.719
 4662SOL     OW14884   5.200   0.488   5.576
 4662SOL    HW114885   5.245   0.574   5.599
 4662SOL    HW214886   5.107   0.507   5.543
 4663SOL     OW14887   0.110   2.109   2.180
 4663SOL    HW114888   0.076   2.203   2.177
 4663SOL    HW214889   0.200   2.104   2.137
 4664SOL     OW14890   2.474   2.807   6.725
 4664SOL    HW114891   2.448   2.738   6.657
 4664SOL    HW214892   2.505   2.890   6.679
 4665SOL     OW14893   4.870   0.237   6.339
 4665SOL    HW114894   4.954   0.217   6.287
 4665SOL    HW214895   4.801   0.272   6.276
 4666SOL     OW14896   2.475   1.922   0.275
 4666SOL    HW114897   2.518   2.008   0.248
 4666SOL    HW214898   2.449   1.927   0.372
 4667SOL     OW14899   0.137   4.942   6.096
 4667SOL    HW114900   0.218   4.968   6.148
 4667SOL    HW214901   0.094   5.024   6.057
 4668SOL     OW14902   0.083   1.796   4.523
 4668SOL    HW114903   0.085   1.760   4.616
 4668SOL    HW214904   0.089   1.720   4.458
 4669SOL     OW14905   2.026   6.110   0.155
 4669SOL    HW114906   1.952   6.069   0.103
 4669SOL    HW214907   1.989   6.148   0.241
 4670SOL     OW14908   3.283   1.113   4.490
 4670SOL    HW114909   3.329   1.150   4.571
 4670SOL    HW214910   3.232   1.186   4.444
 4671SOL     OW14911   6.299   2.948   1.804
 4671SOL    HW114912   6.252   2.860   1.802
 4671SOL    HW214913   6.314   2.977   1.898
 4672SOL     OW14914   2.159   3.752   5.869
 4672SOL    HW114915   2.099   3.763   5.789
 4672SOL    HW214916   2.240   3.809   5.857
 4673SOL     OW14917   3.579   0.016   1.568
 4673SOL    HW114918   3.562   0.006   1.470
 4673SOL    HW214919   3.548   0.107   1.598
 4674SOL     OW14920   5.441   6.089   5.465
 4674SOL    HW114921   5.500   6.027   5.413
 4674SOL    HW214922   5.427   6.052   5.557
 4675SOL     OW14923   1.063   3.671   0.822
 4675SOL    HW114924   1.090   3.710   0.735
 4675SOL    HW214925   1.136   3.611   0.856
 4676SOL     OW14926   1.073   5.999   3.578
 4676SOL    HW114927   1.117   5.919   3.537
 4676SOL    HW214928   1.138   6.046   3.638
 4677SOL     OW14929   1.488   1.554   1.009
 4677SOL    HW114930   1.510   1.510   0.922
 4677SOL    HW214931   1.502   1.653   1.001
 4678SOL     OW14932   1.999   3.837   2.614
 4678SOL    HW114933   1.998   3.907   2.686
 4678SOL    HW214934   1.994   3.747   2.656
 4679SOL     OW14935   5.095   6.391   1.839
 4679SOL    HW114936   5.080   6.461   1.908
 4679SOL    HW214937   5.193   6.371   1.833
 4680SOL     OW14938   3.697   1.215   1.307
 4680SOL    HW114939   3.756   1.149   1.353
 4680SOL    HW214940   3.752   1.277   1.252
 4681SOL     OW14941   4.890   4.508   0.000
 4681SOL    HW114942   4.875   4.604   6.999
 4681SOL    HW214943   4.945   4.464   6.952
 4682SOL     OW14944   4.684   3.486   6.337
 4682SOL    HW114945   4.753   3.416   6.355
 4682SOL    HW214946   4.725   3.563   6.289
 4683SOL     OW14947   5.525   4.526   2.900
 4683SOL    HW114948   5.621   4.524   2.929
 4683SOL    HW214949   5.488   4.617   2.913
 4684SOL     OW14950   4.213   5.968   6.704
 4684SOL    HW114951   4.201   5.962   6.803
 4684SOL    HW214952   4.217   6.064   6.676
 4685SOL     OW14953   1.746   3.684   6.237
 4685SOL    HW114954   1.716   3.776   6.212
 4685SOL    HW214955   1.813   3.651   6.170
 4686SOL     OW14956   3.539   6.113   0.453
 4686SOL    HW114957   3.453   6.092   0.405
 4686SOL    HW214958   3.561   6.210   0.441
 4687SOL     OW14959   3.448   1.813   3.096
 4687SOL    HW114960   3.466   1.861   3.010
 4687SOL    HW214961   3.416   1.720   3.076
 4688SOL     OW14962   5.587   2.540   5.550
 4688SOL    HW114963   5.543   2.620   5.592
 4688SOL    HW214964   5.683   2.561   5.531
 4689SOL     OW14965   5.694   0.020   1.545
 4689SOL    HW114966   5.651   0.027   1.635
 4689SOL    HW214967   5.694   0.111   1.502
 4690SOL     OW14968   1.830   1.233   0.975
 4690SOL    HW114969   1.828   1.152   0.915
 4690SOL    HW214970   1.851   1.314   0.921
 4691SOL     OW14971   4.944   4.198   0.588
 4691SOL    HW114972   4.859   4.149   0.606
 4691SOL    HW214973   4.923   4.289   0.553
 4692SOL     OW14974   6.551   4.524   2.812
 4692SOL    HW114975   6.504   4.562   2.892
 4692SOL    HW214976   6.610   4.595   2.771
 4693SOL     OW14977   1.732   1.184   4.170
 4693SOL    HW114978   1.721   1.193   4.269
 4693SOL    HW214979   1.808   1.241   4.138
 4694SOL     OW14980   2.107   1.772   0.502
 4694SOL    HW114981   2.158   1.693   0.468
 4694SOL    HW214982   2.107   1.844   0.433
 4695SOL     OW14983   1.877   5.610   0.748
 4695SOL    HW114984   1.857   5.515   0.722
 4695SOL    HW214985   1.828   5.632   0.833
 4696SOL     OW14986   0.894   4.996   5.771
 4696SOL    HW114987   0.864   4.994   5.866
 4696SOL    HW214988   0.845   5.068   5.721
 4697SOL     OW14989   0.984   3.555   1.959
 4697SOL    HW114990   1.030   3.480   2.006
 4697SOL    HW214991   1.048   3.631   1.946
 4698SOL     OW14992   4.496   0.291   3.063
 4698SOL    HW114993   4.508   0.196   3.092
 4698SOL    HW214994   4.435   0.338   3.126
 4699SOL     OW14995   0.358   0.525   2.170
 4699SOL    HW114996   0.303   0.515   2.087
 4699SOL    HW214997   0.329   0.458   2.238
 4700SOL     OW14998   6.640   1.921   2.480
 4700SOL    HW114999   6.647   1.832   2.525
 4700SOL    HW215000   6.569   1.918   2.410
 4701SOL     OW15001   3.277   1.728   2.203
 4701SOL    HW115002   3.182   1.698   2.215
 4701SOL    HW215003   3.280   1.828   2.205
 4702SOL     OW15004   4.855   4.782   0.215
 4702SOL    HW115005   4.819   4.793   0.122
 4702SOL    HW215006   4.887   4.870   0.249
 4703SOL     OW15007   1.341   5.561   2.455
 4703SOL    HW115008   1.271   5.626   2.485
 4703SOL    HW215009   1.372   5.588   2.363
 4704SOL     OW15010   0.443   6.202   5.845
 4704SOL    HW115011   0.364   6.263   5.846
 4704SOL    HW215012   0.412   6.108   5.835
 4705SOL     OW15013   3.162   2.977   1.043
 4705SOL    HW115014   3.240   3.011   0.992
 4705SOL    HW215015   3.193   2.915   1.115
 4706SOL     OW15016   1.288   6.995   0.947
 4706SOL    HW115017   1.238   0.026   1.015
 4706SOL    HW215018   1.383   0.004   0.943
 4707SOL     OW15019   1.759   6.343   1.061
 4707SOL    HW115020   1.809   6.370   1.143
 4707SOL    HW215021   1.790   6.253   1.031
 4708SOL     OW15022   1.440   1.792   4.958
 4708SOL    HW115023   1.388   1.758   4.880
 4708SOL    HW215024   1.390   1.772   5.042
 4709SOL     OW15025   4.948   5.198   5.033
 4709SOL    HW115026   4.935   5.269   5.102
 4709SOL    HW215027   5.041   5.201   4.998
 4710SOL     OW15028   5.761   6.809   4.245
 4710SOL    HW115029   5.793   6.717   4.224
 4710SOL    HW215030   5.666   6.819   4.214
 4711SOL     OW15031   6.273   2.824   3.199
 4711SOL    HW115032   6.339   2.794   3.268
 4711SOL    HW215033   6.240   2.916   3.222
 4712SOL     OW15034   4.606   4.119   6.064
 4712SOL    HW115035   4.679   4.071   6.016
 4712SOL    HW215036   4.625   4.218   6.064
 4713SOL     OW15037   5.078   5.141   1.139
 4713SOL    HW115038   5.083   5.147   1.040
 4713SOL    HW215039   5.052   5.230   1.176
 4714SOL     OW15040   6.682   1.905   6.466
 4714SOL    HW115041   6.710   1.810   6.450
 4714SOL    HW215042   6.608   1.907   6.534
 4715SOL     OW15043   6.361   1.841   1.510
 4715SOL    HW115044   6.376   1.807   1.417
 4715SOL    HW215045   6.271   1.884   1.515
 4716SOL     OW15046   4.154   5.230   5.392
 4716SOL    HW115047   4.175   5.161   5.323
 4716SOL    HW215048   4.237   5.253   5.443
 4717SOL     OW15049   2.263   5.920   6.169
 4717SOL    HW115050   2.216   5.877   6.246
 4717SOL    HW215051   2.358   5.887   6.165
 4718SOL     OW15052   5.028   2.706   1.237
 4718SOL    HW115053   5.106   2.744   1.287
 4718SOL    HW215054   5.057   2.682   1.144
 4719SOL     OW15055   5.914   3.408   3.363
 4719SOL    HW115056   5.839   3.349   3.336
 4719SOL    HW215057   6.001   3.369   3.332
 4720SOL     OW15058   3.071   4.923   6.943
 4720SOL    HW115059   3.057   4.851   7.011
 4720SOL    HW215060   3.116   4.884   6.863
 4721SOL     OW15061   6.040   3.230   1.488
 4721SOL    HW115062   5.958   3.259   1.439
 4721SOL    HW215063   6.045   3.130   1.487
 4722SOL     OW15064   1.120   4.815   0.298
 4722SOL    HW115065   1.139   4.717   0.301
 4722SOL    HW215066   1.058   4.835   0.222
 4723SOL     OW15067   3.244   4.220   5.297
 4723SOL    HW115068   3.163   4.278   5.312
 4723SOL    HW215069   3.258   4.207   5.199
 4724SOL     OW15070   7.017   6.380   3.781
 4724SOL    HW115071   7.004   6.318   3.858
 4724SOL    HW215072   0.078   6.433   3.794
 4725SOL     OW15073   5.870   5.040   0.488
 4725SOL    HW115074   5.924   4.958   0.509
 4725SOL    HW215075   5.873   5.102   0.565
 4726SOL     OW15076   1.847   2.601   5.612
 4726SOL    HW115077   1.885   2.568   5.699
 4726SOL    HW215078   1.918   2.596   5.541
 4727SOL     OW15079   0.873   5.629   0.446
 4727SOL    HW115080   0.917   5.587   0.367
 4727SOL    HW215081   0.841   5.557   0.508
 4728SOL     OW15082   6.007   1.427   2.812
 4728SOL    HW115083   6.001   1.331   2.838
 4728SOL    HW215084   5.944   1.445   2.736
 4729SOL     OW15085   4.767   0.391   6.978
 4729SOL    HW115086   4.750   0.452   6.901
 4729SOL    HW215087   4.860   0.354   6.972
 4730SOL     OW15088   3.804   6.664   4.785
 4730SOL    HW115089   3.897   6.649   4.752
 4730SOL    HW215090   3.780   6.591   4.849
 4731SOL     OW15091   3.057   0.736   0.688
 4731SOL    HW115092   3.035   0.827   0.653
 4731SOL    HW215093   3.051   0.670   0.613
 4732SOL     OW15094   0.844   3.317   5.274
 4732SOL    HW115095   0.849   3.267   5.360
 4732SOL    HW215096   0.838   3.415   5.292
 4733SOL     OW15097   1.785   4.369   3.117
 4733SOL    HW115098   1.721   4.302   3.079
 4733SOL    HW215099   1.837   4.327   3.191
 4734SOL     OW15100   5.197   3.251   6.471
 4734SOL    HW115101   5.198   3.158   6.509
 4734SOL    HW215102   5.209   3.246   6.372
 4735SOL     OW15103   0.367   6.251   3.696
 4735SOL    HW115104   0.346   6.329   3.756
 4735SOL    HW215105   0.444   6.200   3.734
 4736SOL     OW15106   6.224   2.124   3.955
 4736SOL    HW115107   6.235   2.049   4.020
 4736SOL    HW215108   6.130   2.159   3.960
 4737SOL     OW15109   1.999   4.322   0.574
 4737SOL    HW115110   1.931   4.259   0.536
 4737SOL    HW215111   2.028   4.289   0.664
 4738SOL     OW15112   3.256   6.858   3.698
 4738SOL    HW115113   3.355   6.857   3.680
 4738SOL    HW215114   3.225   6.764   3.714
 4739SOL     OW15115   6.555   2.430   4.557
 4739SOL    HW115116   6.509   2.519   4.563
 4739SOL    HW215117   6.620   2.431   4.481
 4740SOL     OW15118   0.716   0.777   1.424
 4740SOL    HW115119   0.780   0.705   1.399
 4740SOL    HW215120   0.765   0.864   1.433
 4741SOL     OW15121   4.588   4.688   1.088
 4741SOL    HW115122   4.589   4.627   1.009
 4741SOL    HW215123   4.541   4.644   1.164
 4742SOL     OW15124   2.793   5.378   1.458
 4742SOL    HW115125   2.813   5.280   1.459
 4742SOL    HW215126   2.813   5.417   1.548
 4743SOL     OW15127   2.486   1.321   5.614
 4743SOL    HW115128   2.391   1.314   5.643
 4743SOL    HW215129   2.491   1.349   5.519
 4744SOL     OW15130   2.026   2.538   5.411
 4744SOL    HW115131   2.123   2.537   5.437
 4744SOL    HW215132   2.018   2.570   5.317
 4745SOL     OW15133   3.247   5.073   5.941
 4745SOL    HW115134   3.311   4.999   5.963
 4745SOL    HW215135   3.205   5.107   6.026
 4746SOL     OW15136   5.890   5.659   0.458
 4746SOL    HW115137   5.818   5.634   0.523
 4746SOL    HW215138   5.967   5.596   0.467
 4747SOL     OW15139   0.205   2.998   6.837
 4747SOL    HW115140   0.237   2.904   6.845
 4747SOL    HW215141   0.106   2.999   6.829
 4748SOL     OW15142   1.108   0.242   1.906
 4748SOL    HW115143   1.120   0.341   1.904
 4748SOL    HW215144   1.160   0.200   1.832
 4749SOL     OW15145   2.770   6.762   6.668
 4749SOL    HW115146   2.729   6.804   6.749
 4749SOL    HW215147   2.710   6.776   6.589
 4750SOL     OW15148   6.854   1.433   4.176
 4750SOL    HW115149   6.912   1.501   4.131
 4750SOL    HW215150   6.805   1.381   4.106
 4751SOL     OW15151   2.098   3.856   0.024
 4751SOL    HW115152   2.133   3.870   6.954
 4751SOL    HW215153   2.080   3.945   0.066
 4752SOL     OW15154   2.703   6.079   1.160
 4752SOL    HW115155   2.712   6.018   1.082
 4752SOL    HW215156   2.736   6.170   1.136
 4753SOL     OW15157   5.762   0.247   4.670
 4753SOL    HW115158   5.841   0.202   4.712
 4753SOL    HW215159   5.753   0.217   4.575
 4754SOL     OW15160   6.153   1.014   6.276
 4754SOL    HW115161   6.104   1.098   6.252
 4754SOL    HW215162   6.195   0.975   6.194
 4755SOL     OW15163   2.739   0.609   6.180
 4755SOL    HW115164   2.689   0.661   6.111
 4755SOL    HW215165   2.675   0.557   6.235
 4756SOL     OW15166   5.571   2.421   2.001
 4756SOL    HW115167   5.607   2.400   1.910
 4756SOL    HW215168   5.562   2.336   2.053
 4757SOL     OW15169   2.336   2.322   2.244
 4757SOL    HW115170   2.426   2.278   2.245
 4757SOL    HW215171   2.275   2.273   2.182
 4758SOL     OW15172   4.193   6.190   5.351
 4758SOL    HW115173   4.174   6.246   5.431
 4758SOL    HW215174   4.128   6.212   5.279
 4759SOL     OW15175   5.257   5.688   5.069
 4759SOL    HW115176   5.160   5.703   5.049
 4759SOL    HW215177   5.300   5.775   5.091
 4760SOL     OW15178   2.558   1.498   1.383
 4760SOL    HW115179   2.476   1.441   1.387
 4760SOL    HW215180   2.557   1.564   1.458
 4761SOL     OW15181   6.328   0.203   6.254
 4761SOL    HW115182   6.341   0.284   6.311
 4761SOL    HW215183   6.395   0.203   6.180
 4762SOL     OW15184   2.298   4.337   2.587
 4762SOL    HW115185   2.320   4.405   2.657
 4762SOL    HW215186   2.310   4.378   2.496
 4763SOL     OW15187   6.178   6.002   3.110
 4763SOL    HW115188   6.274   5.976   3.121
 4763SOL    HW215189   6.173   6.098   3.080
 4764SOL     OW15190   4.550   3.785   5.325
 4764SOL    HW115191   4.601   3.739   5.253
 4764SOL    HW215192   4.559   3.884   5.315
 4765SOL     OW15193   4.942   6.806   4.896
 4765SOL    HW115194   5.027   6.786   4.944
 4765SOL    HW215195   4.892   6.877   4.945
 4766SOL     OW15196   3.252   0.554   3.447
 4766SOL    HW115197   3.201   0.534   3.364
 4766SOL    HW215198   3.264   0.469   3.500
 4767SOL     OW15199   4.189   6.505   1.229
 4767SOL    HW115200   4.275   6.456   1.244
 4767SOL    HW215201   4.162   6.494   1.133
 4768SOL     OW15202   5.347   1.902   4.782
 4768SOL    HW115203   5.271   1.965   4.796
 4768SOL    HW215204   5.358   1.844   4.863
 4769SOL     OW15205   3.795   5.644   1.666
 4769SOL    HW115206   3.699   5.658   1.690
 4769SOL    HW215207   3.827   5.721   1.611
 4770SOL     OW15208   2.082   0.246   2.906
 4770SOL    HW115209   2.102   0.284   2.997
 4770SOL    HW215210   2.075   0.147   2.912
 4771SOL     OW15211   3.398   4.616   5.603
 4771SOL    HW115212   3.496   4.625   5.622
 4771SOL    HW215213   3.365   4.701   5.562
 4772SOL     OW15214   2.593   6.742   1.213
 4772SOL    HW115215   2.557   6.680   1.143
 4772SOL    HW215216   2.549   6.831   1.203
 4773SOL     OW15217   0.491   5.534   4.404
 4773SOL    HW115218   0.496   5.632   4.381
 4773SOL    HW215219   0.430   5.488   4.340
 4774SOL     OW15220   0.800   3.007   2.151
 4774SOL    HW115221   0.745   2.924   2.152
 4774SOL    HW215222   0.813   3.040   2.245
 4775SOL     OW15223   5.567   0.404   3.402
 4775SOL    HW115224   5.515   0.330   3.444
 4775SOL    HW215225   5.616   0.370   3.322
 4776SOL     OW15226   2.422   6.780   2.954
 4776SOL    HW115227   2.426   6.880   2.944
 4776SOL    HW215228   2.327   6.750   2.941
 4777SOL     OW15229   2.527   4.130   1.452
 4777SOL    HW115230   2.441   4.111   1.404
 4777SOL    HW215231   2.530   4.227   1.478
 4778SOL     OW15232   5.344   2.665   1.752
 4778SOL    HW115233   5.314   2.570   1.761
 4778SOL    HW215234   5.437   2.674   1.787
 4779SOL     OW15235   6.365   0.052   2.530
 4779SOL    HW115236   6.460   0.074   2.550
 4779SOL    HW215237   6.344   0.079   2.436
 4780SOL     OW15238   0.294   0.731   6.040
 4780SOL    HW115239   0.374   0.679   6.007
 4780SOL    HW215240   0.308   0.828   6.022
 4781SOL     OW15241   2.787   5.820   1.603
 4781SOL    HW115242   2.836   5.873   1.673
 4781SOL    HW215243   2.809   5.857   1.513
 4782SOL     OW15244   4.698   7.004   6.890
 4782SOL    HW115245   4.710   6.987   6.792
 4782SOL    HW215246   4.668   0.076   6.903
 4783SOL     OW15247   4.456   4.553   0.373
 4783SOL    HW115248   4.536   4.613   0.361
 4783SOL    HW215249   4.460   4.511   0.464
 4784SOL     OW15250   6.271   5.264   5.919
 4784SOL    HW115251   6.173   5.244   5.915
 4784SOL    HW215252   6.321   5.178   5.932
 4785SOL     OW15253   6.552   6.417   0.978
 4785SOL    HW115254   6.560   6.360   1.060
 4785SOL    HW215255   6.643   6.431   0.938
 4786SOL     OW15256   1.778   2.257   2.652
 4786SOL    HW115257   1.843   2.234   2.580
 4786SOL    HW215258   1.819   2.237   2.741
 4787SOL     OW15259   3.539   2.080   3.730
 4787SOL    HW115260   3.636   2.096   3.712
 4787SOL    HW215261   3.484   2.125   3.659
 4788SOL     OW15262   1.329   5.809   5.886
 4788SOL    HW115263   1.302   5.722   5.846
 4788SOL    HW215264   1.401   5.851   5.831
 4789SOL     OW15265   5.164   0.688   7.022
 4789SOL    HW115266   5.117   0.639   6.948
 4789SOL    HW215267   5.096   0.729   0.060
 4790SOL     OW15268   5.890   3.518   6.857
 4790SOL    HW115269   5.915   3.436   6.907
 4790SOL    HW215270   5.849   3.493   6.769
 4791SOL     OW15271   5.927   1.202   1.796
 4791SOL    HW115272   5.960   1.296   1.791
 4791SOL    HW215273   5.995   1.140   1.756
 4792SOL     OW15274   2.128   2.417   2.692
 4792SOL    HW115275   2.214   2.392   2.647
 4792SOL    HW215276   2.051   2.385   2.637
 4793SOL     OW15277   1.400   1.018   5.799
 4793SOL    HW115278   1.321   1.011   5.860
 4793SOL    HW215279   1.432   0.926   5.774
 4794SOL     OW15280   3.714   0.465   2.668
 4794SOL    HW115281   3.636   0.483   2.728
 4794SOL    HW215282   3.793   0.439   2.724
 4795SOL     OW15283   6.591   2.677   4.222
 4795SOL    HW115284   6.533   2.632   4.154
 4795SOL    HW215285   6.657   2.611   4.258
 4796SOL     OW15286   4.955   2.391   0.211
 4796SOL    HW115287   5.000   2.384   0.122
 4796SOL    HW215288   4.858   2.370   0.201
 4797SOL     OW15289   1.769   5.798   5.381
 4797SOL    HW115290   1.768   5.873   5.447
 4797SOL    HW215291   1.830   5.726   5.413
 4798SOL     OW15292   0.475   4.125   5.371
 4798SOL    HW115293   0.490   4.187   5.293
 4798SOL    HW215294   0.413   4.052   5.343
 4799SOL     OW15295   5.360   1.503   5.489
 4799SOL    HW115296   5.394   1.534   5.400
 4799SOL    HW215297   5.388   1.568   5.560
 4800SOL     OW15298   3.403   3.358   5.573
 4800SOL    HW115299   3.305   3.379   5.574
 4800SOL    HW215300   3.434   3.335   5.665
 4801SOL     OW15301   2.373   2.282   0.607
 4801SOL    HW115302   2.396   2.247   0.516
 4801SOL    HW215303   2.428   2.235   0.676
 4802SOL     OW15304   1.224   6.498   2.088
 4802SOL    HW115305   1.145   6.557   2.107
 4802SOL    HW215306   1.201   6.404   2.110
 4803SOL     OW15307   0.852   6.607   0.744
 4803SOL    HW115308   0.860   6.585   0.841
 4803SOL    HW215309   0.928   6.565   0.694
 4804SOL     OW15310   4.298   5.260   6.736
 4804SOL    HW115311   4.207   5.238   6.702
 4804SOL    HW215312   4.364   5.194   6.701
 4805SOL     OW15313   6.682   6.932   0.603
 4805SOL    HW115314   6.702   6.879   0.520
 4805SOL    HW215315   6.623   6.878   0.663
 4806SOL     OW15316   6.823   3.723   3.907
 4806SOL    HW115317   6.876   3.657   3.960
 4806SOL    HW215318   6.875   3.752   3.827
 4807SOL     OW15319   1.153   5.548   1.094
 4807SOL    HW115320   1.209   5.489   1.036
 4807SOL    HW215321   1.207   5.625   1.125
 4808SOL     OW15322   5.697   3.607   0.718
 4808SOL    HW115323   5.779   3.664   0.717
 4808SOL    HW215324   5.617   3.663   0.694
 4809SOL     OW15325   3.565   4.082   0.008
 4809SOL    HW115326   3.597   4.064   6.937
 4809SOL    HW215327   3.599   4.171   0.038
 4810SOL     OW15328   1.499   4.986   1.321
 4810SOL    HW115329   1.573   4.931   1.358
 4810SOL    HW215330   1.417   4.930   1.310
 4811SOL     OW15331   2.603   4.957   2.320
 4811SOL    HW115332   2.508   4.982   2.299
 4811SOL    HW215333   2.633   5.005   2.402
 4812SOL     OW15334   6.832   4.921   5.463
 4812SOL    HW115335   6.823   4.840   5.522
 4812SOL    HW215336   6.784   4.998   5.505
 4813SOL     OW15337   4.632   1.137   2.525
 4813SOL    HW115338   4.556   1.090   2.479
 4813SOL    HW215339   4.659   1.217   2.471
 4814SOL     OW15340   6.087   4.965   0.249
 4814SOL    HW115341   6.162   5.029   0.236
 4814SOL    HW215342   6.087   4.933   0.344
 4815SOL     OW15343   5.075   5.308   2.624
 4815SOL    HW115344   5.002   5.241   2.620
 4815SOL    HW215345   5.163   5.261   2.631
 4816SOL     OW15346   5.518   5.372   3.484
 4816SOL    HW115347   5.562   5.373   3.394
 4816SOL    HW215348   5.428   5.329   3.477
 4817SOL     OW15349   0.785   2.021   6.344
 4817SOL    HW115350   0.694   1.982   6.360
 4817SOL    HW215351   0.818   2.066   6.427
 4818SOL     OW15352   0.850   0.078   3.776
 4818SOL    HW115353   0.753   0.074   3.752
 4818SOL    HW215354   0.900   0.126   3.704
 4819SOL     OW15355   1.255   3.207   0.156
 4819SOL    HW115356   1.202   3.126   0.131
 4819SOL    HW215357   1.325   3.223   0.087
 4820SOL     OW15358   6.933   2.840   2.048
 4820SOL    HW115359   6.938   2.910   1.976
 4820SOL    HW215360   6.837   2.814   2.062
 4821SOL     OW15361   0.770   5.937   1.861
 4821SOL    HW115362   0.762   5.996   1.942
 4821SOL    HW215363   0.830   5.980   1.794
 4822SOL     OW15364   1.653   4.201   3.970
 4822SOL    HW115365   1.650   4.218   3.872
 4822SOL    HW215366   1.737   4.151   3.993
 4823SOL     OW15367   1.228   1.960   2.538
 4823SOL    HW115368   1.138   1.980   2.577
 4823SOL    HW215369   1.298   1.967   2.608
 4824SOL     OW15370   4.916   1.493   5.204
 4824SOL    HW115371   4.822   1.513   5.231
 4824SOL    HW215372   4.975   1.493   5.285
 4825SOL     OW15373   0.893   1.018   4.143
 4825SOL    HW115374   0.988   0.995   4.161
 4825SOL    HW215375   0.851   1.055   4.226
 4826SOL     OW15376   4.989   0.587   0.799
 4826SOL    HW115377   4.916   0.653   0.820
 4826SOL    HW215378   5.006   0.587   0.700
 4827SOL     OW15379   6.469   1.463   0.087
 4827SOL    HW115380   6.524   1.478   0.169
 4827SOL    HW215381   6.444   1.551   0.046
 4828SOL     OW15382   4.402   0.201   1.909
 4828SOL    HW115383   4.396   0.187   1.810
 4828SOL    HW215384   4.323   0.254   1.940
 4829SOL     OW15385   3.685   6.692   6.564
 4829SOL    HW115386   3.707   6.628   6.491
 4829SOL    HW215387   3.740   6.672   6.645
 4830SOL     OW15388   3.803   5.810   3.544
 4830SOL    HW115389   3.899   5.787   3.559
 4830SOL    HW215390   3.752   5.727   3.521
 4831SOL     OW15391   3.093   5.710   6.034
 4831SOL    HW115392   3.086   5.752   5.944
 4831SOL    HW215393   3.190   5.706   6.061
 4832SOL     OW15394   3.408   3.435   4.454
 4832SOL    HW115395   3.417   3.512   4.391
 4832SOL    HW215396   3.440   3.352   4.409
 4833SOL     OW15397   5.564   2.155   3.935
 4833SOL    HW115398   5.485   2.201   3.893
 4833SOL    HW215399   5.616   2.108   3.865
 4834SOL     OW15400   2.755   5.563   2.935
 4834SOL    HW115401   2.688   5.532   3.002
 4834SOL    HW215402   2.847   5.540   2.967
 4835SOL     OW15403   6.301   3.984   5.947
 4835SOL    HW115404   6.349   3.957   5.864
 4835SOL    HW215405   6.217   3.931   5.956
 4836SOL     OW15406   4.690   1.216   5.236
 4836SOL    HW115407   4.721   1.165   5.316
 4836SOL    HW215408   4.759   1.283   5.210
 4837SOL     OW15409   6.346   3.004   3.458
 4837SOL    HW115410   6.410   2.933   3.428
 4837SOL    HW215411   6.397   3.078   3.501
 4838SOL     OW15412   1.362   5.090   5.927
 4838SOL    HW115413   1.277   5.049   5.894
 4838SOL    HW215414   1.350   5.119   6.022
 4839SOL     OW15415   1.366   2.431   6.673
 4839SOL    HW115416   1.419   2.408   6.754
 4839SOL    HW215417   1.268   2.419   6.693
 4840SOL     OW15418   5.427   4.177   5.390
 4840SOL    HW115419   5.446   4.105   5.323
 4840SOL    HW215420   5.331   4.203   5.385
 4841SOL     OW15421   3.105   5.171   3.667
 4841SOL    HW115422   3.069   5.195   3.758
 4841SOL    HW215423   3.122   5.073   3.663
 4842SOL     OW15424   2.420   5.171   3.446
 4842SOL    HW115425   2.418   5.115   3.363
 4842SOL    HW215426   2.471   5.122   3.517
 4843SOL     OW15427   0.165   3.170   2.392
 4843SOL    HW115428   0.220   3.237   2.343
 4843SOL    HW215429   0.191   3.169   2.489
 4844SOL     OW15430   1.077   4.382   5.186
 4844SOL    HW115431   1.069   4.406   5.090
 4844SOL    HW215432   1.128   4.453   5.234
 4845SOL     OW15433   4.572   4.508   5.150
 4845SOL    HW115434   4.570   4.441   5.224
 4845SOL    HW215435   4.498   4.489   5.085
 4846SOL     OW15436   0.517   2.231   4.089
 4846SOL    HW115437   0.514   2.198   3.994
 4846SOL    HW215438   0.608   2.266   4.109
 4847SOL     OW15439   2.558   0.070   5.359
 4847SOL    HW115440   2.639   0.107   5.315
 4847SOL    HW215441   2.571   6.994   5.375
 4848SOL     OW15442   1.873   1.076   3.828
 4848SOL    HW115443   1.907   0.985   3.806
 4848SOL    HW215444   1.938   1.145   3.797
 4849SOL     OW15445   1.554   0.382   0.392
 4849SOL    HW115446   1.544   0.344   0.484
 4849SOL    HW215447   1.531   0.479   0.393
 4850SOL     OW15448   4.600   0.662   1.427
 4850SOL    HW115449   4.556   0.572   1.418
 4850SOL    HW215450   4.668   0.674   1.355
 4851SOL     OW15451   3.545   5.707   0.361
 4851SOL    HW115452   3.500   5.619   0.368
 4851SOL    HW215453   3.552   5.734   0.265
 4852SOL     OW15454   3.492   5.881   5.102
 4852SOL    HW115455   3.580   5.906   5.061
 4852SOL    HW215456   3.495   5.895   5.201
 4853SOL     OW15457   3.389   0.780   2.745
 4853SOL    HW115458   3.480   0.807   2.712
 4853SOL    HW215459   3.322   0.792   2.671
 4854SOL     OW15460   5.446   6.677   1.820
 4854SOL    HW115461   5.532   6.663   1.771
 4854SOL    HW215462   5.407   6.589   1.847
 4855SOL     OW15463   0.304   3.952   4.993
 4855SOL    HW115464   0.285   3.982   4.900
 4855SOL    HW215465   0.390   3.900   4.995
 4856SOL     OW15466   0.523   3.602   2.934
 4856SOL    HW115467   0.604   3.625   2.880
 4856SOL    HW215468   0.490   3.512   2.907
 4857SOL     OW15469   2.894   2.181   4.399
 4857SOL    HW115470   2.981   2.176   4.349
 4857SOL    HW215471   2.852   2.270   4.383
 4858SOL     OW15472   0.335   6.983   4.848
 4858SOL    HW115473   0.283   0.044   4.862
 4858SOL    HW215474   0.342   6.933   4.935
 4859SOL     OW15475   0.909   5.496   2.197
 4859SOL    HW115476   0.881   5.567   2.262
 4859SOL    HW215477   0.829   5.440   2.174
 4860SOL     OW15478   4.601   5.539   0.334
 4860SOL    HW115479   4.577   5.629   0.296
 4860SOL    HW215480   4.697   5.537   0.358
 4861SOL     OW15481   6.523   4.680   5.643
 4861SOL    HW115482   6.489   4.694   5.737
 4861SOL    HW215483   6.621   4.661   5.645
 4862SOL     OW15484   2.718   4.884   5.016
 4862SOL    HW115485   2.753   4.792   5.033
 4862SOL    HW215486   2.717   4.936   5.101
 4863SOL     OW15487   4.887   3.082   2.917
 4863SOL    HW115488   4.977   3.064   2.876
 4863SOL    HW215489   4.884   3.176   2.950
 4864SOL     OW15490   3.344   1.535   2.039
 4864SOL    HW115491   3.257   1.492   2.019
 4864SOL    HW215492   3.329   1.617   2.094
 4865SOL     OW15493   3.333   5.135   5.654
 4865SOL    HW115494   3.343   5.054   5.595
 4865SOL    HW215495   3.336   5.106   5.750
 4866SOL     OW15496   6.263   4.914   1.845
 4866SOL    HW115497   6.207   4.838   1.880
 4866SOL    HW215498   6.323   4.946   1.918
 4867SOL     OW15499   5.035   5.464   2.865
 4867SOL    HW115500   4.958   5.526   2.881
 4867SOL    HW215501   5.009   5.396   2.796
 4868SOL     OW15502   0.697   5.648   1.236
 4868SOL    HW115503   0.794   5.630   1.256
 4868SOL    HW215504   0.690   5.703   1.153
 4869SOL     OW15505   0.075   1.917   0.114
 4869SOL    HW115506   0.095   2.014   0.102
 4869SOL    HW215507   0.143   1.876   0.174
 4870SOL     OW15508   4.261   6.169   2.098
 4870SOL    HW115509   4.313   6.087   2.073
 4870SOL    HW215510   4.290   6.245   2.040
 4871SOL     OW15511   1.420   1.860   3.274
 4871SOL    HW115512   1.393   1.840   3.180
 4871SOL    HW215513   1.376   1.796   3.336
 4872SOL     OW15514   1.124   0.482   2.722
 4872SOL    HW115515   1.074   0.549   2.777
 4872SOL    HW215516   1.161   0.411   2.782
 4873SOL     OW15517   0.262   5.225   4.885
 4873SOL    HW115518   0.226   5.250   4.795
 4873SOL    HW215519   0.186   5.201   4.946
 4874SOL     OW15520   5.151   3.692   3.012
 4874SOL    HW115521   5.104   3.640   2.941
 4874SOL    HW215522   5.244   3.714   2.981
 4875SOL     OW15523   5.920   1.355   1.308
 4875SOL    HW115524   6.003   1.332   1.359
 4875SOL    HW215525   5.852   1.394   1.370
 4876SOL     OW15526   5.872   0.629   6.156
 4876SOL    HW115527   5.905   0.682   6.234
 4876SOL    HW215528   5.790   0.672   6.117
 4877SOL     OW15529   6.200   1.794   0.622
 4877SOL    HW115530   6.238   1.774   0.713
 4877SOL    HW215531   6.272   1.834   0.565
 4878SOL     OW15532   0.322   1.695   2.032
 4878SOL    HW115533   0.224   1.699   2.050
 4878SOL    HW215534   0.353   1.600   2.038
 4879SOL     OW15535   4.122   4.687   3.491
 4879SOL    HW115536   4.177   4.678   3.408
 4879SOL    HW215537   4.181   4.678   3.571
 4880SOL     OW15538   5.839   0.878   0.009
 4880SOL    HW115539   5.936   0.887   0.028
 4880SOL    HW215540   5.804   0.964   6.994
 4881SOL     OW15541   2.830   6.393   6.061
 4881SOL    HW115542   2.876   6.321   6.009
 4881SOL    HW215543   2.875   6.404   6.149
 4882SOL     OW15544   5.906   1.498   5.491
 4882SOL    HW115545   5.949   1.578   5.452
 4882SOL    HW215546   5.897   1.426   5.422
 4883SOL     OW15547   6.275   4.313   2.308
 4883SOL    HW115548   6.207   4.380   2.279
 4883SOL    HW215549   6.251   4.224   2.269
 4884SOL     OW15550   3.938   6.747   1.516
 4884SOL    HW115551   4.018   6.689   1.504
 4884SOL    HW215552   3.967   6.841   1.534
 4885SOL     OW15553   2.082   6.533   1.096
 4885SOL    HW115554   2.064   6.629   1.120
 4885SOL    HW215555   2.106   6.483   1.178
 4886SOL     OW15556   6.565   6.907   6.786
 4886SOL    HW115557   6.611   6.970   6.849
 4886SOL    HW215558   6.480   6.875   6.828
 4887SOL     OW15559   6.636   2.241   3.612
 4887SOL    HW115560   6.702   2.167   3.604
 4887SOL    HW215561   6.592   2.237   3.701
 4888SOL     OW15562   1.697   6.048   2.911
 4888SOL    HW115563   1.744   6.128   2.872
 4888SOL    HW215564   1.608   6.076   2.947
 4889SOL     OW15565   1.241   2.157   0.196
 4889SOL    HW115566   1.319   2.219   0.199
 4889SOL    HW215567   1.270   2.066   0.225
 4890SOL     OW15568   0.445   1.059   4.089
 4890SOL    HW115569   0.484   1.152   4.089
 4890SOL    HW215570   0.519   0.992   4.095
 4891SOL     OW15571   1.060   4.850   0.597
 4891SOL    HW115572   1.083   4.821   0.504
 4891SOL    HW215573   1.112   4.932   0.621
 4892SOL     OW15574   1.434   5.745   1.738
 4892SOL    HW115575   1.517   5.698   1.769
 4892SOL    HW215576   1.365   5.677   1.713
 4893SOL     OW15577   6.712   4.098   6.579
 4893SOL    HW115578   6.748   4.024   6.523
 4893SOL    HW215579   6.615   4.111   6.560
 4894SOL     OW15580   1.591   0.413   3.450
 4894SOL    HW115581   1.619   0.497   3.405
 4894SOL    HW215582   1.616   0.334   3.393
 4895SOL     OW15583   0.719   3.677   0.469
 4895SOL    HW115584   0.777   3.653   0.391
 4895SOL    HW215585   0.697   3.775   0.465
 4896SOL     OW15586   3.305   5.150   4.511
 4896SOL    HW115587   3.318   5.056   4.479
 4896SOL    HW215588   3.394   5.197   4.516
 4897SOL     OW15589   3.459   5.589   6.525
 4897SOL    HW115590   3.379   5.530   6.541
 4897SOL    HW215591   3.487   5.581   6.429
 4898SOL     OW15592   5.424   2.199   5.329
 4898SOL    HW115593   5.457   2.122   5.385
 4898SOL    HW215594   5.497   2.266   5.318
 4899SOL     OW15595   6.068   4.684   3.131
 4899SOL    HW115596   6.156   4.728   3.142
 4899SOL    HW215597   5.995   4.750   3.150
 4900SOL     OW15598   0.428   6.405   5.405
 4900SOL    HW115599   0.481   6.408   5.490
 4900SOL    HW215600   0.458   6.479   5.344
 4901SOL     OW15601   1.210   0.097   4.288
 4901SOL    HW115602   1.136   0.044   4.329
 4901SOL    HW215603   1.191   0.195   4.301
 4902SOL     OW15604   2.126   4.537   1.766
 4902SOL    HW115605   2.107   4.545   1.864
 4902SOL    HW215606   2.216   4.496   1.752
 4903SOL     OW15607   3.817   6.605   6.783
 4903SOL    HW115608   3.823   6.505   6.775
 4903SOL    HW215609   3.779   6.628   6.873
 4904SOL     OW15610   1.598   5.674   4.448
 4904SOL    HW115611   1.511   5.625   4.440
 4904SOL    HW215612   1.587   5.750   4.512
 4905SOL     OW15613   4.958   2.657   2.219
 4905SOL    HW115614   5.047   2.615   2.237
 4905SOL    HW215615   4.943   2.732   2.284
 4906SOL     OW15616   4.574   0.120   0.434
 4906SOL    HW115617   4.543   0.081   0.520
 4906SOL    HW215618   4.497   0.124   0.370
 4907SOL     OW15619   4.047   6.873   3.921
 4907SOL    HW115620   4.113   6.841   3.852
 4907SOL    HW215621   4.059   6.819   4.005
 4908SOL     OW15622   3.687   5.724   6.640
 4908SOL    HW115623   3.686   5.725   6.740
 4908SOL    HW215624   3.603   5.684   6.606
 4909SOL     OW15625   6.110   6.866   5.464
 4909SOL    HW115626   6.203   6.833   5.479
 4909SOL    HW215627   6.045   6.798   5.496
 4910SOL     OW15628   5.365   0.852   5.320
 4910SOL    HW115629   5.321   0.915   5.257
 4910SOL    HW215630   5.464   0.870   5.324
 4911SOL     OW15631   0.301   2.326   6.093
 4911SOL    HW115632   0.273   2.334   6.189
 4911SOL    HW215633   0.309   2.418   6.053
 4912SOL     OW15634   3.782   1.784   2.624
 4912SOL    HW115635   3.791   1.866   2.567
 4912SOL    HW215636   3.837   1.711   2.585
 4913SOL     OW15637   3.491   4.146   3.627
 4913SOL    HW115638   3.470   4.154   3.529
 4913SOL    HW215639   3.499   4.237   3.667
 4914SOL     OW15640   2.983   0.144   3.956
 4914SOL    HW115641   3.073   0.172   3.990
 4914SOL    HW215642   2.924   0.121   4.034
 4915SOL     OW15643   4.369   6.579   4.543
 4915SOL    HW115644   4.367   6.669   4.586
 4915SOL    HW215645   4.380   6.590   4.444
 4916SOL     OW15646   3.064   2.141   3.389
 4916SOL    HW115647   2.987   2.192   3.350
 4916SOL    HW215648   3.124   2.109   3.315
 4917SOL     OW15649   1.571   3.857   0.853
 4917SOL    HW115650   1.498   3.920   0.879
 4917SOL    HW215651   1.634   3.845   0.930
 4918SOL     OW15652   2.567   0.574   2.381
 4918SOL    HW115653   2.608   0.653   2.427
 4918SOL    HW215654   2.479   0.601   2.342
 4919SOL     OW15655   1.645   1.776   2.761
 4919SOL    HW115656   1.658   1.677   2.748
 4919SOL    HW215657   1.591   1.812   2.686
 4920SOL     OW15658   4.413   0.840   0.307
 4920SOL    HW115659   4.411   0.845   0.207
 4920SOL    HW215660   4.321   0.825   0.342
 4921SOL     OW15661   2.413   4.278   1.879
 4921SOL    HW115662   2.348   4.297   1.952
 4921SOL    HW215663   2.364   4.263   1.793
 4922SOL     OW15664   1.588   3.226   5.425
 4922SOL    HW115665   1.579   3.154   5.494
 4922SOL    HW215666   1.684   3.250   5.413
 4923SOL     OW15667   5.280   0.166   2.070
 4923SOL    HW115668   5.280   0.192   1.973
 4923SOL    HW215669   5.307   0.245   2.125
 4924SOL     OW15670   1.552   3.898   4.153
 4924SOL    HW115671   1.484   3.956   4.197
 4924SOL    HW215672   1.638   3.900   4.204
 4925SOL     OW15673   4.723   6.901   1.076
 4925SOL    HW115674   4.778   6.921   1.157
 4925SOL    HW215675   4.727   6.978   1.013
 4926SOL     OW15676   5.795   2.631   1.825
 4926SOL    HW115677   5.728   2.700   1.853
 4926SOL    HW215678   5.747   2.555   1.781
 4927SOL     OW15679   3.524   2.853   2.570
 4927SOL    HW115680   3.604   2.901   2.532
 4927SOL    HW215681   3.542   2.829   2.665
 4928SOL     OW15682   0.807   6.839   6.539
 4928SOL    HW115683   0.749   6.906   6.492
 4928SOL    HW215684   0.754   6.795   6.612
 4929SOL     OW15685   1.581   4.609   4.808
 4929SOL    HW115686   1.551   4.619   4.903
 4929SOL    HW215687   1.517   4.655   4.747
 4930SOL     OW15688   0.923   1.889   0.460
 4930SOL    HW115689   0.917   1.949   0.380
 4930SOL    HW215690   0.838   1.839   0.471
 4931SOL     OW15691   0.639   0.162   6.887
 4931SOL    HW115692   0.563   0.138   6.827
 4931SOL    HW215693   0.694   0.233   6.843
 4932SOL     OW15694   2.835   2.543   1.457
 4932SOL    HW115695   2.913   2.600   1.432
 4932SOL    HW215696   2.816   2.552   1.555
 4933SOL     OW15697   2.364   1.453   4.393
 4933SOL    HW115698   2.425   1.474   4.317
 4933SOL    HW215699   2.300   1.529   4.407
 4934SOL     OW15700   0.316   5.079   3.980
 4934SOL    HW115701   0.218   5.083   3.999
 4934SOL    HW215702   0.336   4.998   3.925
 4935SOL     OW15703   2.275   1.174   6.660
 4935SOL    HW115704   2.263   1.212   6.752
 4935SOL    HW215705   2.356   1.215   6.618
 4936SOL     OW15706   2.961   5.591   1.623
 4936SOL    HW115707   3.049   5.639   1.626
 4936SOL    HW215708   2.890   5.655   1.592
 4937SOL     OW15709   0.526   3.827   6.309
 4937SOL    HW115710   0.614   3.866   6.337
 4937SOL    HW215711   0.464   3.901   6.282
 4938SOL     OW15712   3.116   4.334   0.955
 4938SOL    HW115713   3.093   4.323   0.858
 4938SOL    HW215714   3.037   4.373   1.003
 4939SOL     OW15715   1.623   1.629   1.766
 4939SOL    HW115716   1.570   1.566   1.710
 4939SOL    HW215717   1.565   1.666   1.839
 4940SOL     OW15718   0.025   2.773   4.666
 4940SOL    HW115719   6.970   2.711   4.657
 4940SOL    HW215720   0.038   2.796   4.762
 4941SOL     OW15721   4.052   2.589   5.371
 4941SOL    HW115722   4.106   2.603   5.454
 4941SOL    HW215723   4.113   2.563   5.295
 4942SOL     OW15724   5.572   3.087   3.608
 4942SOL    HW115725   5.659   3.132   3.591
 4942SOL    HW215726   5.500   3.155   3.619
 4943SOL     OW15727   5.785   3.431   6.645
 4943SOL    HW115728   5.802   3.495   6.570
 4943SOL    HW215729   5.689   3.403   6.643
 4944SOL     OW15730   1.644   4.819   0.655
 4944SOL    HW115731   1.604   4.865   0.576
 4944SOL    HW215732   1.574   4.766   0.702
 4945SOL     OW15733   1.877   1.139   5.133
 4945SOL    HW115734   1.971   1.156   5.161
 4945SOL    HW215735   1.866   1.163   5.036
 4946SOL     OW15736   0.985   4.074   6.940
 4946SOL    HW115737   0.950   4.148   6.999
 4946SOL    HW215738   1.070   4.103   6.897
 4947SOL     OW15739   2.519   0.839   1.734
 4947SOL    HW115740   2.461   0.779   1.678
 4947SOL    HW215741   2.477   0.851   1.824
 4948SOL     OW15742   1.868   1.823   2.033
 4948SOL    HW115743   1.803   1.892   2.002
 4948SOL    HW215744   1.956   1.837   1.987
 4949SOL     OW15745   6.828   3.703   5.957
 4949SOL    HW115746   6.793   3.781   5.904
 4949SOL    HW215747   6.927   3.714   5.971
 4950SOL     OW15748   2.593   4.462   5.581
 4950SOL    HW115749   2.538   4.450   5.498
 4950SOL    HW215750   2.538   4.510   5.650
 4951SOL     OW15751   6.029   6.516   3.769
 4951SOL    HW115752   6.015   6.590   3.836
 4951SOL    HW215753   6.058   6.433   3.817
 4952SOL     OW15754   6.731   0.444   6.336
 4952SOL    HW115755   6.803   0.381   6.308
 4952SOL    HW215756   6.644   0.395   6.343
 4953SOL     OW15757   0.941   1.762   4.792
 4953SOL    HW115758   0.919   1.739   4.886
 4953SOL    HW215759   0.942   1.678   4.737
 4954SOL     OW15760   2.347   3.945   5.709
 4954SOL    HW115761   2.376   3.871   5.648
 4954SOL    HW215762   2.406   3.947   5.789
 4955SOL     OW15763   3.126   5.387   0.146
 4955SOL    HW115764   3.037   5.347   0.168
 4955SOL    HW215765   3.129   5.412   0.049
 4956SOL     OW15766   2.724   0.427   5.263
 4956SOL    HW115767   2.781   0.394   5.338
 4956SOL    HW215768   2.670   0.505   5.295
 4957SOL     OW15769   6.457   4.314   6.749
 4957SOL    HW115770   6.390   4.387   6.734
 4957SOL    HW215771   6.420   4.227   6.714
 4958SOL     OW15772   2.444   0.114   6.035
 4958SOL    HW115773   2.398   0.109   5.946
 4958SOL    HW215774   2.438   0.207   6.071
 4959SOL     OW15775   6.850   2.309   1.436
 4959SOL    HW115776   6.946   2.305   1.462
 4959SOL    HW215777   6.805   2.384   1.485
 4960SOL     OW15778   4.229   5.061   3.665
 4960SOL    HW115779   4.260   5.152   3.691
 4960SOL    HW215780   4.309   5.001   3.652
 4961SOL     OW15781   2.803   1.247   6.689
 4961SOL    HW115782   2.851   1.272   6.773
 4961SOL    HW215783   2.774   1.151   6.693
 4962SOL     OW15784   6.542   3.383   0.861
 4962SOL    HW115785   6.626   3.330   0.871
 4962SOL    HW215786   6.486   3.373   0.944
 4963SOL     OW15787   0.672   4.584   0.763
 4963SOL    HW115788   0.750   4.602   0.703
 4963SOL    HW215789   0.588   4.583   0.708
 4964SOL     OW15790   2.937   6.767   4.611
 4964SOL    HW115791   3.019   6.807   4.652
 4964SOL    HW215792   2.920   6.810   4.522
 4965SOL     OW15793   1.280   0.162   2.774
 4965SOL    HW115794   1.286   0.089   2.842
 4965SOL    HW215795   1.282   0.123   2.682
 4966SOL     OW15796   3.258   6.349   4.515
 4966SOL    HW115797   3.281   6.353   4.613
 4966SOL    HW215798   3.200   6.270   4.498
 4967SOL     OW15799   4.137   4.656   5.294
 4967SOL    HW115800   4.045   4.691   5.281
 4967SOL    HW215801   4.133   4.568   5.341
 4968SOL     OW15802   0.329   1.077   4.332
 4968SOL    HW115803   0.247   1.126   4.302
 4968SOL    HW215804   0.376   1.039   4.253
 4969SOL     OW15805   0.525   6.707   1.939
 4969SOL    HW115806   0.481   6.763   2.009
 4969SOL    HW215807   0.528   6.757   1.853
 4970SOL     OW15808   1.767   0.892   1.777
 4970SOL    HW115809   1.716   0.924   1.697
 4970SOL    HW215810   1.823   0.967   1.813
 4971SOL     OW15811   6.571   5.966   2.657
 4971SOL    HW115812   6.532   5.927   2.573
 4971SOL    HW215813   6.504   6.028   2.698
 4972SOL     OW15814   1.266   3.729   1.507
 4972SOL    HW115815   1.259   3.752   1.604
 4972SOL    HW215816   1.283   3.631   1.497
 4973SOL     OW15817   0.075   0.407   1.223
 4973SOL    HW115818   0.066   0.439   1.129
 4973SOL    HW215819   0.004   0.449   1.279
 4974SOL     OW15820   4.385   3.647   6.217
 4974SOL    HW115821   4.485   3.642   6.209
 4974SOL    HW215822   4.361   3.667   6.312
 4975SOL     OW15823   5.473   4.160   0.558
 4975SOL    HW115824   5.454   4.096   0.632
 4975SOL    HW215825   5.410   4.238   0.564
 4976SOL     OW15826   0.219   0.482   4.648
 4976SOL    HW115827   0.130   0.448   4.681
 4976SOL    HW215828   0.277   0.404   4.626
 4977SOL     OW15829   3.117   4.075   6.832
 4977SOL    HW115830   3.133   4.134   6.752
 4977SOL    HW215831   3.019   4.058   6.841
 4978SOL     OW15832   4.810   4.383   5.336
 4978SOL    HW115833   4.870   4.416   5.262
 4978SOL    HW215834   4.817   4.284   5.342
 4979SOL     OW15835   1.214   6.422   6.670
 4979SOL    HW115836   1.235   6.512   6.709
 4979SOL    HW215837   1.296   6.386   6.625
 4980SOL     OW15838   6.939   4.715   2.719
 4980SOL    HW115839   6.906   4.650   2.788
 4980SOL    HW215840   6.866   4.733   2.653
 4981SOL     OW15841   3.397   4.943   1.950
 4981SOL    HW115842   3.346   4.930   2.035
 4981SOL    HW215843   3.467   4.872   1.941
 4982SOL     OW15844   4.558   1.644   6.535
 4982SOL    HW115845   4.582   1.736   6.506
 4982SOL    HW215846   4.465   1.642   6.571
 4983SOL     OW15847   6.307   5.142   4.266
 4983SOL    HW115848   6.325   5.143   4.168
 4983SOL    HW215849   6.212   5.170   4.283
 4984SOL     OW15850   4.586   4.348   3.386
 4984SOL    HW115851   4.563   4.380   3.294
 4984SOL    HW215852   4.564   4.419   3.452
 4985SOL     OW15853   5.374   6.137   2.533
 4985SOL    HW115854   5.453   6.128   2.594
 4985SOL    HW215855   5.290   6.124   2.586
 4986SOL     OW15856   7.009   4.407   1.797
 4986SOL    HW115857   0.015   4.501   1.818
 4986SOL    HW215858   0.066   4.347   1.800
 4987SOL     OW15859   0.844   0.076   2.431
 4987SOL    HW115860   0.794   0.162   2.439
 4987SOL    HW215861   0.800   0.006   2.487
 4988SOL     OW15862   5.924   0.551   4.006
 4988SOL    HW115863   5.862   0.486   3.961
 4988SOL    HW215864   6.018   0.531   3.980
 4989SOL     OW15865   5.106   0.620   1.529
 4989SOL    HW115866   5.019   0.574   1.547
 4989SOL    HW215867   5.160   0.623   1.613
 4990SOL     OW15868   3.904   1.576   7.002
 4990SOL    HW115869   3.822   1.632   7.012
 4990SOL    HW215870   3.906   1.506   0.051
 4991SOL     OW15871   0.230   5.911   4.142
 4991SOL    HW115872   0.303   5.917   4.074
 4991SOL    HW215873   0.197   6.002   4.164
 4992SOL     OW15874   6.657   0.871   3.181
 4992SOL    HW115875   6.664   0.887   3.280
 4992SOL    HW215876   6.745   0.838   3.146
 4993SOL     OW15877   4.832   6.951   5.100
 4993SOL    HW115878   4.896   6.945   5.178
 4993SOL    HW215879   4.801   0.022   5.089
 4994SOL     OW15880   2.145   5.253   5.205
 4994SOL    HW115881   2.207   5.180   5.177
 4994SOL    HW215882   2.067   5.257   5.143
 4995SOL     OW15883   0.603   0.446   4.641
 4995SOL    HW115884   0.679   0.430   4.703
 4995SOL    HW215885   0.549   0.362   4.632
 4996SOL     OW15886   0.244   1.477   4.043
 4996SOL    HW115887   0.317   1.494   4.109
 4996SOL    HW215888   0.166   1.536   4.063
 4997SOL     OW15889   3.624   2.126   1.445
 4997SOL    HW115890   3.719   2.157   1.455
 4997SOL    HW215891   3.574   2.146   1.529
 4998SOL     OW15892   1.707   3.424   3.202
 4998SOL    HW115893   1.735   3.331   3.226
 4998SOL    HW215894   1.722   3.439   3.104
 4999SOL     OW15895   0.847   3.300   5.009
 4999SOL    HW115896   0.842   3.307   5.109
 4999SOL    HW215897   0.920   3.237   4.985
 5000SOL     OW15898   2.915   6.544   3.076
 5000SOL    HW115899   2.835   6.509   3.124
 5000SOL    HW215900   2.989   6.559   3.142
 5001SOL     OW15901   0.418   5.515   2.505
 5001SOL    HW115902   0.439   5.605   2.466
 5001SOL    HW215903   0.440   5.515   2.603
 5002SOL     OW15904   0.981   4.627   2.354
 5002SOL    HW115905   1.065   4.582   2.385
 5002SOL    HW215906   1.004   4.714   2.310
 5003SOL     OW15907   4.047   5.887   2.793
 5003SOL    HW115908   4.049   5.809   2.730
 5003SOL    HW215909   3.968   5.878   2.854
 5004SOL     OW15910   2.919   5.523   6.117
 5004SOL    HW115911   2.828   5.565   6.120
 5004SOL    HW215912   2.982   5.584   6.067
 5005SOL     OW15913   2.221   3.445   6.236
 5005SOL    HW115914   2.319   3.428   6.230
 5005SOL    HW215915   2.172   3.362   6.208
 5006SOL     OW15916   5.390   1.081   2.245
 5006SOL    HW115917   5.358   1.001   2.194
 5006SOL    HW215918   5.479   1.061   2.285
 5007SOL     OW15919   6.793   0.465   0.453
 5007SOL    HW115920   6.868   0.507   0.505
 5007SOL    HW215921   6.744   0.536   0.403
 5008SOL     OW15922   6.667   5.749   1.515
 5008SOL    HW115923   6.695   5.758   1.611
 5008SOL    HW215924   6.723   5.681   1.470
 5009SOL     OW15925   0.728   2.789   0.269
 5009SOL    HW115926   0.787   2.734   0.210
 5009SOL    HW215927   0.781   2.825   0.345
 5010SOL     OW15928   3.757   2.124   0.680
 5010SOL    HW115929   3.853   2.097   0.683
 5010SOL    HW215930   3.715   2.088   0.596
 5011SOL     OW15931   1.744   4.390   0.621
 5011SOL    HW115932   1.713   4.314   0.678
 5011SOL    HW215933   1.843   4.388   0.612
 5012SOL     OW15934   5.946   3.293   5.852
 5012SOL    HW115935   5.883   3.217   5.862
 5012SOL    HW215936   6.016   3.270   5.783
 5013SOL     OW15937   5.999   0.452   5.354
 5013SOL    HW115938   6.079   0.410   5.311
 5013SOL    HW215939   5.994   0.423   5.450
 5014SOL     OW15940   6.690   4.322   0.133
 5014SOL    HW115941   6.726   4.232   0.109
 5014SOL    HW215942   6.591   4.322   0.122
 5015SOL     OW15943   5.157   0.873   4.677
 5015SOL    HW115944   5.210   0.799   4.720
 5015SOL    HW215945   5.181   0.960   4.720
 5016SOL     OW15946   1.083   2.938   4.950
 5016SOL    HW115947   1.071   2.875   4.874
 5016SOL    HW215948   1.102   3.030   4.914
 5017SOL     OW15949   0.936   2.554   1.204
 5017SOL    HW115950   0.897   2.469   1.240
 5017SOL    HW215951   0.900   2.631   1.256
 5018SOL     OW15952   1.067   4.849   2.207
 5018SOL    HW115953   1.044   4.919   2.139
 5018SOL    HW215954   1.165   4.830   2.204
 5019SOL     OW15955   1.968   5.659   5.481
 5019SOL    HW115956   2.056   5.703   5.495
 5019SOL    HW215957   1.925   5.643   5.570
 5020SOL     OW15958   0.087   6.415   5.089
 5020SOL    HW115959   0.037   6.373   5.013
 5020SOL    HW215960   0.183   6.427   5.063
 5021SOL     OW15961   1.038   0.322   1.523
 5021SOL    HW115962   1.133   0.304   1.501
 5021SOL    HW215963   0.980   0.250   1.484
 5022SOL     OW15964   0.052   2.804   1.690
 5022SOL    HW115965   0.077   2.889   1.645
 5022SOL    HW215966   0.029   2.735   1.621
 5023SOL     OW15967   6.893   4.479   1.540
 5023SOL    HW115968   6.942   4.443   1.619
 5023SOL    HW215969   6.936   4.447   1.456
 5024SOL     OW15970   5.407   4.848   0.859
 5024SOL    HW115971   5.371   4.755   0.854
 5024SOL    HW215972   5.503   4.848   0.831
 5025SOL     OW15973   3.618   1.656   3.682
 5025SOL    HW115974   3.690   1.624   3.744
 5025SOL    HW215975   3.636   1.751   3.657
 5026SOL     OW15976   6.943   5.175   4.840
 5026SOL    HW115977   7.010   5.128   4.898
 5026SOL    HW215978   6.974   5.268   4.823
 5027SOL     OW15979   6.075   0.395   1.039
 5027SOL    HW115980   6.078   0.398   1.139
 5027SOL    HW215981   6.004   0.330   1.010
 5028SOL     OW15982   6.869   2.081   3.163
 5028SOL    HW115983   6.781   2.035   3.171
 5028SOL    HW215984   6.914   2.085   3.252
 5029SOL     OW15985   6.692   2.970   2.364
 5029SOL    HW115986   6.751   3.045   2.335
 5029SOL    HW215987   6.648   2.929   2.284
 5030SOL     OW15988   6.852   6.041   6.102
 5030SOL    HW115989   6.790   5.987   6.045
 5030SOL    HW215990   6.940   5.994   6.109
 5031SOL     OW15991   6.737   1.066   5.401
 5031SOL    HW115992   6.695   1.113   5.324
 5031SOL    HW215993   6.828   1.104   5.418
 5032SOL     OW15994   2.772   2.005   6.333
 5032SOL    HW115995   2.822   1.969   6.254
 5032SOL    HW215996   2.816   2.089   6.364
 5033SOL     OW15997   2.023   0.864   7.022
 5033SOL    HW115998   1.936   0.909   6.998
 5033SOL    HW215999   2.048   0.889   0.093
 5034SOL     OW16000   4.840   6.831   3.909
 5034SOL    HW116001   4.889   6.870   3.986
 5034SOL    HW216002   4.746   6.809   3.936
 5035SOL     OW16003   1.015   3.756   5.326
 5035SOL    HW116004   0.980   3.684   5.387
 5035SOL    HW216005   0.941   3.786   5.265
 5036SOL     OW16006   6.420   5.094   6.214
 5036SOL    HW116007   6.341   5.138   6.258
 5036SOL    HW216008   6.390   5.049   6.130
 5037SOL     OW16009   4.580   4.503   1.519
 5037SOL    HW116010   4.633   4.587   1.530
 5037SOL    HW216011   4.524   4.489   1.601
 5038SOL     OW16012   3.969   3.186   4.277
 5038SOL    HW116013   4.050   3.237   4.247
 5038SOL    HW216014   3.894   3.250   4.292
 5039SOL     OW16015   2.496   3.403   5.778
 5039SOL    HW116016   2.403   3.427   5.750
 5039SOL    HW216017   2.549   3.487   5.794
 5040SOL     OW16018   0.817   5.406   5.163
 5040SOL    HW116019   0.861   5.495   5.151
 5040SOL    HW216020   0.718   5.418   5.163
 5041SOL     OW16021   1.324   2.098   2.304
 5041SOL    HW116022   1.308   2.056   2.393
 5041SOL    HW216023   1.236   2.111   2.257
 5042SOL     OW16024   6.406   3.074   0.711
 5042SOL    HW116025   6.500   3.108   0.705
 5042SOL    HW216026   6.344   3.151   0.725
 5043SOL     OW16027   4.219   0.742   0.054
 5043SOL    HW116028   4.251   0.650   0.078
 5043SOL    HW216029   4.297   0.799   0.026
 5044SOL     OW16030   1.116   5.982   1.317
 5044SOL    HW116031   1.142   6.058   1.376
 5044SOL    HW216032   1.027   5.946   1.346
 5045SOL     OW16033   6.432   5.535   6.108
 5045SOL    HW116034   6.426   5.612   6.172
 5045SOL    HW216035   6.468   5.566   6.020
 5046SOL     OW16036   3.651   3.945   3.577
 5046SOL    HW116037   3.582   4.004   3.620
 5046SOL    HW216038   3.606   3.881   3.515
 5047SOL     OW16039   2.156   3.690   2.958
 5047SOL    HW116040   2.063   3.707   2.991
 5047SOL    HW216041   2.190   3.605   2.996
 5048SOL     OW16042   1.547   0.856   4.735
 5048SOL    HW116043   1.462   0.909   4.744
 5048SOL    HW216044   1.576   0.824   4.825
 5049SOL     OW16045   5.244   1.235   6.587
 5049SOL    HW116046   5.209   1.269   6.500
 5049SOL    HW216047   5.219   1.298   6.660
 5050SOL     OW16048   1.877   1.146   6.873
 5050SOL    HW116049   1.872   1.107   6.781
 5050SOL    HW216050   1.953   1.211   6.878
 5051SOL     OW16051   4.433   4.486   1.264
 5051SOL    HW116052   4.350   4.430   1.265
 5051SOL    HW216053   4.506   4.438   1.313
 5052SOL     OW16054   3.516   2.134   6.171
 5052SOL    HW116055   3.422   2.140   6.204
 5052SOL    HW216056   3.579   2.157   6.245
 5053SOL     OW16057   0.892   5.179   3.031
 5053SOL    HW116058   0.832   5.160   3.109
 5053SOL    HW216059   0.987   5.172   3.059
 5054SOL     OW16060   2.997   4.807   5.566
 5054SOL    HW116061   3.009   4.750   5.485
 5054SOL    HW216062   3.037   4.762   5.645
 5055SOL     OW16063   1.085   2.397   5.594
 5055SOL    HW116064   1.062   2.357   5.505
 5055SOL    HW216065   1.023   2.473   5.613
 5056SOL     OW16066   5.025   3.920   5.381
 5056SOL    HW116067   4.980   3.832   5.368
 5056SOL    HW216068   5.074   3.921   5.468
 5057SOL     OW16069   0.432   6.835   2.529
 5057SOL    HW116070   0.405   6.778   2.452
 5057SOL    HW216071   0.446   6.929   2.499
 5058SOL     OW16072   3.458   4.919   6.725
 5058SOL    HW116073   3.489   4.826   6.744
 5058SOL    HW216074   3.454   4.971   6.811
 5059SOL     OW16075   6.743   0.557   3.400
 5059SOL    HW116076   6.689   0.548   3.316
 5059SOL    HW216077   6.837   0.527   3.383
 5060SOL     OW16078   6.445   2.482   6.435
 5060SOL    HW116079   6.494   2.496   6.349
 5060SOL    HW216080   6.441   2.569   6.485
 5061SOL     OW16081   4.524   2.496   0.151
 5061SOL    HW116082   4.508   2.508   0.249
 5061SOL    HW216083   4.461   2.426   0.116
 5062SOL     OW16084   6.624   0.006   2.203
 5062SOL    HW116085   6.700   0.035   2.261
 5062SOL    HW216086   6.652   0.008   2.107
 5063SOL     OW16087   0.108   6.316   1.712
 5063SOL    HW116088   0.187   6.377   1.701
 5063SOL    HW216089   0.026   6.370   1.729
 5064SOL     OW16090   4.863   2.888   0.798
 5064SOL    HW116091   4.956   2.918   0.773
 5064SOL    HW216092   4.810   2.872   0.714
 5065SOL     OW16093   3.401   0.455   5.286
 5065SOL    HW116094   3.456   0.372   5.289
 5065SOL    HW216095   3.403   0.493   5.193
 5066SOL     OW16096   5.227   3.773   2.211
 5066SOL    HW116097   5.128   3.778   2.197
 5066SOL    HW216098   5.250   3.808   2.301
 5067SOL     OW16099   5.275   1.251   0.714
 5067SOL    HW116100   5.261   1.265   0.616
 5067SOL    HW216101   5.342   1.318   0.747
 5068SOL     OW16102   2.287   4.572   1.069
 5068SOL    HW116103   2.256   4.545   0.978
 5068SOL    HW216104   2.317   4.667   1.068
 5069SOL     OW16105   1.128   3.990   2.371
 5069SOL    HW116106   1.135   4.059   2.443
 5069SOL    HW216107   1.066   3.917   2.400
 5070SOL     OW16108   5.011   3.505   3.696
 5070SOL    HW116109   5.042   3.571   3.628
 5070SOL    HW216110   4.951   3.438   3.653
 5071SOL     OW16111   4.384   2.362   4.817
 5071SOL    HW116112   4.331   2.327   4.740
 5071SOL    HW216113   4.327   2.359   4.900
 5072SOL     OW16114   0.633   5.756   0.476
 5072SOL    HW116115   0.710   5.700   0.444
 5072SOL    HW216116   0.654   5.852   0.461
 5073SOL     OW16117   6.741   6.399   2.639
 5073SOL    HW116118   6.694   6.433   2.720
 5073SOL    HW216119   6.797   6.320   2.663
 5074SOL     OW16120   3.467   3.861   0.148
 5074SOL    HW116121   3.370   3.877   0.167
 5074SOL    HW216122   3.503   3.938   0.096
 5075SOL     OW16123   0.311   1.133   5.763
 5075SOL    HW116124   0.274   1.101   5.676
 5075SOL    HW216125   0.259   1.213   5.793
 5076SOL     OW16126   4.322   1.323   1.493
 5076SOL    HW116127   4.349   1.232   1.462
 5076SOL    HW216128   4.344   1.333   1.590
 5077SOL     OW16129   1.177   2.017   3.533
 5077SOL    HW116130   1.185   2.059   3.443
 5077SOL    HW216131   1.263   1.972   3.556
 5078SOL     OW16132   1.010   1.698   3.318
 5078SOL    HW116133   1.068   1.632   3.269
 5078SOL    HW216134   0.978   1.768   3.254
 5079SOL     OW16135   2.421   4.426   5.995
 5079SOL    HW116136   2.505   4.433   6.048
 5079SOL    HW216137   2.349   4.385   6.052
 5080SOL     OW16138   5.534   6.714   5.006
 5080SOL    HW116139   5.615   6.748   5.054
 5080SOL    HW216140   5.538   6.614   5.001
 5081SOL     OW16141   3.494   3.766   2.980
 5081SOL    HW116142   3.525   3.850   3.025
 5081SOL    HW216143   3.394   3.764   2.978
 5082SOL     OW16144   5.550   6.455   4.958
 5082SOL    HW116145   5.488   6.381   4.983
 5082SOL    HW216146   5.631   6.417   4.912
 5083SOL     OW16147   1.868   6.592   2.203
 5083SOL    HW116148   1.814   6.647   2.267
 5083SOL    HW216149   1.807   6.530   2.153
 5084SOL     OW16150   1.519   4.568   4.251
 5084SOL    HW116151   1.442   4.517   4.289
 5084SOL    HW216152   1.502   4.588   4.154
 5085SOL     OW16153   5.063   2.026   6.828
 5085SOL    HW116154   5.051   1.994   6.734
 5085SOL    HW216155   4.978   2.013   6.879
 5086SOL     OW16156   6.484   4.696   4.158
 5086SOL    HW116157   6.551   4.636   4.202
 5086SOL    HW216158   6.524   4.786   4.145
 5087SOL     OW16159   6.674   6.266   3.841
 5087SOL    HW116160   6.718   6.204   3.906
 5087SOL    HW216161   6.685   6.229   3.748
 5088SOL     OW16162   6.169   1.290   6.208
 5088SOL    HW116163   6.260   1.268   6.173
 5088SOL    HW216164   6.108   1.310   6.131
 5089SOL     OW16165   6.419   3.731   3.505
 5089SOL    HW116166   6.493   3.723   3.572
 5089SOL    HW216167   6.421   3.823   3.465
 5090SOL     OW16168   1.989   4.022   1.410
 5090SOL    HW116169   1.955   3.941   1.362
 5090SOL    HW216170   1.912   4.081   1.435
 5091SOL     OW16171   1.109   6.413   2.596
 5091SOL    HW116172   1.193   6.385   2.549
 5091SOL    HW216173   1.038   6.344   2.581
 5092SOL     OW16174   3.803   2.659   1.666
 5092SOL    HW116175   3.877   2.606   1.708
 5092SOL    HW216176   3.718   2.607   1.670
 5093SOL     OW16177   0.959   2.263   1.855
 5093SOL    HW116178   0.990   2.319   1.933
 5093SOL    HW216179   1.038   2.220   1.812
 5094SOL     OW16180   0.744   0.417   5.707
 5094SOL    HW116181   0.809   0.370   5.766
 5094SOL    HW216182   0.794   0.476   5.643
 5095SOL     OW16183   1.110   0.633   4.718
 5095SOL    HW116184   1.199   0.587   4.727
 5095SOL    HW216185   1.040   0.577   4.762
 5096SOL     OW16186   4.558   3.708   0.804
 5096SOL    HW116187   4.529   3.778   0.869
 5096SOL    HW216188   4.517   3.620   0.828
 5097SOL     OW16189   1.663   0.372   6.183
 5097SOL    HW116190   1.563   0.377   6.184
 5097SOL    HW216191   1.696   0.363   6.277
 5098SOL     OW16192   0.743   0.578   1.689
 5098SOL    HW116193   0.685   0.600   1.610
 5098SOL    HW216194   0.704   0.620   1.771
 5099SOL     OW16195   0.838   0.614   6.032
 5099SOL    HW116196   0.798   0.581   6.118
 5099SOL    HW216197   0.872   0.707   6.045
 5100SOL     OW16198   4.873   6.888   6.165
 5100SOL    HW116199   4.902   6.932   6.250
 5100SOL    HW216200   4.950   6.836   6.127
 5101SOL     OW16201   5.154   6.353   6.939
 5101SOL    HW116202   5.070   6.369   6.888
 5101SOL    HW216203   5.146   6.396   0.007
 5102SOL     OW16204   5.707   0.865   5.263
 5102SOL    HW116205   5.798   0.825   5.276
 5102SOL    HW216206   5.682   0.917   5.345
 5103SOL     OW16207   0.129   0.875   4.418
 5103SOL    HW116208   0.184   0.956   4.399
 5103SOL    HW216209   0.035   0.902   4.438
 5104SOL     OW16210   1.968   6.767   1.195
 5104SOL    HW116211   1.969   6.807   1.103
 5104SOL    HW216212   1.874   6.762   1.228
 5105SOL     OW16213   4.545   3.714   6.609
 5105SOL    HW116214   4.511   3.718   6.703
 5105SOL    HW216215   4.640   3.748   6.607
 5106SOL     OW16216   3.581   0.037   2.522
 5106SOL    HW116217   3.587   6.975   2.574
 5106SOL    HW216218   3.492   0.079   2.536
 5107SOL     OW16219   2.831   0.792   0.353
 5107SOL    HW116220   2.757   0.804   0.420
 5107SOL    HW216221   2.825   0.700   0.314
 5108SOL     OW16222   3.251   3.994   3.737
 5108SOL    HW116223   3.181   4.007   3.668
 5108SOL    HW216224   3.335   4.040   3.708
 5109SOL     OW16225   0.856   1.873   1.142
 5109SOL    HW116226   0.794   1.950   1.155
 5109SOL    HW216227   0.825   1.795   1.196
 5110SOL     OW16228   1.637   6.719   6.089
 5110SOL    HW116229   1.692   6.801   6.106
 5110SOL    HW216230   1.548   6.729   6.136
 5111SOL     OW16231   0.613   1.220   6.414
 5111SOL    HW116232   0.635   1.313   6.443
 5111SOL    HW216233   0.697   1.172   6.389
 5112SOL     OW16234   0.191   6.852   3.689
 5112SOL    HW116235   0.182   6.797   3.605
 5112SOL    HW216236   0.222   6.943   3.665
 5113SOL     OW16237   0.340   0.632   0.900
 5113SOL    HW116238   0.382   0.556   0.949
 5113SOL    HW216239   0.242   0.634   0.918
 5114SOL     OW16240   3.271   4.048   0.237
 5114SOL    HW116241   3.235   4.107   0.164
 5114SOL    HW216242   3.325   4.103   0.301
 5115SOL     OW16243   1.576   4.229   5.942
 5115SOL    HW116244   1.596   4.318   5.902
 5115SOL    HW216245   1.516   4.178   5.881
 5116SOL     OW16246   5.159   5.211   6.066
 5116SOL    HW116247   5.160   5.222   6.165
 5116SOL    HW216248   5.230   5.146   6.039
 5117SOL     OW16249   2.153   4.799   3.514
 5117SOL    HW116250   2.081   4.866   3.534
 5117SOL    HW216251   2.239   4.831   3.552
 5118SOL     OW16252   4.817   6.600   0.553
 5118SOL    HW116253   4.732   6.610   0.604
 5118SOL    HW216254   4.851   6.690   0.526
 5119SOL     OW16255   5.321   0.291   1.818
 5119SOL    HW116256   5.234   0.338   1.834
 5119SOL    HW216257   5.312   0.231   1.738
 5120SOL     OW16258   6.282   1.399   2.784
 5120SOL    HW116259   6.317   1.492   2.793
 5120SOL    HW216260   6.183   1.399   2.794
 5121SOL     OW16261   0.815   3.059   6.464
 5121SOL    HW116262   0.875   3.135   6.489
 5121SOL    HW216263   0.778   3.018   6.547
 5122SOL     OW16264   2.750   0.621   3.672
 5122SOL    HW116265   2.700   0.690   3.620
 5122SOL    HW216266   2.704   0.533   3.663
 5123SOL     OW16267   5.657   3.612   3.589
 5123SOL    HW116268   5.742   3.559   3.593
 5123SOL    HW216269   5.624   3.630   3.681
 5124SOL     OW16270   2.924   6.207   6.712
 5124SOL    HW116271   3.012   6.253   6.723
 5124SOL    HW216272   2.905   6.153   6.794
 5125SOL     OW16273   0.538   3.640   4.431
 5125SOL    HW116274   0.585   3.570   4.484
 5125SOL    HW216275   0.496   3.598   4.350
 5126SOL     OW16276   6.239   5.441   6.279
 5126SOL    HW116277   6.289   5.455   6.193
 5126SOL    HW216278   6.199   5.349   6.280
 5127SOL     OW16279   5.577   3.912   6.941
 5127SOL    HW116280   5.566   3.916   0.018
 5127SOL    HW216281   5.660   3.861   6.918
 5128SOL     OW16282   1.337   0.615   6.689
 5128SOL    HW116283   1.402   0.541   6.705
 5128SOL    HW216284   1.331   0.633   6.591
 5129SOL     OW16285   5.489   0.192   2.923
 5129SOL    HW116286   5.547   0.196   2.841
 5129SOL    HW216287   5.519   0.261   2.989
 5130SOL     OW16288   0.797   5.266   4.653
 5130SOL    HW116289   0.836   5.331   4.587
 5130SOL    HW216290   0.707   5.236   4.621
 5131SOL     OW16291   3.226   4.938   3.866
 5131SOL    HW116292   3.206   4.924   3.769
 5131SOL    HW216293   3.317   4.976   3.876
 5132SOL     OW16294   3.329   1.767   6.345
 5132SOL    HW116295   3.407   1.755   6.283
 5132SOL    HW216296   3.244   1.750   6.296
 5133SOL     OW16297   3.439   5.456   6.140
 5133SOL    HW116298   3.428   5.400   6.057
 5133SOL    HW216299   3.403   5.547   6.123
 5134SOL     OW16300   6.361   7.020   1.449
 5134SOL    HW116301   6.395   0.033   1.362
 5134SOL    HW216302   6.360   6.920   1.445
 5135SOL     OW16303   6.457   3.392   2.728
 5135SOL    HW116304   6.490   3.403   2.635
 5135SOL    HW216305   6.361   3.366   2.727
 5136SOL     OW16306   0.643   0.807   6.144
 5136SOL    HW116307   0.594   0.782   6.228
 5136SOL    HW216308   0.614   0.747   6.070
 5137SOL     OW16309   5.024   2.737   5.221
 5137SOL    HW116310   5.098   2.768   5.281
 5137SOL    HW216311   4.945   2.711   5.277
 5138SOL     OW16312   3.988   3.906   4.140
 5138SOL    HW116313   4.023   3.850   4.064
 5138SOL    HW216314   4.037   3.883   4.223
 5139SOL     OW16315   1.760   0.616   5.006
 5139SOL    HW116316   1.730   0.684   5.073
 5139SOL    HW216317   1.786   0.662   4.921
 5140SOL     OW16318   4.142   2.001   5.825
 5140SOL    HW116319   4.078   2.001   5.748
 5140SOL    HW216320   4.148   1.909   5.863
 5141SOL     OW16321   6.614   2.979   1.854
 5141SOL    HW116322   6.661   2.912   1.796
 5141SOL    HW216323   6.516   2.979   1.832
 5142SOL     OW16324   6.307   6.927   3.487
 5142SOL    HW116325   6.364   6.845   3.477
 5142SOL    HW216326   6.362   7.008   3.468
 5143SOL     OW16327   0.833   4.477   4.270
 5143SOL    HW116328   0.833   4.398   4.332
 5143SOL    HW216329   0.789   4.451   4.184
 5144SOL     OW16330   1.820   3.540   6.850
 5144SOL    HW116331   1.770   3.470   6.900
 5144SOL    HW216332   1.822   3.625   6.904
 5145SOL     OW16333   3.173   6.142   6.255
 5145SOL    HW116334   3.225   6.095   6.184
 5145SOL    HW216335   3.216   6.127   6.344
 5146SOL     OW16336   4.417   4.439   5.547
 5146SOL    HW116337   4.323   4.469   5.558
 5146SOL    HW216338   4.436   4.365   5.611
 5147SOL     OW16339   4.816   3.781   3.844
 5147SOL    HW116340   4.813   3.695   3.794
 5147SOL    HW216341   4.788   3.856   3.784
 5148SOL     OW16342   0.318   0.349   1.679
 5148SOL    HW116343   0.324   0.364   1.580
 5148SOL    HW216344   0.250   0.278   1.698
 5149SOL     OW16345   5.770   4.216   3.928
 5149SOL    HW116346   5.810   4.129   3.957
 5149SOL    HW216347   5.786   4.286   3.998
 5150SOL     OW16348   1.443   5.437   3.552
 5150SOL    HW116349   1.388   5.470   3.629
 5150SOL    HW216350   1.452   5.510   3.485
 5151SOL     OW16351   5.732   4.801   1.512
 5151SOL    HW116352   5.742   4.821   1.609
 5151SOL    HW216353   5.706   4.884   1.463
 5152SOL     OW16354   1.908   0.104   6.724
 5152SOL    HW116355   1.903   0.063   6.816
 5152SOL    HW216356   1.855   0.048   6.660
 5153SOL     OW16357   1.808   0.921   0.917
 5153SOL    HW116358   1.739   0.850   0.899
 5153SOL    HW216359   1.794   0.997   0.853
 5154SOL     OW16360   1.110   2.780   6.775
 5154SOL    HW116361   1.180   2.851   6.764
 5154SOL    HW216362   1.151   2.690   6.764
 5155SOL     OW16363   2.283   1.822   0.707
 5155SOL    HW116364   2.218   1.816   0.631
 5155SOL    HW216365   2.370   1.781   0.680
 5156SOL     OW16366   5.464   5.406   5.504
 5156SOL    HW116367   5.505   5.352   5.430
 5156SOL    HW216368   5.411   5.345   5.563
 5157SOL     OW16369   4.067   1.763   2.134
 5157SOL    HW116370   3.970   1.773   2.111
 5157SOL    HW216371   4.077   1.759   2.234
 5158SOL     OW16372   3.908   1.278   2.107
 5158SOL    HW116373   3.908   1.231   2.018
 5158SOL    HW216374   3.833   1.344   2.110
 5159SOL     OW16375   5.881   3.890   6.545
 5159SOL    HW116376   5.803   3.952   6.550
 5159SOL    HW216377   5.894   3.860   6.451
 5160SOL     OW16378   6.586   6.739   3.097
 5160SOL    HW116379   6.564   6.642   3.105
 5160SOL    HW216380   6.645   6.766   3.172
 5161SOL     OW16381   0.680   3.265   0.254
 5161SOL    HW116382   0.737   3.305   0.325
 5161SOL    HW216383   0.608   3.331   0.229
 5162SOL     OW16384   0.036   5.957   2.826
 5162SOL    HW116385   0.066   6.046   2.861
 5162SOL    HW216386   6.960   5.948   2.839
 5163SOL     OW16387   3.146   5.753   1.852
 5163SOL    HW116388   3.234   5.764   1.898
 5163SOL    HW216389   3.162   5.736   1.754
 5164SOL     OW16390   2.938   3.300   0.892
 5164SOL    HW116391   2.841   3.277   0.883
 5164SOL    HW216392   2.952   3.353   0.975
 5165SOL     OW16393   1.504   4.851   6.923
 5165SOL    HW116394   1.527   4.788   6.849
 5165SOL    HW216395   1.421   4.819   6.969
 5166SOL     OW16396   2.274   5.774   1.628
 5166SOL    HW116397   2.298   5.733   1.716
 5166SOL    HW216398   2.261   5.872   1.639
 5167SOL     OW16399   5.627   3.754   5.551
 5167SOL    HW116400   5.726   3.741   5.548
 5167SOL    HW216401   5.588   3.728   5.463
 5168SOL     OW16402   4.707   2.251   2.315
 5168SOL    HW116403   4.797   2.268   2.274
 5168SOL    HW216404   4.637   2.301   2.264
 5169SOL     OW16405   4.167   0.999   3.933
 5169SOL    HW116406   4.170   0.899   3.939
 5169SOL    HW216407   4.130   1.025   3.844
 5170SOL     OW16408   1.278   3.758   6.532
 5170SOL    HW116409   1.348   3.820   6.569
 5170SOL    HW216410   1.322   3.686   6.479
 5171SOL     OW16411   1.958   5.523   6.016
 5171SOL    HW116412   1.903   5.446   6.046
 5171SOL    HW216413   2.055   5.503   6.030
 5172SOL     OW16414   0.901   4.449   3.903
 5172SOL    HW116415   0.860   4.537   3.926
 5172SOL    HW216416   0.992   4.463   3.863
 5173SOL     OW16417   4.921   3.549   6.003
 5173SOL    HW116418   4.962   3.616   5.940
 5173SOL    HW216419   4.846   3.502   5.958
 5174SOL     OW16420   1.594   6.995   3.549
 5174SOL    HW116421   1.615   7.011   3.645
 5174SOL    HW216422   1.672   6.952   3.504
 5175SOL     OW16423   2.947   4.687   0.072
 5175SOL    HW116424   2.909   4.659   7.007
 5175SOL    HW216425   2.952   4.607   0.133
 5176SOL     OW16426   5.703   5.389   6.551
 5176SOL    HW116427   5.775   5.384   6.482
 5176SOL    HW216428   5.717   5.318   6.620
 5177SOL     OW16429   4.813   0.410   1.128
 5177SOL    HW116430   4.804   0.496   1.177
 5177SOL    HW216431   4.885   0.355   1.171
 5178SOL     OW16432   0.793   3.840   1.558
 5178SOL    HW116433   0.862   3.773   1.585
 5178SOL    HW216434   0.704   3.813   1.594
 5179SOL     OW16435   5.410   4.293   2.480
 5179SOL    HW116436   5.477   4.262   2.548
 5179SOL    HW216437   5.408   4.229   2.404
 5180SOL     OW16438   2.519   6.650   1.446
 5180SOL    HW116439   2.557   6.687   1.361
 5180SOL    HW216440   2.549   6.555   1.457
 5181SOL     OW16441   0.118   1.119   6.698
 5181SOL    HW116442   0.063   1.160   6.625
 5181SOL    HW216443   0.061   1.056   6.751
 5182SOL     OW16444   4.250   4.640   3.279
 5182SOL    HW116445   4.234   4.649   3.181
 5182SOL    HW216446   4.307   4.559   3.296
 5183SOL     OW16447   4.121   1.739   3.411
 5183SOL    HW116448   4.046   1.761   3.473
 5183SOL    HW216449   4.116   1.797   3.330
 5184SOL     OW16450   1.997   2.295   3.830
 5184SOL    HW116451   2.034   2.381   3.795
 5184SOL    HW216452   2.071   2.231   3.847
 5185SOL     OW16453   5.107   0.410   2.122
 5185SOL    HW116454   5.200   0.379   2.145
 5185SOL    HW216455   5.094   0.404   2.023
 5186SOL     OW16456   6.782   3.197   5.921
 5186SOL    HW116457   6.833   3.280   5.945
 5186SOL    HW216458   6.794   3.128   5.992
 5187SOL     OW16459   2.171   5.101   4.872
 5187SOL    HW116460   2.166   5.030   4.802
 5187SOL    HW216461   2.145   5.063   4.960
 5188SOL     OW16462   6.744   6.385   1.759
 5188SOL    HW116463   6.808   6.346   1.824
 5188SOL    HW216464   6.710   6.313   1.698
 5189SOL     OW16465   5.779   0.115   6.325
 5189SOL    HW116466   5.789   0.066   6.412
 5189SOL    HW216467   5.700   0.176   6.330
 5190SOL     OW16468   1.962   2.919   1.795
 5190SOL    HW116469   2.056   2.919   1.760
 5190SOL    HW216470   1.958   2.971   1.880
 5191SOL     OW16471   2.902   5.529   2.579
 5191SOL    HW116472   2.967   5.559   2.648
 5191SOL    HW216473   2.950   5.518   2.491
 5192SOL     OW16474   1.803   5.929   1.468
 5192SOL    HW116475   1.806   5.848   1.408
 5192SOL    HW216476   1.712   5.936   1.509
 5193SOL     OW16477   5.463   0.528   6.764
 5193SOL    HW116478   5.442   0.435   6.793
 5193SOL    HW216479   5.527   0.525   6.687
 5194SOL     OW16480   4.078   1.937   6.908
 5194SOL    HW116481   4.112   1.844   6.924
 5194SOL    HW216482   4.092   1.993   6.990
 5195SOL     OW16483   0.338   0.645   3.451
 5195SOL    HW116484   0.402   0.692   3.512
 5195SOL    HW216485   0.342   0.688   3.361
 5196SOL     OW16486   4.256   6.724   3.053
 5196SOL    HW116487   4.294   6.798   2.998
 5196SOL    HW216488   4.160   6.743   3.072
 5197SOL     OW16489   1.533   3.752   5.806
 5197SOL    HW116490   1.478   3.783   5.883
 5197SOL    HW216491   1.617   3.710   5.840
 5198SOL     OW16492   4.942   5.859   3.058
 5198SOL    HW116493   4.843   5.872   3.051
 5198SOL    HW216494   4.964   5.824   3.149
 5199SOL     OW16495   6.734   4.996   0.888
 5199SOL    HW116496   6.750   4.991   0.790
 5199SOL    HW216497   6.734   4.903   0.927
 5200SOL     OW16498   0.320   3.908   5.318
 5200SOL    HW116499   0.353   3.830   5.265
 5200SOL    HW216500   0.222   3.898   5.333
 5201SOL     OW16501   1.228   6.131   3.782
 5201SOL    HW116502   1.300   6.186   3.824
 5201SOL    HW216503   1.253   6.034   3.787
 5202SOL     OW16504   6.699   3.265   0.211
 5202SOL    HW116505   6.660   3.264   0.119
 5202SOL    HW216506   6.630   3.296   0.276
 5203SOL     OW16507   0.487   2.943   0.064
 5203SOL    HW116508   0.546   2.922   0.142
 5203SOL    HW216509   0.401   2.982   0.097
 5204SOL     OW16510   4.483   5.128   0.531
 5204SOL    HW116511   4.422   5.205   0.551
 5204SOL    HW216512   4.437   5.042   0.552
 5205SOL     OW16513   1.824   0.199   1.143
 5205SOL    HW116514   1.827   0.248   1.056
 5205SOL    HW216515   1.897   0.233   1.203
 5206SOL     OW16516   0.007   4.596   6.840
 5206SOL    HW116517   6.960   4.660   6.808
 5206SOL    HW216518   0.095   4.643   6.847
 5207SOL     OW16519   1.118   5.241   4.390
 5207SOL    HW116520   1.179   5.264   4.466
 5207SOL    HW216521   1.030   5.287   4.402
 5208SOL     OW16522   3.823   0.928   0.243
 5208SOL    HW116523   3.888   0.949   0.170
 5208SOL    HW216524   3.745   0.989   0.237
 5209SOL     OW16525   6.070   5.838   3.295
 5209SOL    HW116526   6.112   5.879   3.214
 5209SOL    HW216527   6.000   5.773   3.267
 5210SOL     OW16528   5.401   3.636   4.660
 5210SOL    HW116529   5.362   3.724   4.684
 5210SOL    HW216530   5.474   3.613   4.725
 5211SOL     OW16531   3.266   3.416   4.002
 5211SOL    HW116532   3.264   3.464   3.914
 5211SOL    HW216533   3.175   3.381   4.022
 5212SOL     OW16534   0.016   2.575   0.398
 5212SOL    HW116535   0.019   2.503   0.467
 5212SOL    HW216536   0.108   2.590   0.361
 5213SOL     OW16537   5.082   2.582   5.998
 5213SOL    HW116538   5.066   2.634   5.914
 5213SOL    HW216539   5.105   2.644   6.072
 5214SOL     OW16540   5.394   1.894   5.470
 5214SOL    HW116541   5.407   1.932   5.561
 5214SOL    HW216542   5.297   1.886   5.450
 5215SOL     OW16543   5.262   4.348   3.510
 5215SOL    HW116544   5.234   4.388   3.423
 5215SOL    HW216545   5.309   4.417   3.565
 5216SOL     OW16546   5.335   4.961   1.485
 5216SOL    HW116547   5.426   4.977   1.447
 5216SOL    HW216548   5.335   4.873   1.534
 5217SOL     OW16549   2.994   5.175   3.930
 5217SOL    HW116550   3.034   5.238   3.996
 5217SOL    HW216551   3.000   5.081   3.964
 5218SOL     OW16552   1.933   0.116   4.388
 5218SOL    HW116553   1.849   0.114   4.334
 5218SOL    HW216554   1.948   0.027   4.430
 5219SOL     OW16555   3.857   6.927   6.582
 5219SOL    HW116556   3.837   6.980   6.500
 5219SOL    HW216557   3.806   6.841   6.580
 5220SOL     OW16558   1.343   5.424   1.983
 5220SOL    HW116559   1.265   5.477   2.015
 5220SOL    HW216560   1.343   5.334   2.027
 5221SOL     OW16561   5.303   1.751   4.539
 5221SOL    HW116562   5.340   1.823   4.598
 5221SOL    HW216563   5.361   1.670   4.544
 5222SOL     OW16564   2.419   0.156   3.979
 5222SOL    HW116565   2.488   0.149   3.907
 5222SOL    HW216566   2.455   0.210   4.055
 5223SOL     OW16567   4.841   0.186   1.319
 5223SOL    HW116568   4.872   0.092   1.327
 5223SOL    HW216569   4.741   0.189   1.316
 5224SOL     OW16570   6.828   2.888   2.628
 5224SOL    HW116571   6.820   2.836   2.713
 5224SOL    HW216572   6.762   2.853   2.562
 5225SOL     OW16573   6.980   0.650   3.188
 5225SOL    HW116574   6.965   0.713   3.112
 5225SOL    HW216575   0.008   0.697   3.260
 5226SOL     OW16576   0.512   6.400   4.744
 5226SOL    HW116577   0.495   6.302   4.757
 5226SOL    HW216578   0.603   6.413   4.704
 5227SOL     OW16579   6.768   5.099   3.372
 5227SOL    HW116580   6.810   5.010   3.351
 5227SOL    HW216581   6.834   5.172   3.356
 5228SOL     OW16582   6.359   2.406   0.440
 5228SOL    HW116583   6.333   2.466   0.515
 5228SOL    HW216584   6.298   2.422   0.362
 5229SOL     OW16585   1.113   4.296   6.383
 5229SOL    HW116586   1.158   4.277   6.470
 5229SOL    HW216587   1.153   4.239   6.312
 5230SOL     OW16588   0.200   0.040   0.810
 5230SOL    HW116589   0.286   0.031   0.859
 5230SOL    HW216590   0.218   0.045   0.712
 5231SOL     OW16591   3.136   3.052   4.438
 5231SOL    HW116592   3.099   3.049   4.531
 5231SOL    HW216593   3.130   3.145   4.403
 5232SOL     OW16594   3.798   2.161   6.431
 5232SOL    HW116595   3.885   2.127   6.465
 5232SOL    HW216596   3.801   2.169   6.332
 5233SOL     OW16597   6.761   6.397   1.237
 5233SOL    HW116598   6.805   6.393   1.327
 5233SOL    HW216599   6.819   6.447   1.174
 5234SOL     OW16600   3.376   0.887   0.466
 5234SOL    HW116601   3.314   0.922   0.536
 5234SOL    HW216602   3.376   0.787   0.469
 5235SOL     OW16603   1.589   2.972   0.845
 5235SOL    HW116604   1.546   2.911   0.911
 5235SOL    HW216605   1.522   3.038   0.811
 5236SOL     OW16606   5.487   2.726   1.478
 5236SOL    HW116607   5.482   2.648   1.416
 5236SOL    HW216608   5.448   2.700   1.566
 5237SOL     OW16609   2.791   1.958   5.276
 5237SOL    HW116610   2.768   1.900   5.198
 5237SOL    HW216611   2.858   2.027   5.248
 5238SOL     OW16612   1.283   5.030   0.315
 5238SOL    HW116613   1.216   4.956   0.306
 5238SOL    HW216614   1.294   5.074   0.226
 5239SOL     OW16615   3.490   3.916   4.329
 5239SOL    HW116616   3.396   3.916   4.362
 5239SOL    HW216617   3.511   4.004   4.288
 5240SOL     OW16618   2.992   1.762   5.168
 5240SOL    HW116619   3.061   1.829   5.140
 5240SOL    HW216620   2.911   1.772   5.109
 5241SOL     OW16621   0.560   6.093   6.668
 5241SOL    HW116622   0.537   6.013   6.612
 5241SOL    HW216623   0.587   6.168   6.608
 5242SOL     OW16624   6.216   1.308   5.644
 5242SOL    HW116625   6.196   1.404   5.659
 5242SOL    HW216626   6.306   1.298   5.603
 5243SOL     OW16627   0.883   6.044   0.636
 5243SOL    HW116628   0.857   6.109   0.707
 5243SOL    HW216629   0.979   6.059   0.610
 5244SOL     OW16630   4.201   4.058   5.764
 5244SOL    HW116631   4.174   4.136   5.820
 5244SOL    HW216632   4.275   4.007   5.809
 5245SOL     OW16633   4.594   3.673   5.951
 5245SOL    HW116634   4.584   3.699   5.855
 5245SOL    HW216635   4.586   3.574   5.960
 5246SOL     OW16636   0.203   4.097   2.448
 5246SOL    HW116637   0.246   4.024   2.503
 5246SOL    HW216638   0.258   4.113   2.366
 5247SOL     OW16639   0.597   5.934   6.926
 5247SOL    HW116640   0.635   5.871   6.859
 5247SOL    HW216641   0.627   6.027   6.906
 5248SOL     OW16642   5.746   0.671   5.539
 5248SOL    HW116643   5.829   0.682   5.484
 5248SOL    HW216644   5.768   0.678   5.636
 5249SOL     OW16645   0.922   4.840   4.600
 5249SOL    HW116646   0.827   4.861   4.576
 5249SOL    HW216647   0.957   4.909   4.663
 5250SOL     OW16648   0.487   1.575   6.290
 5250SOL    HW116649   0.387   1.584   6.287
 5250SOL    HW216650   0.515   1.551   6.383
 5251SOL     OW16651   0.116   2.859   1.190
 5251SOL    HW116652   0.064   2.774   1.198
 5251SOL    HW216653   0.076   2.915   1.117
 5252SOL     OW16654   1.800   5.312   1.033
 5252SOL    HW116655   1.754   5.238   0.984
 5252SOL    HW216656   1.789   5.298   1.132
 5253SOL     OW16657   5.885   3.268   4.620
 5253SOL    HW116658   5.842   3.255   4.530
 5253SOL    HW216659   5.871   3.186   4.676
 5254SOL     OW16660   4.815   1.135   3.398
 5254SOL    HW116661   4.905   1.166   3.428
 5254SOL    HW216662   4.744   1.179   3.453
 5255SOL     OW16663   4.043   0.275   4.442
 5255SOL    HW116664   4.071   0.328   4.362
 5255SOL    HW216665   4.047   0.332   4.524
 5256SOL     OW16666   4.766   1.134   2.961
 5256SOL    HW116667   4.723   1.186   2.887
 5256SOL    HW216668   4.727   1.162   3.048
 5257SOL     OW16669   4.144   6.751   1.980
 5257SOL    HW116670   4.228   6.804   1.969
 5257SOL    HW216671   4.156   6.683   2.053
 5258SOL     OW16672   4.967   3.909   1.843
 5258SOL    HW116673   4.907   3.949   1.911
 5258SOL    HW216674   5.063   3.926   1.869
 5259SOL     OW16675   4.669   6.048   2.162
 5259SOL    HW116676   4.667   6.088   2.253
 5259SOL    HW216677   4.606   6.097   2.102
 5260SOL     OW16678   4.836   3.629   0.789
 5260SOL    HW116679   4.745   3.670   0.787
 5260SOL    HW216680   4.841   3.561   0.862
 5261SOL     OW16681   1.352   2.377   5.310
 5261SOL    HW116682   1.399   2.291   5.331
 5261SOL    HW216683   1.272   2.359   5.253
 5262SOL     OW16684   2.594   0.161   2.436
 5262SOL    HW116685   2.681   0.202   2.411
 5262SOL    HW216686   2.610   0.087   2.502
 5263SOL     OW16687   1.506   0.046   6.195
 5263SOL    HW116688   1.521   7.003   6.121
 5263SOL    HW216689   1.459   0.000   6.271
 5264SOL     OW16690   6.554   1.468   1.224
 5264SOL    HW116691   6.573   1.444   1.319
 5264SOL    HW216692   6.486   1.405   1.186
 5265SOL     OW16693   5.694   4.070   2.424
 5265SOL    HW116694   5.661   4.057   2.517
 5265SOL    HW216695   5.716   3.981   2.384
 5266SOL     OW16696   2.756   6.354   1.701
 5266SOL    HW116697   2.845   6.316   1.676
 5266SOL    HW216698   2.762   6.395   1.792
 5267SOL     OW16699   4.459   4.861   5.942
 5267SOL    HW116700   4.428   4.766   5.930
 5267SOL    HW216701   4.402   4.921   5.887
 5268SOL     OW16702   6.189   5.776   5.072
 5268SOL    HW116703   6.106   5.801   5.022
 5268SOL    HW216704   6.168   5.705   5.139
 5269SOL     OW16705   2.215   5.987   3.894
 5269SOL    HW116706   2.221   5.888   3.901
 5269SOL    HW216707   2.129   6.012   3.847
 5270SOL     OW16708   4.882   1.958   1.345
 5270SOL    HW116709   4.945   1.973   1.421
 5270SOL    HW216710   4.804   1.905   1.376
 5271SOL     OW16711   4.216   5.093   4.852
 5271SOL    HW116712   4.152   5.017   4.846
 5271SOL    HW216713   4.276   5.094   4.772
 5272SOL     OW16714   0.967   5.992   4.330
 5272SOL    HW116715   0.949   6.014   4.234
 5272SOL    HW216716   1.065   5.992   4.347
 5273SOL     OW16717   1.296   2.747   3.592
 5273SOL    HW116718   1.330   2.828   3.640
 5273SOL    HW216719   1.324   2.665   3.642
 5274SOL     OW16720   6.327   4.795   3.196
 5274SOL    HW116721   6.337   4.869   3.130
 5274SOL    HW216722   6.286   4.830   3.280
 5275SOL     OW16723   3.072   0.275   6.429
 5275SOL    HW116724   3.025   0.359   6.401
 5275SOL    HW216725   3.167   0.279   6.396
 5276SOL     OW16726   6.962   6.455   0.438
 5276SOL    HW116727   0.027   6.435   0.480
 5276SOL    HW216728   6.976   6.505   0.353
 5277SOL     OW16729   2.015   1.662   3.116
 5277SOL    HW116730   1.932   1.676   3.170
 5277SOL    HW216731   2.095   1.671   3.176
 5278SOL     OW16732   5.419   6.645   5.898
 5278SOL    HW116733   5.367   6.581   5.842
 5278SOL    HW216734   5.490   6.597   5.948
 5279SOL     OW16735   1.001   5.904   6.849
 5279SOL    HW116736   1.092   5.920   6.811
 5279SOL    HW216737   0.976   5.808   6.835
 5280SOL     OW16738   3.651   6.172   5.223
 5280SOL    HW116739   3.578   6.175   5.291
 5280SOL    HW216740   3.703   6.257   5.225
 5281SOL     OW16741   0.852   0.841   4.599
 5281SOL    HW116742   0.854   0.774   4.525
 5281SOL    HW216743   0.787   0.812   4.669
 5282SOL     OW16744   2.007   0.388   2.517
 5282SOL    HW116745   1.926   0.357   2.568
 5282SOL    HW216746   2.018   0.486   2.528
 5283SOL     OW16747   1.401   0.842   3.761
 5283SOL    HW116748   1.449   0.811   3.842
 5283SOL    HW216749   1.460   0.902   3.707
 5284SOL     OW16750   4.603   2.224   2.772
 5284SOL    HW116751   4.648   2.193   2.856
 5284SOL    HW216752   4.651   2.188   2.693
 5285SOL     OW16753   1.263   3.975   3.930
 5285SOL    HW116754   1.312   3.888   3.943
 5285SOL    HW216755   1.165   3.960   3.937
 5286SOL     OW16756   6.331   3.100   1.033
 5286SOL    HW116757   6.233   3.083   1.040
 5286SOL    HW216758   6.376   3.020   0.992
 5287SOL     OW16759   2.774   5.067   2.120
 5287SOL    HW116760   2.678   5.044   2.101
 5287SOL    HW216761   2.784   5.088   2.217
 5288SOL     OW16762   4.976   0.223   2.938
 5288SOL    HW116763   4.943   0.296   2.877
 5288SOL    HW216764   5.073   0.236   2.956
 5289SOL     OW16765   2.199   4.927   6.904
 5289SOL    HW116766   2.276   4.990   6.892
 5289SOL    HW216767   2.156   4.909   6.816
 5290SOL     OW16768   1.718   3.909   5.586
 5290SOL    HW116769   1.625   3.888   5.554
 5290SOL    HW216770   1.784   3.871   5.521
 5291SOL     OW16771   3.151   4.253   5.830
 5291SOL    HW116772   3.221   4.324   5.829
 5291SOL    HW216773   3.063   4.292   5.803
 5292SOL     OW16774   5.592   4.587   6.594
 5292SOL    HW116775   5.677   4.633   6.620
 5292SOL    HW216776   5.604   4.488   6.604
 5293SOL     OW16777   2.146   5.940   4.774
 5293SOL    HW116778   2.107   5.858   4.731
 5293SOL    HW216779   2.114   6.021   4.725
 5294SOL     OW16780   4.331   1.490   5.236
 5294SOL    HW116781   4.277   1.517   5.156
 5294SOL    HW216782   4.335   1.566   5.300
 5295SOL     OW16783   3.861   0.641   3.666
 5295SOL    HW116784   3.853   0.652   3.766
 5295SOL    HW216785   3.770   0.640   3.626
 5296SOL     OW16786   3.757   3.855   0.272
 5296SOL    HW116787   3.822   3.915   0.227
 5296SOL    HW216788   3.664   3.887   0.254
 5297SOL     OW16789   2.209   3.600   0.549
 5297SOL    HW116790   2.214   3.691   0.510
 5297SOL    HW216791   2.263   3.536   0.494
 5298SOL     OW16792   2.013   6.197   6.295
 5298SOL    HW116793   2.028   6.158   6.204
 5298SOL    HW216794   2.009   6.296   6.288
 5299SOL     OW16795   3.039   2.594   1.027
 5299SOL    HW116796   3.131   2.606   0.991
 5299SOL    HW216797   3.023   2.658   1.101
 5300SOL     OW16798   0.769   4.949   0.762
 5300SOL    HW116799   0.671   4.970   0.769
 5300SOL    HW216800   0.799   4.902   0.844
 5301SOL     OW16801   4.026   0.936   6.589
 5301SOL    HW116802   4.044   0.961   6.494
 5301SOL    HW216803   3.950   0.871   6.592
 5302SOL     OW16804   5.902   6.270   3.612
 5302SOL    HW116805   5.962   6.192   3.596
 5302SOL    HW216806   5.949   6.338   3.669
 5303SOL     OW16807   0.075   5.118   5.085
 5303SOL    HW116808   0.004   5.057   5.122
 5303SOL    HW216809   0.162   5.100   5.131
 5304SOL     OW16810   5.877   0.993   0.409
 5304SOL    HW116811   5.846   1.067   0.469
 5304SOL    HW216812   5.960   0.951   0.447
 5305SOL     OW16813   0.711   5.302   2.811
 5305SOL    HW116814   0.766   5.284   2.892
 5305SOL    HW216815   0.771   5.314   2.732
 5306SOL     OW16816   0.864   4.597   5.433
 5306SOL    HW116817   0.875   4.672   5.498
 5306SOL    HW216818   0.767   4.584   5.413
 5307SOL     OW16819   3.960   1.847   0.349
 5307SOL    HW116820   4.021   1.915   0.390
 5307SOL    HW216821   3.999   1.756   0.360
 5308SOL     OW16822   1.314   4.722   2.227
 5308SOL    HW116823   1.372   4.715   2.146
 5308SOL    HW216824   1.329   4.643   2.286
 5309SOL     OW16825   3.728   4.910   2.150
 5309SOL    HW116826   3.660   4.872   2.088
 5309SOL    HW216827   3.820   4.891   2.115
 5310SOL     OW16828   6.420   3.512   2.072
 5310SOL    HW116829   6.405   3.597   2.022
 5310SOL    HW216830   6.346   3.448   2.052
 5311SOL     OW16831   5.772   6.572   6.975
 5311SOL    HW116832   5.791   6.668   6.951
 5311SOL    HW216833   5.719   6.569   0.037
 5312SOL     OW16834   0.386   5.476   1.721
 5312SOL    HW116835   0.369   5.571   1.697
 5312SOL    HW216836   0.482   5.455   1.704
 5313SOL     OW16837   1.373   3.827   6.013
 5313SOL    HW116838   1.364   3.906   6.073
 5313SOL    HW216839   1.354   3.743   6.065
 5314SOL     OW16840   4.233   6.772   0.569
 5314SOL    HW116841   4.137   6.788   0.593
 5314SOL    HW216842   4.269   6.853   0.523
 5315SOL     OW16843   5.128   3.047   2.811
 5315SOL    HW116844   5.136   3.103   2.893
 5315SOL    HW216845   5.193   2.971   2.815
 5316SOL     OW16846   1.277   3.743   5.235
 5316SOL    HW116847   1.177   3.752   5.234
 5316SOL    HW216848   1.303   3.672   5.301
 5317SOL     OW16849   6.110   1.756   5.732
 5317SOL    HW116850   6.142   1.664   5.712
 5317SOL    HW216851   6.141   1.783   5.823
 5318SOL     OW16852   0.614   2.587   0.448
 5318SOL    HW116853   0.678   2.602   0.524
 5318SOL    HW216854   0.604   2.673   0.397
 5319SOL     OW16855   4.461   6.365   1.203
 5319SOL    HW116856   4.460   6.396   1.108
 5319SOL    HW216857   4.394   6.292   1.215
 5320SOL     OW16858   4.530   5.385   0.807
 5320SOL    HW116859   4.531   5.479   0.840
 5320SOL    HW216860   4.539   5.385   0.707
 5321SOL     OW16861   2.139   4.410   5.020
 5321SOL    HW116862   2.167   4.335   4.959
 5321SOL    HW216863   2.040   4.409   5.030
 5322SOL     OW16864   5.693   6.416   0.207
 5322SOL    HW116865   5.639   6.396   0.125
 5322SOL    HW216866   5.785   6.379   0.195
 5323SOL     OW16867   3.299   1.451   5.706
 5323SOL    HW116868   3.373   1.519   5.706
 5323SOL    HW216869   3.305   1.395   5.624
 5324SOL     OW16870   3.320   2.291   0.773
 5324SOL    HW116871   3.269   2.300   0.858
 5324SOL    HW216872   3.410   2.333   0.783
 5325SOL     OW16873   4.368   0.893   4.148
 5325SOL    HW116874   4.465   0.879   4.168
 5325SOL    HW216875   4.357   0.974   4.090
 5326SOL     OW16876   6.733   5.493   3.097
 5326SOL    HW116877   6.812   5.547   3.126
 5326SOL    HW216878   6.686   5.458   3.178
 5327SOL     OW16879   6.037   2.974   5.085
 5327SOL    HW116880   5.984   3.057   5.068
 5327SOL    HW216881   6.134   2.991   5.065
 5328SOL     OW16882   3.490   3.727   6.304
 5328SOL    HW116883   3.577   3.777   6.295
 5328SOL    HW216884   3.459   3.700   6.213
 5329SOL     OW16885   0.666   5.111   6.415
 5329SOL    HW116886   0.570   5.117   6.442
 5329SOL    HW216887   0.675   5.138   6.319
 5330SOL     OW16888   4.474   3.707   6.863
 5330SOL    HW116889   4.411   3.643   6.907
 5330SOL    HW216890   4.537   3.745   6.931
 5331SOL     OW16891   5.853   1.838   6.305
 5331SOL    HW116892   5.786   1.870   6.238
 5331SOL    HW216893   5.932   1.799   6.258
 5332SOL     OW16894   1.047   3.106   1.503
 5332SOL    HW116895   1.072   3.200   1.479
 5332SOL    HW216896   0.967   3.079   1.450
 5333SOL     OW16897   0.769   1.020   3.070
 5333SOL    HW116898   0.712   0.981   2.998
 5333SOL    HW216899   0.823   1.096   3.032
 5334SOL     OW16900   3.234   0.383   4.513
 5334SOL    HW116901   3.331   0.406   4.508
 5334SOL    HW216902   3.221   0.286   4.491
 5335SOL     OW16903   0.107   5.895   0.616
 5335SOL    HW116904   0.054   5.868   0.536
 5335SOL    HW216905   0.202   5.866   0.605
 5336SOL     OW16906   2.160   3.085   2.675
 5336SOL    HW116907   2.068   3.095   2.714
 5336SOL    HW216908   2.207   3.010   2.721
 5337SOL     OW16909   5.122   4.642   0.645
 5337SOL    HW116910   5.100   4.721   0.588
 5337SOL    HW216911   5.179   4.579   0.593
 5338SOL     OW16912   5.864   1.342   0.310
 5338SOL    HW116913   5.767   1.336   0.286
 5338SOL    HW216914   5.880   1.424   0.364
 5339SOL     OW16915   6.657   1.328   3.985
 5339SOL    HW116916   6.591   1.330   4.060
 5339SOL    HW216917   6.612   1.358   3.901
 5340SOL     OW16918   5.219   4.275   0.712
 5340SOL    HW116919   5.204   4.318   0.801
 5340SOL    HW216920   5.134   4.275   0.660
 5341SOL     OW16921   3.747   2.864   6.384
 5341SOL    HW116922   3.845   2.847   6.374
 5341SOL    HW216923   3.698   2.777   6.385
 5342SOL     OW16924   3.497   0.218   4.300
 5342SOL    HW116925   3.399   0.198   4.300
 5342SOL    HW216926   3.513   0.307   4.342
 5343SOL     OW16927   3.232   3.782   4.069
 5343SOL    HW116928   3.304   3.799   4.002
 5343SOL    HW216929   3.182   3.867   4.088
 5344SOL     OW16930   1.976   2.235   2.468
 5344SOL    HW116931   2.074   2.248   2.460
 5344SOL    HW216932   1.942   2.187   2.386
 5345SOL     OW16933   4.236   6.320   1.649
 5345SOL    HW116934   4.321   6.361   1.616
 5345SOL    HW216935   4.233   6.224   1.623
 5346SOL     OW16936   3.405   6.347   4.066
 5346SOL    HW116937   3.353   6.414   4.119
 5346SOL    HW216938   3.502   6.371   4.069
 5347SOL     OW16939   0.323   2.613   2.138
 5347SOL    HW116940   0.227   2.636   2.153
 5347SOL    HW216941   0.349   2.635   2.044
 5348SOL     OW16942   0.502   1.180   0.761
 5348SOL    HW116943   0.537   1.192   0.854
 5348SOL    HW216944   0.407   1.210   0.757
 5349SOL     OW16945   1.146   2.316   0.002
 5349SOL    HW116946   1.214   2.384   6.998
 5349SOL    HW216947   1.181   2.262   0.079
 5350SOL     OW16948   1.481   0.009   5.935
 5350SOL    HW116949   1.434   0.028   5.849
 5350SOL    HW216950   1.462   0.083   6.000
 5351SOL     OW16951   5.911   5.767   1.740
 5351SOL    HW116952   5.878   5.693   1.681
 5351SOL    HW216953   5.870   5.853   1.711
 5352SOL     OW16954   1.763   5.480   4.575
 5352SOL    HW116955   1.698   5.532   4.519
 5352SOL    HW216956   1.837   5.445   4.517
 5353SOL     OW16957   3.182   5.859   4.519
 5353SOL    HW116958   3.136   5.801   4.452
 5353SOL    HW216959   3.150   5.954   4.508
 5354SOL     OW16960   1.851   5.354   1.955
 5354SOL    HW116961   1.854   5.450   1.926
 5354SOL    HW216962   1.916   5.341   2.031
 5355SOL     OW16963   4.922   2.418   4.098
 5355SOL    HW116964   4.825   2.415   4.071
 5355SOL    HW216965   4.946   2.512   4.124
 5356SOL     OW16966   5.802   4.121   1.613
 5356SOL    HW116967   5.883   4.178   1.602
 5356SOL    HW216968   5.827   4.025   1.601
 5357SOL     OW16969   3.606   6.659   0.698
 5357SOL    HW116970   3.636   6.753   0.709
 5357SOL    HW216971   3.562   6.648   0.609
 5358SOL     OW16972   4.377   1.525   0.979
 5358SOL    HW116973   4.286   1.565   0.990
 5358SOL    HW216974   4.368   1.432   0.944
 5359SOL     OW16975   1.871   2.092   0.317
 5359SOL    HW116976   1.953   2.097   0.260
 5359SOL    HW216977   1.898   2.081   0.413
 5360SOL     OW16978   4.460   6.280   5.406
 5360SOL    HW116979   4.460   6.366   5.356
 5360SOL    HW216980   4.373   6.233   5.392
 5361SOL     OW16981   2.358   6.839   4.681
 5361SOL    HW116982   2.452   6.805   4.673
 5361SOL    HW216983   2.296   6.761   4.691
 5362SOL     OW16984   4.991   4.369   3.550
 5362SOL    HW116985   5.085   4.339   3.561
 5362SOL    HW216986   4.987   4.469   3.550
 5363SOL     OW16987   0.762   6.626   6.139
 5363SOL    HW116988   0.854   6.639   6.176
 5363SOL    HW216989   0.722   6.714   6.118
 5364SOL     OW16990   6.989   5.885   1.347
 5364SOL    HW116991   0.021   5.837   1.416
 5364SOL    HW216992   0.024   5.951   1.299
 5365SOL     OW16993   3.860   3.329   6.914
 5365SOL    HW116994   3.806   3.412   6.925
 5365SOL    HW216995   3.945   3.337   6.966
 5366SOL     OW16996   5.252   5.347   1.797
 5366SOL    HW116997   5.226   5.274   1.860
 5366SOL    HW216998   5.264   5.309   1.705
 5367SOL     OW16999   0.414   5.379   0.725
 5367SOL    HW117000   0.494   5.419   0.770
 5367SOL    HW217001   0.439   5.350   0.633
 5368SOL     OW17002   5.077   0.697   3.041
 5368SOL    HW117003   5.027   0.779   3.068
 5368SOL    HW217004   5.146   0.676   3.109
 5369SOL     OW17005   3.274   6.745   2.917
 5369SOL    HW117006   3.354   6.736   2.976
 5369SOL    HW217007   3.241   6.655   2.890
 5370SOL     OW17008   4.392   2.905   1.324
 5370SOL    HW117009   4.456   2.841   1.366
 5370SOL    HW217010   4.426   2.998   1.335
 5371SOL     OW17011   1.688   3.580   4.161
 5371SOL    HW117012   1.612   3.523   4.128
 5371SOL    HW217013   1.751   3.523   4.213
 5372SOL     OW17014   2.462   5.848   3.753
 5372SOL    HW117015   2.446   5.846   3.852
 5372SOL    HW217016   2.375   5.834   3.706
 5373SOL     OW17017   3.153   5.407   4.603
 5373SOL    HW117018   3.188   5.321   4.565
 5373SOL    HW217019   3.230   5.469   4.620
 5374SOL     OW17020   0.785   3.913   0.270
 5374SOL    HW117021   0.879   3.887   0.249
 5374SOL    HW217022   0.780   4.012   0.286
 5375SOL     OW17023   1.856   4.394   4.546
 5375SOL    HW117024   1.832   4.491   4.552
 5375SOL    HW217025   1.943   4.378   4.593
 5376SOL     OW17026   1.780   3.172   0.827
 5376SOL    HW117027   1.822   3.190   0.738
 5376SOL    HW217028   1.698   3.117   0.814
 5377SOL     OW17029   6.876   6.831   1.293
 5377SOL    HW117030   6.853   6.926   1.311
 5377SOL    HW217031   6.899   6.785   1.379
 5378SOL     OW17032   6.910   0.502   1.382
 5378SOL    HW117033   6.821   0.516   1.338
 5378SOL    HW217034   6.898   0.494   1.481
 5379SOL     OW17035   0.865   5.176   5.286
 5379SOL    HW117036   0.849   5.259   5.233
 5379SOL    HW217037   0.782   5.120   5.288
 5380SOL     OW17038   1.800   0.792   3.499
 5380SOL    HW117039   1.843   0.754   3.581
 5380SOL    HW217040   1.863   0.784   3.422
 5381SOL     OW17041   5.984   4.573   0.715
 5381SOL    HW117042   6.040   4.632   0.658
 5381SOL    HW217043   5.956   4.492   0.662
 5382SOL     OW17044   3.219   0.527   1.811
 5382SOL    HW117045   3.302   0.505   1.862
 5382SOL    HW217046   3.142   0.534   1.874
 5383SOL     OW17047   2.584   2.699   5.349
 5383SOL    HW117048   2.507   2.729   5.293
 5383SOL    HW217049   2.605   2.769   5.417
 5384SOL     OW17050   5.950   0.430   4.254
 5384SOL    HW117051   5.941   0.492   4.176
 5384SOL    HW217052   5.989   0.480   4.331
 5385SOL     OW17053   2.923   3.660   3.439
 5385SOL    HW117054   2.877   3.733   3.489
 5385SOL    HW217055   2.921   3.576   3.492
 5386SOL     OW17056   4.228   0.391   4.211
 5386SOL    HW117057   4.221   0.325   4.136
 5386SOL    HW217058   4.284   0.469   4.183
 5387SOL     OW17059   2.588   6.060   3.552
 5387SOL    HW117060   2.548   5.985   3.499
 5387SOL    HW217061   2.515   6.121   3.585
 5388SOL     OW17062   5.940   0.322   3.395
 5388SOL    HW117063   5.917   0.287   3.486
 5388SOL    HW217064   6.001   0.258   3.348
 5389SOL     OW17065   5.520   0.488   1.523
 5389SOL    HW117066   5.485   0.515   1.434
 5389SOL    HW217067   5.516   0.566   1.585
 5390SOL     OW17068   4.583   4.634   3.588
 5390SOL    HW117069   4.561   4.685   3.505
 5390SOL    HW217070   4.626   4.695   3.654
 5391SOL     OW17071   1.808   2.173   1.072
 5391SOL    HW117072   1.745   2.209   1.142
 5391SOL    HW217073   1.897   2.155   1.113
 5392SOL     OW17074   5.932   3.738   0.753
 5392SOL    HW117075   5.879   3.735   0.837
 5392SOL    HW217076   5.973   3.828   0.741
 5393SOL     OW17077   5.431   6.963   6.440
 5393SOL    HW117078   5.477   7.014   6.514
 5393SOL    HW217079   5.416   6.869   6.470
 5394SOL     OW17080   6.693   4.195   6.855
 5394SOL    HW117081   6.596   4.199   6.881
 5394SOL    HW217082   6.702   4.148   6.767
 5395SOL     OW17083   4.928   1.098   2.033
 5395SOL    HW117084   4.902   1.003   2.014
 5395SOL    HW217085   5.007   1.122   1.976
 5396SOL     OW17086   5.100   4.280   2.603
 5396SOL    HW117087   5.056   4.337   2.672
 5396SOL    HW217088   5.054   4.192   2.597
 5397SOL     OW17089   6.683   2.774   2.073
 5397SOL    HW117090   6.645   2.727   1.993
 5397SOL    HW217091   6.618   2.842   2.105
 5398SOL     OW17092   3.362   1.816   2.504
 5398SOL    HW117093   3.288   1.749   2.491
 5398SOL    HW217094   3.323   1.906   2.520
 5399SOL     OW17095   2.213   5.842   6.955
 5399SOL    HW117096   2.185   5.902   6.880
 5399SOL    HW217097   2.249   5.757   6.917
 5400SOL     OW17098   2.691   3.903   1.035
 5400SOL    HW117099   2.790   3.896   1.029
 5400SOL    HW217100   2.659   3.848   1.112
 5401SOL     OW17101   5.768   3.544   1.570
 5401SOL    HW117102   5.841   3.571   1.508
 5401SOL    HW217103   5.802   3.475   1.634
 5402SOL     OW17104   2.411   4.692   1.675
 5402SOL    HW117105   2.446   4.640   1.753
 5402SOL    HW217106   2.485   4.707   1.609
 5403SOL     OW17107   6.097   2.877   6.336
 5403SOL    HW117108   6.151   2.959   6.358
 5403SOL    HW217109   6.088   2.869   6.237
 5404SOL     OW17110   0.621   1.439   2.880
 5404SOL    HW117111   0.577   1.385   2.808
 5404SOL    HW217112   0.627   1.534   2.851
 5405SOL     OW17113   6.070   5.644   7.016
 5405SOL    HW117114   6.043   5.658   6.921
 5405SOL    HW217115   6.009   5.697   0.053
 5406SOL     OW17116   2.262   1.149   6.941
 5406SOL    HW117117   2.229   1.164   0.012
 5406SOL    HW217118   2.323   1.070   6.940
 5407SOL     OW17119   4.603   2.963   0.896
 5407SOL    HW117120   4.693   2.924   0.880
 5407SOL    HW217121   4.532   2.894   0.878
 5408SOL     OW17122   3.411   1.527   6.455
 5408SOL    HW117123   3.427   1.553   6.550
 5408SOL    HW217124   3.372   1.604   6.405
 5409SOL     OW17125   5.366   0.682   3.842
 5409SOL    HW117126   5.462   0.672   3.814
 5409SOL    HW217127   5.318   0.596   3.827
 5410SOL     OW17128   2.958   2.129   1.503
 5410SOL    HW117129   2.909   2.208   1.467
 5410SOL    HW217130   3.039   2.112   1.447
 5411SOL     OW17131   6.620   5.403   5.554
 5411SOL    HW117132   6.632   5.399   5.654
 5411SOL    HW217133   6.541   5.460   5.533
 5412SOL     OW17134   4.610   1.511   6.966
 5412SOL    HW117135   4.611   1.602   6.924
 5412SOL    HW217136   4.666   1.511   0.026
 5413SOL     OW17137   2.620   1.943   1.115
 5413SOL    HW117138   2.663   1.956   1.205
 5413SOL    HW217139   2.668   1.871   1.065
 5414SOL     OW17140   4.903   2.162   4.933
 5414SOL    HW117141   4.851   2.183   4.850
 5414SOL    HW217142   4.992   2.124   4.907
 5415SOL     OW17143   1.536   5.883   0.877
 5415SOL    HW117144   1.438   5.884   0.895
 5415SOL    HW217145   1.582   5.943   0.942
 5416SOL     OW17146   4.601   5.217   5.703
 5416SOL    HW117147   4.658   5.155   5.758
 5416SOL    HW217148   4.636   5.310   5.711
 5417SOL     OW17149   3.910   6.571   5.558
 5417SOL    HW117150   3.923   6.521   5.644
 5417SOL    HW217151   3.815   6.603   5.552
 5418SOL     OW17152   3.519   6.855   3.694
 5418SOL    HW117153   3.603   6.890   3.652
 5418SOL    HW217154   3.535   6.762   3.728
 5419SOL     OW17155   3.488   5.297   0.420
 5419SOL    HW117156   3.405   5.310   0.475
 5419SOL    HW217157   3.548   5.231   0.465
 5420SOL     OW17158   1.485   2.300   2.664
 5420SOL    HW117159   1.576   2.334   2.637
 5420SOL    HW217160   1.417   2.333   2.599
 5421SOL     OW17161   2.530   2.511   2.268
 5421SOL    HW117162   2.450   2.458   2.240
 5421SOL    HW217163   2.533   2.597   2.216
 5422SOL     OW17164   0.494   5.360   0.461
 5422SOL    HW117165   0.478   5.271   0.419
 5422SOL    HW217166   0.482   5.432   0.393
 5423SOL     OW17167   6.041   2.972   6.861
 5423SOL    HW117168   5.977   2.908   6.904
 5423SOL    HW217169   5.996   3.061   6.850
 5424SOL     OW17170   5.579   3.199   3.999
 5424SOL    HW117171   5.673   3.168   3.985
 5424SOL    HW217172   5.578   3.299   4.008
 5425SOL     OW17173   4.014   1.172   4.316
 5425SOL    HW117174   4.112   1.165   4.299
 5425SOL    HW217175   3.991   1.119   4.398
 5426SOL     OW17176   6.317   5.574   4.218
 5426SOL    HW117177   6.225   5.535   4.215
 5426SOL    HW217178   6.383   5.506   4.184
 5427SOL     OW17179   4.829   4.832   6.974
 5427SOL    HW117180   4.746   4.829   6.917
 5427SOL    HW217181   4.862   4.927   6.978
 5428SOL     OW17182   7.000   6.597   1.200
 5428SOL    HW117183   0.049   6.578   1.268
 5428SOL    HW217184   6.940   6.670   1.235
 5429SOL     OW17185   2.246   2.184   6.630
 5429SOL    HW117186   2.157   2.185   6.674
 5429SOL    HW217187   2.281   2.090   6.626
 5430SOL     OW17188   0.317   3.027   6.294
 5430SOL    HW117189   0.374   3.029   6.212
 5430SOL    HW217190   0.374   3.045   6.375
 5431SOL     OW17191   3.073   6.133   0.173
 5431SOL    HW117192   2.984   6.165   0.140
 5431SOL    HW217193   3.135   6.122   0.095
 5432SOL     OW17194   5.441   6.776   6.825
 5432SOL    HW117195   5.382   6.695   6.820
 5432SOL    HW217196   5.521   6.763   6.767
 5433SOL     OW17197   0.608   1.473   4.529
 5433SOL    HW117198   0.564   1.416   4.599
 5433SOL    HW217199   0.660   1.414   4.467
 5434SOL     OW17200   3.976   0.808   5.374
 5434SOL    HW117201   4.036   0.728   5.381
 5434SOL    HW217202   3.925   0.804   5.288
 5435SOL     OW17203   5.514   0.706   1.738
 5435SOL    HW117204   5.507   0.792   1.687
 5435SOL    HW217205   5.588   0.713   1.805
 5436SOL     OW17206   5.182   4.002   4.325
 5436SOL    HW117207   5.099   3.977   4.275
 5436SOL    HW217208   5.246   3.925   4.323
 5437SOL     OW17209   3.163   4.522   6.775
 5437SOL    HW117210   3.077   4.524   6.826
 5437SOL    HW217211   3.184   4.613   6.741
 5438SOL     OW17212   6.627   3.202   2.796
 5438SOL    HW117213   6.567   3.282   2.792
 5438SOL    HW217214   6.722   3.232   2.796
 5439SOL     OW17215   0.756   2.335   0.532
 5439SOL    HW117216   0.687   2.396   0.493
 5439SOL    HW217217   0.847   2.370   0.511
 5440SOL     OW17218   0.828   1.015   1.330
 5440SOL    HW117219   0.830   1.047   1.425
 5440SOL    HW217220   0.905   1.056   1.281
 5441SOL     OW17221   4.711   2.337   3.112
 5441SOL    HW117222   4.681   2.337   3.208
 5441SOL    HW217223   4.712   2.430   3.077
 5442SOL     OW17224   3.037   5.826   3.927
 5442SOL    HW117225   3.027   5.913   3.878
 5442SOL    HW217226   3.053   5.844   4.024
 5443SOL     OW17227   2.583   0.907   4.076
 5443SOL    HW117228   2.605   1.005   4.069
 5443SOL    HW217229   2.639   0.856   4.011
 5444SOL     OW17230   1.469   0.629   4.594
 5444SOL    HW117231   1.486   0.727   4.600
 5444SOL    HW217232   1.444   0.594   4.685
 5445SOL     OW17233   6.036   3.927   3.713
 5445SOL    HW117234   6.096   3.959   3.787
 5445SOL    HW217235   5.956   3.882   3.753
 5446SOL     OW17236   6.891   4.777   5.008
 5446SOL    HW117237   6.803   4.767   4.961
 5446SOL    HW217238   6.882   4.843   5.082
 5447SOL     OW17239   2.792   1.893   6.871
 5447SOL    HW117240   2.741   1.931   6.795
 5447SOL    HW217241   2.825   1.801   6.846
 5448SOL     OW17242   4.600   2.867   5.277
 5448SOL    HW117243   4.565   2.961   5.285
 5448SOL    HW217244   4.524   2.802   5.288
 5449SOL     OW17245   1.686   2.976   6.295
 5449SOL    HW117246   1.614   3.044   6.302
 5449SOL    HW217247   1.772   3.020   6.272
 5450SOL     OW17248   1.282   0.182   1.719
 5450SOL    HW117249   1.350   0.110   1.731
 5450SOL    HW217250   1.298   0.229   1.632
 5451SOL     OW17251   1.567   6.616   3.531
 5451SOL    HW117252   1.605   6.524   3.519
 5451SOL    HW217253   1.570   6.641   3.628
 5452SOL     OW17254   2.216   4.425   6.744
 5452SOL    HW117255   2.225   4.422   6.844
 5452SOL    HW217256   2.191   4.518   6.716
 5453SOL     OW17257   5.488   4.282   1.208
 5453SOL    HW117258   5.489   4.361   1.146
 5453SOL    HW217259   5.418   4.296   1.279
 5454SOL     OW17260   0.037   4.318   6.931
 5454SOL    HW117261   7.021   4.409   6.911
 5454SOL    HW217262   0.021   4.258   6.854
 5455SOL     OW17263   6.437   3.368   0.337
 5455SOL    HW117264   6.484   3.397   0.420
 5455SOL    HW217265   6.338   3.383   0.347
 5456SOL     OW17266   3.455   0.123   7.001
 5456SOL    HW117267   3.533   0.068   6.970
 5456SOL    HW217268   3.383   0.062   0.013
 5457SOL     OW17269   5.849   2.207   0.187
 5457SOL    HW117270   5.894   2.213   0.098
 5457SOL    HW217271   5.913   2.170   0.254
 5458SOL     OW17272   0.381   5.028   0.118
 5458SOL    HW117273   0.294   4.989   0.148
 5458SOL    HW217274   0.453   4.960   0.128
 5459SOL     OW17275   2.611   4.652   6.677
 5459SOL    HW117276   2.540   4.643   6.607
 5459SOL    HW217277   2.576   4.617   6.764
 5460SOL     OW17278   3.094   6.799   2.505
 5460SOL    HW117279   3.097   6.888   2.459
 5460SOL    HW217280   3.115   6.811   2.602
 5461SOL     OW17281   5.786   6.681   5.193
 5461SOL    HW117282   5.783   6.615   5.269
 5461SOL    HW217283   5.864   6.661   5.134
 5462SOL     OW17284   1.045   1.001   6.681
 5462SOL    HW117285   1.065   1.075   6.745
 5462SOL    HW217286   1.048   0.913   6.730
 5463SOL     OW17287   6.234   2.105   6.965
 5463SOL    HW117288   6.186   2.182   7.008
 5463SOL    HW217289   6.215   2.021   7.016
 5464SOL     OW17290   1.260   1.242   3.993
 5464SOL    HW117291   1.225   1.239   3.899
 5464SOL    HW217292   1.184   1.259   4.056
 5465SOL     OW17293   3.904   6.468   3.362
 5465SOL    HW117294   3.987   6.414   3.377
 5465SOL    HW217295   3.920   6.536   3.292
 5466SOL     OW17296   5.880   4.387   5.470
 5466SOL    HW117297   5.791   4.372   5.514
 5466SOL    HW217298   5.895   4.486   5.459
 5467SOL     OW17299   5.153   2.718   3.183
 5467SOL    HW117300   5.136   2.667   3.098
 5467SOL    HW217301   5.117   2.810   3.174
 5468SOL     OW17302   5.008   2.008   4.511
 5468SOL    HW117303   4.996   1.917   4.473
 5468SOL    HW217304   5.052   2.068   4.444
 5469SOL     OW17305   3.675   4.593   6.505
 5469SOL    HW117306   3.597   4.563   6.450
 5469SOL    HW217307   3.728   4.514   6.534
 5470SOL     OW17308   3.240   5.906   2.616
 5470SOL    HW117309   3.302   5.854   2.557
 5470SOL    HW217310   3.273   6.000   2.624
 5471SOL     OW17311   5.312   6.734   2.527
 5471SOL    HW117312   5.362   6.650   2.550
 5471SOL    HW217313   5.242   6.714   2.459
 5472SOL     OW17314   3.920   3.609   5.900
 5472SOL    HW117315   4.016   3.590   5.879
 5472SOL    HW217316   3.864   3.531   5.871
 5473SOL     OW17317   0.540   3.257   3.406
 5473SOL    HW117318   0.576   3.265   3.499
 5473SOL    HW217319   0.440   3.252   3.409
 5474SOL     OW17320   1.289   4.461   4.370
 5474SOL    HW117321   1.212   4.404   4.344
 5474SOL    HW217322   1.290   4.473   4.469
 5475SOL     OW17323   2.348   2.255   1.300
 5475SOL    HW117324   2.437   2.264   1.344
 5475SOL    HW217325   2.312   2.345   1.278
 5476SOL     OW17326   2.090   4.135   6.016
 5476SOL    HW117327   2.090   4.180   6.105
 5476SOL    HW217328   2.151   4.184   5.954
 5477SOL     OW17329   1.860   4.124   3.259
 5477SOL    HW117330   1.836   4.129   3.356
 5477SOL    HW217331   1.945   4.073   3.248
 5478SOL     OW17332   4.514   4.752   5.372
 5478SOL    HW117333   4.539   4.700   5.453
 5478SOL    HW217334   4.569   4.836   5.368
 5479SOL     OW17335   4.915   1.285   6.125
 5479SOL    HW117336   4.882   1.248   6.038
 5479SOL    HW217337   4.893   1.222   6.199
 5480SOL     OW17338   0.353   3.802   3.571
 5480SOL    HW117339   0.445   3.839   3.563
 5480SOL    HW217340   0.357   3.711   3.611
 5481SOL     OW17341   3.933   1.019   4.098
 5481SOL    HW117342   3.926   1.085   4.173
 5481SOL    HW217343   4.022   1.028   4.054
 5482SOL     OW17344   3.743   4.609   1.598
 5482SOL    HW117345   3.832   4.623   1.641
 5482SOL    HW217346   3.676   4.584   1.668
 5483SOL     OW17347   0.418   2.520   5.895
 5483SOL    HW117348   0.426   2.421   5.885
 5483SOL    HW217349   0.390   2.560   5.807
 5484SOL     OW17350   4.581   0.836   4.897
 5484SOL    HW117351   4.577   0.928   4.936
 5484SOL    HW217352   4.665   0.826   4.844
 5485SOL     OW17353   4.329   0.198   5.482
 5485SOL    HW117354   4.341   0.289   5.522
 5485SOL    HW217355   4.346   0.129   5.553
 5486SOL     OW17356   2.789   5.785   5.648
 5486SOL    HW117357   2.791   5.694   5.690
 5486SOL    HW217358   2.757   5.777   5.553
 5487SOL     OW17359   3.170   3.613   6.634
 5487SOL    HW117360   3.242   3.545   6.646
 5487SOL    HW217361   3.116   3.591   6.553
 5488SOL     OW17362   6.477   0.874   0.495
 5488SOL    HW117363   6.421   0.954   0.473
 5488SOL    HW217364   6.537   0.896   0.572
 5489SOL     OW17365   6.238   3.501   1.723
 5489SOL    HW117366   6.251   3.410   1.683
 5489SOL    HW217367   6.328   3.543   1.740
 5490SOL     OW17368   1.866   6.930   2.458
 5490SOL    HW117369   1.845   6.990   2.380
 5490SOL    HW217370   1.915   6.982   2.528
 5491SOL     OW17371   0.367   2.947   0.704
 5491SOL    HW117372   0.309   3.009   0.756
 5491SOL    HW217373   0.400   2.993   0.621
 5492SOL     OW17374   1.138   3.123   5.717
 5492SOL    HW117375   1.235   3.141   5.728
 5492SOL    HW217376   1.106   3.165   5.632
 5493SOL     OW17377   4.037   3.644   2.445
 5493SOL    HW117378   4.035   3.667   2.542
 5493SOL    HW217379   4.018   3.546   2.433
 5494SOL     OW17380   6.726   4.003   5.110
 5494SOL    HW117381   6.791   4.079   5.115
 5494SOL    HW217382   6.739   3.953   5.024
 5495SOL     OW17383   5.591   0.908   1.138
 5495SOL    HW117384   5.686   0.924   1.110
 5495SOL    HW217385   5.581   0.814   1.168
 5496SOL     OW17386   4.570   0.373   3.825
 5496SOL    HW117387   4.489   0.429   3.840
 5496SOL    HW217388   4.635   0.423   3.768
 5497SOL     OW17389   0.351   1.399   5.389
 5497SOL    HW117390   0.435   1.344   5.390
 5497SOL    HW217391   0.308   1.397   5.479
 5498SOL     OW17392   0.279   5.240   1.797
 5498SOL    HW117393   0.269   5.210   1.702
 5498SOL    HW217394   0.298   5.339   1.799
 5499SOL     OW17395   0.568   0.734   3.595
 5499SOL    HW117396   0.556   0.787   3.679
 5499SOL    HW217397   0.606   0.645   3.617
 5500SOL     OW17398   1.384   0.628   0.073
 5500SOL    HW117399   1.394   0.628   6.996
 5500SOL    HW217400   1.298   0.671   0.098
 5501SOL     OW17401   4.019   2.099   0.724
 5501SOL    HW117402   4.080   2.056   0.790
 5501SOL    HW217403   4.018   2.198   0.740
 5502SOL     OW17404   5.438   3.853   6.271
 5502SOL    HW117405   5.480   3.813   6.353
 5502SOL    HW217406   5.481   3.814   6.190
 5503SOL     OW17407   0.428   4.232   1.379
 5503SOL    HW117408   0.420   4.257   1.282
 5503SOL    HW217409   0.480   4.302   1.428
 5504SOL     OW17410   4.227   1.468   5.763
 5504SOL    HW117411   4.305   1.504   5.711
 5504SOL    HW217412   4.260   1.405   5.833
 5505SOL     OW17413   2.345   4.281   3.659
 5505SOL    HW117414   2.376   4.321   3.745
 5505SOL    HW217415   2.372   4.340   3.583
 5506SOL     OW17416   6.971   3.582   7.009
 5506SOL    HW117417   6.964   3.511   0.057
 5506SOL    HW217418   6.897   3.570   6.942
 5507SOL     OW17419   3.718   0.808   6.235
 5507SOL    HW117420   3.789   0.787   6.168
 5507SOL    HW217421   3.721   0.906   6.258
 5508SOL     OW17422   1.142   0.415   0.272
 5508SOL    HW117423   1.108   0.491   0.327
 5508SOL    HW217424   1.157   0.445   0.178
 5509SOL     OW17425   0.604   5.870   0.929
 5509SOL    HW117426   0.593   5.946   0.865
 5509SOL    HW217427   0.699   5.838   0.928
 5510SOL     OW17428   5.235   5.237   6.359
 5510SOL    HW117429   5.183   5.300   6.416
 5510SOL    HW217430   5.332   5.242   6.383
 5511SOL     OW17431   1.010   1.007   5.131
 5511SOL    HW117432   1.036   1.038   5.222
 5511SOL    HW217433   1.058   1.062   5.062
 5512SOL     OW17434   3.541   1.038   1.078
 5512SOL    HW117435   3.587   1.032   1.167
 5512SOL    HW217436   3.543   1.133   1.046
 5513SOL     OW17437   2.895   4.677   5.943
 5513SOL    HW117438   2.897   4.662   6.042
 5513SOL    HW217439   2.830   4.751   5.922
 5514SOL     OW17440   3.658   6.956   5.340
 5514SOL    HW117441   3.703   6.910   5.417
 5514SOL    HW217442   3.623   0.022   5.371
 5515SOL     OW17443   1.787   5.895   2.058
 5515SOL    HW117444   1.804   5.839   2.138
 5515SOL    HW217445   1.701   5.945   2.070
 5516SOL     OW17446   2.342   2.718   5.213
 5516SOL    HW117447   2.243   2.728   5.203
 5516SOL    HW217448   2.388   2.798   5.174
 5517SOL     OW17449   1.727   3.599   1.996
 5517SOL    HW117450   1.659   3.583   2.067
 5517SOL    HW217451   1.787   3.519   1.988
 5518SOL     OW17452   6.329   4.993   5.965
 5518SOL    HW117453   6.287   4.903   5.952
 5518SOL    HW217454   6.398   5.008   5.895
 5519SOL     OW17455   5.224   2.999   3.751
 5519SOL    HW117456   5.210   2.949   3.666
 5519SOL    HW217457   5.263   3.089   3.732
 5520SOL     OW17458   5.613   6.137   2.671
 5520SOL    HW117459   5.674   6.058   2.684
 5520SOL    HW217460   5.657   6.203   2.609
 5521SOL     OW17461   5.294   5.865   1.436
 5521SOL    HW117462   5.380   5.853   1.486
 5521SOL    HW217463   5.250   5.776   1.425
 5522SOL     OW17464   6.586   5.350   1.476
 5522SOL    HW117465   6.666   5.410   1.471
 5522SOL    HW217466   6.504   5.401   1.450
 5523SOL     OW17467   5.038   0.648   2.758
 5523SOL    HW117468   5.051   0.676   2.853
 5523SOL    HW217469   5.027   0.548   2.754
 5524SOL     OW17470   3.970   0.038   5.528
 5524SOL    HW117471   3.919   6.975   5.538
 5524SOL    HW217472   4.026   0.036   5.446
 5525SOL     OW17473   6.928   2.894   0.468
 5525SOL    HW117474   6.963   2.846   0.549
 5525SOL    HW217475   6.885   2.829   0.407
 5526SOL     OW17476   4.503   4.412   2.894
 5526SOL    HW117477   4.597   4.427   2.866
 5526SOL    HW217478   4.441   4.428   2.817
 5527SOL     OW17479   4.956   3.552   3.977
 5527SOL    HW117480   4.876   3.612   3.981
 5527SOL    HW217481   4.989   3.547   3.882
 5528SOL     OW17482   1.032   1.443   1.595
 5528SOL    HW117483   1.054   1.425   1.691
 5528SOL    HW217484   0.992   1.534   1.586
 5529SOL     OW17485   2.470   6.744   3.454
 5529SOL    HW117486   2.507   6.756   3.362
 5529SOL    HW217487   2.421   6.658   3.460
 5530SOL     OW17488   6.726   2.566   2.235
 5530SOL    HW117489   6.683   2.643   2.188
 5530SOL    HW217490   6.694   2.480   2.194
 5531SOL     OW17491   3.984   4.258   1.657
 5531SOL    HW117492   4.071   4.209   1.668
 5531SOL    HW217493   4.002   4.355   1.646
 5532SOL     OW17494   1.934   2.652   0.480
 5532SOL    HW117495   1.845   2.681   0.445
 5532SOL    HW217496   1.941   2.676   0.577
 5533SOL     OW17497   4.947   1.592   4.113
 5533SOL    HW117498   4.927   1.596   4.211
 5533SOL    HW217499   5.046   1.582   4.100
 5534SOL     OW17500   1.163   1.221   5.852
 5534SOL    HW117501   1.236   1.161   5.818
 5534SOL    HW217502   1.136   1.192   5.943
 5535SOL     OW17503   0.841   1.458   2.557
 5535SOL    HW117504   0.871   1.408   2.475
 5535SOL    HW217505   0.751   1.498   2.540
 5536SOL     OW17506   3.772   0.562   4.404
 5536SOL    HW117507   3.778   0.646   4.350
 5536SOL    HW217508   3.804   0.485   4.349
 5537SOL     OW17509   3.919   1.566   2.489
 5537SOL    HW117510   3.877   1.547   2.400
 5537SOL    HW217511   3.965   1.483   2.523
 5538SOL     OW17512   4.466   5.966   4.568
 5538SOL    HW117513   4.513   5.977   4.480
 5538SOL    HW217514   4.369   5.950   4.552
 5539SOL     OW17515   2.015   3.543   1.043
 5539SOL    HW117516   2.024   3.479   1.119
 5539SOL    HW217517   2.103   3.590   1.029
 5540SOL     OW17518   4.738   4.811   3.729
 5540SOL    HW117519   4.819   4.868   3.715
 5540SOL    HW217520   4.746   4.764   3.817
 5541SOL     OW17521   4.197   1.788   6.299
 5541SOL    HW117522   4.289   1.747   6.296
 5541SOL    HW217523   4.183   1.831   6.389
 5542SOL     OW17524   3.960   3.421   6.152
 5542SOL    HW117525   3.966   3.339   6.096
 5542SOL    HW217526   4.027   3.488   6.120
 5543SOL     OW17527   6.138   3.873   6.657
 5543SOL    HW117528   6.053   3.890   6.606
 5543SOL    HW217529   6.136   3.925   6.743
 5544SOL     OW17530   5.644   0.805   5.941
 5544SOL    HW117531   5.716   0.845   5.884
 5544SOL    HW217532   5.616   0.717   5.902
 5545SOL     OW17533   4.065   2.152   2.587
 5545SOL    HW117534   4.110   2.076   2.541
 5545SOL    HW217535   4.119   2.236   2.575
 5546SOL     OW17536   1.891   5.258   5.849
 5546SOL    HW117537   1.943   5.330   5.803
 5546SOL    HW217538   1.794   5.283   5.852
 5547SOL     OW17539   3.218   5.847   5.072
 5547SOL    HW117540   3.316   5.867   5.073
 5547SOL    HW217541   3.187   5.834   4.978
 5548SOL     OW17542   6.016   3.458   5.412
 5548SOL    HW117543   6.090   3.523   5.428
 5548SOL    HW217544   6.053   3.374   5.371
 5549SOL     OW17545   3.256   5.236   6.610
 5549SOL    HW117546   3.348   5.261   6.641
 5549SOL    HW217547   3.189   5.298   6.653
 5550SOL     OW17548   2.188   5.821   1.248
 5550SOL    HW117549   2.158   5.906   1.292
 5550SOL    HW217550   2.279   5.796   1.282
 5551SOL     OW17551   1.376   0.732   3.260
 5551SOL    HW117552   1.446   0.686   3.315
 5551SOL    HW217553   1.401   0.828   3.248
 5552SOL     OW17554   7.021   1.867   0.763
 5552SOL    HW117555   6.924   1.847   0.750
 5552SOL    HW217556   0.046   1.786   0.796
 5553SOL     OW17557   4.263   6.609   6.954
 5553SOL    HW117558   4.363   6.607   6.957
 5553SOL    HW217559   4.232   6.586   6.862
 5554SOL     OW17560   2.836   2.210   5.178
 5554SOL    HW117561   2.920   2.233   5.226
 5554SOL    HW217562   2.851   2.217   5.079
 5555SOL     OW17563   0.265   5.563   3.590
 5555SOL    HW117564   0.357   5.536   3.619
 5555SOL    HW217565   0.258   5.663   3.591
 5556SOL     OW17566   0.809   1.906   5.226
 5556SOL    HW117567   0.734   1.955   5.270
 5556SOL    HW217568   0.893   1.916   5.281
 5557SOL     OW17569   1.937   6.051   3.785
 5557SOL    HW117570   1.896   5.973   3.739
 5557SOL    HW217571   1.911   6.135   3.738
 5558SOL     OW17572   5.518   2.789   4.921
 5558SOL    HW117573   5.459   2.851   4.869
 5558SOL    HW217574   5.601   2.769   4.869
 5559SOL     OW17575   2.132   0.369   1.063
 5559SOL    HW117576   2.154   0.299   0.995
 5559SOL    HW217577   2.080   0.443   1.019
 5560SOL     OW17578   0.222   1.095   3.376
 5560SOL    HW117579   0.312   1.065   3.408
 5560SOL    HW217580   0.231   1.182   3.327
 5561SOL     OW17581   1.562   3.164   3.501
 5561SOL    HW117582   1.607   3.074   3.502
 5561SOL    HW217583   1.462   3.151   3.502
 5562SOL     OW17584   2.213   3.128   5.879
 5562SOL    HW117585   2.302   3.153   5.918
 5562SOL    HW217586   2.205   3.029   5.877
 5563SOL     OW17587   4.476   6.323   2.365
 5563SOL    HW117588   4.506   6.372   2.448
 5563SOL    HW217589   4.391   6.274   2.385
 5564SOL     OW17590   4.974   3.949   1.585
 5564SOL    HW117591   4.957   3.946   1.683
 5564SOL    HW217592   4.890   3.974   1.537
 5565SOL     OW17593   3.761   2.265   5.593
 5565SOL    HW117594   3.665   2.292   5.599
 5565SOL    HW217595   3.804   2.307   5.513
 5566SOL     OW17596   2.092   5.155   1.374
 5566SOL    HW117597   2.090   5.241   1.323
 5566SOL    HW217598   1.998   5.124   1.390
 5567SOL     OW17599   1.713   5.692   1.329
 5567SOL    HW117600   1.754   5.604   1.352
 5567SOL    HW217601   1.663   5.685   1.244
 5568SOL     OW17602   4.599   1.427   1.461
 5568SOL    HW117603   4.601   1.446   1.363
 5568SOL    HW217604   4.505   1.410   1.491
 5569SOL     OW17605   3.936   1.373   1.250
 5569SOL    HW117606   4.016   1.320   1.222
 5569SOL    HW217607   3.949   1.407   1.343
 5570SOL     OW17608   6.475   4.448   5.369
 5570SOL    HW117609   6.559   4.433   5.315
 5570SOL    HW217610   6.463   4.372   5.433
 5571SOL     OW17611   6.805   5.528   0.640
 5571SOL    HW117612   6.796   5.620   0.677
 5571SOL    HW217613   6.833   5.466   0.712
 5572SOL     OW17614   4.361   2.239   6.319
 5572SOL    HW117615   4.455   2.239   6.284
 5572SOL    HW217616   4.329   2.334   6.325
 5573SOL     OW17617   0.864   3.843   0.837
 5573SOL    HW117618   0.867   3.840   0.937
 5573SOL    HW217619   0.923   3.771   0.800
 5574SOL     OW17620   0.758   6.155   4.859
 5574SOL    HW117621   0.718   6.160   4.768
 5574SOL    HW217622   0.773   6.059   4.884
 5575SOL     OW17623   0.940   0.975   0.527
 5575SOL    HW117624   0.916   0.950   0.621
 5575SOL    HW217625   0.991   1.061   0.527
 5576SOL     OW17626   5.523   6.421   0.406
 5576SOL    HW117627   5.468   6.348   0.365
 5576SOL    HW217628   5.608   6.431   0.356
 5577SOL     OW17629   2.029   3.977   5.427
 5577SOL    HW117630   2.118   3.952   5.387
 5577SOL    HW217631   1.960   3.980   5.354
 5578SOL     OW17632   4.302   3.088   0.197
 5578SOL    HW117633   4.285   3.127   0.107
 5578SOL    HW217634   4.385   3.128   0.236
 5579SOL     OW17635   5.453   3.519   6.881
 5579SOL    HW117636   5.471   3.529   6.979
 5579SOL    HW217637   5.421   3.607   6.844
 5580SOL     OW17638   5.404   1.035   0.437
 5580SOL    HW117639   5.426   1.131   0.421
 5580SOL    HW217640   5.479   0.977   0.406
 5581SOL     OW17641   2.069   1.100   6.493
 5581SOL    HW117642   2.107   1.149   6.572
 5581SOL    HW217643   2.065   1.002   6.513
 5582SOL     OW17644   3.318   3.160   3.430
 5582SOL    HW117645   3.416   3.142   3.432
 5582SOL    HW217646   3.298   3.225   3.356
 5583SOL     OW17647   3.797   0.337   1.417
 5583SOL    HW117648   3.879   0.282   1.433
 5583SOL    HW217649   3.759   0.316   1.327
 5584SOL     OW17650   6.821   3.735   3.078
 5584SOL    HW117651   6.819   3.651   3.025
 5584SOL    HW217652   6.742   3.738   3.140
 5585SOL     OW17653   6.293   0.541   4.181
 5585SOL    HW117654   6.376   0.532   4.237
 5585SOL    HW217655   6.288   0.633   4.143
 5586SOL     OW17656   2.235   0.897   5.584
 5586SOL    HW117657   2.224   0.929   5.678
 5586SOL    HW217658   2.237   0.976   5.522
 5587SOL     OW17659   4.174   0.717   3.948
 5587SOL    HW117660   4.200   0.682   4.038
 5587SOL    HW217661   4.080   0.691   3.928
 5588SOL     OW17662   2.319   0.126   5.778
 5588SOL    HW117663   2.369   0.195   5.725
 5588SOL    HW217664   2.239   0.096   5.726
 5589SOL     OW17665   4.549   2.682   5.887
 5589SOL    HW117666   4.622   2.728   5.937
 5589SOL    HW217667   4.510   2.745   5.820
 5590SOL     OW17668   0.450   5.884   4.622
 5590SOL    HW117669   0.451   5.877   4.522
 5590SOL    HW217670   0.453   5.792   4.662
 5591SOL     OW17671   5.506   0.254   0.256
 5591SOL    HW117672   5.494   0.189   0.331
 5591SOL    HW217673   5.521   0.346   0.292
 5592SOL     OW17674   1.875   3.245   2.576
 5592SOL    HW117675   1.939   3.204   2.512
 5592SOL    HW217676   1.887   3.205   2.667
 5593SOL     OW17677   1.963   2.551   5.853
 5593SOL    HW117678   2.019   2.601   5.919
 5593SOL    HW217679   1.881   2.517   5.898
 5594SOL     OW17680   2.216   0.423   0.643
 5594SOL    HW117681   2.286   0.373   0.694
 5594SOL    HW217682   2.159   0.357   0.594
 5595SOL     OW17683   6.980   2.291   5.987
 5595SOL    HW117684   0.020   2.233   6.039
 5595SOL    HW217685   6.995   2.278   5.889
 5596SOL     OW17686   5.227   0.323   2.916
 5596SOL    HW117687   5.232   0.360   3.009
 5596SOL    HW217688   5.296   0.251   2.904
 5597SOL     OW17689   6.567   1.026   6.255
 5597SOL    HW117690   6.640   1.081   6.214
 5597SOL    HW217691   6.575   0.931   6.224
 5598SOL     OW17692   6.331   1.819   3.569
 5598SOL    HW117693   6.308   1.723   3.584
 5598SOL    HW217694   6.387   1.853   3.644
 5599SOL     OW17695   4.908   3.967   2.334
 5599SOL    HW117696   4.817   4.005   2.317
 5599SOL    HW217697   4.927   3.896   2.266
 5600SOL     OW17698   2.290   1.160   2.558
 5600SOL    HW117699   2.199   1.200   2.548
 5600SOL    HW217700   2.357   1.217   2.511
 5601SOL     OW17701   5.432   3.023   5.745
 5601SOL    HW117702   5.333   3.035   5.748
 5601SOL    HW217703   5.475   3.104   5.707
 5602SOL     OW17704   0.292   2.415   3.037
 5602SOL    HW117705   0.223   2.343   3.046
 5602SOL    HW217706   0.365   2.400   3.105
 5603SOL     OW17707   4.249   2.238   4.582
 5603SOL    HW117708   4.224   2.286   4.497
 5603SOL    HW217709   4.345   2.212   4.578
 5604SOL     OW17710   0.235   0.301   3.760
 5604SOL    HW117711   0.158   0.365   3.761
 5604SOL    HW217712   0.297   0.322   3.836
 5605SOL     OW17713   2.867   5.960   4.498
 5605SOL    HW117714   2.850   5.992   4.405
 5605SOL    HW217715   2.866   5.860   4.499
 5606SOL     OW17716   4.705   2.031   0.349
 5606SOL    HW117717   4.622   2.082   0.327
 5606SOL    HW217718   4.736   2.055   0.441
 5607SOL     OW17719   6.005   2.667   2.019
 5607SOL    HW117720   5.921   2.625   1.984
 5607SOL    HW217721   5.987   2.762   2.044
 5608SOL     OW17722   4.279   1.037   3.429
 5608SOL    HW117723   4.258   1.133   3.409
 5608SOL    HW217724   4.195   0.990   3.455
 5609SOL     OW17725   6.539   6.795   1.000
 5609SOL    HW117726   6.482   6.848   0.937
 5609SOL    HW217727   6.611   6.748   0.949
 5610SOL     OW17728   5.213   4.465   0.121
 5610SOL    HW117729   5.172   4.375   0.141
 5610SOL    HW217730   5.222   4.476   0.023
 5611SOL     OW17731   0.039   5.105   1.571
 5611SOL    HW117732   0.031   5.057   1.659
 5611SOL    HW217733   6.993   5.177   1.566
 5612SOL     OW17734   2.672   0.721   0.809
 5612SOL    HW117735   2.771   0.721   0.815
 5612SOL    HW217736   2.639   0.627   0.803
 5613SOL     OW17737   6.514   5.385   5.283
 5613SOL    HW117738   6.415   5.375   5.276
 5613SOL    HW217739   6.539   5.481   5.269
 5614SOL     OW17740   6.016   1.990   4.240
 5614SOL    HW117741   5.944   1.921   4.230
 5614SOL    HW217742   6.100   1.957   4.196
 5615SOL     OW17743   0.388   3.219   3.079
 5615SOL    HW117744   0.438   3.135   3.102
 5615SOL    HW217745   0.440   3.298   3.111
 5616SOL     OW17746   1.909   3.072   2.798
 5616SOL    HW117747   1.982   3.028   2.851
 5616SOL    HW217748   1.824   3.068   2.849
 5617SOL     OW17749   2.073   5.071   6.539
 5617SOL    HW117750   2.073   5.062   6.439
 5617SOL    HW217751   1.988   5.114   6.569
 5618SOL     OW17752   6.429   5.958   3.838
 5618SOL    HW117753   6.515   5.909   3.828
 5618SOL    HW217754   6.439   6.052   3.804
 5619SOL     OW17755   3.466   3.192   4.334
 5619SOL    HW117756   3.445   3.179   4.237
 5619SOL    HW217757   3.429   3.116   4.386
 5620SOL     OW17758   4.900   4.357   5.640
 5620SOL    HW117759   4.813   4.377   5.684
 5620SOL    HW217760   4.911   4.416   5.560
 5621SOL     OW17761   1.851   2.257   5.212
 5621SOL    HW117762   1.832   2.160   5.226
 5621SOL    HW217763   1.845   2.306   5.299
 5622SOL     OW17764   4.984   5.919   4.869
 5622SOL    HW117765   4.966   5.863   4.950
 5622SOL    HW217766   4.987   6.016   4.895
 5623SOL     OW17767   5.109   6.312   4.181
 5623SOL    HW117768   5.122   6.407   4.208
 5623SOL    HW217769   5.059   6.263   4.253
 5624SOL     OW17770   6.819   4.809   4.552
 5624SOL    HW117771   6.861   4.758   4.627
 5624SOL    HW217772   6.883   4.812   4.474
 5625SOL     OW17773   1.093   5.934   4.627
 5625SOL    HW117774   1.080   5.958   4.723
 5625SOL    HW217775   1.145   6.005   4.582
 5626SOL     OW17776   1.921   3.916   4.573
 5626SOL    HW117777   1.917   3.820   4.543
 5626SOL    HW217778   1.995   3.926   4.640
 5627SOL     OW17779   1.120   5.325   6.997
 5627SOL    HW117780   1.067   5.382   0.038
 5627SOL    HW217781   1.198   5.285   0.021
 5628SOL     OW17782   2.471   3.022   1.008
 5628SOL    HW117783   2.378   2.995   1.033
 5628SOL    HW217784   2.526   3.032   1.091
 5629SOL     OW17785   5.184   3.735   1.512
 5629SOL    HW117786   5.230   3.696   1.592
 5629SOL    HW217787   5.125   3.810   1.541
 5630SOL     OW17788   2.360   4.050   6.592
 5630SOL    HW117789   2.275   4.008   6.623
 5630SOL    HW217790   2.420   4.067   6.670
 5631SOL     OW17791   4.456   1.024   1.737
 5631SOL    HW117792   4.386   0.958   1.711
 5631SOL    HW217793   4.424   1.117   1.715
 5632SOL     OW17794   5.837   6.925   6.157
 5632SOL    HW117795   5.829   6.997   6.226
 5632SOL    HW217796   5.767   6.940   6.086
 5633SOL     OW17797   0.694   5.162   5.636
 5633SOL    HW117798   0.632   5.088   5.610
 5633SOL    HW217799   0.646   5.228   5.694
 5634SOL     OW17800   2.856   6.636   0.143
 5634SOL    HW117801   2.954   6.646   0.129
 5634SOL    HW217802   2.816   6.583   0.067
 5635SOL     OW17803   2.457   0.312   6.843
 5635SOL    HW117804   2.407   0.246   6.898
 5635SOL    HW217805   2.434   0.300   6.747
 5636SOL     OW17806   6.600   1.533   5.655
 5636SOL    HW117807   6.662   1.478   5.711
 5636SOL    HW217808   6.526   1.476   5.621
 5637SOL     OW17809   5.146   6.732   4.536
 5637SOL    HW117810   5.214   6.804   4.549
 5637SOL    HW217811   5.138   6.679   4.620
 5638SOL     OW17812   5.225   5.408   0.964
 5638SOL    HW117813   5.279   5.442   0.887
 5638SOL    HW217814   5.285   5.361   1.028
 5639SOL     OW17815   0.541   0.517   1.500
 5639SOL    HW117816   0.603   0.497   1.424
 5639SOL    HW217817   0.458   0.561   1.464
 5640SOL     OW17818   3.135   5.745   3.346
 5640SOL    HW117819   3.081   5.815   3.393
 5640SOL    HW217820   3.217   5.788   3.306
 5641SOL     OW17821   0.555   4.342   3.852
 5641SOL    HW117822   0.582   4.334   3.948
 5641SOL    HW217823   0.611   4.280   3.797
 5642SOL     OW17824   1.618   4.537   0.419
 5642SOL    HW117825   1.655   4.511   0.508
 5642SOL    HW217826   1.575   4.457   0.377
 5643SOL     OW17827   4.508   2.139   4.547
 5643SOL    HW117828   4.539   2.210   4.484
 5643SOL    HW217829   4.525   2.049   4.506
 5644SOL     OW17830   4.634   1.539   5.223
 5644SOL    HW117831   4.544   1.498   5.207
 5644SOL    HW217832   4.657   1.599   5.147
 5645SOL     OW17833   5.922   5.624   3.581
 5645SOL    HW117834   5.908   5.716   3.617
 5645SOL    HW217835   5.969   5.569   3.649
 5646SOL     OW17836   0.494   6.496   3.513
 5646SOL    HW117837   0.511   6.448   3.599
 5646SOL    HW217838   0.567   6.474   3.448
 5647SOL     OW17839   5.962   5.668   6.778
 5647SOL    HW117840   5.947   5.753   6.728
 5647SOL    HW217841   5.875   5.620   6.788
 5648SOL     OW17842   1.672   1.744   3.687
 5648SOL    HW117843   1.718   1.793   3.760
 5648SOL    HW217844   1.738   1.725   3.613
 5649SOL     OW17845   0.912   0.795   4.908
 5649SOL    HW117846   0.950   0.870   4.963
 5649SOL    HW217847   0.960   0.790   4.821
 5650SOL     OW17848   6.743   4.777   6.470
 5650SOL    HW117849   6.704   4.856   6.423
 5650SOL    HW217850   6.672   4.708   6.484
 5651SOL     OW17851   0.121   1.443   1.799
 5651SOL    HW117852   0.074   1.496   1.870
 5651SOL    HW217853   0.071   1.452   1.713
 5652SOL     OW17854   4.947   5.433   1.922
 5652SOL    HW117855   4.871   5.379   1.957
 5652SOL    HW217856   4.969   5.404   1.829
 5653SOL     OW17857   0.123   5.437   5.273
 5653SOL    HW117858   0.154   5.475   5.186
 5653SOL    HW217859   0.029   5.405   5.265
 5654SOL     OW17860   6.705   0.432   5.456
 5654SOL    HW117861   6.792   0.404   5.495
 5654SOL    HW217862   6.640   0.453   5.529
 5655SOL     OW17863   0.874   3.382   3.947
 5655SOL    HW117864   0.902   3.336   4.031
 5655SOL    HW217865   0.792   3.337   3.910
 5656SOL     OW17866   3.507   3.257   0.785
 5656SOL    HW117867   3.462   3.342   0.757
 5656SOL    HW217868   3.605   3.274   0.793
 5657SOL     OW17869   3.911   0.102   1.779
 5657SOL    HW117870   3.941   0.136   1.690
 5657SOL    HW217871   3.939   0.167   1.850
 5658SOL     OW17872   3.768   6.878   5.581
 5658SOL    HW117873   3.729   6.791   5.611
 5658SOL    HW217874   3.741   6.950   5.645
 5659SOL     OW17875   3.063   3.490   2.770
 5659SOL    HW117876   3.044   3.552   2.694
 5659SOL    HW217877   2.995   3.416   2.770
 5660SOL     OW17878   4.508   0.547   6.620
 5660SOL    HW117879   4.477   0.457   6.590
 5660SOL    HW217880   4.457   0.574   6.702
 5661SOL     OW17881   0.173   6.102   4.577
 5661SOL    HW117882   0.161   6.016   4.627
 5661SOL    HW217883   0.087   6.130   4.537
 5662SOL     OW17884   2.374   4.385   3.898
 5662SOL    HW117885   2.284   4.424   3.916
 5662SOL    HW217886   2.445   4.446   3.934
 5663SOL     OW17887   0.941   3.978   0.596
 5663SOL    HW117888   0.904   3.924   0.672
 5663SOL    HW217889   1.024   3.935   0.562
 5664SOL     OW17890   0.181   4.556   2.443
 5664SOL    HW117891   0.095   4.509   2.423
 5664SOL    HW217892   0.197   4.627   2.375
 5665SOL     OW17893   2.274   2.999   6.175
 5665SOL    HW117894   2.320   3.050   6.247
 5665SOL    HW217895   2.343   2.955   6.117
 5666SOL     OW17896   4.898   5.788   0.481
 5666SOL    HW117897   4.827   5.854   0.456
 5666SOL    HW217898   4.988   5.826   0.460
 5667SOL     OW17899   6.614   5.113   3.127
 5667SOL    HW117900   6.598   5.081   3.220
 5667SOL    HW217901   6.698   5.074   3.092
 5668SOL     OW17902   4.741   2.059   6.059
 5668SOL    HW117903   4.725   1.968   6.097
 5668SOL    HW217904   4.669   2.081   5.994
 5669SOL     OW17905   0.922   4.954   6.068
 5669SOL    HW117906   0.909   5.036   6.123
 5669SOL    HW217907   0.857   4.884   6.097
 5670SOL     OW17908   0.535   3.223   4.522
 5670SOL    HW117909   0.579   3.176   4.445
 5670SOL    HW217910   0.592   3.215   4.604
 5671SOL     OW17911   2.209   0.230   6.670
 5671SOL    HW117912   2.114   0.201   6.680
 5671SOL    HW217913   2.254   0.173   6.601
 5672SOL     OW17914   5.390   4.013   5.865
 5672SOL    HW117915   5.454   4.004   5.788
 5672SOL    HW217916   5.441   4.041   5.947
 5673SOL     OW17917   0.133   0.392   1.968
 5673SOL    HW117918   0.077   0.360   2.044
 5673SOL    HW217919   0.103   0.349   1.883
 5674SOL     OW17920   6.784   3.286   1.565
 5674SOL    HW117921   6.731   3.273   1.650
 5674SOL    HW217922   6.737   3.352   1.507
 5675SOL     OW17923   4.518   2.288   5.402
 5675SOL    HW117924   4.611   2.301   5.367
 5675SOL    HW217925   4.486   2.197   5.379
 5676SOL     OW17926   2.133   0.070   1.490
 5676SOL    HW117927   2.091   0.160   1.496
 5676SOL    HW217928   2.163   0.041   1.581
 5677SOL     OW17929   6.413   0.865   3.775
 5677SOL    HW117930   6.408   0.965   3.784
 5677SOL    HW217931   6.382   0.838   3.684
 5678SOL     OW17932   3.622   6.814   2.603
 5678SOL    HW117933   3.676   6.830   2.520
 5678SOL    HW217934   3.643   6.723   2.640
 5679SOL     OW17935   1.881   6.675   5.000
 5679SOL    HW117936   1.794   6.628   5.014
 5679SOL    HW217937   1.885   6.755   5.060
 5680SOL     OW17938   1.598   5.486   6.315
 5680SOL    HW117939   1.573   5.528   6.227
 5680SOL    HW217940   1.656   5.550   6.366
 5681SOL     OW17941   1.434   2.029   6.459
 5681SOL    HW117942   1.466   2.120   6.436
 5681SOL    HW217943   1.410   2.025   6.556
 5682SOL     OW17944   1.731   2.417   5.877
 5682SOL    HW117945   1.662   2.374   5.820
 5682SOL    HW217946   1.691   2.444   5.965
 5683SOL     OW17947   3.306   2.998   6.344
 5683SOL    HW117948   3.229   2.934   6.348
 5683SOL    HW217949   3.380   2.966   6.403
 5684SOL     OW17950   3.716   3.462   3.899
 5684SOL    HW117951   3.643   3.517   3.939
 5684SOL    HW217952   3.679   3.373   3.871
 5685SOL     OW17953   0.461   4.870   2.628
 5685SOL    HW117954   0.470   4.775   2.658
 5685SOL    HW217955   0.382   4.880   2.567
 5686SOL     OW17956   3.990   0.207   0.970
 5686SOL    HW117957   3.981   0.305   0.988
 5686SOL    HW217958   4.029   0.162   1.050
 5687SOL     OW17959   5.589   4.338   5.170
 5687SOL    HW117960   5.523   4.387   5.114
 5687SOL    HW217961   5.548   4.316   5.259
 5688SOL     OW17962   5.494   2.255   1.542
 5688SOL    HW117963   5.520   2.256   1.639
 5688SOL    HW217964   5.534   2.174   1.498
 5689SOL     OW17965   4.845   1.446   0.676
 5689SOL    HW117966   4.860   1.453   0.774
 5689SOL    HW217967   4.747   1.437   0.657
 5690SOL     OW17968   4.592   6.071   0.705
 5690SOL    HW117969   4.572   5.983   0.663
 5690SOL    HW217970   4.575   6.066   0.803
 5691SOL     OW17971   2.652   6.859   2.433
 5691SOL    HW117972   2.703   6.914   2.368
 5691SOL    HW217973   2.685   6.765   2.430
 5692SOL     OW17974   6.732   2.340   5.822
 5692SOL    HW117975   6.810   2.325   5.883
 5692SOL    HW217976   6.752   2.415   5.760
 5693SOL     OW17977   4.720   2.586   2.710
 5693SOL    HW117978   4.730   2.685   2.714
 5693SOL    HW217979   4.769   2.551   2.629
 5694SOL     OW17980   6.991   1.082   3.503
 5694SOL    HW117981   6.929   1.127   3.439
 5694SOL    HW217982   0.063   1.110   3.484
 5695SOL     OW17983   1.056   2.241   3.663
 5695SOL    HW117984   1.098   2.164   3.615
 5695SOL    HW217985   1.107   2.260   3.747
 5696SOL     OW17986   2.545   1.676   5.134
 5696SOL    HW117987   2.574   1.609   5.066
 5696SOL    HW217988   2.604   1.670   5.214
 5697SOL     OW17989   6.824   2.403   0.916
 5697SOL    HW117990   6.791   2.495   0.895
 5697SOL    HW217991   6.805   2.343   0.838
 5698SOL     OW17992   1.051   2.757   2.116
 5698SOL    HW117993   1.080   2.836   2.062
 5698SOL    HW217994   0.955   2.738   2.100
 5699SOL     OW17995   6.242   0.796   4.723
 5699SOL    HW117996   6.159   0.850   4.715
 5699SOL    HW217997   6.273   0.770   4.632
 5700SOL     OW17998   1.528   5.939   5.311
 5700SOL    HW117999   1.591   5.863   5.326
 5700SOL    HW218000   1.440   5.904   5.279
 5701SOL     OW18001   0.462   6.214   2.438
 5701SOL    HW118002   0.392   6.143   2.435
 5701SOL    HW218003   0.461   6.258   2.528
 5702SOL     OW18004   1.752   6.501   6.001
 5702SOL    HW118005   1.697   6.580   6.030
 5702SOL    HW218006   1.822   6.531   5.937
 5703SOL     OW18007   4.334   5.092   6.924
 5703SOL    HW118008   4.322   5.173   6.867
 5703SOL    HW218009   4.431   5.068   6.927
 5704SOL     OW18010   4.668   5.438   3.264
 5704SOL    HW118011   4.588   5.485   3.226
 5704SOL    HW218012   4.655   5.424   3.362
 5705SOL     OW18013   5.709   0.357   0.985
 5705SOL    HW118014   5.706   0.261   1.012
 5705SOL    HW218015   5.664   0.368   0.896
 5706SOL     OW18016   1.949   1.643   0.661
 5706SOL    HW118017   2.025   1.686   0.612
 5706SOL    HW218018   1.884   1.713   0.690
 5707SOL     OW18019   1.733   0.446   6.430
 5707SOL    HW118020   1.781   0.429   6.516
 5707SOL    HW218021   1.712   0.544   6.423
 5708SOL     OW18022   5.118   6.503   2.537
 5708SOL    HW118023   5.175   6.490   2.618
 5708SOL    HW218024   5.022   6.511   2.564
 5709SOL     OW18025   0.594   6.793   3.542
 5709SOL    HW118026   0.505   6.813   3.500
 5709SOL    HW218027   0.626   6.703   3.511
 5710SOL     OW18028   2.881   3.215   5.985
 5710SOL    HW118029   2.945   3.139   5.982
 5710SOL    HW218030   2.848   3.235   5.893
 5711SOL     OW18031   5.144   1.071   3.679
 5711SOL    HW118032   5.216   1.003   3.687
 5711SOL    HW218033   5.100   1.084   3.768
 5712SOL     OW18034   6.753   0.214   5.839
 5712SOL    HW118035   6.819   0.149   5.803
 5712SOL    HW218036   6.665   0.203   5.791
 5713SOL     OW18037   0.067   2.680   2.208
 5713SOL    HW118038   0.038   2.712   2.298
 5713SOL    HW218039   0.027   2.739   2.137
 5714SOL     OW18040   1.249   0.163   6.740
 5714SOL    HW118041   1.199   0.153   6.654
 5714SOL    HW218042   1.346   0.145   6.725
 5715SOL     OW18043   1.452   6.428   2.828
 5715SOL    HW118044   1.454   6.439   2.728
 5715SOL    HW218045   1.364   6.460   2.863
 5716SOL     OW18046   1.616   3.502   5.955
 5716SOL    HW118047   1.675   3.522   6.033
 5716SOL    HW218048   1.659   3.433   5.897
 5717SOL     OW18049   0.667   4.231   1.109
 5717SOL    HW118050   0.758   4.256   1.144
 5717SOL    HW218051   0.677   4.156   1.044
 5718SOL     OW18052   1.702   4.858   6.505
 5718SOL    HW118053   1.633   4.817   6.445
 5718SOL    HW218054   1.656   4.903   6.581
 5719SOL     OW18055   3.315   0.554   6.479
 5719SOL    HW118056   3.241   0.586   6.420
 5719SOL    HW218057   3.359   0.474   6.437
 5720SOL     OW18058   0.961   5.283   4.961
 5720SOL    HW118059   0.938   5.206   4.901
 5720SOL    HW218060   0.881   5.308   5.015
 5721SOL     OW18061   0.646   3.178   0.563
 5721SOL    HW118062   0.724   3.228   0.524
 5721SOL    HW218063   0.583   3.153   0.490
 5722SOL     OW18064   5.373   0.824   4.981
 5722SOL    HW118065   5.458   0.861   4.943
 5722SOL    HW218066   5.350   0.739   4.934
 5723SOL     OW18067   3.902   5.398   0.368
 5723SOL    HW118068   3.931   5.362   0.279
 5723SOL    HW218069   3.823   5.347   0.401
 5724SOL     OW18070   5.118   2.309   6.032
 5724SOL    HW118071   5.183   2.272   6.098
 5724SOL    HW218072   5.137   2.406   6.017
 5725SOL     OW18073   4.979   5.316   4.314
 5725SOL    HW118074   5.021   5.309   4.405
 5725SOL    HW218075   5.028   5.255   4.251
 5726SOL     OW18076   5.870   3.676   5.538
 5726SOL    HW118077   5.906   3.589   5.505
 5726SOL    HW218078   5.936   3.719   5.600
 5727SOL     OW18079   6.080   2.166   3.006
 5727SOL    HW118080   6.065   2.259   2.972
 5727SOL    HW218081   6.135   2.170   3.090
 5728SOL     OW18082   6.441   1.324   5.493
 5728SOL    HW118083   6.444   1.405   5.435
 5728SOL    HW218084   6.438   1.242   5.436
 5729SOL     OW18085   6.931   1.936   6.574
 5729SOL    HW118086   6.849   1.893   6.534
 5729SOL    HW218087   6.903   2.005   6.640
 5730SOL     OW18088   3.972   6.212   5.160
 5730SOL    HW118089   3.952   6.224   5.063
 5730SOL    HW218090   3.927   6.284   5.213
 5731SOL     OW18091   1.931   6.697   4.710
 5731SOL    HW118092   1.919   6.794   4.727
 5731SOL    HW218093   1.931   6.647   4.797
 5732SOL     OW18094   6.297   4.838   4.414
 5732SOL    HW118095   6.388   4.800   4.402
 5732SOL    HW218096   6.260   4.809   4.502
 5733SOL     OW18097   3.415   1.065   0.262
 5733SOL    HW118098   3.346   1.137   0.267
 5733SOL    HW218099   3.406   1.004   0.341
 5734SOL     OW18100   1.740   6.714   5.446
 5734SOL    HW118101   1.830   6.730   5.405
 5734SOL    HW218102   1.727   6.777   5.523
 5735SOL     OW18103   4.032   0.853   2.798
 5735SOL    HW118104   4.021   0.943   2.839
 5735SOL    HW218105   4.044   0.785   2.871
 5736SOL     OW18106   4.909   4.574   6.384
 5736SOL    HW118107   4.853   4.493   6.397
 5736SOL    HW218108   4.850   4.654   6.373
 5737SOL     OW18109   5.155   6.055   1.151
 5737SOL    HW118110   5.125   6.133   1.206
 5737SOL    HW218111   5.111   5.972   1.183
 5738SOL     OW18112   3.653   1.194   6.557
 5738SOL    HW118113   3.751   1.208   6.538
 5738SOL    HW218114   3.638   1.190   6.655
 5739SOL     OW18115   2.011   0.119   5.823
 5739SOL    HW118116   1.921   0.115   5.865
 5739SOL    HW218117   2.024   0.207   5.777
 5740SOL     OW18118   5.137   3.393   0.893
 5740SOL    HW118119   5.211   3.450   0.858
 5740SOL    HW218120   5.049   3.430   0.863
 5741SOL     OW18121   0.748   3.789   4.305
 5741SOL    HW118122   0.747   3.778   4.206
 5741SOL    HW218123   0.673   3.738   4.346
 5742SOL     OW18124   3.752   6.981   3.649
 5742SOL    HW118125   3.709   0.048   3.662
 5742SOL    HW218126   3.834   6.991   3.593
 5743SOL     OW18127   4.149   4.445   5.542
 5743SOL    HW118128   4.083   4.462   5.615
 5743SOL    HW218129   4.109   4.385   5.473
 5744SOL     OW18130   5.869   0.115   2.903
 5744SOL    HW118131   5.943   0.183   2.900
 5744SOL    HW218132   5.790   0.150   2.852
 5745SOL     OW18133   2.369   2.320   4.036
 5745SOL    HW118134   2.303   2.357   3.971
 5745SOL    HW218135   2.462   2.330   3.999
 5746SOL     OW18136   3.670   0.490   3.060
 5746SOL    HW118137   3.587   0.538   3.032
 5746SOL    HW218138   3.742   0.556   3.081
 5747SOL     OW18139   1.566   5.984   1.851
 5747SOL    HW118140   1.523   5.913   1.795
 5747SOL    HW218141   1.640   6.027   1.800
 5748SOL     OW18142   0.439   6.074   0.299
 5748SOL    HW118143   0.472   6.065   0.393
 5748SOL    HW218144   0.350   6.120   0.300
 5749SOL     OW18145   1.799   6.888   5.128
 5749SOL    HW118146   1.720   6.911   5.072
 5749SOL    HW218147   1.831   6.970   5.175
 5750SOL     OW18148   6.746   4.225   4.376
 5750SOL    HW118149   6.728   4.149   4.437
 5750SOL    HW218150   6.842   4.226   4.349
 5751SOL     OW18151   2.192   3.959   4.316
 5751SOL    HW118152   2.141   3.884   4.358
 5751SOL    HW218153   2.235   4.015   4.387
 5752SOL     OW18154   5.503   6.898   0.914
 5752SOL    HW118155   5.494   6.802   0.939
 5752SOL    HW218156   5.425   6.925   0.857
 5753SOL     OW18157   2.715   3.913   5.460
 5753SOL    HW118158   2.775   3.952   5.390
 5753SOL    HW218159   2.629   3.964   5.462
 5754SOL     OW18160   1.419   6.638   1.551
 5754SOL    HW118161   1.375   6.659   1.638
 5754SOL    HW218162   1.460   6.547   1.555
 5755SOL     OW18163   2.411   2.360   6.938
 5755SOL    HW118164   2.339   2.355   7.007
 5755SOL    HW218165   2.373   2.394   6.851
 5756SOL     OW18166   6.560   6.777   1.626
 5756SOL    HW118167   6.491   6.848   1.639
 5756SOL    HW218168   6.571   6.725   1.710
 5757SOL     OW18169   6.769   6.136   4.073
 5757SOL    HW118170   6.718   6.192   4.138
 5757SOL    HW218171   6.748   6.039   4.088
 5758SOL     OW18172   1.618   6.469   3.028
 5758SOL    HW118173   1.554   6.472   2.951
 5758SOL    HW218174   1.579   6.413   3.101
 5759SOL     OW18175   4.585   6.857   1.490
 5759SOL    HW118176   4.677   6.873   1.456
 5759SOL    HW218177   4.518   6.881   1.419
 5760SOL     OW18178   6.679   3.446   2.182
 5760SOL    HW118179   6.633   3.527   2.147
 5760SOL    HW218180   6.643   3.365   2.136
 5761SOL     OW18181   5.163   5.890   4.646
 5761SOL    HW118182   5.091   5.891   4.715
 5761SOL    HW218183   5.129   5.931   4.561
 5762SOL     OW18184   5.338   4.511   0.541
 5762SOL    HW118185   5.320   4.444   0.469
 5762SOL    HW218186   5.341   4.464   0.630
 5763SOL     OW18187   5.088   0.064   0.579
 5763SOL    HW118188   4.996   0.098   0.600
 5763SOL    HW218189   5.093   0.039   0.483
 5764SOL     OW18190   4.512   5.582   3.630
 5764SOL    HW118191   4.468   5.527   3.701
 5764SOL    HW218192   4.578   5.644   3.671
 5765SOL     OW18193   6.082   4.873   0.589
 5765SOL    HW118194   6.091   4.776   0.564
 5765SOL    HW218195   6.173   4.912   0.603
 5766SOL     OW18196   1.252   1.717   4.776
 5766SOL    HW118197   1.154   1.727   4.761
 5766SOL    HW218198   1.284   1.633   4.732
 5767SOL     OW18199   1.812   0.369   0.301
 5767SOL    HW118200   1.841   0.385   0.206
 5767SOL    HW218201   1.712   0.370   0.306
 5768SOL     OW18202   6.920   0.004   3.270
 5768SOL    HW118203   6.971   0.057   3.338
 5768SOL    HW218204   6.982   6.990   3.201
 5769SOL     OW18205   2.204   5.491   6.662
 5769SOL    HW118206   2.238   5.397   6.652
 5769SOL    HW218207   2.273   5.555   6.629
 5770SOL     OW18208   1.068   6.031   0.279
 5770SOL    HW118209   0.991   5.979   0.244
 5770SOL    HW218210   1.116   5.978   0.349
 5771SOL     OW18211   2.322   6.214   4.001
 5771SOL    HW118212   2.405   6.190   4.052
 5771SOL    HW218213   2.268   6.131   3.984
 5772SOL     OW18214   4.859   0.839   1.991
 5772SOL    HW118215   4.855   0.746   2.028
 5772SOL    HW218216   4.770   0.883   2.001
 5773SOL     OW18217   4.899   1.961   2.529
 5773SOL    HW118218   4.876   1.882   2.586
 5773SOL    HW218219   4.921   1.930   2.437
 5774SOL     OW18220   1.887   0.193   4.988
 5774SOL    HW118221   1.953   0.196   4.913
 5774SOL    HW218222   1.806   0.246   4.963
 5775SOL     OW18223   0.733   5.832   2.630
 5775SOL    HW118224   0.831   5.814   2.639
 5775SOL    HW218225   0.715   5.929   2.643
 5776SOL     OW18226   1.638   0.627   3.207
 5776SOL    HW118227   1.548   0.670   3.193
 5776SOL    HW218228   1.660   0.571   3.127
 5777SOL     OW18229   1.327   0.386   3.520
 5777SOL    HW118230   1.426   0.380   3.517
 5777SOL    HW218231   1.300   0.471   3.566
 5778SOL     OW18232   1.252   1.386   0.408
 5778SOL    HW118233   1.220   1.415   0.318
 5778SOL    HW218234   1.205   1.302   0.434
 5779SOL     OW18235   4.644   2.577   6.854
 5779SOL    HW118236   4.686   2.641   6.917
 5779SOL    HW218237   4.712   2.511   6.822
 5780SOL     OW18238   5.750   5.746   4.983
 5780SOL    HW118239   5.703   5.786   5.062
 5780SOL    HW218240   5.690   5.678   4.940
 5781SOL     OW18241   6.427   5.014   5.224
 5781SOL    HW118242   6.511   5.064   5.202
 5781SOL    HW218243   6.449   4.927   5.267
 5782SOL     OW18244   0.829   1.362   0.362
 5782SOL    HW118245   0.772   1.439   0.331
 5782SOL    HW218246   0.771   1.283   0.381
 5783SOL     OW18247   1.644   1.558   2.354
 5783SOL    HW118248   1.714   1.593   2.417
 5783SOL    HW218249   1.686   1.536   2.266
 5784SOL     OW18250   0.290   5.725   6.713
 5784SOL    HW118251   0.338   5.706   6.799
 5784SOL    HW218252   0.207   5.777   6.732
 5785SOL     OW18253   2.651   1.575   0.469
 5785SOL    HW118254   2.682   1.646   0.407
 5785SOL    HW218255   2.579   1.611   0.528
 5786SOL     OW18256   6.432   4.050   0.277
 5786SOL    HW118257   6.510   3.989   0.264
 5786SOL    HW218258   6.357   3.999   0.318
 5787SOL     OW18259   2.109   1.500   6.013
 5787SOL    HW118260   2.123   1.442   6.093
 5787SOL    HW218261   2.192   1.554   5.997
 5788SOL     OW18262   2.687   1.332   2.735
 5788SOL    HW118263   2.630   1.372   2.663
 5788SOL    HW218264   2.651   1.358   2.825
 5789SOL     OW18265   3.642   5.114   5.950
 5789SOL    HW118266   3.697   5.149   5.875
 5789SOL    HW218267   3.694   5.121   6.036
 5790SOL     OW18268   0.703   3.507   4.624
 5790SOL    HW118269   0.627   3.500   4.689
 5790SOL    HW218270   0.773   3.439   4.647
 5791SOL     OW18271   3.612   6.777   2.044
 5791SOL    HW118272   3.610   6.858   1.985
 5791SOL    HW218273   3.522   6.734   2.045
 5792SOL     OW18274   0.351   2.470   2.758
 5792SOL    HW118275   0.378   2.422   2.841
 5792SOL    HW218276   0.252   2.486   2.758
 5793SOL     OW18277   5.727   1.314   3.432
 5793SOL    HW118278   5.678   1.226   3.430
 5793SOL    HW218279   5.662   1.389   3.423
 5794SOL     OW18280   3.712   2.014   0.427
 5794SOL    HW118281   3.791   1.984   0.373
 5794SOL    HW218282   3.663   2.086   0.377
 5795SOL     OW18283   5.826   5.653   5.900
 5795SOL    HW118284   5.901   5.599   5.862
 5795SOL    HW218285   5.739   5.611   5.874
 5796SOL     OW18286   3.974   1.222   0.033
 5796SOL    HW118287   3.997   1.126   0.020
 5796SOL    HW218288   3.962   1.241   0.131
 5797SOL     OW18289   4.025   1.603   4.936
 5797SOL    HW118290   4.027   1.655   4.850
 5797SOL    HW218291   4.010   1.666   5.012
 5798SOL     OW18292   0.577   4.411   5.646
 5798SOL    HW118293   0.623   4.338   5.697
 5798SOL    HW218294   0.618   4.499   5.670
 5799SOL     OW18295   5.480   1.146   3.785
 5799SOL    HW118296   5.523   1.057   3.772
 5799SOL    HW218297   5.438   1.176   3.700
 5800SOL     OW18298   5.639   6.490   0.639
 5800SOL    HW118299   5.677   6.578   0.609
 5800SOL    HW218300   5.582   6.452   0.567
 5801SOL     OW18301   0.973   2.418   4.521
 5801SOL    HW118302   1.050   2.355   4.524
 5801SOL    HW218303   1.001   2.503   4.475
 5802SOL     OW18304   0.889   4.591   0.375
 5802SOL    HW118305   0.811   4.650   0.352
 5802SOL    HW218306   0.927   4.553   0.291
 5803SOL     OW18307   1.756   4.591   2.016
 5803SOL    HW118308   1.798   4.617   1.928
 5803SOL    HW218309   1.664   4.556   1.999
 5804SOL     OW18310   6.099   4.468   3.891
 5804SOL    HW118311   6.199   4.476   3.894
 5804SOL    HW218312   6.066   4.430   3.977
 5805SOL     OW18313   3.831   4.541   6.898
 5805SOL    HW118314   3.889   4.596   6.838
 5805SOL    HW218315   3.863   4.549   6.992
 5806SOL     OW18316   0.309   6.444   6.628
 5806SOL    HW118317   0.377   6.517   6.638
 5806SOL    HW218318   0.336   6.366   6.685
 5807SOL     OW18319   1.575   3.897   1.919
 5807SOL    HW118320   1.667   3.917   1.887
 5807SOL    HW218321   1.579   3.859   2.011
 5808SOL     OW18322   5.712   4.164   3.038
 5808SOL    HW118323   5.761   4.113   3.109
 5808SOL    HW218324   5.684   4.101   2.966
 5809SOL     OW18325   0.367   2.392   5.296
 5809SOL    HW118326   0.315   2.348   5.223
 5809SOL    HW218327   0.461   2.356   5.297
 5810SOL     OW18328   2.658   0.436   4.068
 5810SOL    HW118329   2.660   0.513   4.131
 5810SOL    HW218330   2.645   0.351   4.120
 5811SOL     OW18331   2.945   0.277   4.910
 5811SOL    HW118332   3.029   0.262   4.962
 5811SOL    HW218333   2.966   0.329   4.827
 5812SOL     OW18334   5.116   0.260   4.423
 5812SOL    HW118335   5.196   0.297   4.471
 5812SOL    HW218336   5.113   0.297   4.330
 5813SOL     OW18337   1.552   1.530   0.184
 5813SOL    HW118338   1.521   1.532   0.279
 5813SOL    HW218339   1.541   1.438   0.147
 5814SOL     OW18340   5.868   4.281   0.612
 5814SOL    HW118341   5.866   4.343   0.533
 5814SOL    HW218342   5.961   4.245   0.623
 5815SOL     OW18343   4.369   2.407   4.080
 5815SOL    HW118344   4.426   2.378   4.157
 5815SOL    HW218345   4.301   2.336   4.061
 5816SOL     OW18346   4.993   6.233   0.304
 5816SOL    HW118347   4.966   6.264   0.396
 5816SOL    HW218348   5.056   6.299   0.264
 5817SOL     OW18349   5.267   3.168   5.473
 5817SOL    HW118350   5.222   3.230   5.409
 5817SOL    HW218351   5.304   3.089   5.423
 5818SOL     OW18352   6.776   6.160   4.754
 5818SOL    HW118353   6.797   6.085   4.816
 5818SOL    HW218354   6.714   6.224   4.799
 5819SOL     OW18355   4.343   0.399   0.275
 5819SOL    HW118356   4.441   0.391   0.292
 5819SOL    HW218357   4.328   0.441   0.185
 5820SOL     OW18358   4.269   0.107   3.782
 5820SOL    HW118359   4.239   0.062   3.698
 5820SOL    HW218360   4.342   0.054   3.825
 5821SOL     OW18361   1.237   0.158   2.511
 5821SOL    HW118362   1.197   0.113   2.431
 5821SOL    HW218363   1.164   0.189   2.572
 5822SOL     OW18364   0.454   1.968   2.074
 5822SOL    HW118365   0.429   1.871   2.079
 5822SOL    HW218366   0.419   2.008   1.989
 5823SOL     OW18367   0.967   1.127   6.041
 5823SOL    HW118368   0.887   1.181   6.013
 5823SOL    HW218369   0.936   1.051   6.099
 5824SOL     OW18370   6.847   6.032   2.592
 5824SOL    HW118371   6.863   5.951   2.536
 5824SOL    HW218372   6.759   6.025   2.638
 5825SOL     OW18373   2.368   2.005   5.502
 5825SOL    HW118374   2.274   2.038   5.509
 5825SOL    HW218375   2.368   1.906   5.487
 5826SOL     OW18376   6.921   5.282   5.258
 5826SOL    HW118377   6.830   5.242   5.263
 5826SOL    HW218378   6.976   5.233   5.189
 5827SOL     OW18379   1.833   5.219   4.957
 5827SOL    HW118380   1.767   5.165   5.009
 5827SOL    HW218381   1.853   5.173   4.870
 5828SOL     OW18382   0.036   3.082   1.857
 5828SOL    HW118383   0.021   3.139   1.776
 5828SOL    HW218384   0.076   2.995   1.829
 5829SOL     OW18385   2.837   1.561   2.946
 5829SOL    HW118386   2.767   1.492   2.932
 5829SOL    HW218387   2.849   1.578   3.044
 5830SOL     OW18388   3.885   0.279   5.608
 5830SOL    HW118389   3.828   0.265   5.690
 5830SOL    HW218390   3.913   0.191   5.572
 5831SOL     OW18391   6.814   0.226   4.293
 5831SOL    HW118392   6.773   0.176   4.370
 5831SOL    HW218393   6.800   0.324   4.306
 5832SOL     OW18394   3.936   4.084   5.366
 5832SOL    HW118395   4.001   4.150   5.328
 5832SOL    HW218396   3.977   4.037   5.444
 5833SOL     OW18397   3.756   3.244   4.514
 5833SOL    HW118398   3.779   3.148   4.529
 5833SOL    HW218399   3.715   3.255   4.423
 5834SOL     OW18400   6.139   2.182   0.605
 5834SOL    HW118401   6.105   2.139   0.689
 5834SOL    HW218402   6.239   2.176   0.603
 5835SOL     OW18403   5.123   2.677   2.738
 5835SOL    HW118404   5.124   2.636   2.829
 5835SOL    HW218405   5.213   2.716   2.717
 5836SOL     OW18406   2.547   6.739   3.195
 5836SOL    HW118407   2.510   6.746   3.102
 5836SOL    HW218408   2.611   6.662   3.199
 5837SOL     OW18409   4.362   4.587   5.934
 5837SOL    HW118410   4.272   4.545   5.951
 5837SOL    HW218411   4.422   4.567   6.011
 5838SOL     OW18412   2.218   1.409   6.242
 5838SOL    HW118413   2.311   1.421   6.207
 5838SOL    HW218414   2.203   1.470   6.320
 5839SOL     OW18415   0.469   3.227   2.300
 5839SOL    HW118416   0.509   3.296   2.239
 5839SOL    HW218417   0.479   3.137   2.260
 5840SOL     OW18418   1.478   5.119   6.863
 5840SOL    HW118419   1.570   5.154   6.845
 5840SOL    HW218420   1.483   5.022   6.886
 5841SOL     OW18421   5.774   2.536   2.144
 5841SOL    HW118422   5.696   2.523   2.083
 5841SOL    HW218423   5.742   2.547   2.238
 5842SOL     OW18424   4.397   3.420   1.761
 5842SOL    HW118425   4.385   3.488   1.689
 5842SOL    HW218426   4.493   3.392   1.765
 5843SOL     OW18427   2.137   3.921   2.407
 5843SOL    HW118428   2.215   3.860   2.398
 5843SOL    HW218429   2.077   3.888   2.480
 5844SOL     OW18430   0.282   0.084   5.914
 5844SOL    HW118431   0.195   0.087   5.963
 5844SOL    HW218432   0.321   7.015   5.920
 5845SOL     OW18433   1.291   0.438   3.009
 5845SOL    HW118434   1.263   0.523   3.054
 5845SOL    HW218435   1.370   0.456   2.951
 5846SOL     OW18436   6.346   3.109   4.354
 5846SOL    HW118437   6.264   3.114   4.411
 5846SOL    HW218438   6.376   3.014   4.348
 5847SOL     OW18439   2.304   1.775   2.321
 5847SOL    HW118440   2.277   1.701   2.260
 5847SOL    HW218441   2.398   1.803   2.302
 5848SOL     OW18442   2.564   4.782   3.078
 5848SOL    HW118443   2.608   4.736   3.001
 5848SOL    HW218444   2.467   4.797   3.057
 5849SOL     OW18445   6.679   0.771   6.172
 5849SOL    HW118446   6.666   0.711   6.094
 5849SOL    HW218447   6.774   0.805   6.173
 5850SOL     OW18448   0.787   3.409   2.363
 5850SOL    HW118449   0.797   3.310   2.373
 5850SOL    HW218450   0.877   3.452   2.364
 5851SOL     OW18451   4.898   3.342   3.094
 5851SOL    HW118452   4.966   3.389   3.151
 5851SOL    HW218453   4.886   3.393   3.009
 5852SOL     OW18454   4.947   6.230   3.054
 5852SOL    HW118455   4.867   6.201   3.106
 5852SOL    HW218456   5.026   6.175   3.081
 5853SOL     OW18457   3.006   6.059   5.629
 5853SOL    HW118458   2.940   6.113   5.579
 5853SOL    HW218459   3.074   6.021   5.566
 5854SOL     OW18460   6.554   3.637   5.703
 5854SOL    HW118461   6.539   3.541   5.728
 5854SOL    HW218462   6.646   3.648   5.666
 5855SOL     OW18463   0.568   0.111   4.829
 5855SOL    HW118464   0.552   0.204   4.795
 5855SOL    HW218465   0.481   0.062   4.838
 5856SOL     OW18466   2.174   5.756   3.693
 5856SOL    HW118467   2.131   5.667   3.675
 5856SOL    HW218468   2.151   5.820   3.619
 5857SOL     OW18469   5.797   2.871   5.393
 5857SOL    HW118470   5.763   2.858   5.300
 5857SOL    HW218471   5.865   2.945   5.393
 5858SOL     OW18472   2.634   2.416   1.929
 5858SOL    HW118473   2.603   2.322   1.946
 5858SOL    HW218474   2.733   2.418   1.923
 5859SOL     OW18475   5.125   6.776   0.952
 5859SOL    HW118476   5.114   6.855   1.012
 5859SOL    HW218477   5.095   6.693   0.999
 5860SOL     OW18478   2.183   3.718   1.898
 5860SOL    HW118479   2.193   3.618   1.897
 5860SOL    HW218480   2.267   3.760   1.864
 5861SOL     OW18481   5.224   1.590   4.093
 5861SOL    HW118482   5.281   1.511   4.116
 5861SOL    HW218483   5.264   1.673   4.132
 5862SOL     OW18484   4.710   4.976   3.230
 5862SOL    HW118485   4.766   5.048   3.273
 5862SOL    HW218486   4.740   4.963   3.135
 5863SOL     OW18487   3.489   0.735   4.975
 5863SOL    HW118488   3.498   0.834   4.991
 5863SOL    HW218489   3.580   0.694   4.967
 5864SOL     OW18490   4.156   3.913   1.747
 5864SOL    HW118491   4.094   3.952   1.814
 5864SOL    HW218492   4.122   3.823   1.718
 5865SOL     OW18493   5.153   0.286   4.160
 5865SOL    HW118494   5.191   0.253   4.074
 5865SOL    HW218495   5.114   0.377   4.147
 5866SOL     OW18496   3.563   6.101   6.392
 5866SOL    HW118497   3.474   6.078   6.431
 5866SOL    HW218498   3.629   6.029   6.414
 5867SOL     OW18499   0.454   3.180   1.183
 5867SOL    HW118500   0.381   3.247   1.170
 5867SOL    HW218501   0.427   3.092   1.144
 5868SOL     OW18502   0.007   0.528   4.976
 5868SOL    HW118503   7.020   0.622   4.941
 5868SOL    HW218504   6.965   0.513   5.050
 5869SOL     OW18505   1.807   5.617   3.488
 5869SOL    HW118506   1.803   5.528   3.534
 5869SOL    HW218507   1.899   5.631   3.451
 5870SOL     OW18508   4.531   5.798   4.833
 5870SOL    HW118509   4.466   5.809   4.758
 5870SOL    HW218510   4.480   5.778   4.918
 5871SOL     OW18511   4.194   3.693   0.227
 5871SOL    HW118512   4.197   3.793   0.225
 5871SOL    HW218513   4.146   3.659   0.146
 5872SOL     OW18514   4.167   4.930   6.783
 5872SOL    HW118515   4.229   4.993   6.828
 5872SOL    HW218516   4.219   4.867   6.725
 5873SOL     OW18517   2.202   2.861   0.745
 5873SOL    HW118518   2.155   2.871   0.832
 5873SOL    HW218519   2.188   2.768   0.710
 5874SOL     OW18520   3.249   2.781   1.205
 5874SOL    HW118521   3.311   2.714   1.164
 5874SOL    HW218522   3.297   2.829   1.279
 5875SOL     OW18523   4.057   1.542   0.738
 5875SOL    HW118524   4.038   1.625   0.685
 5875SOL    HW218525   3.973   1.488   0.745
 5876SOL     OW18526   3.309   2.824   6.783
 5876SOL    HW118527   3.401   2.800   6.753
 5876SOL    HW218528   3.302   2.812   6.882
 5877SOL     OW18529   6.197   6.988   0.790
 5877SOL    HW118530   6.296   6.974   0.785
 5877SOL    HW218531   6.176   0.062   0.775
 5878SOL     OW18532   5.417   5.862   3.125
 5878SOL    HW118533   5.367   5.948   3.115
 5878SOL    HW218534   5.381   5.811   3.203
 5879SOL     OW18535   2.963   2.733   5.897
 5879SOL    HW118536   3.014   2.816   5.915
 5879SOL    HW218537   3.023   2.664   5.856
 5880SOL     OW18538   4.424   3.939   5.976
 5880SOL    HW118539   4.473   3.854   5.957
 5880SOL    HW218540   4.486   4.006   6.018
 5881SOL     OW18541   0.962   6.603   2.789
 5881SOL    HW118542   0.870   6.585   2.822
 5881SOL    HW218543   0.999   6.520   2.745
 5882SOL     OW18544   0.699   6.915   5.786
 5882SOL    HW118545   0.692   7.015   5.782
 5882SOL    HW218546   0.651   6.875   5.708
 5883SOL     OW18547   0.405   2.099   0.628
 5883SOL    HW118548   0.331   2.039   0.596
 5883SOL    HW218549   0.452   2.138   0.549
 5884SOL     OW18550   6.573   1.009   4.677
 5884SOL    HW118551   6.582   0.922   4.726
 5884SOL    HW218552   6.613   1.000   4.586
 5885SOL     OW18553   0.658   5.478   0.827
 5885SOL    HW118554   0.704   5.563   0.854
 5885SOL    HW218555   0.656   5.416   0.906
 5886SOL     OW18556   1.290   3.267   3.484
 5886SOL    HW118557   1.321   3.348   3.434
 5886SOL    HW218558   1.194   3.248   3.461
 5887SOL     OW18559   2.779   1.776   1.851
 5887SOL    HW118560   2.843   1.738   1.918
 5887SOL    HW218561   2.817   1.861   1.814
 5888SOL     OW18562   3.217   6.880   0.972
 5888SOL    HW118563   3.225   6.975   1.003
 5888SOL    HW218564   3.252   6.818   1.042
 5889SOL     OW18565   6.940   1.630   1.175
 5889SOL    HW118566   6.966   1.632   1.079
 5889SOL    HW218567   6.981   1.551   1.220
 5890SOL     OW18568   1.644   6.792   2.212
 5890SOL    HW118569   1.564   6.781   2.271
 5890SOL    HW218570   1.640   6.880   2.166
 5891SOL     OW18571   2.698   3.743   0.286
 5891SOL    HW118572   2.646   3.818   0.244
 5891SOL    HW218573   2.775   3.781   0.337
 5892SOL     OW18574   0.570   4.813   1.164
 5892SOL    HW118575   0.588   4.905   1.130
 5892SOL    HW218576   0.655   4.761   1.168
 5893SOL     OW18577   1.262   4.838   1.290
 5893SOL    HW118578   1.287   4.756   1.238
 5893SOL    HW218579   1.252   4.813   1.387
 5894SOL     OW18580   0.563   5.747   5.287
 5894SOL    HW118581   0.577   5.740   5.188
 5894SOL    HW218582   0.629   5.688   5.334
 5895SOL     OW18583   6.185   3.271   4.200
 5895SOL    HW118584   6.210   3.264   4.103
 5895SOL    HW218585   6.252   3.221   4.254
 5896SOL     OW18586   5.077   1.122   1.813
 5896SOL    HW118587   5.060   1.199   1.751
 5896SOL    HW218588   5.069   1.036   1.762
 5897SOL     OW18589   4.312   1.629   1.772
 5897SOL    HW118590   4.250   1.616   1.850
 5897SOL    HW218591   4.258   1.635   1.688
 5898SOL     OW18592   2.441   1.747   5.715
 5898SOL    HW118593   2.441   1.738   5.615
 5898SOL    HW218594   2.352   1.721   5.751
 5899SOL     OW18595   0.395   5.228   5.847
 5899SOL    HW118596   0.332   5.306   5.854
 5899SOL    HW218597   0.378   5.179   5.761
 5900SOL     OW18598   0.350   5.273   2.862
 5900SOL    HW118599   0.425   5.303   2.802
 5900SOL    HW218600   0.378   5.192   2.913
 5901SOL     OW18601   0.971   0.426   0.627
 5901SOL    HW118602   0.950   0.475   0.543
 5901SOL    HW218603   1.002   0.334   0.605
 5902SOL     OW18604   5.637   3.442   4.703
 5902SOL    HW118605   5.681   3.357   4.731
 5902SOL    HW218606   5.644   3.453   4.604
 5903SOL     OW18607   5.561   3.139   0.092
 5903SOL    HW118608   5.558   3.051   0.139
 5903SOL    HW218609   5.653   3.154   0.056
 5904SOL     OW18610   1.545   4.477   1.023
 5904SOL    HW118611   1.515   4.426   1.103
 5904SOL    HW218612   1.620   4.429   0.978
 5905SOL     OW18613   5.305   0.777   3.196
 5905SOL    HW118614   5.344   0.709   3.259
 5905SOL    HW218615   5.244   0.838   3.247
 5906SOL     OW18616   5.550   1.721   5.210
 5906SOL    HW118617   5.554   1.625   5.237
 5906SOL    HW218618   5.499   1.773   5.278
 5907SOL     OW18619   1.670   0.096   0.827
 5907SOL    HW118620   1.752   0.152   0.819
 5907SOL    HW218621   1.631   0.106   0.918
 5908SOL     OW18622   4.882   3.597   0.178
 5908SOL    HW118623   4.977   3.605   0.211
 5908SOL    HW218624   4.862   3.672   0.115
 5909SOL     OW18625   0.743   4.131   5.536
 5909SOL    HW118626   0.800   4.202   5.495
 5909SOL    HW218627   0.651   4.135   5.497
 5910SOL     OW18628   1.129   4.521   0.886
 5910SOL    HW118629   1.174   4.537   0.974
 5910SOL    HW218630   1.045   4.469   0.900
 5911SOL     OW18631   0.203   5.742   6.036
 5911SOL    HW118632   0.171   5.753   6.130
 5911SOL    HW218633   0.131   5.700   5.981
 5912SOL     OW18634   6.083   3.444   6.531
 5912SOL    HW118635   6.138   3.521   6.565
 5912SOL    HW218636   6.013   3.479   6.469
 5913SOL     OW18637   2.172   2.866   5.848
 5913SOL    HW118638   2.228   2.806   5.907
 5913SOL    HW218639   2.181   2.837   5.753
 5914SOL     OW18640   2.679   5.542   0.169
 5914SOL    HW118641   2.710   5.617   0.228
 5914SOL    HW218642   2.585   5.560   0.140
 5915SOL     OW18643   5.574   3.076   2.297
 5915SOL    HW118644   5.645   3.120   2.353
 5915SOL    HW218645   5.612   2.994   2.255
 5916SOL     OW18646   5.055   0.323   5.791
 5916SOL    HW118647   5.003   0.239   5.771
 5916SOL    HW218648   5.085   0.365   5.706
 5917SOL     OW18649   3.615   2.861   3.510
 5917SOL    HW118650   3.626   2.764   3.533
 5917SOL    HW218651   3.529   2.894   3.548
 5918SOL     OW18652   1.827   3.667   4.476
 5918SOL    HW118653   1.770   3.638   4.553
 5918SOL    HW218654   1.845   3.588   4.417
 5919SOL     OW18655   3.021   1.736   0.590
 5919SOL    HW118656   2.989   1.789   0.668
 5919SOL    HW218657   3.010   1.638   0.610
 5920SOL     OW18658   4.074   6.895   6.762
 5920SOL    HW118659   4.127   6.977   6.741
 5920SOL    HW218660   4.001   6.885   6.695
 5921SOL     OW18661   3.789   5.276   5.165
 5921SOL    HW118662   3.825   5.185   5.188
 5921SOL    HW218663   3.693   5.282   5.192
 5922SOL     OW18664   6.067   4.929   3.296
 5922SOL    HW118665   6.018   4.851   3.335
 5922SOL    HW218666   6.049   5.010   3.351
 5923SOL     OW18667   6.635   0.797   3.454
 5923SOL    HW118668   6.696   0.849   3.514
 5923SOL    HW218669   6.683   0.716   3.421
 5924SOL     OW18670   5.668   2.554   5.090
 5924SOL    HW118671   5.617   2.634   5.058
 5924SOL    HW218672   5.616   2.507   5.161
 5925SOL     OW18673   4.544   6.168   2.990
 5925SOL    HW118674   4.515   6.226   3.065
 5925SOL    HW218675   4.587   6.085   3.026
 5926SOL     OW18676   3.311   4.940   1.685
 5926SOL    HW118677   3.368   4.910   1.762
 5926SOL    HW218678   3.243   5.006   1.717
 5927SOL     OW18679   2.170   4.827   1.657
 5927SOL    HW118680   2.236   4.753   1.667
 5927SOL    HW218681   2.122   4.817   1.569
 5928SOL     OW18682   2.418   0.667   2.068
 5928SOL    HW118683   2.508   0.640   2.034
 5928SOL    HW218684   2.387   0.749   2.020
 5929SOL     OW18685   0.952   6.117   6.031
 5929SOL    HW118686   1.035   6.161   5.995
 5929SOL    HW218687   0.877   6.130   5.967
 5930SOL     OW18688   5.831   1.379   4.024
 5930SOL    HW118689   5.878   1.400   3.937
 5930SOL    HW218690   5.732   1.385   4.010
 5931SOL     OW18691   6.184   4.834   2.301
 5931SOL    HW118692   6.259   4.899   2.312
 5931SOL    HW218693   6.111   4.875   2.247
 5932SOL     OW18694   2.068   6.375   0.835
 5932SOL    HW118695   2.141   6.314   0.866
 5932SOL    HW218696   2.023   6.415   0.915
 5933SOL     OW18697   0.062   4.131   2.054
 5933SOL    HW118698   6.992   4.168   2.068
 5933SOL    HW218699   0.079   4.120   1.957
 5934SOL     OW18700   3.743   3.488   3.423
 5934SOL    HW118701   3.763   3.531   3.335
 5934SOL    HW218702   3.827   3.484   3.478
 5935SOL     OW18703   4.126   3.706   4.469
 5935SOL    HW118704   4.171   3.639   4.528
 5935SOL    HW218705   4.034   3.674   4.445
 5936SOL     OW18706   4.131   3.837   6.655
 5936SOL    HW118707   4.058   3.902   6.632
 5936SOL    HW218708   4.091   3.745   6.666
 5937SOL     OW18709   0.790   3.652   1.772
 5937SOL    HW118710   0.707   3.692   1.813
 5937SOL    HW218711   0.850   3.619   1.845
 5938SOL     OW18712   1.689   5.383   3.665
 5938SOL    HW118713   1.598   5.388   3.624
 5938SOL    HW218714   1.681   5.395   3.764
 5939SOL     OW18715   3.245   0.537   3.141
 5939SOL    HW118716   3.162   0.592   3.147
 5939SOL    HW218717   3.315   0.589   3.092
 5940SOL     OW18718   4.198   6.528   2.160
 5940SOL    HW118719   4.252   6.472   2.097
 5940SOL    HW218720   4.257   6.564   2.231
 5941SOL     OW18721   6.139   4.626   1.913
 5941SOL    HW118722   6.141   4.532   1.880
 5941SOL    HW218723   6.107   4.628   2.007
 5942SOL     OW18724   4.269   2.885   6.408
 5942SOL    HW118725   4.315   2.861   6.493
 5942SOL    HW218726   4.285   2.813   6.340
 5943SOL     OW18727   2.465   6.417   0.199
 5943SOL    HW118728   2.448   6.416   0.297
 5943SOL    HW218729   2.412   6.344   0.155
 5944SOL     OW18730   5.439   1.421   1.845
 5944SOL    HW118731   5.361   1.387   1.793
 5944SOL    HW218732   5.418   1.419   1.943
 5945SOL     OW18733   6.541   4.663   5.147
 5945SOL    HW118734   6.533   4.567   5.174
 5945SOL    HW218735   6.529   4.721   5.227
 5946SOL     OW18736   3.313   4.065   5.946
 5946SOL    HW118737   3.284   3.972   5.922
 5946SOL    HW218738   3.251   4.131   5.904
 5947SOL     OW18739   4.189   3.164   1.579
 5947SOL    HW118740   4.270   3.165   1.638
 5947SOL    HW218741   4.116   3.217   1.622
 5948SOL     OW18742   4.138   5.336   3.196
 5948SOL    HW118743   4.047   5.295   3.204
 5948SOL    HW218744   4.194   5.309   3.274
 5949SOL     OW18745   3.928   4.442   1.310
 5949SOL    HW118746   3.996   4.471   1.242
 5949SOL    HW218747   3.836   4.461   1.276
 5950SOL     OW18748   5.862   2.422   4.552
 5950SOL    HW118749   5.868   2.425   4.652
 5950SOL    HW218750   5.834   2.330   4.523
 5951SOL     OW18751   1.003   6.315   4.794
 5951SOL    HW118752   0.908   6.286   4.804
 5951SOL    HW218753   1.008   6.414   4.782
 5952SOL     OW18754   6.398   6.204   3.696
 5952SOL    HW118755   6.380   6.253   3.780
 5952SOL    HW218756   6.435   6.267   3.627
 5953SOL     OW18757   0.043   3.126   5.038
 5953SOL    HW118758   0.113   3.194   5.057
 5953SOL    HW218759   0.026   3.071   5.120
 5954SOL     OW18760   6.999   4.483   5.672
 5954SOL    HW118761   6.921   4.444   5.623
 5954SOL    HW218762   0.061   4.455   5.628
 5955SOL     OW18763   5.987   5.920   2.380
 5955SOL    HW118764   5.905   5.972   2.357
 5955SOL    HW218765   6.062   5.982   2.401
 5956SOL     OW18766   3.967   1.792   0.639
 5956SOL    HW118767   3.934   1.834   0.724
 5956SOL    HW218768   3.900   1.806   0.566
 5957SOL     OW18769   5.038   6.704   6.024
 5957SOL    HW118770   5.100   6.771   5.984
 5957SOL    HW218771   5.002   6.644   5.952
 5958SOL     OW18772   6.669   6.365   2.143
 5958SOL    HW118773   6.682   6.464   2.153
 5958SOL    HW218774   6.690   6.319   2.229
 5959SOL     OW18775   3.189   2.082   5.560
 5959SOL    HW118776   3.099   2.039   5.570
 5959SOL    HW218777   3.211   2.092   5.463
 5960SOL     OW18778   3.587   0.549   3.959
 5960SOL    HW118779   3.581   0.449   3.950
 5960SOL    HW218780   3.545   0.591   3.879
 5961SOL     OW18781   4.104   1.037   3.643
 5961SOL    HW118782   4.042   0.995   3.576
 5961SOL    HW218783   4.106   1.136   3.629
 5962SOL     OW18784   5.293   5.142   2.577
 5962SOL    HW118785   5.292   5.042   2.579
 5962SOL    HW218786   5.298   5.174   2.483
 5963SOL     OW18787   3.518   3.528   3.566
 5963SOL    HW118788   3.609   3.531   3.524
 5963SOL    HW218789   3.450   3.508   3.496
 5964SOL     OW18790   6.920   5.514   6.167
 5964SOL    HW118791   7.006   5.547   6.206
 5964SOL    HW218792   6.847   5.579   6.188
 5965SOL     OW18793   1.992   2.147   6.714
 5965SOL    HW118794   1.939   2.225   6.749
 5965SOL    HW218795   1.995   2.075   6.784
 5966SOL     OW18796   2.817   5.917   4.801
 5966SOL    HW118797   2.846   5.824   4.822
 5966SOL    HW218798   2.862   5.947   4.717
 5967SOL     OW18799   3.949   6.040   2.552
 5967SOL    HW118800   3.868   5.985   2.571
 5967SOL    HW218801   4.014   6.030   2.627
 5968SOL     OW18802   6.142   1.678   3.116
 5968SOL    HW118803   6.195   1.761   3.134
 5968SOL    HW218804   6.157   1.650   3.021
 5969SOL     OW18805   6.519   2.726   4.692
 5969SOL    HW118806   6.426   2.719   4.657
 5969SOL    HW218807   6.520   2.702   4.789
 5970SOL     OW18808   0.604   3.843   2.213
 5970SOL    HW118809   0.552   3.912   2.163
 5970SOL    HW218810   0.691   3.827   2.167
 5971SOL     OW18811   1.552   0.140   2.973
 5971SOL    HW118812   1.579   0.213   2.910
 5971SOL    HW218813   1.522   0.060   2.921
 5972SOL     OW18814   4.573   6.506   0.373
 5972SOL    HW118815   4.485   6.485   0.416
 5972SOL    HW218816   4.620   6.421   0.349
 5973SOL     OW18817   1.830   5.239   2.584
 5973SOL    HW118818   1.841   5.253   2.682
 5973SOL    HW218819   1.786   5.150   2.568
 5974SOL     OW18820   6.221   4.405   6.094
 5974SOL    HW118821   6.213   4.309   6.067
 5974SOL    HW218822   6.317   4.432   6.094
 5975SOL     OW18823   4.394   2.405   1.100
 5975SOL    HW118824   4.409   2.397   1.002
 5975SOL    HW218825   4.385   2.501   1.126
 5976SOL     OW18826   2.947   3.184   4.648
 5976SOL    HW118827   2.900   3.155   4.564
 5976SOL    HW218828   2.922   3.279   4.669
 5977SOL     OW18829   1.477   4.295   1.682
 5977SOL    HW118830   1.570   4.301   1.719
 5977SOL    HW218831   1.455   4.200   1.663
 5978SOL     OW18832   5.137   4.702   2.777
 5978SOL    HW118833   5.133   4.756   2.861
 5978SOL    HW218834   5.226   4.656   2.771
 5979SOL     OW18835   6.402   0.359   3.545
 5979SOL    HW118836   6.447   0.409   3.620
 5979SOL    HW218837   6.310   0.332   3.575
 5980SOL     OW18838   4.206   4.309   6.901
 5980SOL    HW118839   4.302   4.287   6.887
 5980SOL    HW218840   4.177   4.378   6.833
 5981SOL     OW18841   6.886   1.876   1.744
 5981SOL    HW118842   6.971   1.879   1.692
 5981SOL    HW218843   6.826   1.951   1.714
 5982SOL     OW18844   6.202   1.623   6.798
 5982SOL    HW118845   6.191   1.561   6.875
 5982SOL    HW218846   6.121   1.618   6.739
 5983SOL     OW18847   2.184   1.645   4.372
 5983SOL    HW118848   2.202   1.649   4.274
 5983SOL    HW218849   2.085   1.644   4.388
 5984SOL     OW18850   0.030   6.841   4.598
 5984SOL    HW118851   6.962   6.869   4.629
 5984SOL    HW218852   0.022   6.795   4.509
 5985SOL     OW18853   5.589   2.407   3.696
 5985SOL    HW118854   5.572   2.317   3.656
 5985SOL    HW218855   5.686   2.416   3.719
 5986SOL     OW18856   2.954   3.344   3.865
 5986SOL    HW118857   3.000   3.430   3.842
 5986SOL    HW218858   2.919   3.349   3.959
 5987SOL     OW18859   4.314   0.788   4.816
 5987SOL    HW118860   4.292   0.884   4.829
 5987SOL    HW218861   4.409   0.771   4.843
 5988SOL     OW18862   3.943   6.807   4.548
 5988SOL    HW118863   4.000   6.732   4.582
 5988SOL    HW218864   3.980   6.894   4.582
 5989SOL     OW18865   2.737   6.401   6.718
 5989SOL    HW118866   2.714   6.420   6.622
 5989SOL    HW218867   2.806   6.329   6.721
 5990SOL     OW18868   3.790   4.255   0.658
 5990SOL    HW118869   3.876   4.216   0.627
 5990SOL    HW218870   3.743   4.189   0.718
 5991SOL     OW18871   4.229   5.124   5.134
 5991SOL    HW118872   4.290   5.201   5.116
 5991SOL    HW218873   4.209   5.077   5.048
 5992SOL     OW18874   3.722   1.021   4.400
 5992SOL    HW118875   3.630   0.994   4.430
 5992SOL    HW218876   3.759   0.951   4.339
 5993SOL     OW18877   3.488   6.631   5.387
 5993SOL    HW118878   3.413   6.692   5.409
 5993SOL    HW218879   3.527   6.654   5.298
 5994SOL     OW18880   5.892   2.279   2.199
 5994SOL    HW118881   5.842   2.363   2.180
 5994SOL    HW218882   5.835   2.218   2.254
 5995SOL     OW18883   0.207   5.025   1.212
 5995SOL    HW118884   0.255   5.074   1.139
 5995SOL    HW218885   0.263   4.947   1.241
 5996SOL     OW18886   0.453   5.888   6.528
 5996SOL    HW118887   0.388   5.858   6.597
 5996SOL    HW218888   0.439   5.836   6.444
 5997SOL     OW18889   0.516   0.013   2.339
 5997SOL    HW118890   0.567   0.098   2.352
 5997SOL    HW218891   0.551   6.988   2.258
 5998SOL     OW18892   5.859   2.513   2.562
 5998SOL    HW118893   5.818   2.561   2.639
 5998SOL    HW218894   5.867   2.416   2.583
 5999SOL     OW18895   0.777   2.090   3.220
 5999SOL    HW118896   0.809   2.027   3.150
 5999SOL    HW218897   0.855   2.135   3.263
 6000SOL     OW18898   3.730   5.607   2.007
 6000SOL    HW118899   3.659   5.587   1.939
 6000SOL    HW218900   3.689   5.646   2.089
 6001SOL     OW18901   0.201   3.916   6.933
 6001SOL    HW118902   0.209   3.886   6.838
 6001SOL    HW218903   0.111   3.890   6.968
 6002SOL     OW18904   0.017   6.424   1.005
 6002SOL    HW118905   0.117   6.422   1.000
 6002SOL    HW218906   7.011   6.496   1.068
 6003SOL     OW18907   5.637   3.542   4.929
 6003SOL    HW118908   5.722   3.518   4.975
 6003SOL    HW218909   5.641   3.513   4.833
 6004SOL     OW18910   0.616   3.907   3.514
 6004SOL    HW118911   0.690   3.923   3.579
 6004SOL    HW218912   0.612   3.983   3.448
 6005SOL     OW18913   4.175   5.071   4.009
 6005SOL    HW118914   4.197   5.159   3.967
 6005SOL    HW218915   4.087   5.039   3.974
 6006SOL     OW18916   3.792   0.361   6.826
 6006SOL    HW118917   3.777   0.325   6.919
 6006SOL    HW218918   3.885   0.337   6.797
 6007SOL     OW18919   5.057   2.865   3.533
 6007SOL    HW118920   5.058   2.771   3.501
 6007SOL    HW218921   5.072   2.927   3.455
 6008SOL     OW18922   3.346   5.736   5.737
 6008SOL    HW118923   3.326   5.642   5.766
 6008SOL    HW218924   3.385   5.735   5.645
 6009SOL     OW18925   2.621   1.730   4.742
 6009SOL    HW118926   2.696   1.783   4.705
 6009SOL    HW218927   2.534   1.767   4.710
 6010SOL     OW18928   2.261   4.701   2.416
 6010SOL    HW118929   2.306   4.613   2.430
 6010SOL    HW218930   2.172   4.686   2.372
 6011SOL     OW18931   5.247   2.384   1.762
 6011SOL    HW118932   5.175   2.410   1.825
 6011SOL    HW218933   5.304   2.313   1.803
 6012SOL     OW18934   6.704   2.029   0.318
 6012SOL    HW118935   6.621   2.083   0.302
 6012SOL    HW218936   6.784   2.088   0.311
 6013SOL     OW18937   5.789   1.834   2.366
 6013SOL    HW118938   5.858   1.846   2.437
 6013SOL    HW218939   5.699   1.857   2.402
 6014SOL     OW18940   5.490   1.949   0.910
 6014SOL    HW118941   5.509   2.040   0.874
 6014SOL    HW218942   5.546   1.882   0.862
 6015SOL     OW18943   6.192   2.933   5.817
 6015SOL    HW118944   6.120   2.874   5.780
 6015SOL    HW218945   6.213   3.005   5.751
 6016SOL     OW18946   0.562   1.068   5.803
 6016SOL    HW118947   0.464   1.087   5.791
 6016SOL    HW218948   0.590   1.097   5.894
 6017SOL     OW18949   5.968   5.647   2.942
 6017SOL    HW118950   5.933   5.591   2.867
 6017SOL    HW218951   5.894   5.706   2.976
 6018SOL     OW18952   3.437   2.918   0.247
 6018SOL    HW118953   3.531   2.916   0.280
 6018SOL    HW218954   3.397   2.827   0.257
 6019SOL     OW18955   4.461   1.742   3.688
 6019SOL    HW118956   4.443   1.790   3.602
 6019SOL    HW218957   4.495   1.650   3.668
 6020SOL     OW18958   2.856   6.727   2.140
 6020SOL    HW118959   2.902   6.663   2.202
 6020SOL    HW218960   2.839   6.813   2.189
 6021SOL     OW18961   4.315   0.171   2.599
 6021SOL    HW118962   4.395   0.113   2.585
 6021SOL    HW218963   4.307   0.234   2.521
 6022SOL     OW18964   4.573   1.178   3.510
 6022SOL    HW118965   4.490   1.125   3.492
 6022SOL    HW218966   4.589   1.182   3.609
 6023SOL     OW18967   6.172   1.119   3.567
 6023SOL    HW118968   6.212   1.098   3.478
 6023SOL    HW218969   6.245   1.139   3.633
 6024SOL     OW18970   0.573   4.709   2.281
 6024SOL    HW118971   0.597   4.747   2.192
 6024SOL    HW218972   0.599   4.772   2.353
 6025SOL     OW18973   4.794   0.593   1.603
 6025SOL    HW118974   4.707   0.632   1.572
 6025SOL    HW218975   4.821   0.519   1.542
 6026SOL     OW18976   0.366   4.727   4.258
 6026SOL    HW118977   0.425   4.806   4.276
 6026SOL    HW218978   0.349   4.720   4.160
 6027SOL     OW18979   1.745   4.090   6.130
 6027SOL    HW118980   1.800   4.034   6.068
 6027SOL    HW218981   1.693   4.157   6.078
 6028SOL     OW18982   1.101   3.938   0.151
 6028SOL    HW118983   1.154   3.868   0.102
 6028SOL    HW218984   1.057   3.998   0.084
 6029SOL     OW18985   2.303   6.709   0.014
 6029SOL    HW118986   2.234   6.779   7.022
 6029SOL    HW218987   2.259   6.624   0.044
 6030SOL     OW18988   2.435   0.766   3.482
 6030SOL    HW118989   2.399   0.705   3.411
 6030SOL    HW218990   2.382   0.850   3.483
 6031SOL     OW18991   4.419   5.386   5.209
 6031SOL    HW118992   4.410   5.448   5.287
 6031SOL    HW218993   4.342   5.398   5.147
 6032SOL     OW18994   1.648   3.365   2.449
 6032SOL    HW118995   1.729   3.346   2.504
 6032SOL    HW218996   1.655   3.457   2.410
 6033SOL     OW18997   2.244   2.340   3.323
 6033SOL    HW118998   2.225   2.386   3.411
 6033SOL    HW218999   2.170   2.275   3.304
 6034SOL     OW19000   2.403   4.788   4.424
 6034SOL    HW119001   2.391   4.732   4.342
 6034SOL    HW219002   2.368   4.880   4.406
 6035SOL     OW19003   5.161   0.559   4.112
 6035SOL    HW119004   5.211   0.643   4.094
 6035SOL    HW219005   5.063   0.574   4.096
 6036SOL     OW19006   7.007   0.076   5.361
 6036SOL    HW119007   0.019   0.109   5.273
 6036SOL    HW219008   6.958   7.013   5.348
 6037SOL     OW19009   4.942   5.124   6.353
 6037SOL    HW119010   4.912   5.066   6.277
 6037SOL    HW219011   5.011   5.076   6.407
 6038SOL     OW19012   0.521   3.070   6.473
 6038SOL    HW119013   0.542   3.139   6.542
 6038SOL    HW219014   0.606   3.024   6.445
 6039SOL     OW19015   3.657   3.455   2.779
 6039SOL    HW119016   3.705   3.375   2.817
 6039SOL    HW219017   3.599   3.426   2.703
 6040SOL     OW19018   0.598   1.469   6.536
 6040SOL    HW119019   0.502   1.451   6.556
 6040SOL    HW219020   0.656   1.423   6.604
 6041SOL     OW19021   1.565   1.670   6.836
 6041SOL    HW119022   1.637   1.677   6.904
 6041SOL    HW219023   1.561   1.576   6.802
 6042SOL     OW19024   5.713   5.274   2.251
 6042SOL    HW119025   5.798   5.235   2.287
 6042SOL    HW219026   5.685   5.351   2.308
 6043SOL     OW19027   1.270   4.676   5.071
 6043SOL    HW119028   1.260   4.766   5.028
 6043SOL    HW219029   1.365   4.648   5.068
 6044SOL     OW19030   6.973   1.898   1.062
 6044SOL    HW119031   6.910   1.834   1.108
 6044SOL    HW219032   6.942   1.913   0.968
 6045SOL     OW19033   5.468   5.842   0.789
 6045SOL    HW119034   5.394   5.888   0.837
 6045SOL    HW219035   5.556   5.876   0.822
 6046SOL     OW19036   3.295   2.613   0.924
 6046SOL    HW119037   3.374   2.562   0.957
 6046SOL    HW219038   3.303   2.627   0.825
 6047SOL     OW19039   6.101   1.076   4.271
 6047SOL    HW119040   6.129   1.166   4.305
 6047SOL    HW219041   6.078   1.082   4.174
 6048SOL     OW19042   4.048   0.079   3.271
 6048SOL    HW119043   4.097   0.104   3.188
 6048SOL    HW219044   3.955   0.116   3.268
 6049SOL     OW19045   4.901   2.972   6.326
 6049SOL    HW119046   4.845   2.890   6.321
 6049SOL    HW219047   4.936   2.994   6.234
 6050SOL     OW19048   3.862   4.085   6.128
 6050SOL    HW119049   3.845   4.071   6.031
 6050SOL    HW219050   3.923   4.013   6.162
 6051SOL     OW19051   2.299   2.061   3.016
 6051SOL    HW119052   2.242   2.141   2.997
 6051SOL    HW219053   2.252   1.978   2.985
 6052SOL     OW19054   6.727   0.212   0.194
 6052SOL    HW119055   6.681   0.277   0.255
 6052SOL    HW219056   6.775   0.143   0.249
 6053SOL     OW19057   3.665   0.593   6.886
 6053SOL    HW119058   3.698   0.505   6.851
 6053SOL    HW219059   3.639   0.583   6.982
 6054SOL     OW19060   2.351   4.192   0.976
 6054SOL    HW119061   2.434   4.207   1.030
 6054SOL    HW219062   2.371   4.127   0.902
 6055SOL     OW19063   5.584   1.039   5.415
 6055SOL    HW119064   5.652   1.048   5.488
 6055SOL    HW219065   5.507   1.101   5.433
 6056SOL     OW19066   4.053   1.697   5.554
 6056SOL    HW119067   4.086   1.603   5.554
 6056SOL    HW219068   4.088   1.745   5.474
 6057SOL     OW19069   4.443   1.808   4.537
 6057SOL    HW119070   4.400   1.723   4.567
 6057SOL    HW219071   4.509   1.838   4.606
 6058SOL     OW19072   5.791   2.883   3.301
 6058SOL    HW119073   5.878   2.932   3.294
 6058SOL    HW219074   5.806   2.798   3.353
 6059SOL     OW19075   4.543   5.575   6.071
 6059SOL    HW119076   4.620   5.549   6.129
 6059SOL    HW219077   4.459   5.574   6.126
 6060SOL     OW19078   3.589   3.950   5.963
 6060SOL    HW119079   3.497   3.972   5.930
 6060SOL    HW219080   3.657   3.998   5.907
 6061SOL     OW19081   3.272   2.487   0.142
 6061SOL    HW119082   3.343   2.432   0.185
 6061SOL    HW219083   3.290   2.495   0.044
 6062SOL     OW19084   2.405   1.146   4.630
 6062SOL    HW119085   2.471   1.221   4.632
 6062SOL    HW219086   2.452   1.060   4.609
 6063SOL     OW19087   3.846   1.149   6.108
 6063SOL    HW119088   3.855   1.125   6.011
 6063SOL    HW219089   3.769   1.212   6.119
 6064SOL     OW19090   1.964   5.439   2.758
 6064SOL    HW119091   2.056   5.430   2.796
 6064SOL    HW219092   1.963   5.402   2.665
 6065SOL     OW19093   6.248   6.734   0.984
 6065SOL    HW119094   6.343   6.721   1.014
 6065SOL    HW219095   6.196   6.775   1.058
 6066SOL     OW19096   4.959   1.386   1.411
 6066SOL    HW119097   4.990   1.479   1.391
 6066SOL    HW219098   4.860   1.382   1.405
 6067SOL     OW19099   6.472   2.231   6.600
 6067SOL    HW119100   6.448   2.305   6.538
 6067SOL    HW219101   6.415   2.151   6.581
 6068SOL     OW19102   5.220   3.321   4.900
 6068SOL    HW119103   5.232   3.373   4.985
 6068SOL    HW219104   5.130   3.343   4.861
 6069SOL     OW19105   6.854   3.819   6.249
 6069SOL    HW119106   6.905   3.736   6.273
 6069SOL    HW219107   6.902   3.899   6.286
 6070SOL     OW19108   3.396   2.516   6.383
 6070SOL    HW119109   3.312   2.532   6.436
 6070SOL    HW219110   3.372   2.478   6.294
 6071SOL     OW19111   3.974   5.865   5.941
 6071SOL    HW119112   3.970   5.796   6.013
 6071SOL    HW219113   4.021   5.828   5.861
 6072SOL     OW19114   1.038   1.473   1.871
 6072SOL    HW119115   1.052   1.562   1.914
 6072SOL    HW219116   1.101   1.406   1.911
 6073SOL     OW19117   6.110   2.911   0.498
 6073SOL    HW119118   6.196   2.921   0.447
 6073SOL    HW219119   6.085   2.814   0.503
 6074SOL     OW19120   1.006   6.902   4.707
 6074SOL    HW119121   1.098   6.912   4.669
 6074SOL    HW219122   0.938   6.919   4.636
 6075SOL     OW19123   6.697   2.562   0.015
 6075SOL    HW119124   6.675   2.659   7.021
 6075SOL    HW219125   6.749   2.554   0.099
 6076SOL     OW19126   2.536   0.044   5.006
 6076SOL    HW119127   2.536   0.072   4.910
 6076SOL    HW219128   2.617   0.081   5.052
 6077SOL     OW19129   4.881   5.712   2.391
 6077SOL    HW119130   4.897   5.658   2.308
 6077SOL    HW219131   4.930   5.799   2.384
 6078SOL     OW19132   3.424   4.909   3.106
 6078SOL    HW119133   3.440   4.904   3.007
 6078SOL    HW219134   3.474   4.836   3.151
 6079SOL     OW19135   2.517   3.549   6.978
 6079SOL    HW119136   2.448   3.606   6.934
 6079SOL    HW219137   2.603   3.555   6.928
 6080SOL     OW19138   6.757   1.798   0.833
 6080SOL    HW119139   6.704   1.775   0.915
 6080SOL    HW219140   6.695   1.819   0.758
 6081SOL     OW19141   6.584   3.740   4.452
 6081SOL    HW119142   6.683   3.749   4.460
 6081SOL    HW219143   6.540   3.804   4.515
 6082SOL     OW19144   3.437   0.439   2.818
 6082SOL    HW119145   3.439   0.519   2.878
 6082SOL    HW219146   3.423   0.356   2.873
 6083SOL     OW19147   1.289   5.145   6.183
 6083SOL    HW119148   1.327   5.190   6.264
 6083SOL    HW219149   1.228   5.070   6.212
 6084SOL     OW19150   6.893   5.352   4.297
 6084SOL    HW119151   6.864   5.442   4.331
 6084SOL    HW219152   6.992   5.348   4.292
 6085SOL     OW19153   6.715   3.956   0.207
 6085SOL    HW119154   6.737   3.939   0.303
 6085SOL    HW219155   6.792   4.002   0.163
 6086SOL     OW19156   3.587   1.367   4.611
 6086SOL    HW119157   3.668   1.311   4.598
 6086SOL    HW219158   3.511   1.310   4.641
 6087SOL     OW19159   5.524   6.954   0.043
 6087SOL    HW119160   5.549   0.006   7.004
 6087SOL    HW219161   5.496   6.875   7.012
 6088SOL     OW19162   6.915   6.192   4.524
 6088SOL    HW119163   6.894   6.280   4.480
 6088SOL    HW219164   6.873   6.190   4.615
 6089SOL     OW19165   0.650   3.538   1.577
 6089SOL    HW119166   0.705   3.519   1.496
 6089SOL    HW219167   0.711   3.563   1.653
 6090SOL     OW19168   0.702   5.998   6.183
 6090SOL    HW119169   0.799   6.021   6.187
 6090SOL    HW219170   0.691   5.901   6.162
 6091SOL     OW19171   0.565   1.288   1.992
 6091SOL    HW119172   0.638   1.325   1.934
 6091SOL    HW219173   0.583   1.191   2.010
 6092SOL     OW19174   2.650   0.979   3.026
 6092SOL    HW119175   2.704   1.058   2.999
 6092SOL    HW219176   2.655   0.909   2.954
 6093SOL     OW19177   2.017   2.715   1.997
 6093SOL    HW119178   1.980   2.766   1.919
 6093SOL    HW219179   2.076   2.775   2.052
 6094SOL     OW19180   2.079   1.389   1.841
 6094SOL    HW119181   2.066   1.481   1.804
 6094SOL    HW219182   2.026   1.324   1.786
 6095SOL     OW19183   4.810   2.754   0.013
 6095SOL    HW119184   4.770   2.785   0.099
 6095SOL    HW219185   4.793   2.823   6.965
 6096SOL     OW19186   5.817   0.717   4.207
 6096SOL    HW119187   5.896   0.768   4.239
 6096SOL    HW219188   5.844   0.656   4.133
 6097SOL     OW19189   2.223   0.377   2.720
 6097SOL    HW119190   2.162   0.369   2.641
 6097SOL    HW219191   2.180   0.335   2.799
 6098SOL     OW19192   1.844   2.181   6.052
 6098SOL    HW119193   1.902   2.211   6.128
 6098SOL    HW219194   1.868   2.232   5.970
 6099SOL     OW19195   5.685   5.918   5.444
 6099SOL    HW119196   5.682   5.998   5.505
 6099SOL    HW219197   5.773   5.917   5.397
 6100SOL     OW19198   6.407   3.800   6.144
 6100SOL    HW119199   6.437   3.841   6.230
 6100SOL    HW219200   6.369   3.872   6.085
 6101SOL     OW19201   6.564   2.174   5.943
 6101SOL    HW119202   6.554   2.192   6.041
 6101SOL    HW219203   6.640   2.228   5.907
 6102SOL     OW19204   2.937   0.883   4.347
 6102SOL    HW119205   2.956   0.874   4.249
 6102SOL    HW219206   2.985   0.810   4.397
 6103SOL     OW19207   0.014   0.370   4.077
 6103SOL    HW119208   7.003   0.279   4.055
 6103SOL    HW219209   0.070   0.405   4.001
 6104SOL     OW19210   6.105   2.249   6.537
 6104SOL    HW119211   6.007   2.232   6.532
 6104SOL    HW219212   6.129   2.279   6.630
 6105SOL     OW19213   3.485   6.368   5.431
 6105SOL    HW119214   3.579   6.336   5.431
 6105SOL    HW219215   3.483   6.467   5.417
 6106SOL     OW19216   2.675   5.046   6.451
 6106SOL    HW119217   2.661   5.005   6.361
 6106SOL    HW219218   2.743   4.993   6.502
 6107SOL     OW19219   2.098   4.705   4.188
 6107SOL    HW119220   2.181   4.652   4.207
 6107SOL    HW219221   2.033   4.647   4.139
 6108SOL     OW19222   0.893   1.714   3.701
 6108SOL    HW119223   0.890   1.802   3.654
 6108SOL    HW219224   0.851   1.644   3.643
 6109SOL     OW19225   5.322   2.653   0.148
 6109SOL    HW119226   5.222   2.657   0.142
 6109SOL    HW219227   5.361   2.653   0.055
 6110SOL     OW19228   2.780   2.565   6.448
 6110SOL    HW119229   2.707   2.606   6.394
 6110SOL    HW219230   2.748   2.551   6.542
 6111SOL     OW19231   0.940   4.702   2.757
 6111SOL    HW119232   0.979   4.649   2.832
 6111SOL    HW219233   0.889   4.779   2.795
 6112SOL     OW19234   1.752   1.864   3.215
 6112SOL    HW119235   1.743   1.775   3.261
 6112SOL    HW219236   1.663   1.892   3.179
 6113SOL     OW19237   0.874   0.927   6.208
 6113SOL    HW119238   0.798   0.863   6.200
 6113SOL    HW219239   0.864   0.980   6.292
 6114SOL     OW19240   5.433   5.546   6.841
 6114SOL    HW119241   5.341   5.577   6.864
 6114SOL    HW219242   5.445   5.450   6.868
 6115SOL     OW19243   4.815   5.195   3.311
 6115SOL    HW119244   4.910   5.225   3.314
 6115SOL    HW219245   4.755   5.275   3.306
 6116SOL     OW19246   2.920   1.332   1.559
 6116SOL    HW119247   2.980   1.371   1.628
 6116SOL    HW219248   2.974   1.302   1.481
 6117SOL     OW19249   5.956   0.120   4.441
 6117SOL    HW119250   6.007   0.193   4.489
 6117SOL    HW219251   5.984   0.031   4.478
 6118SOL     OW19252   6.499   1.896   1.995
 6118SOL    HW119253   6.565   1.937   2.058
 6118SOL    HW219254   6.407   1.902   2.035
 6119SOL     OW19255   0.388   4.650   5.056
 6119SOL    HW119256   0.441   4.671   4.974
 6119SOL    HW219257   0.290   4.652   5.035
 6120SOL     OW19258   3.022   6.658   3.992
 6120SOL    HW119259   2.944   6.637   4.050
 6120SOL    HW219260   2.998   6.733   3.930
 6121SOL     OW19261   6.940   2.716   4.115
 6121SOL    HW119262   7.005   2.770   4.062
 6121SOL    HW219263   6.885   2.777   4.172
 6122SOL     OW19264   3.669   6.150   2.752
 6122SOL    HW119265   3.677   6.176   2.656
 6122SOL    HW219266   3.676   6.050   2.760
 6123SOL     OW19267   0.205   0.746   1.169
 6123SOL    HW119268   0.141   0.749   1.092
 6123SOL    HW219269   0.154   0.746   1.255
 6124SOL     OW19270   3.954   6.686   5.126
 6124SOL    HW119271   4.013   6.734   5.191
 6124SOL    HW219272   3.859   6.695   5.154
 6125SOL     OW19273   2.421   5.528   1.510
 6125SOL    HW119274   2.321   5.518   1.511
 6125SOL    HW219275   2.446   5.618   1.474
 6126SOL     OW19276   5.215   5.865   4.235
 6126SOL    HW119277   5.197   5.863   4.137
 6126SOL    HW219278   5.137   5.904   4.283
 6127SOL     OW19279   2.844   6.718   1.270
 6127SOL    HW119280   2.859   6.620   1.275
 6127SOL    HW219281   2.748   6.736   1.248
 6128SOL     OW19282   6.947   3.600   0.627
 6128SOL    HW119283   0.011   3.562   0.593
 6128SOL    HW219284   6.877   3.591   0.557
 6129SOL     OW19285   6.255   4.164   3.458
 6129SOL    HW119286   6.163   4.127   3.444
 6129SOL    HW219287   6.289   4.200   3.371
 6130SOL     OW19288   5.998   3.006   4.430
 6130SOL    HW119289   6.055   3.074   4.476
 6130SOL    HW219290   6.019   3.006   4.332
 6131SOL     OW19291   6.888   1.410   5.497
 6131SOL    HW119292   6.915   1.502   5.527
 6131SOL    HW219293   6.845   1.416   5.407
 6132SOL     OW19294   3.742   1.495   1.113
 6132SOL    HW119295   3.808   1.428   1.147
 6132SOL    HW219296   3.656   1.449   1.091
 6133SOL     OW19297   0.669   3.187   2.022
 6133SOL    HW119298   0.707   3.112   2.077
 6133SOL    HW219299   0.684   3.274   2.069
 6134SOL     OW19300   3.408   3.138   6.676
 6134SOL    HW119301   3.478   3.153   6.745
 6134SOL    HW219302   3.446   3.080   6.603
 6135SOL     OW19303   6.891   0.167   1.547
 6135SOL    HW119304   6.807   0.113   1.549
 6135SOL    HW219305   6.921   0.181   1.453
 6136SOL     OW19306   0.403   1.062   2.569
 6136SOL    HW119307   0.398   0.967   2.597
 6136SOL    HW219308   0.348   1.076   2.487
 6137SOL     OW19309   3.923   0.709   5.881
 6137SOL    HW119310   3.948   0.738   5.788
 6137SOL    HW219311   4.005   0.705   5.937
 6138SOL     OW19312   3.539   6.474   2.732
 6138SOL    HW119313   3.601   6.474   2.654
 6138SOL    HW219314   3.580   6.423   2.808
 6139SOL     OW19315   1.948   3.307   5.242
 6139SOL    HW119316   1.898   3.299   5.328
 6139SOL    HW219317   1.969   3.403   5.224
 6140SOL     OW19318   0.275   0.114   1.839
 6140SOL    HW119319   0.235   0.082   1.924
 6140SOL    HW219320   0.373   0.132   1.852
 6141SOL     OW19321   6.593   6.027   4.555
 6141SOL    HW119322   6.514   6.030   4.616
 6141SOL    HW219323   6.670   6.074   4.598
 6142SOL     OW19324   6.663   4.569   0.677
 6142SOL    HW119325   6.638   4.475   0.654
 6142SOL    HW219326   6.728   4.603   0.610
 6143SOL     OW19327   6.179   5.161   6.342
 6143SOL    HW119328   6.207   5.173   6.437
 6143SOL    HW219329   6.142   5.068   6.330
 6144SOL     OW19330   0.053   4.138   3.109
 6144SOL    HW119331   0.065   4.174   3.016
 6144SOL    HW219332   0.134   4.161   3.163
 6145SOL     OW19333   4.931   5.519   3.820
 6145SOL    HW119334   5.019   5.533   3.866
 6145SOL    HW219335   4.894   5.607   3.791
 6146SOL     OW19336   4.291   1.321   3.369
 6146SOL    HW119337   4.293   1.382   3.289
 6146SOL    HW219338   4.373   1.336   3.424
 6147SOL     OW19339   2.319   4.827   2.975
 6147SOL    HW119340   2.305   4.922   2.944
 6147SOL    HW219341   2.248   4.769   2.937
 6148SOL     OW19342   6.648   6.402   4.493
 6148SOL    HW119343   6.550   6.382   4.493
 6148SOL    HW219344   6.670   6.461   4.416
 6149SOL     OW19345   3.622   4.906   3.342
 6149SOL    HW119346   3.716   4.903   3.377
 6149SOL    HW219347   3.591   5.000   3.336
 6150SOL     OW19348   4.392   5.552   6.790
 6150SOL    HW119349   4.351   5.469   6.753
 6150SOL    HW219350   4.433   5.605   6.716
 6151SOL     OW19351   5.622   3.116   5.118
 6151SOL    HW119352   5.636   3.023   5.153
 6151SOL    HW219353   5.563   3.167   5.180
 6152SOL     OW19354   5.366   5.051   5.986
 6152SOL    HW119355   5.409   4.968   5.951
 6152SOL    HW219356   5.436   5.119   6.008
 6153SOL     OW19357   4.715   3.926   1.418
 6153SOL    HW119358   4.672   3.855   1.474
 6153SOL    HW219359   4.683   4.016   1.448
 6154SOL     OW19360   5.796   1.457   2.018
 6154SOL    HW119361   5.773   1.504   2.103
 6154SOL    HW219362   5.784   1.358   2.029
 6155SOL     OW19363   0.983   3.372   4.546
 6155SOL    HW119364   0.997   3.464   4.581
 6155SOL    HW219365   1.071   3.333   4.520
 6156SOL     OW19366   4.864   6.083   2.752
 6156SOL    HW119367   4.850   6.156   2.820
 6156SOL    HW219368   4.961   6.061   2.746
 6157SOL     OW19369   1.962   2.701   3.402
 6157SOL    HW119370   1.957   2.641   3.482
 6157SOL    HW219371   1.985   2.646   3.322
 6158SOL     OW19372   4.635   0.747   6.486
 6158SOL    HW119373   4.606   0.837   6.518
 6158SOL    HW219374   4.581   0.677   6.532
 6159SOL     OW19375   5.072   1.449   0.076
 6159SOL    HW119376   5.112   1.363   0.108
 6159SOL    HW219377   5.085   1.520   0.144
 6160SOL     OW19378   5.729   5.852   0.841
 6160SOL    HW119379   5.764   5.940   0.810
 6160SOL    HW219380   5.728   5.787   0.765
 6161SOL     OW19381   6.253   1.576   5.587
 6161SOL    HW119382   6.299   1.665   5.587
 6161SOL    HW219383   6.260   1.535   5.496
 6162SOL     OW19384   0.934   4.795   4.331
 6162SOL    HW119385   0.871   4.728   4.292
 6162SOL    HW219386   0.936   4.785   4.430
 6163SOL     OW19387   5.292   4.605   0.861
 6163SOL    HW119388   5.247   4.604   0.950
 6163SOL    HW219389   5.224   4.614   0.789
 6164SOL     OW19390   2.077   2.209   1.252
 6164SOL    HW119391   2.041   2.298   1.278
 6164SOL    HW219392   2.176   2.215   1.238
 6165SOL     OW19393   3.863   6.051   0.401
 6165SOL    HW119394   3.897   6.054   0.495
 6165SOL    HW219395   3.854   5.955   0.372
 6166SOL     OW19396   2.872   1.113   5.482
 6166SOL    HW119397   2.809   1.065   5.543
 6166SOL    HW219398   2.913   1.190   5.530
 6167SOL     OW19399   0.959   4.956   2.425
 6167SOL    HW119400   0.997   4.928   2.337
 6167SOL    HW219401   0.861   4.935   2.427
 6168SOL     OW19402   0.387   3.535   1.458
 6168SOL    HW119403   0.379   3.580   1.369
 6168SOL    HW219404   0.481   3.543   1.491
 6169SOL     OW19405   2.031   3.750   1.661
 6169SOL    HW119406   2.075   3.836   1.635
 6169SOL    HW219407   2.099   3.688   1.699
 6170SOL     OW19408   0.402   3.535   5.411
 6170SOL    HW119409   0.378   3.440   5.391
 6170SOL    HW219410   0.437   3.579   5.328
 6171SOL     OW19411   0.690   0.547   1.055
 6171SOL    HW119412   0.612   0.575   1.112
 6171SOL    HW219413   0.662   0.548   0.959
 6172SOL     OW19414   0.694   2.540   3.301
 6172SOL    HW119415   0.700   2.475   3.225
 6172SOL    HW219416   0.666   2.491   3.384
 6173SOL     OW19417   6.759   5.959   3.089
 6173SOL    HW119418   6.720   5.910   3.011
 6173SOL    HW219419   6.704   5.940   3.171
 6174SOL     OW19420   5.214   5.116   3.072
 6174SOL    HW119421   5.134   5.077   3.027
 6174SOL    HW219422   5.233   5.206   3.034
 6175SOL     OW19423   3.659   0.731   4.702
 6175SOL    HW119424   3.712   0.647   4.690
 6175SOL    HW219425   3.683   0.773   4.790
 6176SOL     OW19426   4.169   3.672   5.175
 6176SOL    HW119427   4.189   3.618   5.093
 6176SOL    HW219428   4.071   3.693   5.178
 6177SOL     OW19429   5.852   1.598   1.798
 6177SOL    HW119430   5.933   1.540   1.781
 6177SOL    HW219431   5.798   1.558   1.873
 6178SOL     OW19432   4.925   3.474   2.254
 6178SOL    HW119433   4.877   3.435   2.175
 6178SOL    HW219434   4.912   3.415   2.334
 6179SOL     OW19435   6.721   4.723   1.910
 6179SOL    HW119436   6.721   4.823   1.915
 6179SOL    HW219437   6.646   4.692   1.852
 6180SOL     OW19438   3.161   4.994   0.676
 6180SOL    HW119439   3.230   5.041   0.731
 6180SOL    HW219440   3.093   5.060   0.644
 6181SOL     OW19441   4.523   4.942   6.195
 6181SOL    HW119442   4.555   5.036   6.206
 6181SOL    HW219443   4.515   4.921   6.098
 6182SOL     OW19444   3.351   3.169   0.367
 6182SOL    HW119445   3.372   3.078   0.333
 6182SOL    HW219446   3.374   3.174   0.464
 6183SOL     OW19447   1.512   2.181   0.801
 6183SOL    HW119448   1.437   2.220   0.854
 6183SOL    HW219449   1.485   2.172   0.706
 6184SOL     OW19450   2.825   0.908   5.841
 6184SOL    HW119451   2.761   0.951   5.777
 6184SOL    HW219452   2.916   0.947   5.828
 6185SOL     OW19453   3.030   3.060   5.227
 6185SOL    HW119454   3.013   2.962   5.238
 6185SOL    HW219455   3.129   3.076   5.222
 6186SOL     OW19456   6.731   2.123   1.614
 6186SOL    HW119457   6.646   2.129   1.561
 6186SOL    HW219458   6.795   2.191   1.580
 6187SOL     OW19459   4.784   2.330   5.360
 6187SOL    HW119460   4.813   2.317   5.265
 6187SOL    HW219461   4.808   2.422   5.390
 6188SOL     OW19462   1.885   1.715   5.686
 6188SOL    HW119463   1.906   1.751   5.777
 6188SOL    HW219464   1.926   1.774   5.616
 6189SOL     OW19465   4.172   5.699   2.126
 6189SOL    HW119466   4.130   5.725   2.213
 6189SOL    HW219467   4.162   5.601   2.112
 6190SOL     OW19468   6.501   3.456   5.945
 6190SOL    HW119469   6.549   3.370   5.927
 6190SOL    HW219470   6.550   3.507   6.016
 6191SOL     OW19471   2.454   3.217   5.975
 6191SOL    HW119472   2.458   3.265   6.062
 6191SOL    HW219473   2.467   3.282   5.900
 6192SOL     OW19474   2.060   2.144   0.123
 6192SOL    HW119475   2.046   2.242   0.114
 6192SOL    HW219476   2.143   2.117   0.073
 6193SOL     OW19477   5.489   5.286   0.129
 6193SOL    HW119478   5.484   5.198   0.176
 6193SOL    HW219479   5.433   5.353   0.177
 6194SOL     OW19480   6.577   0.581   6.576
 6194SOL    HW119481   6.569   0.507   6.643
 6194SOL    HW219482   6.658   0.565   6.519
 6195SOL     OW19483   5.823   0.734   4.769
 6195SOL    HW119484   5.765   0.668   4.720
 6195SOL    HW219485   5.802   0.731   4.867
 6196SOL     OW19486   5.258   4.418   2.845
 6196SOL    HW119487   5.239   4.341   2.784
 6196SOL    HW219488   5.356   4.439   2.842
 6197SOL     OW19489   2.495   5.253   1.921
 6197SOL    HW119490   2.568   5.261   1.854
 6197SOL    HW219491   2.497   5.162   1.963
 6198SOL     OW19492   5.557   6.165   6.386
 6198SOL    HW119493   5.576   6.251   6.340
 6198SOL    HW219494   5.462   6.139   6.369
 6199SOL     OW19495   0.432   0.049   0.322
 6199SOL    HW119496   0.501   0.096   0.268
 6199SOL    HW219497   0.440   6.973   0.310
 6200SOL     OW19498   1.556   1.306   2.374
 6200SOL    HW119499   1.584   1.402   2.384
 6200SOL    HW219500   1.635   1.247   2.389
 6201SOL     OW19501   6.894   4.227   3.884
 6201SOL    HW119502   6.946   4.311   3.901
 6201SOL    HW219503   6.957   4.151   3.871
 6202SOL     OW19504   6.141   1.909   3.326
 6202SOL    HW119505   6.157   2.005   3.302
 6202SOL    HW219506   6.200   1.883   3.402
 6203SOL     OW19507   6.825   5.716   1.781
 6203SOL    HW119508   6.836   5.705   1.880
 6203SOL    HW219509   6.873   5.799   1.751
 6204SOL     OW19510   1.185   6.364   5.124
 6204SOL    HW119511   1.192   6.306   5.042
 6204SOL    HW219512   1.207   6.458   5.100
 6205SOL     OW19513   5.006   4.400   2.365
 6205SOL    HW119514   5.065   4.367   2.439
 6205SOL    HW219515   4.965   4.321   2.318
 6206SOL     OW19516   5.035   1.674   3.627
 6206SOL    HW119517   4.979   1.701   3.706
 6206SOL    HW219518   5.111   1.618   3.658
 6207SOL     OW19519   1.002   5.688   4.344
 6207SOL    HW119520   1.066   5.684   4.267
 6207SOL    HW219521   0.948   5.772   4.338
 6208SOL     OW19522   3.716   3.215   5.603
 6208SOL    HW119523   3.652   3.144   5.574
 6208SOL    HW219524   3.809   3.178   5.605
 6209SOL     OW19525   3.582   4.440   0.970
 6209SOL    HW119526   3.630   4.497   0.903
 6209SOL    HW219527   3.646   4.374   1.010
 6210SOL     OW19528   4.963   3.476   3.364
 6210SOL    HW119529   5.062   3.459   3.366
 6210SOL    HW219530   4.916   3.407   3.418
 6211SOL     OW19531   4.593   5.641   5.205
 6211SOL    HW119532   4.575   5.545   5.185
 6211SOL    HW219533   4.547   5.699   5.137
 6212SOL     OW19534   2.522   5.224   5.752
 6212SOL    HW119535   2.515   5.164   5.672
 6212SOL    HW219536   2.431   5.241   5.789
 6213SOL     OW19537   4.888   6.329   0.594
 6213SOL    HW119538   4.985   6.307   0.607
 6213SOL    HW219539   4.878   6.425   0.570
 6214SOL     OW19540   5.852   6.318   5.140
 6214SOL    HW119541   5.803   6.272   5.066
 6214SOL    HW219542   5.788   6.375   5.193
 6215SOL     OW19543   5.251   3.289   6.177
 6215SOL    HW119544   5.200   3.307   6.093
 6215SOL    HW219545   5.333   3.347   6.180
 6216SOL     OW19546   5.442   2.616   3.664
 6216SOL    HW119547   5.489   2.528   3.657
 6216SOL    HW219548   5.430   2.654   3.573
 6217SOL     OW19549   1.085   4.945   2.658
 6217SOL    HW119550   1.080   4.853   2.695
 6217SOL    HW219551   1.040   4.948   2.568
 6218SOL     OW19552   4.712   6.263   0.202
 6218SOL    HW119553   4.708   6.253   0.103
 6218SOL    HW219554   4.808   6.262   0.232
 6219SOL     OW19555   0.965   0.759   5.297
 6219SOL    HW119556   0.925   0.707   5.222
 6219SOL    HW219557   0.974   0.855   5.271
 6220SOL     OW19558   3.734   1.011   0.702
 6220SOL    HW119559   3.638   0.988   0.718
 6220SOL    HW219560   3.780   1.022   0.790
 6221SOL     OW19561   0.025   6.090   6.428
 6221SOL    HW119562   0.105   6.150   6.427
 6221SOL    HW219563   6.965   6.143   6.447
 6222SOL     OW19564   6.046   1.107   2.203
 6222SOL    HW119565   6.017   1.133   2.111
 6222SOL    HW219566   6.146   1.111   2.210
 6223SOL     OW19567   0.506   5.080   3.637
 6223SOL    HW119568   0.426   5.039   3.682
 6223SOL    HW219569   0.476   5.135   3.559
 6224SOL     OW19570   4.325   1.684   6.682
 6224SOL    HW119571   4.315   1.668   6.780
 6224SOL    HW219572   4.256   1.630   6.633
 6225SOL     OW19573   3.825   0.914   6.856
 6225SOL    HW119574   3.862   0.828   6.822
 6225SOL    HW219575   3.738   0.896   6.902
 6226SOL     OW19576   1.444   1.276   4.205
 6226SOL    HW119577   1.382   1.258   4.129
 6226SOL    HW219578   1.539   1.275   4.172
 6227SOL     OW19579   2.914   4.419   5.825
 6227SOL    HW119580   2.894   4.409   5.727
 6227SOL    HW219581   2.897   4.513   5.853
 6228SOL     OW19582   1.941   2.542   3.642
 6228SOL    HW119583   1.946   2.610   3.714
 6228SOL    HW219584   1.855   2.491   3.649
 6229SOL     OW19585   0.158   3.358   5.098
 6229SOL    HW119586   0.224   3.378   5.025
 6229SOL    HW219587   0.137   3.442   5.147
 6230SOL     OW19588   0.066   1.576   2.370
 6230SOL    HW119589   0.067   1.632   2.287
 6230SOL    HW219590   7.016   1.609   2.431
 6231SOL     OW19591   5.617   4.341   0.825
 6231SOL    HW119592   5.631   4.256   0.773
 6231SOL    HW219593   5.622   4.419   0.763
 6232SOL     OW19594   5.572   0.535   0.311
 6232SOL    HW119595   5.662   0.579   0.319
 6232SOL    HW219596   5.511   0.593   0.257
 6233SOL     OW19597   0.350   3.444   2.468
 6233SOL    HW119598   0.423   3.509   2.490
 6233SOL    HW219599   0.391   3.361   2.430
 6234SOL     OW19600   6.894   6.840   4.230
 6234SOL    HW119601   6.814   6.826   4.172
 6234SOL    HW219602   6.893   6.774   4.305
 6235SOL     OW19603   6.824   0.987   2.395
 6235SOL    HW119604   6.900   1.005   2.458
 6235SOL    HW219605   6.854   0.923   2.324
 6236SOL     OW19606   1.075   4.920   1.106
 6236SOL    HW119607   1.106   4.894   1.014
 6236SOL    HW219608   1.135   4.878   1.174
 6237SOL     OW19609   3.502   0.181   0.612
 6237SOL    HW119610   3.484   0.203   0.517
 6237SOL    HW219611   3.598   0.199   0.633
 6238SOL     OW19612   2.753   6.581   4.107
 6238SOL    HW119613   2.767   6.519   4.184
 6238SOL    HW219614   2.698   6.537   4.037
 6239SOL     OW19615   4.867   0.403   2.515
 6239SOL    HW119616   4.898   0.343   2.440
 6239SOL    HW219617   4.935   0.404   2.587
 6240SOL     OW19618   3.347   3.606   4.670
 6240SOL    HW119619   3.377   3.579   4.762
 6240SOL    HW219620   3.409   3.566   4.602
 6241SOL     OW19621   2.861   6.351   3.412
 6241SOL    HW119622   2.877   6.263   3.457
 6241SOL    HW219623   2.915   6.422   3.457
 6242SOL     OW19624   2.994   1.945   2.745
 6242SOL    HW119625   2.935   1.947   2.826
 6242SOL    HW219626   3.077   1.997   2.764
 6243SOL     OW19627   5.950   1.512   6.618
 6243SOL    HW119628   5.883   1.532   6.547
 6243SOL    HW219629   6.023   1.455   6.580
 6244SOL     OW19630   4.335   5.026   3.047
 6244SOL    HW119631   4.404   4.986   2.987
 6244SOL    HW219632   4.375   5.103   3.097
 6245SOL     OW19633   1.321   4.357   2.133
 6245SOL    HW119634   1.375   4.281   2.171
 6245SOL    HW219635   1.225   4.328   2.124
 6246SOL     OW19636   1.030   6.834   4.981
 6246SOL    HW119637   1.013   6.857   4.886
 6246SOL    HW219638   1.064   6.915   5.030
 6247SOL     OW19639   6.996   5.625   3.242
 6247SOL    HW119640   0.043   5.555   3.253
 6247SOL    HW219641   6.938   5.628   3.323
 6248SOL     OW19642   4.020   2.607   6.744
 6248SOL    HW119643   4.056   2.697   6.771
 6248SOL    HW219644   3.935   2.619   6.694
 6249SOL     OW19645   6.956   2.646   1.142
 6249SOL    HW119646   6.971   2.629   1.240
 6249SOL    HW219647   6.864   2.682   1.128
 6250SOL     OW19648   6.772   0.156   0.465
 6250SOL    HW119649   6.749   0.253   0.476
 6250SOL    HW219650   6.700   0.100   0.505
 6251SOL     OW19651   3.084   6.799   4.337
 6251SOL    HW119652   3.140   6.846   4.269
 6251SOL    HW219653   3.014   6.745   4.289
 6252SOL     OW19654   2.526   5.945   6.952
 6252SOL    HW119655   2.443   5.926   6.899
 6252SOL    HW219656   2.508   5.935   0.027
 6253SOL     OW19657   2.801   5.206   4.626
 6253SOL    HW119658   2.810   5.263   4.708
 6253SOL    HW219659   2.879   5.144   4.619
 6254SOL     OW19660   0.198   5.455   0.887
 6254SOL    HW119661   0.133   5.521   0.849
 6254SOL    HW219662   0.277   5.447   0.826
 6255SOL     OW19663   1.006   1.872   0.925
 6255SOL    HW119664   1.055   1.956   0.901
 6255SOL    HW219665   0.963   1.882   1.014
 6256SOL     OW19666   4.649   5.779   3.089
 6256SOL    HW119667   4.594   5.805   3.009
 6256SOL    HW219668   4.597   5.714   3.144
 6257SOL     OW19669   4.299   4.266   0.948
 6257SOL    HW119670   4.249   4.293   1.030
 6257SOL    HW219671   4.383   4.218   0.974
 6258SOL     OW19672   4.721   0.300   5.653
 6258SOL    HW119673   4.752   0.218   5.604
 6258SOL    HW219674   4.725   0.379   5.592
 6259SOL     OW19675   2.140   6.788   5.492
 6259SOL    HW119676   2.130   6.839   5.577
 6259SOL    HW219677   2.201   6.838   5.430
 6260SOL     OW19678   1.752   0.578   0.475
 6260SOL    HW119679   1.776   0.499   0.418
 6260SOL    HW219680   1.662   0.612   0.449
 6261SOL     OW19681   4.440   6.833   1.088
 6261SOL    HW119682   4.411   6.784   1.006
 6261SOL    HW219683   4.536   6.813   1.107
 6262SOL     OW19684   6.438   6.189   2.327
 6262SOL    HW119685   6.342   6.178   2.353
 6262SOL    HW219686   6.454   6.142   2.240
 6263SOL     OW19687   0.065   6.454   4.541
 6263SOL    HW119688   0.048   6.424   4.635
 6263SOL    HW219689   0.154   6.420   4.511
 6264SOL     OW19690   0.503   6.734   1.147
 6264SOL    HW119691   0.509   6.645   1.100
 6264SOL    HW219692   0.488   6.806   1.079
 6265SOL     OW19693   4.037   2.034   0.142
 6265SOL    HW119694   4.004   1.952   0.188
 6265SOL    HW219695   4.058   2.105   0.210
 6266SOL     OW19696   3.343   5.426   3.807
 6266SOL    HW119697   3.293   5.358   3.754
 6266SOL    HW219698   3.299   5.515   3.796
 6267SOL     OW19699   1.274   6.793   5.612
 6267SOL    HW119700   1.334   6.713   5.615
 6267SOL    HW219701   1.183   6.768   5.645
 6268SOL     OW19702   3.240   0.759   2.351
 6268SOL    HW119703   3.188   0.685   2.395
 6268SOL    HW219704   3.338   0.740   2.360
 6269SOL     OW19705   5.195   6.767   1.355
 6269SOL    HW119706   5.245   6.755   1.269
 6269SOL    HW219707   5.104   6.725   1.346
 6270SOL     OW19708   1.481   6.310   0.185
 6270SOL    HW119709   1.543   6.236   0.212
 6270SOL    HW219710   1.418   6.276   0.115
 6271SOL     OW19711   6.244   3.356   6.764
 6271SOL    HW119712   6.337   3.343   6.730
 6271SOL    HW219713   6.196   3.422   6.705
 6272SOL     OW19714   5.586   0.202   7.002
 6272SOL    HW119715   5.583   0.218   0.078
 6272SOL    HW219716   5.507   0.245   6.958
 6273SOL     OW19717   6.959   6.846   1.987
 6273SOL    HW119718   7.021   6.880   1.916
 6273SOL    HW219719   7.012   6.824   2.069
 6274SOL     OW19720   2.959   6.096   4.991
 6274SOL    HW119721   2.906   6.051   4.919
 6274SOL    HW219722   3.053   6.109   4.959
 6275SOL     OW19723   2.312   6.172   0.497
 6275SOL    HW119724   2.230   6.155   0.551
 6275SOL    HW219725   2.318   6.106   0.423
 6276SOL     OW19726   2.155   5.158   3.351
 6276SOL    HW119727   2.238   5.200   3.389
 6276SOL    HW219728   2.105   5.111   3.423
 6277SOL     OW19729   5.142   2.451   1.398
 6277SOL    HW119730   5.081   2.408   1.465
 6277SOL    HW219731   5.159   2.546   1.425
 6278SOL     OW19732   3.105   0.198   5.307
 6278SOL    HW119733   3.110   0.256   5.388
 6278SOL    HW219734   3.188   0.142   5.300
 6279SOL     OW19735   3.496   6.097   1.540
 6279SOL    HW119736   3.513   6.056   1.451
 6279SOL    HW219737   3.485   6.196   1.530
 6280SOL     OW19738   6.713   1.889   6.808
 6280SOL    HW119739   6.805   1.852   6.793
 6280SOL    HW219740   6.719   1.973   6.861
 6281SOL     OW19741   6.344   4.534   4.793
 6281SOL    HW119742   6.311   4.598   4.862
 6281SOL    HW219743   6.276   4.462   4.778
 6282SOL     OW19744   0.237   3.320   6.428
 6282SOL    HW119745   0.293   3.365   6.497
 6282SOL    HW219746   0.276   3.231   6.406
 6283SOL     OW19747   1.065   5.963   5.393
 6283SOL    HW119748   0.967   5.986   5.394
 6283SOL    HW219749   1.084   5.894   5.462
 6284SOL     OW19750   2.114   4.013   6.763
 6284SOL    HW119751   2.094   3.922   6.726
 6284SOL    HW219752   2.029   4.066   6.768
 6285SOL     OW19753   1.654   3.347   2.862
 6285SOL    HW119754   1.750   3.375   2.869
 6285SOL    HW219755   1.646   3.250   2.886
 6286SOL     OW19756   0.889   2.839   5.142
 6286SOL    HW119757   0.825   2.793   5.081
 6286SOL    HW219758   0.952   2.895   5.088
 6287SOL     OW19759   4.356   4.877   5.092
 6287SOL    HW119760   4.338   4.974   5.110
 6287SOL    HW219761   4.397   4.867   5.002
 6288SOL     OW19762   3.533   3.267   6.352
 6288SOL    HW119763   3.493   3.175   6.356
 6288SOL    HW219764   3.606   3.275   6.419
 6289SOL     OW19765   2.857   4.622   6.232
 6289SOL    HW119766   2.828   4.635   6.326
 6289SOL    HW219767   2.798   4.555   6.187
 6290SOL     OW19768   5.820   5.413   5.574
 6290SOL    HW119769   5.857   5.456   5.656
 6290SOL    HW219770   5.722   5.396   5.586
 6291SOL     OW19771   3.217   3.357   3.244
 6291SOL    HW119772   3.125   3.393   3.256
 6291SOL    HW219773   3.242   3.361   3.147
 6292SOL     OW19774   1.966   2.814   4.369
 6292SOL    HW119775   1.942   2.834   4.274
 6292SOL    HW219776   1.987   2.899   4.416
 6293SOL     OW19777   5.037   0.993   6.617
 6293SOL    HW119778   5.063   0.963   6.525
 6293SOL    HW219779   5.100   1.064   6.647
 6294SOL     OW19780   2.365   1.120   3.899
 6294SOL    HW119781   2.374   1.097   3.996
 6294SOL    HW219782   2.413   1.052   3.844
 6295SOL     OW19783   5.592   5.006   5.197
 6295SOL    HW119784   5.497   5.036   5.199
 6295SOL    HW219785   5.613   4.956   5.281
 6296SOL     OW19786   0.055   2.966   6.541
 6296SOL    HW119787   0.000   2.928   6.615
 6296SOL    HW219788   0.145   2.921   6.539
 6297SOL     OW19789   6.084   0.555   4.458
 6297SOL    HW119790   6.170   0.579   4.413
 6297SOL    HW219791   6.023   0.635   4.459
 6298SOL     OW19792   5.894   4.497   0.419
 6298SOL    HW119793   5.848   4.432   0.358
 6298SOL    HW219794   5.971   4.539   0.370
 6299SOL     OW19795   4.475   2.478   2.774
 6299SOL    HW119796   4.530   2.394   2.771
 6299SOL    HW219797   4.532   2.556   2.749
 6300SOL     OW19798   3.709   0.895   5.944
 6300SOL    HW119799   3.757   0.815   5.907
 6300SOL    HW219800   3.717   0.972   5.881
 6301SOL     OW19801   3.367   6.994   0.306
 6301SOL    HW119802   3.466   7.003   0.319
 6301SOL    HW219803   3.332   6.919   0.362
 6302SOL     OW19804   2.811   0.746   5.585
 6302SOL    HW119805   2.787   0.808   5.510
 6302SOL    HW219806   2.805   0.652   5.552
 6303SOL     OW19807   1.110   6.457   5.986
 6303SOL    HW119808   1.047   6.464   5.909
 6303SOL    HW219809   1.067   6.497   6.067
 6304SOL     OW19810   4.255   1.174   2.905
 6304SOL    HW119811   4.319   1.248   2.925
 6304SOL    HW219812   4.173   1.185   2.962
 6305SOL     OW19813   7.015   5.457   4.890
 6305SOL    HW119814   0.015   5.519   4.815
 6305SOL    HW219815   6.932   5.489   4.936
 6306SOL     OW19816   6.700   4.736   3.860
 6306SOL    HW119817   6.775   4.673   3.879
 6306SOL    HW219818   6.668   4.723   3.766
 6307SOL     OW19819   4.098   3.687   3.409
 6307SOL    HW119820   4.115   3.677   3.311
 6307SOL    HW219821   4.173   3.740   3.449
 6308SOL     OW19822   0.255   2.728   6.343
 6308SOL    HW119823   0.286   2.784   6.419
 6308SOL    HW219824   0.183   2.777   6.293
 6309SOL     OW19825   1.221   6.624   4.987
 6309SOL    HW119826   1.318   6.641   5.001
 6309SOL    HW219827   1.169   6.706   5.012
 6310SOL     OW19828   1.591   6.840   3.068
 6310SOL    HW119829   1.574   6.929   3.111
 6310SOL    HW219830   1.632   6.779   3.135
 6311SOL     OW19831   5.732   1.236   5.773
 6311SOL    HW119832   5.633   1.244   5.763
 6311SOL    HW219833   5.754   1.195   5.861
 6312SOL     OW19834   3.089   6.707   6.746
 6312SOL    HW119835   2.998   6.729   6.708
 6312SOL    HW219836   3.158   6.759   6.696
 6313SOL     OW19837   5.381   6.017   3.669
 6313SOL    HW119838   5.443   6.095   3.669
 6313SOL    HW219839   5.350   5.999   3.576
 6314SOL     OW19840   2.740   0.112   1.620
 6314SOL    HW119841   2.655   0.146   1.661
 6314SOL    HW219842   2.729   0.104   1.521
 6315SOL     OW19843   2.176   3.104   4.229
 6315SOL    HW119844   2.215   3.012   4.230
 6315SOL    HW219845   2.119   3.115   4.148
 6316SOL     OW19846   5.314   2.072   5.106
 6316SOL    HW119847   5.335   2.118   5.192
 6316SOL    HW219848   5.305   2.140   5.033
 6317SOL     OW19849   5.061   4.615   2.160
 6317SOL    HW119850   5.036   4.542   2.223
 6317SOL    HW219851   5.153   4.648   2.182
 6318SOL     OW19852   5.976   0.802   6.330
 6318SOL    HW119853   6.048   0.867   6.306
 6318SOL    HW219854   5.899   0.852   6.371
 6319SOL     OW19855   5.544   2.475   4.685
 6319SOL    HW119856   5.498   2.529   4.755
 6319SOL    HW219857   5.619   2.529   4.645
 6320SOL     OW19858   0.046   1.166   3.801
 6320SOL    HW119859   0.035   1.144   3.704
 6320SOL    HW219860   0.115   1.105   3.841
 6321SOL     OW19861   5.679   2.190   0.673
 6321SOL    HW119862   5.630   2.231   0.596
 6321SOL    HW219863   5.624   2.198   0.756
 6322SOL     OW19864   1.828   0.712   1.132
 6322SOL    HW119865   1.855   0.809   1.137
 6322SOL    HW219866   1.729   0.705   1.134
 6323SOL     OW19867   2.658   3.053   1.224
 6323SOL    HW119868   2.758   3.050   1.215
 6323SOL    HW219869   2.623   2.961   1.240
 6324SOL     OW19870   4.810   1.053   0.893
 6324SOL    HW119871   4.765   1.057   0.804
 6324SOL    HW219872   4.858   1.139   0.910
 6325SOL     OW19873   1.272   2.303   2.853
 6325SOL    HW119874   1.353   2.284   2.797
 6325SOL    HW219875   1.297   2.366   2.927
 6326SOL     OW19876   5.122   5.231   5.765
 6326SOL    HW119877   5.094   5.219   5.860
 6326SOL    HW219878   5.040   5.243   5.708
 6327SOL     OW19879   6.838   2.059   3.573
 6327SOL    HW119880   6.814   1.963   3.589
 6327SOL    HW219881   6.905   2.065   3.499
 6328SOL     OW19882   4.671   3.226   6.139
 6328SOL    HW119883   4.641   3.287   6.065
 6328SOL    HW219884   4.770   3.235   6.152
 6329SOL     OW19885   1.617   2.451   5.510
 6329SOL    HW119886   1.594   2.479   5.417
 6329SOL    HW219887   1.707   2.488   5.534
 6330SOL     OW19888   6.140   0.676   3.656
 6330SOL    HW119889   6.131   0.616   3.736
 6330SOL    HW219890   6.237   0.688   3.634
 6331SOL     OW19891   6.606   3.206   4.467
 6331SOL    HW119892   6.681   3.175   4.409
 6331SOL    HW219893   6.519   3.174   4.428
 6332SOL     OW19894   1.791   1.530   1.113
 6332SOL    HW119895   1.719   1.492   1.055
 6332SOL    HW219896   1.774   1.507   1.209
 6333SOL     OW19897   4.763   0.583   0.422
 6333SOL    HW119898   4.715   0.645   0.483
 6333SOL    HW219899   4.859   0.578   0.447
 6334SOL     OW19900   3.027   1.622   2.248
 6334SOL    HW119901   2.988   1.706   2.212
 6334SOL    HW219902   3.041   1.556   2.174
 6335SOL     OW19903   5.621   0.847   0.391
 6335SOL    HW119904   5.602   0.795   0.474
 6335SOL    HW219905   5.714   0.884   0.396
 6336SOL     OW19906   0.190   3.671   6.175
 6336SOL    HW119907   0.284   3.638   6.162
 6336SOL    HW219908   0.149   3.690   6.086
 6337SOL     OW19909   4.375   5.754   5.077
 6337SOL    HW119910   4.361   5.817   5.153
 6337SOL    HW219911   4.306   5.682   5.082
 6338SOL     OW19912   3.186   1.854   3.922
 6338SOL    HW119913   3.267   1.799   3.941
 6338SOL    HW219914   3.213   1.944   3.889
 6339SOL     OW19915   1.294   4.155   3.390
 6339SOL    HW119916   1.366   4.195   3.332
 6339SOL    HW219917   1.331   4.134   3.480
 6340SOL     OW19918   2.243   3.975   1.534
 6340SOL    HW119919   2.150   3.994   1.501
 6340SOL    HW219920   2.293   3.924   1.463
 6341SOL     OW19921   0.796   4.702   3.918
 6341SOL    HW119922   0.740   4.784   3.922
 6341SOL    HW219923   0.888   4.724   3.952
 6342SOL     OW19924   1.999   1.079   2.080
 6342SOL    HW119925   2.062   1.117   2.148
 6342SOL    HW219926   2.012   0.980   2.075
 6343SOL     OW19927   2.661   6.125   0.254
 6343SOL    HW119928   2.737   6.138   0.190
 6343SOL    HW219929   2.669   6.191   0.329
 6344SOL     OW19930   6.184   2.421   3.701
 6344SOL    HW119931   6.279   2.409   3.729
 6344SOL    HW219932   6.144   2.497   3.753
 6345SOL     OW19933   5.746   3.405   1.948
 6345SOL    HW119934   5.794   3.398   1.861
 6345SOL    HW219935   5.648   3.389   1.934
 6346SOL     OW19936   0.416   4.525   5.826
 6346SOL    HW119937   0.472   4.466   5.769
 6346SOL    HW219938   0.400   4.612   5.780
 6347SOL     OW19939   2.918   2.221   2.744
 6347SOL    HW119940   2.950   2.222   2.839
 6347SOL    HW219941   2.996   2.208   2.683
 6348SOL     OW19942   0.407   1.769   5.682
 6348SOL    HW119943   0.401   1.744   5.586
 6348SOL    HW219944   0.450   1.695   5.734
 6349SOL     OW19945   0.379   0.439   0.213
 6349SOL    HW119946   0.472   0.433   0.249
 6349SOL    HW219947   0.325   0.361   0.247
 6350SOL     OW19948   0.797   4.220   1.944
 6350SOL    HW119949   0.790   4.222   2.044
 6350SOL    HW219950   0.842   4.135   1.916
 6351SOL     OW19951   6.042   3.647   3.223
 6351SOL    HW119952   5.960   3.622   3.274
 6351SOL    HW219953   6.117   3.665   3.287
 6352SOL     OW19954   2.178   0.221   4.316
 6352SOL    HW119955   2.210   0.289   4.382
 6352SOL    HW219956   2.084   0.195   4.336
 6353SOL     OW19957   2.297   6.250   6.533
 6353SOL    HW119958   2.317   6.347   6.519
 6353SOL    HW219959   2.264   6.210   6.448
 6354SOL     OW19960   4.971   4.382   2.837
 6354SOL    HW119961   5.017   4.411   2.921
 6354SOL    HW219962   4.936   4.289   2.850
 6355SOL     OW19963   2.851   4.743   0.663
 6355SOL    HW119964   2.799   4.709   0.742
 6355SOL    HW219965   2.948   4.742   0.685
 6356SOL     OW19966   4.763   5.004   6.561
 6356SOL    HW119967   4.831   5.061   6.515
 6356SOL    HW219968   4.755   4.916   6.515
 6357SOL     OW19969   6.004   2.186   1.949
 6357SOL    HW119970   6.104   2.183   1.961
 6357SOL    HW219971   5.962   2.214   2.035
 6358SOL     OW19972   1.760   2.344   0.030
 6358SOL    HW119973   1.745   2.296   0.117
 6358SOL    HW219974   1.782   2.440   0.049
 6359SOL     OW19975   5.352   6.521   0.707
 6359SOL    HW119976   5.439   6.551   0.667
 6359SOL    HW219977   5.369   6.480   0.796
 6360SOL     OW19978   0.486   2.347   3.240
 6360SOL    HW119979   0.521   2.347   3.334
 6360SOL    HW219980   0.563   2.349   3.176
 6361SOL     OW19981   0.214   0.469   6.941
 6361SOL    HW119982   0.206   0.518   0.005
 6361SOL    HW219983   0.167   0.380   6.948
 6362SOL     OW19984   0.856   5.392   6.803
 6362SOL    HW119985   0.784   5.370   6.737
 6362SOL    HW219986   0.816   5.414   6.891
 6363SOL     OW19987   2.875   5.295   3.589
 6363SOL    HW119988   2.960   5.250   3.613
 6363SOL    HW219989   2.815   5.231   3.541
 6364SOL     OW19990   2.334   2.316   5.350
 6364SOL    HW119991   2.375   2.335   5.261
 6364SOL    HW219992   2.393   2.254   5.401
 6365SOL     OW19993   5.607   5.919   3.944
 6365SOL    HW119994   5.586   6.014   3.967
 6365SOL    HW219995   5.525   5.863   3.958
 6366SOL     OW19996   5.999   6.550   5.054
 6366SOL    HW119997   6.063   6.528   5.127
 6366SOL    HW219998   5.957   6.466   5.019
 6367SOL     OW19999   3.232   2.114   2.794
 6367SOL    HW120000   3.247   2.174   2.872
 6367SOL    HW220001   3.302   2.131   2.724
 6368SOL     OW20002   4.946   3.731   4.334
 6368SOL    HW120003   5.003   3.756   4.413
 6368SOL    HW220004   4.921   3.634   4.341
 6369SOL     OW20005   3.212   6.321   6.003
 6369SOL    HW120006   3.195   6.250   6.071
 6369SOL    HW220007   3.173   6.293   5.915
 6370SOL     OW20008   5.284   3.900   3.823
 6370SOL    HW120009   5.289   3.999   3.837
 6370SOL    HW220010   5.290   3.853   3.911
 6371SOL     OW20011   5.187   4.118   1.529
 6371SOL    HW120012   5.107   4.065   1.556
 6371SOL    HW220013   5.261   4.056   1.503
 6372SOL     OW20014   6.996   1.233   2.971
 6372SOL    HW120015   0.009   1.139   2.970
 6372SOL    HW220016   6.995   1.270   2.878
 6373SOL     OW20017   5.622   4.099   1.411
 6373SOL    HW120018   5.590   4.168   1.346
 6373SOL    HW220019   5.695   4.137   1.468
 6374SOL     OW20020   4.736   2.862   0.571
 6374SOL    HW120021   4.806   2.867   0.500
 6374SOL    HW220022   4.647   2.886   0.533
 6375SOL     OW20023   6.932   3.123   2.757
 6375SOL    HW120024   6.886   3.039   2.729
 6375SOL    HW220025   7.014   3.100   2.809
 6376SOL     OW20026   3.913   0.790   5.635
 6376SOL    HW120027   3.821   0.829   5.635
 6376SOL    HW220028   3.949   0.792   5.542
 6377SOL     OW20029   0.117   6.898   6.708
 6377SOL    HW120030   0.126   6.968   6.778
 6377SOL    HW220031   0.044   6.834   6.733
 6378SOL     OW20032   5.602   5.807   3.529
 6378SOL    HW120033   5.594   5.735   3.598
 6378SOL    HW220034   5.586   5.768   3.438
 6379SOL     OW20035   2.515   5.884   6.290
 6379SOL    HW120036   2.570   5.965   6.312
 6379SOL    HW220037   2.535   5.812   6.357
 6380SOL     OW20038   1.238   3.350   5.108
 6380SOL    HW120039   1.323   3.370   5.157
 6380SOL    HW220040   1.167   3.327   5.174
 6381SOL     OW20041   4.556   3.864   0.053
 6381SOL    HW120042   4.559   3.774   0.095
 6381SOL    HW220043   4.650   3.894   0.031
 6382SOL     OW20044   3.064   1.809   1.202
 6382SOL    HW120045   3.009   1.772   1.277
 6382SOL    HW220046   3.092   1.903   1.225
 6383SOL     OW20047   1.836   2.206   2.945
 6383SOL    HW120048   1.825   2.109   2.922
 6383SOL    HW220049   1.787   2.226   3.030
 6384SOL     OW20050   6.612   2.405   2.003
 6384SOL    HW120051   6.680   2.366   1.941
 6384SOL    HW220052   6.563   2.479   1.957
 6385SOL     OW20053   0.196   3.345   1.249
 6385SOL    HW120054   0.236   3.293   1.325
 6385SOL    HW220055   0.211   3.443   1.264
 6386SOL     OW20056   2.015   3.434   0.660
 6386SOL    HW120057   2.022   3.362   0.591
 6386SOL    HW220058   2.094   3.494   0.653
 6387SOL     OW20059   6.377   0.781   0.199
 6387SOL    HW120060   6.296   0.760   0.145
 6387SOL    HW220061   6.449   0.715   0.180
 6388SOL     OW20062   6.217   5.247   2.559
 6388SOL    HW120063   6.261   5.175   2.613
 6388SOL    HW220064   6.118   5.233   2.559
 6389SOL     OW20065   1.857   0.313   0.011
 6389SOL    HW120066   1.813   0.223   7.023
 6389SOL    HW220067   1.954   0.300   0.034
 6390SOL     OW20068   6.371   0.835   6.914
 6390SOL    HW120069   6.331   0.829   6.822
 6390SOL    HW220070   6.417   0.749   6.936
 6391SOL     OW20071   1.262   0.717   5.297
 6391SOL    HW120072   1.179   0.770   5.281
 6391SOL    HW220073   1.296   0.734   5.389
 6392SOL     OW20074   3.152   5.638   3.750
 6392SOL    HW120075   3.137   5.682   3.838
 6392SOL    HW220076   3.207   5.698   3.692
 6393SOL     OW20077   5.947   6.321   1.290
 6393SOL    HW120078   5.860   6.312   1.243
 6393SOL    HW220079   6.022   6.300   1.227
 6394SOL     OW20080   0.676   5.074   1.195
 6394SOL    HW120081   0.624   5.144   1.244
 6394SOL    HW220082   0.750   5.040   1.254
 6395SOL     OW20083   1.265   4.398   3.098
 6395SOL    HW120084   1.172   4.378   3.128
 6395SOL    HW220085   1.330   4.353   3.160
 6396SOL     OW20086   6.468   3.745   0.178
 6396SOL    HW120087   6.557   3.742   0.134
 6396SOL    HW220088   6.414   3.666   0.151
 6397SOL     OW20089   5.318   2.222   3.178
 6397SOL    HW120090   5.402   2.174   3.203
 6397SOL    HW220091   5.248   2.155   3.152
 6398SOL     OW20092   0.793   6.378   1.090
 6398SOL    HW120093   0.803   6.308   1.160
 6398SOL    HW220094   0.844   6.460   1.118
 6399SOL     OW20095   2.133   0.162   6.304
 6399SOL    HW120096   2.200   0.133   6.373
 6399SOL    HW220097   2.148   0.110   6.220
 6400SOL     OW20098   1.607   5.678   2.861
 6400SOL    HW120099   1.542   5.626   2.807
 6400SOL    HW220100   1.669   5.728   2.799
 6401SOL     OW20101   3.968   4.841   3.138
 6401SOL    HW120102   3.948   4.795   3.224
 6401SOL    HW220103   3.958   4.940   3.150
 6402SOL     OW20104   2.027   4.771   4.453
 6402SOL    HW120105   2.112   4.817   4.479
 6402SOL    HW220106   2.036   4.733   4.361
 6403SOL     OW20107   5.150   6.524   5.003
 6403SOL    HW120108   5.187   6.436   5.036
 6403SOL    HW220109   5.173   6.596   5.068
 6404SOL     OW20110   3.532   0.464   2.349
 6404SOL    HW120111   3.468   0.445   2.424
 6404SOL    HW220112   3.557   0.561   2.351
 6405SOL     OW20113   5.451   1.537   2.996
 6405SOL    HW120114   5.375   1.589   3.036
 6405SOL    HW220115   5.538   1.578   3.024
 6406SOL     OW20116   1.314   2.786   2.523
 6406SOL    HW120117   1.246   2.757   2.590
 6406SOL    HW220118   1.267   2.831   2.446
 6407SOL     OW20119   2.277   6.136   3.308
 6407SOL    HW120120   2.373   6.155   3.288
 6407SOL    HW220121   2.222   6.151   3.225
 6408SOL     OW20122   6.828   0.832   0.370
 6408SOL    HW120123   6.832   0.930   0.355
 6408SOL    HW220124   6.914   0.801   0.411
 6409SOL     OW20125   6.450   5.000   3.535
 6409SOL    HW120126   6.394   5.021   3.455
 6409SOL    HW220127   6.392   4.997   3.617
 6410SOL     OW20128   2.998   1.753   5.447
 6410SOL    HW120129   2.978   1.838   5.496
 6410SOL    HW220130   2.973   1.763   5.350
 6411SOL     OW20131   0.555   2.478   2.555
 6411SOL    HW120132   0.505   2.490   2.641
 6411SOL    HW220133   0.515   2.538   2.485
 6412SOL     OW20134   3.364   0.840   6.868
 6412SOL    HW120135   3.407   0.798   6.788
 6412SOL    HW220136   3.328   0.768   6.927
 6413SOL     OW20137   4.367   5.101   4.248
 6413SOL    HW120138   4.350   5.072   4.154
 6413SOL    HW220139   4.465   5.114   4.262
 6414SOL     OW20140   0.989   0.065   6.790
 6414SOL    HW120141   0.952   0.019   6.871
 6414SOL    HW220142   1.072   0.115   6.815
 6415SOL     OW20143   1.322   2.830   3.344
 6415SOL    HW120144   1.307   2.805   3.439
 6415SOL    HW220145   1.278   2.918   3.325
 6416SOL     OW20146   2.830   0.145   6.558
 6416SOL    HW120147   2.829   0.205   6.637
 6416SOL    HW220148   2.907   0.169   6.498
 6417SOL     OW20149   4.935   1.792   1.118
 6417SOL    HW120150   4.900   1.845   1.196
 6417SOL    HW220151   5.012   1.842   1.076
 6418SOL     OW20152   4.467   4.751   1.358
 6418SOL    HW120153   4.375   4.784   1.380
 6418SOL    HW220154   4.464   4.651   1.345
 6419SOL     OW20155   0.716   6.568   6.447
 6419SOL    HW120156   0.697   6.560   6.349
 6419SOL    HW220157   0.814   6.584   6.461
 6420SOL     OW20158   1.282   3.214   3.794
 6420SOL    HW120159   1.250   3.247   3.883
 6420SOL    HW220160   1.272   3.287   3.727
 6421SOL     OW20161   5.237   7.001   1.807
 6421SOL    HW120162   5.293   6.986   1.726
 6421SOL    HW220163   5.288   6.973   1.889
 6422SOL     OW20164   6.943   3.002   4.576
 6422SOL    HW120165   6.963   2.911   4.613
 6422SOL    HW220166   6.993   3.071   4.628
 6423SOL     OW20167   2.354   4.615   4.216
 6423SOL    HW120168   2.434   4.639   4.162
 6423SOL    HW220169   2.370   4.528   4.263
 6424SOL     OW20170   0.786   3.648   4.900
 6424SOL    HW120171   0.823   3.693   4.819
 6424SOL    HW220172   0.789   3.549   4.888
 6425SOL     OW20173   0.012   6.236   2.552
 6425SOL    HW120174   6.972   6.165   2.586
 6425SOL    HW220175   0.103   6.198   2.542
 6426SOL     OW20176   4.575   4.457   4.814
 6426SOL    HW120177   4.556   4.441   4.717
 6426SOL    HW220178   4.488   4.468   4.864
 6427SOL     OW20179   3.196   3.674   3.502
 6427SOL    HW120180   3.111   3.659   3.452
 6427SOL    HW220181   3.273   3.639   3.449
 6428SOL     OW20182   4.628   2.750   0.239
 6428SOL    HW120183   4.567   2.760   0.317
 6428SOL    HW220184   4.592   2.679   0.178
 6429SOL     OW20185   2.627   0.738   5.323
 6429SOL    HW120186   2.614   0.719   5.226
 6429SOL    HW220187   2.543   0.776   5.362
 6430SOL     OW20188   6.883   0.446   5.182
 6430SOL    HW120189   6.853   0.456   5.277
 6430SOL    HW220190   6.846   0.361   5.144
 6431SOL     OW20191   4.228   5.303   2.745
 6431SOL    HW120192   4.278   5.366   2.805
 6431SOL    HW220193   4.292   5.235   2.708
 6432SOL     OW20194   3.552   4.644   6.786
 6432SOL    HW120195   3.580   4.611   6.696
 6432SOL    HW220196   3.633   4.665   6.841
 6433SOL     OW20197   2.617   5.665   6.794
 6433SOL    HW120198   2.654   5.726   6.725
 6433SOL    HW220199   2.685   5.651   6.867
 6434SOL     OW20200   2.912   6.012   5.955
 6434SOL    HW120201   2.990   5.979   5.901
 6434SOL    HW220202   2.831   6.015   5.897
 6435SOL     OW20203   5.527   0.374   0.786
 6435SOL    HW120204   5.451   0.319   0.821
 6435SOL    HW220205   5.513   0.392   0.688
 6436SOL     OW20206   0.514   3.973   3.861
 6436SOL    HW120207   0.544   3.885   3.824
 6436SOL    HW220208   0.487   4.034   3.786
 6437SOL     OW20209   0.724   1.358   5.671
 6437SOL    HW120210   0.692   1.286   5.732
 6437SOL    HW220211   0.824   1.361   5.672
 6438SOL     OW20212   0.613   5.625   6.778
 6438SOL    HW120213   0.524   5.580   6.774
 6438SOL    HW220214   0.662   5.595   6.860
 6439SOL     OW20215   5.738   0.823   3.532
 6439SOL    HW120216   5.827   0.863   3.558
 6439SOL    HW220217   5.744   0.723   3.538
 6440SOL     OW20218   2.533   0.591   5.828
 6440SOL    HW120219   2.613   0.537   5.801
 6440SOL    HW220220   2.561   0.662   5.893
 6441SOL     OW20221   0.203   1.002   2.942
 6441SOL    HW120222   0.281   0.999   3.004
 6441SOL    HW220223   0.218   1.072   2.872
 6442SOL     OW20224   2.630   2.241   5.661
 6442SOL    HW120225   2.604   2.238   5.565
 6442SOL    HW220226   2.550   2.262   5.717
 6443SOL     OW20227   4.100   2.353   0.802
 6443SOL    HW120228   4.076   2.451   0.803
 6443SOL    HW220229   4.088   2.315   0.893
 6444SOL     OW20230   0.267   2.761   5.486
 6444SOL    HW120231   0.182   2.743   5.536
 6444SOL    HW220232   0.334   2.690   5.509
 6445SOL     OW20233   2.932   3.620   2.988
 6445SOL    HW120234   2.896   3.563   3.061
 6445SOL    HW220235   2.967   3.562   2.914
 6446SOL     OW20236   1.891   1.532   6.728
 6446SOL    HW120237   1.839   1.457   6.687
 6446SOL    HW220238   1.885   1.613   6.669
 6447SOL     OW20239   5.906   4.429   0.984
 6447SOL    HW120240   5.905   4.480   0.898
 6447SOL    HW220241   5.877   4.335   0.967
 6448SOL     OW20242   4.835   5.610   1.618
 6448SOL    HW120243   4.895   5.529   1.622
 6448SOL    HW220244   4.776   5.603   1.537
 6449SOL     OW20245   2.771   5.365   1.736
 6449SOL    HW120246   2.694   5.312   1.700
 6449SOL    HW220247   2.739   5.454   1.767
 6450SOL     OW20248   0.347   3.893   1.100
 6450SOL    HW120249   0.443   3.867   1.104
 6450SOL    HW220250   0.323   3.942   1.184
 6451SOL     OW20251   3.510   2.280   1.018
 6451SOL    HW120252   3.545   2.301   0.927
 6451SOL    HW220253   3.424   2.229   1.010
 6452SOL     OW20254   5.459   3.551   3.430
 6452SOL    HW120255   5.480   3.548   3.333
 6452SOL    HW220256   5.536   3.592   3.480
 6453SOL     OW20257   3.845   0.023   1.177
 6453SOL    HW120258   3.900   6.975   1.134
 6453SOL    HW220259   3.849   0.013   1.277
 6454SOL     OW20260   6.606   2.670   2.635
 6454SOL    HW120261   6.682   2.614   2.604
 6454SOL    HW220262   6.519   2.624   2.617
 6455SOL     OW20263   6.725   4.259   3.249
 6455SOL    HW120264   6.629   4.235   3.232
 6455SOL    HW220265   6.784   4.205   3.190
 6456SOL     OW20266   6.712   1.552   3.171
 6456SOL    HW120267   6.770   1.595   3.241
 6456SOL    HW220268   6.756   1.467   3.140
 6457SOL     OW20269   4.873   6.910   1.943
 6457SOL    HW120270   4.971   6.931   1.948
 6457SOL    HW220271   4.862   6.813   1.922
 6458SOL     OW20272   0.899   5.136   3.465
 6458SOL    HW120273   0.912   5.190   3.548
 6458SOL    HW220274   0.960   5.056   3.467
 6459SOL     OW20275   6.618   2.736   2.912
 6459SOL    HW120276   6.534   2.769   2.955
 6459SOL    HW220277   6.597   2.707   2.818
 6460SOL     OW20278   0.149   6.185   5.666
 6460SOL    HW120279   0.209   6.111   5.637
 6460SOL    HW220280   0.054   6.162   5.642
 6461SOL     OW20281   2.807   4.407   0.545
 6461SOL    HW120282   2.828   4.492   0.592
 6461SOL    HW220283   2.774   4.428   0.453
 6462SOL     OW20284   1.611   4.013   4.818
 6462SOL    HW120285   1.526   3.970   4.785
 6462SOL    HW220286   1.659   4.055   4.741
 6463SOL     OW20287   4.579   1.123   1.110
 6463SOL    HW120288   4.637   1.196   1.144
 6463SOL    HW220289   4.619   1.084   1.026
 6464SOL     OW20290   1.246   6.368   4.276
 6464SOL    HW120291   1.291   6.388   4.363
 6464SOL    HW220292   1.303   6.305   4.224
 6465SOL     OW20293   5.077   2.495   2.962
 6465SOL    HW120294   5.093   2.425   3.032
 6465SOL    HW220295   5.025   2.454   2.886
 6466SOL     OW20296   6.974   3.871   7.005
 6466SOL    HW120297   6.913   3.950   7.010
 6466SOL    HW220298   6.937   3.805   6.939
 6467SOL     OW20299   3.202   1.005   0.959
 6467SOL    HW120300   3.208   1.098   0.994
 6467SOL    HW220301   3.208   1.007   0.859
 6468SOL     OW20302   3.453   0.256   0.352
 6468SOL    HW120303   3.419   0.313   0.278
 6468SOL    HW220304   3.408   0.167   0.350
 6469SOL     OW20305   3.147   1.608   3.519
 6469SOL    HW120306   3.093   1.691   3.528
 6469SOL    HW220307   3.132   1.549   3.598
 6470SOL     OW20308   6.685   2.873   6.405
 6470SOL    HW120309   6.642   2.784   6.424
 6470SOL    HW220310   6.679   2.892   6.307
 6471SOL     OW20311   0.428   6.158   4.882
 6471SOL    HW120312   0.405   6.153   4.980
 6471SOL    HW220313   0.476   6.075   4.855
 6472SOL     OW20314   0.145   5.819   2.216
 6472SOL    HW120315   0.080   5.895   2.222
 6472SOL    HW220316   0.116   5.756   2.145
 6473SOL     OW20317   1.636   1.400   4.004
 6473SOL    HW120318   1.608   1.472   4.069
 6473SOL    HW220319   1.732   1.412   3.980
 6474SOL     OW20320   3.905   5.623   4.374
 6474SOL    HW120321   3.906   5.534   4.329
 6474SOL    HW220322   3.813   5.643   4.407
 6475SOL     OW20323   5.571   5.379   3.208
 6475SOL    HW120324   5.600   5.286   3.188
 6475SOL    HW220325   5.543   5.424   3.123
 6476SOL     OW20326   4.169   1.941   6.503
 6476SOL    HW120327   4.228   1.942   6.584
 6476SOL    HW220328   4.121   2.028   6.496
 6477SOL     OW20329   6.996   6.155   1.066
 6477SOL    HW120330   0.065   6.127   1.092
 6477SOL    HW220331   6.993   6.254   1.056
 6478SOL     OW20332   2.943   5.553   1.926
 6478SOL    HW120333   3.024   5.612   1.920
 6478SOL    HW220334   2.921   5.518   1.835
 6479SOL     OW20335   3.313   6.084   4.059
 6479SOL    HW120336   3.217   6.080   4.088
 6479SOL    HW220337   3.344   6.178   4.060
 6480SOL     OW20338   2.902   1.472   6.594
 6480SOL    HW120339   2.836   1.397   6.600
 6480SOL    HW220340   2.985   1.439   6.550
 6481SOL     OW20341   3.243   2.622   1.618
 6481SOL    HW120342   3.233   2.716   1.652
 6481SOL    HW220343   3.181   2.562   1.667
 6482SOL     OW20344   6.789   3.177   5.024
 6482SOL    HW120345   6.738   3.117   4.961
 6482SOL    HW220346   6.886   3.158   5.015
 6483SOL     OW20347   1.339   5.559   4.411
 6483SOL    HW120348   1.249   5.579   4.374
 6483SOL    HW220349   1.330   5.505   4.495
 6484SOL     OW20350   2.447   0.886   3.784
 6484SOL    HW120351   2.411   0.794   3.794
 6484SOL    HW220352   2.547   0.884   3.793
 6485SOL     OW20353   1.829   6.412   4.774
 6485SOL    HW120354   1.885   6.378   4.698
 6485SOL    HW220355   1.779   6.336   4.816
 6486SOL     OW20356   1.460   5.336   3.240
 6486SOL    HW120357   1.468   5.432   3.266
 6486SOL    HW220358   1.399   5.289   3.304
 6487SOL     OW20359   0.463   4.970   4.308
 6487SOL    HW120360   0.376   4.998   4.348
 6487SOL    HW220361   0.488   5.033   4.235
 6488SOL     OW20362   4.887   5.709   4.421
 6488SOL    HW120363   4.843   5.690   4.508
 6488SOL    HW220364   4.818   5.712   4.348
 6489SOL     OW20365   3.926   3.245   6.430
 6489SOL    HW120366   3.864   3.307   6.479
 6489SOL    HW220367   3.971   3.294   6.356
 6490SOL     OW20368   1.729   1.646   0.034
 6490SOL    HW120369   1.808   1.686   0.081
 6490SOL    HW220370   1.666   1.607   0.100
 6491SOL     OW20371   1.532   0.105   1.122
 6491SOL    HW120372   1.543   0.049   1.205
 6491SOL    HW220373   1.501   0.197   1.148
 6492SOL     OW20374   3.033   3.944   4.677
 6492SOL    HW120375   2.966   3.881   4.716
 6492SOL    HW220376   3.121   3.932   4.722
 6493SOL     OW20377   1.453   4.629   6.387
 6493SOL    HW120378   1.434   4.617   6.485
 6493SOL    HW220379   1.480   4.542   6.347
 6494SOL     OW20380   5.947   6.337   1.844
 6494SOL    HW120381   5.960   6.358   1.747
 6494SOL    HW220382   5.984   6.412   1.900
 6495SOL     OW20383   0.019   0.097   3.734
 6495SOL    HW120384   6.976   0.156   3.782
 6495SOL    HW220385   0.111   0.132   3.748
 6496SOL     OW20386   4.757   0.036   2.313
 6496SOL    HW120387   4.852   0.062   2.293
 6496SOL    HW220388   4.696   0.075   2.245
 6497SOL     OW20389   0.227   1.376   0.844
 6497SOL    HW120390   0.203   1.310   0.772
 6497SOL    HW220391   0.314   1.420   0.820
 6498SOL     OW20392   0.843   4.201   4.039
 6498SOL    HW120393   0.866   4.271   3.972
 6498SOL    HW220394   0.760   4.226   4.087
 6499SOL     OW20395   6.451   4.074   4.295
 6499SOL    HW120396   6.436   4.109   4.202
 6499SOL    HW220397   6.537   4.023   4.297
 6500SOL     OW20398   1.068   3.533   2.292
 6500SOL    HW120399   1.167   3.539   2.303
 6500SOL    HW220400   1.045   3.451   2.241
 6501SOL     OW20401   6.429   1.981   0.937
 6501SOL    HW120402   6.382   1.893   0.930
 6501SOL    HW220403   6.468   1.990   1.028
 6502SOL     OW20404   5.849   3.839   1.597
 6502SOL    HW120405   5.855   3.745   1.563
 6502SOL    HW220406   5.761   3.853   1.642
 6503SOL     OW20407   6.796   3.200   5.651
 6503SOL    HW120408   6.790   3.291   5.611
 6503SOL    HW220409   6.761   3.202   5.745
 6504SOL     OW20410   4.735   6.664   6.312
 6504SOL    HW120411   4.766   6.758   6.312
 6504SOL    HW220412   4.644   6.659   6.354
 6505SOL     OW20413   5.570   6.332   7.012
 6505SOL    HW120414   5.481   6.340   6.968
 6505SOL    HW220415   5.634   6.285   6.951
 6506SOL     OW20416   0.047   2.864   3.394
 6506SOL    HW120417   0.049   2.765   3.407
 6506SOL    HW220418   0.136   2.894   3.359
 6507SOL     OW20419   3.067   5.474   6.381
 6507SOL    HW120420   3.031   5.393   6.428
 6507SOL    HW220421   3.046   5.469   6.284
 6508SOL     OW20422   1.162   6.756   1.506
 6508SOL    HW120423   1.080   6.716   1.466
 6508SOL    HW220424   1.239   6.695   1.492
 6509SOL     OW20425   3.280   1.703   5.467
 6509SOL    HW120426   3.335   1.688   5.549
 6509SOL    HW220427   3.194   1.748   5.492
 6510SOL     OW20428   4.085   5.726   5.711
 6510SOL    HW120429   4.121   5.739   5.618
 6510SOL    HW220430   4.043   5.636   5.718
 6511SOL     OW20431   3.988   1.605   6.305
 6511SOL    HW120432   3.899   1.637   6.337
 6511SOL    HW220433   4.050   1.682   6.298
 6512SOL     OW20434   3.057   0.749   1.353
 6512SOL    HW120435   3.102   0.780   1.269
 6512SOL    HW220436   2.992   0.819   1.384
 6513SOL     OW20437   2.891   5.663   4.890
 6513SOL    HW120438   2.848   5.578   4.857
 6513SOL    HW220439   2.990   5.657   4.878
 6514SOL     OW20440   5.792   0.389   5.185
 6514SOL    HW120441   5.800   0.298   5.146
 6514SOL    HW220442   5.867   0.405   5.249
 6515SOL     OW20443   2.325   5.009   2.267
 6515SOL    HW120444   2.265   5.075   2.220
 6515SOL    HW220445   2.325   4.923   2.217
 6516SOL     OW20446   0.380   3.167   1.432
 6516SOL    HW120447   0.429   3.178   1.345
 6516SOL    HW220448   0.437   3.202   1.507
 6517SOL     OW20449   6.971   2.654   6.387
 6517SOL    HW120450   6.993   2.722   6.457
 6517SOL    HW220451   6.881   2.615   6.406
 6518SOL     OW20452   0.698   1.104   2.779
 6518SOL    HW120453   0.706   1.195   2.738
 6518SOL    HW220454   0.602   1.079   2.787
 6519SOL     OW20455   0.975   1.231   3.349
 6519SOL    HW120456   0.899   1.230   3.414
 6519SOL    HW220457   1.048   1.289   3.385
 6520SOL     OW20458   7.007   5.682   6.739
 6520SOL    HW120459   0.007   5.778   6.727
 6520SOL    HW220460   6.942   5.653   6.669
 6521SOL     OW20461   1.396   2.963   3.694
 6521SOL    HW120462   1.495   2.968   3.707
 6521SOL    HW220463   1.353   3.042   3.737
 6522SOL     OW20464   2.884   3.749   5.635
 6522SOL    HW120465   2.835   3.822   5.587
 6522SOL    HW220466   2.922   3.784   5.720
 6523SOL     OW20467   6.150   0.357   0.328
 6523SOL    HW120468   6.167   0.274   0.275
 6523SOL    HW220469   6.051   0.374   0.332
 6524SOL     OW20470   2.482   2.163   1.954
 6524SOL    HW120471   2.565   2.110   1.934
 6524SOL    HW220472   2.402   2.114   1.918
 6525SOL     OW20473   1.382   5.480   3.870
 6525SOL    HW120474   1.394   5.395   3.921
 6525SOL    HW220475   1.285   5.492   3.847
 6526SOL     OW20476   0.089   6.810   0.765
 6526SOL    HW120477   0.107   6.908   0.776
 6526SOL    HW220478   7.013   6.794   0.772
 6527SOL     OW20479   0.824   2.356   0.856
 6527SOL    HW120480   0.776   2.339   0.770
 6527SOL    HW220481   0.834   2.454   0.871
 6528SOL     OW20482   6.236   1.137   5.879
 6528SOL    HW120483   6.316   1.105   5.827
 6528SOL    HW220484   6.202   1.222   5.839
 6529SOL     OW20485   6.816   1.560   2.391
 6529SOL    HW120486   6.767   1.647   2.394
 6529SOL    HW220487   6.773   1.496   2.455
 6530SOL     OW20488   0.915   2.554   2.358
 6530SOL    HW120489   0.964   2.565   2.272
 6530SOL    HW220490   0.900   2.644   2.399
 6531SOL     OW20491   4.198   3.109   5.870
 6531SOL    HW120492   4.217   3.037   5.938
 6531SOL    HW220493   4.121   3.164   5.901
 6532SOL     OW20494   1.343   0.807   1.222
 6532SOL    HW120495   1.330   0.905   1.211
 6532SOL    HW220496   1.308   0.760   1.141
 6533SOL     OW20497   4.691   4.026   6.692
 6533SOL    HW120498   4.749   3.952   6.726
 6533SOL    HW220499   4.735   4.067   6.612
 6534SOL     OW20500   6.139   4.573   2.219
 6534SOL    HW120501   6.050   4.567   2.264
 6534SOL    HW220502   6.180   4.662   2.237
 6535SOL     OW20503   5.933   3.589   4.531
 6535SOL    HW120504   5.885   3.523   4.473
 6535SOL    HW220505   6.018   3.548   4.564
 6536SOL     OW20506   0.461   2.294   5.710
 6536SOL    HW120507   0.432   2.199   5.719
 6536SOL    HW220508   0.553   2.298   5.670
 6537SOL     OW20509   6.117   4.533   5.192
 6537SOL    HW120510   6.149   4.626   5.175
 6537SOL    HW220511   6.173   4.491   5.263
 6538SOL     OW20512   2.090   3.840   5.021
 6538SOL    HW120513   2.102   3.786   5.104
 6538SOL    HW220514   2.176   3.889   5.001
 6539SOL     OW20515   5.928   0.942   6.687
 6539SOL    HW120516   6.027   0.928   6.696
 6539SOL    HW220517   5.895   0.996   6.764
 6540SOL     OW20518   4.115   2.665   5.630
 6540SOL    HW120519   4.043   2.649   5.697
 6540SOL    HW220520   4.135   2.763   5.626
 6541SOL     OW20521   5.726   1.715   5.541
 6541SOL    HW120522   5.659   1.741   5.610
 6541SOL    HW220523   5.745   1.617   5.549
 6542SOL     OW20524   1.411   3.439   4.410
 6542SOL    HW120525   1.440   3.409   4.500
 6542SOL    HW220526   1.402   3.539   4.409
 6543SOL     OW20527   3.612   2.074   4.943
 6543SOL    HW120528   3.515   2.094   4.934
 6543SOL    HW220529   3.656   2.078   4.854
 6544SOL     OW20530   0.549   0.126   1.664
 6544SOL    HW120531   0.540   0.219   1.698
 6544SOL    HW220532   0.504   0.119   1.575
 6545SOL     OW20533   4.569   0.168   1.294
 6545SOL    HW120534   4.538   0.188   1.201
 6545SOL    HW220535   4.525   0.084   1.326
 6546SOL     OW20536   5.039   4.827   6.427
 6546SOL    HW120537   5.030   4.859   6.522
 6546SOL    HW220538   4.997   4.736   6.418
 6547SOL     OW20539   5.282   6.548   6.765
 6547SOL    HW120540   5.266   6.501   6.852
 6547SOL    HW220541   5.257   6.488   6.689
 6548SOL     OW20542   0.955   2.839   6.082
 6548SOL    HW120543   1.027   2.775   6.055
 6548SOL    HW220544   0.977   2.930   6.046
 6549SOL     OW20545   5.105   6.621   2.014
 6549SOL    HW120546   5.168   6.664   2.078
 6549SOL    HW220547   5.029   6.581   2.065
 6550SOL     OW20548   6.523   6.999   3.016
 6550SOL    HW120549   6.555   6.907   3.038
 6550SOL    HW220550   6.536   0.035   3.096
 6551SOL     OW20551   3.081   3.521   1.671
 6551SOL    HW120552   3.089   3.576   1.754
 6551SOL    HW220553   3.111   3.428   1.690
 6552SOL     OW20554   1.985   6.821   0.341
 6552SOL    HW120555   2.005   6.895   0.278
 6552SOL    HW220556   1.948   6.858   0.426
 6553SOL     OW20557   6.923   1.385   2.759
 6553SOL    HW120558   6.962   1.445   2.829
 6553SOL    HW220559   6.971   1.400   2.672
 6554SOL     OW20560   2.917   1.153   4.417
 6554SOL    HW120561   2.824   1.175   4.388
 6554SOL    HW220562   2.936   1.057   4.400
 6555SOL     OW20563   6.369   2.107   4.575
 6555SOL    HW120564   6.293   2.161   4.541
 6555SOL    HW220565   6.436   2.166   4.618
 6556SOL     OW20566   5.875   3.165   3.027
 6556SOL    HW120567   5.901   3.242   2.969
 6556SOL    HW220568   5.936   3.087   3.009
 6557SOL     OW20569   1.351   6.803   2.362
 6557SOL    HW120570   1.313   6.850   2.282
 6557SOL    HW220571   1.288   6.731   2.391
 6558SOL     OW20572   5.938   5.261   0.267
 6558SOL    HW120573   5.973   5.349   0.299
 6558SOL    HW220574   5.947   5.194   0.341
 6559SOL     OW20575   0.006   3.666   6.644
 6559SOL    HW120576   0.090   3.715   6.666
 6559SOL    HW220577   6.949   3.723   6.668
 6560SOL     OW20578   4.267   4.753   0.285
 6560SOL    HW120579   4.318   4.676   0.323
 6560SOL    HW220580   4.257   4.740   0.186
 6561SOL     OW20581   4.023   5.056   0.267
 6561SOL    HW120582   3.983   5.110   0.341
 6561SOL    HW220583   4.121   5.074   0.262
 6562SOL     OW20584   5.475   2.251   0.842
 6562SOL    HW120585   5.422   2.312   0.783
 6562SOL    HW220586   5.444   2.262   0.937
 6563SOL     OW20587   5.450   0.098   5.655
 6563SOL    HW120588   5.477   0.163   5.726
 6563SOL    HW220589   5.352   0.106   5.638
 6564SOL     OW20590   6.739   3.718   2.377
 6564SOL    HW120591   6.663   3.655   2.395
 6564SOL    HW220592   6.825   3.667   2.383
 6565SOL     OW20593   6.381   6.894   2.220
 6565SOL    HW120594   6.321   6.972   2.205
 6565SOL    HW220595   6.472   6.914   2.182
 6566SOL     OW20596   3.586   5.643   2.221
 6566SOL    HW120597   3.492   5.612   2.232
 6566SOL    HW220598   3.628   5.655   2.311
 6567SOL     OW20599   4.417   0.877   1.472
 6567SOL    HW120600   4.348   0.820   1.428
 6567SOL    HW220601   4.504   0.828   1.475
 6568SOL     OW20602   4.123   1.556   1.966
 6568SOL    HW120603   4.103   1.627   2.033
 6568SOL    HW220604   4.037   1.518   1.931
 6569SOL     OW20605   0.990   3.092   6.012
 6569SOL    HW120606   0.903   3.142   6.005
 6569SOL    HW220607   1.039   3.100   5.925
 6570SOL     OW20608   4.018   0.069   2.124
 6570SOL    HW120609   3.952   0.139   2.148
 6570SOL    HW220610   3.976   0.003   2.061
 6571SOL     OW20611   2.402   4.873   3.663
 6571SOL    HW120612   2.475   4.941   3.655
 6571SOL    HW220613   2.442   4.783   3.681
 6572SOL     OW20614   0.402   4.846   3.896
 6572SOL    HW120615   0.391   4.780   3.822
 6572SOL    HW220616   0.483   4.824   3.950
 6573SOL     OW20617   1.655   0.908   2.979
 6573SOL    HW120618   1.590   0.942   2.911
 6573SOL    HW220619   1.606   0.888   3.064
 6574SOL     OW20620   1.769   6.631   3.201
 6574SOL    HW120621   1.701   6.580   3.148
 6574SOL    HW220622   1.856   6.631   3.151
 6575SOL     OW20623   6.865   0.274   2.773
 6575SOL    HW120624   6.854   0.194   2.832
 6575SOL    HW220625   6.784   0.285   2.715
 6576SOL     OW20626   3.757   4.776   0.062
 6576SOL    HW120627   3.824   4.703   0.074
 6576SOL    HW220628   3.691   4.773   0.137
 6577SOL     OW20629   2.028   2.737   3.877
 6577SOL    HW120630   2.058   2.831   3.894
 6577SOL    HW220631   1.965   2.708   3.949
 6578SOL     OW20632   0.996   5.151   1.231
 6578SOL    HW120633   0.924   5.191   1.174
 6578SOL    HW220634   1.020   5.061   1.195
 6579SOL     OW20635   6.915   1.400   3.754
 6579SOL    HW120636   6.866   1.451   3.824
 6579SOL    HW220637   6.955   1.317   3.795
 6580SOL     OW20638   1.295   0.207   0.295
 6580SOL    HW120639   1.390   0.232   0.310
 6580SOL    HW220640   1.242   0.288   0.270
 6581SOL     OW20641   1.633   1.586   0.485
 6581SOL    HW120642   1.586   1.508   0.525
 6581SOL    HW220643   1.644   1.657   0.555
 6582SOL     OW20644   6.500   0.494   2.938
 6582SOL    HW120645   6.489   0.398   2.912
 6582SOL    HW220646   6.410   0.538   2.942
 6583SOL     OW20647   4.415   7.002   5.955
 6583SOL    HW120648   4.506   0.008   5.985
 6583SOL    HW220649   4.348   0.004   6.025
 6584SOL     OW20650   4.146   2.596   0.958
 6584SOL    HW120651   4.068   2.650   0.925
 6584SOL    HW220652   4.132   2.572   1.054
 6585SOL     OW20653   6.478   0.078   0.598
 6585SOL    HW120654   6.537   7.022   0.614
 6585SOL    HW220655   6.453   0.119   0.686
 6586SOL     OW20656   6.579   2.207   6.221
 6586SOL    HW120657   6.668   2.169   6.247
 6586SOL    HW220658   6.577   2.305   6.241
 6587SOL     OW20659   1.519   4.233   5.569
 6587SOL    HW120660   1.471   4.300   5.513
 6587SOL    HW220661   1.617   4.238   5.550
 6588SOL     OW20662   0.245   3.222   0.677
 6588SOL    HW120663   0.167   3.255   0.730
 6588SOL    HW220664   0.231   3.244   0.581
 6589SOL     OW20665   6.243   1.270   1.369
 6589SOL    HW120666   6.341   1.251   1.362
 6589SOL    HW220667   6.193   1.184   1.362
 6590SOL     OW20668   0.863   0.590   5.129
 6590SOL    HW120669   0.766   0.612   5.117
 6590SOL    HW220670   0.915   0.625   5.051
 6591SOL     OW20671   5.170   5.617   4.350
 6591SOL    HW120672   5.193   5.710   4.320
 6591SOL    HW220673   5.071   5.604   4.346
 6592SOL     OW20674   4.827   0.130   3.168
 6592SOL    HW120675   4.738   0.176   3.166
 6592SOL    HW220676   4.877   0.149   3.083
 6593SOL     OW20677   2.845   2.218   2.273
 6593SOL    HW120678   2.798   2.285   2.330
 6593SOL    HW220679   2.879   2.263   2.190
 6594SOL     OW20680   3.753   1.600   5.899
 6594SOL    HW120681   3.805   1.679   5.932
 6594SOL    HW220682   3.694   1.628   5.823
 6595SOL     OW20683   1.945   2.570   4.515
 6595SOL    HW120684   1.922   2.667   4.505
 6595SOL    HW220685   1.920   2.539   4.607
 6596SOL     OW20686   5.112   5.857   2.846
 6596SOL    HW120687   5.048   5.843   2.922
 6596SOL    HW220688   5.195   5.803   2.862
 6597SOL     OW20689   1.147   5.341   1.633
 6597SOL    HW120690   1.216   5.289   1.583
 6597SOL    HW220691   1.159   5.326   1.732
 6598SOL     OW20692   1.841   4.576   3.794
 6598SOL    HW120693   1.835   4.621   3.705
 6598SOL    HW220694   1.870   4.481   3.782
 6599SOL     OW20695   5.701   5.836   6.535
 6599SOL    HW120696   5.683   5.933   6.555
 6599SOL    HW220697   5.615   5.785   6.538
 6600SOL     OW20698   4.974   0.616   5.455
 6600SOL    HW120699   4.879   0.608   5.425
 6600SOL    HW220700   5.025   0.669   5.386
 6601SOL     OW20701   0.941   2.951   3.307
 6601SOL    HW120702   0.883   3.033   3.303
 6601SOL    HW220703   1.035   2.976   3.286
 6602SOL     OW20704   2.748   0.052   1.364
 6602SOL    HW120705   2.817   0.105   1.315
 6602SOL    HW220706   2.657   0.077   1.330
 6603SOL     OW20707   0.629   3.079   4.310
 6603SOL    HW120708   0.728   3.064   4.303
 6603SOL    HW220709   0.589   3.078   4.219
 6604SOL     OW20710   2.463   0.361   1.870
 6604SOL    HW120711   2.434   0.320   1.957
 6604SOL    HW220712   2.493   0.455   1.887
 6605SOL     OW20713   5.728   5.824   2.042
 6605SOL    HW120714   5.762   5.792   1.953
 6605SOL    HW220715   5.774   5.774   2.115
 6606SOL     OW20716   1.481   3.781   3.007
 6606SOL    HW120717   1.417   3.839   2.957
 6606SOL    HW220718   1.468   3.686   2.979
 6607SOL     OW20719   6.041   4.855   4.337
 6607SOL    HW120720   6.024   4.793   4.414
 6607SOL    HW220721   6.114   4.919   4.361
 6608SOL     OW20722   6.963   6.897   6.945
 6608SOL    HW120723   0.031   6.912   6.984
 6608SOL    HW220724   6.939   6.974   6.887
 6609SOL     OW20725   4.650   1.583   5.822
 6609SOL    HW120726   4.714   1.526   5.873
 6609SOL    HW220727   4.560   1.579   5.866
 6610SOL     OW20728   2.440   5.922   0.696
 6610SOL    HW120729   2.393   5.917   0.608
 6610SOL    HW220730   2.452   5.829   0.732
 6611SOL     OW20731   4.991   2.548   3.757
 6611SOL    HW120732   5.018   2.474   3.696
 6611SOL    HW220733   5.061   2.619   3.757
 6612SOL     OW20734   6.315   2.028   6.505
 6612SOL    HW120735   6.228   2.071   6.529
 6612SOL    HW220736   6.337   2.048   6.409
 6613SOL     OW20737   5.193   0.750   6.362
 6613SOL    HW120738   5.197   0.838   6.408
 6613SOL    HW220739   5.170   0.679   6.429
 6614SOL     OW20740   4.965   5.833   1.358
 6614SOL    HW120741   5.041   5.820   1.421
 6614SOL    HW220742   4.907   5.908   1.391
 6615SOL     OW20743   2.967   5.527   0.458
 6615SOL    HW120744   3.062   5.550   0.478
 6615SOL    HW220745   2.964   5.449   0.395
 6616SOL     OW20746   4.145   0.440   6.129
 6616SOL    HW120747   4.081   0.374   6.090
 6616SOL    HW220748   4.114   0.533   6.108
 6617SOL     OW20749   3.845   0.212   3.395
 6617SOL    HW120750   3.893   0.272   3.459
 6617SOL    HW220751   3.748   0.239   3.390
 6618SOL     OW20752   0.754   1.453   3.211
 6618SOL    HW120753   0.846   1.491   3.202
 6618SOL    HW220754   0.689   1.527   3.230
 6619SOL     OW20755   4.153   0.216   4.005
 6619SOL    HW120756   4.119   0.143   4.064
 6619SOL    HW220757   4.180   0.177   3.917
 6620SOL     OW20758   1.417   3.639   3.503
 6620SOL    HW120759   1.399   3.625   3.600
 6620SOL    HW220760   1.476   3.719   3.491
 6621SOL     OW20761   3.427   2.984   4.786
 6621SOL    HW120762   3.329   2.999   4.803
 6621SOL    HW220763   3.469   3.070   4.759
 6622SOL     OW20764   6.083   5.884   1.129
 6622SOL    HW120765   6.155   5.917   1.191
 6622SOL    HW220766   6.052   5.959   1.071
 6623SOL     OW20767   3.294   4.122   5.041
 6623SOL    HW120768   3.284   4.119   4.942
 6623SOL    HW220769   3.343   4.041   5.072
 6624SOL     OW20770   0.831   2.447   4.743
 6624SOL    HW120771   0.870   2.423   4.654
 6624SOL    HW220772   0.902   2.436   4.813
 6625SOL     OW20773   5.948   2.808   5.730
 6625SOL    HW120774   5.897   2.821   5.815
 6625SOL    HW220775   5.888   2.766   5.661
 6626SOL     OW20776   2.911   0.183   4.557
 6626SOL    HW120777   2.978   0.108   4.559
 6626SOL    HW220778   2.956   0.268   4.584
 6627SOL     OW20779   1.234   6.064   4.384
 6627SOL    HW120780   1.327   6.091   4.360
 6627SOL    HW220781   1.184   6.142   4.421
 6628SOL     OW20782   5.129   5.845   3.968
 6628SOL    HW120783   5.175   5.933   3.957
 6628SOL    HW220784   5.137   5.792   3.884
 6629SOL     OW20785   5.052   5.773   6.541
 6629SOL    HW120786   5.103   5.693   6.572
 6629SOL    HW220787   5.063   5.848   6.606
 6630SOL     OW20788   2.977   1.145   2.064
 6630SOL    HW120789   3.028   1.092   2.131
 6630SOL    HW220790   2.882   1.114   2.062
 6631SOL     OW20791   1.056   5.270   5.692
 6631SOL    HW120792   0.966   5.292   5.653
 6631SOL    HW220793   1.126   5.278   5.621
 6632SOL     OW20794   0.953   0.630   1.362
 6632SOL    HW120795   1.003   0.632   1.275
 6632SOL    HW220796   1.013   0.593   1.433
 6633SOL     OW20797   2.876   4.991   6.146
 6633SOL    HW120798   2.959   4.942   6.173
 6633SOL    HW220799   2.863   4.982   6.048
 6634SOL     OW20800   5.125   1.956   5.870
 6634SOL    HW120801   5.117   2.048   5.831
 6634SOL    HW220802   5.081   1.890   5.809
 6635SOL     OW20803   4.752   4.176   2.596
 6635SOL    HW120804   4.721   4.269   2.616
 6635SOL    HW220805   4.795   4.138   2.678
 6636SOL     OW20806   3.017   0.285   2.278
 6636SOL    HW120807   2.922   0.312   2.291
 6636SOL    HW220808   3.040   0.290   2.181
 6637SOL     OW20809   2.022   0.602   0.944
 6637SOL    HW120810   1.974   0.572   0.862
 6637SOL    HW220811   1.956   0.629   1.014
 6638SOL     OW20812   3.129   4.028   3.398
 6638SOL    HW120813   3.114   4.126   3.387
 6638SOL    HW220814   3.062   3.991   3.463
 6639SOL     OW20815   4.201   2.845   0.318
 6639SOL    HW120816   4.136   2.882   0.384
 6639SOL    HW220817   4.244   2.920   0.268
 6640SOL     OW20818   0.331   2.483   5.563
 6640SOL    HW120819   0.352   2.463   5.467
 6640SOL    HW220820   0.373   2.412   5.621
 6641SOL     OW20821   4.218   1.811   1.041
 6641SOL    HW120822   4.178   1.719   1.034
 6641SOL    HW220823   4.256   1.824   1.132
 6642SOL     OW20824   2.257   5.130   0.560
 6642SOL    HW120825   2.277   5.132   0.462
 6642SOL    HW220826   2.232   5.037   0.587
 6643SOL     OW20827   5.600   6.823   0.302
 6643SOL    HW120828   5.522   6.811   0.364
 6643SOL    HW220829   5.574   6.888   0.230
 6644SOL     OW20830   1.684   6.377   2.643
 6644SOL    HW120831   1.719   6.456   2.693
 6644SOL    HW220832   1.585   6.386   2.631
 6645SOL     OW20833   6.129   2.610   0.727
 6645SOL    HW120834   6.096   2.623   0.820
 6645SOL    HW220835   6.055   2.624   0.662
 6646SOL     OW20836   4.044   0.965   7.017
 6646SOL    HW120837   4.121   0.901   7.008
 6646SOL    HW220838   3.968   0.933   6.960
 6647SOL     OW20839   4.761   5.270   1.395
 6647SOL    HW120840   4.684   5.290   1.335
 6647SOL    HW220841   4.744   5.310   1.485
 6648SOL     OW20842   3.483   6.413   4.396
 6648SOL    HW120843   3.470   6.511   4.384
 6648SOL    HW220844   3.405   6.374   4.446
 6649SOL     OW20845   5.762   2.847   6.480
 6649SOL    HW120846   5.730   2.769   6.534
 6649SOL    HW220847   5.849   2.880   6.516
 6650SOL     OW20848   4.084   0.891   5.060
 6650SOL    HW120849   4.092   0.809   5.003
 6650SOL    HW220850   4.159   0.894   5.126
 6651SOL     OW20851   1.224   1.865   0.289
 6651SOL    HW120852   1.309   1.826   0.254
 6651SOL    HW220853   1.201   1.822   0.376
 6652SOL     OW20854   1.008   4.465   0.171
 6652SOL    HW120855   0.962   4.391   0.121
 6652SOL    HW220856   1.098   4.434   0.200
 6653SOL     OW20857   4.913   2.990   0.302
 6653SOL    HW120858   4.956   3.060   0.245
 6653SOL    HW220859   4.964   2.904   0.294
 6654SOL     OW20860   7.007   4.922   2.867
 6654SOL    HW120861   6.992   4.850   2.799
 6654SOL    HW220862   0.059   4.981   2.837
 6655SOL     OW20863   0.082   5.535   2.118
 6655SOL    HW120864   0.068   5.453   2.063
 6655SOL    HW220865   0.004   5.597   2.106
 6656SOL     OW20866   4.354   1.555   2.492
 6656SOL    HW120867   4.361   1.458   2.467
 6656SOL    HW220868   4.359   1.565   2.591
 6657SOL     OW20869   5.310   2.250   4.904
 6657SOL    HW120870   5.269   2.341   4.891
 6657SOL    HW220871   5.410   2.258   4.900
 6658SOL     OW20872   6.330   0.404   5.194
 6658SOL    HW120873   6.369   0.437   5.280
 6658SOL    HW220874   6.293   0.312   5.207
 6659SOL     OW20875   1.652   5.063   1.711
 6659SOL    HW120876   1.733   5.070   1.652
 6659SOL    HW220877   1.624   5.155   1.739
 6660SOL     OW20878   1.631   5.525   2.404
 6660SOL    HW120879   1.625   5.603   2.467
 6660SOL    HW220880   1.543   5.477   2.403
 6661SOL     OW20881   2.810   6.827   4.219
 6661SOL    HW120882   2.738   6.864   4.277
 6661SOL    HW220883   2.781   6.739   4.180
 6662SOL     OW20884   1.970   0.309   1.576
 6662SOL    HW120885   1.887   0.254   1.586
 6662SOL    HW220886   1.945   0.405   1.564
 6663SOL     OW20887   1.298   5.930   6.132
 6663SOL    HW120888   1.299   5.886   6.042
 6663SOL    HW220889   1.281   6.028   6.121
 6664SOL     OW20890   2.150   0.363   1.817
 6664SOL    HW120891   2.249   0.372   1.802
 6664SOL    HW220892   2.104   0.347   1.730
 6665SOL     OW20893   2.755   0.003   5.771
 6665SOL    HW120894   2.719   6.933   5.776
 6665SOL    HW220895   2.801   0.027   5.856
 6666SOL     OW20896   6.577   5.665   4.811
 6666SOL    HW120897   6.526   5.740   4.852
 6666SOL    HW220898   6.513   5.601   4.767
 6667SOL     OW20899   0.571   6.401   5.647
 6667SOL    HW120900   0.595   6.360   5.735
 6667SOL    HW220901   0.569   6.500   5.656
 6668SOL     OW20902   6.762   6.067   1.543
 6668SOL    HW120903   6.795   6.033   1.455
 6668SOL    HW220904   6.713   6.153   1.529
 6669SOL     OW20905   3.059   1.481   2.017
 6669SOL    HW120906   2.961   1.497   2.006
 6669SOL    HW220907   3.082   1.390   1.982
 6670SOL     OW20908   2.666   1.582   0.066
 6670SOL    HW120909   2.623   1.545   7.007
 6670SOL    HW220910   2.746   1.636   0.040
 6671SOL     OW20911   4.525   6.629   0.720
 6671SOL    HW120912   4.528   6.652   0.622
 6671SOL    HW220913   4.603   6.672   0.767
 6672SOL     OW20914   1.533   2.508   0.437
 6672SOL    HW120915   1.597   2.579   0.408
 6672SOL    HW220916   1.555   2.478   0.530
 6673SOL     OW20917   5.330   3.550   4.422
 6673SOL    HW120918   5.359   3.588   4.509
 6673SOL    HW220919   5.283   3.463   4.438
 6674SOL     OW20920   0.654   2.725   6.697
 6674SOL    HW120921   0.613   2.694   6.611
 6674SOL    HW220922   0.601   2.802   6.733
 6675SOL     OW20923   4.289   2.283   0.113
 6675SOL    HW120924   4.288   2.240   0.023
 6675SOL    HW220925   4.195   2.286   0.149
 6676SOL     OW20926   1.693   4.239   2.737
 6676SOL    HW120927   1.678   4.278   2.647
 6676SOL    HW220928   1.615   4.184   2.764
 6677SOL     OW20929   0.746   0.890   6.765
 6677SOL    HW120930   0.805   0.947   6.822
 6677SOL    HW220931   0.674   0.947   6.725
 6678SOL     OW20932   1.900   3.735   0.521
 6678SOL    HW120933   1.895   3.657   0.583
 6678SOL    HW220934   1.993   3.771   0.520
 6679SOL     OW20935   2.732   0.760   3.906
 6679SOL    HW120936   2.767   0.709   3.827
 6679SOL    HW220937   2.804   0.765   3.976
 6680SOL     OW20938   4.500   6.702   0.211
 6680SOL    HW120939   4.533   6.643   0.284
 6680SOL    HW220940   4.573   6.763   0.181
 6681SOL     OW20941   4.963   5.359   1.631
 6681SOL    HW120942   5.035   5.380   1.565
 6681SOL    HW220943   4.940   5.261   1.626
 6682SOL     OW20944   2.534   4.918   7.015
 6682SOL    HW120945   2.499   4.828   0.021
 6682SOL    HW220946   2.615   4.906   6.959
 6683SOL     OW20947   6.403   3.644   6.559
 6683SOL    HW120948   6.484   3.603   6.599
 6683SOL    HW220949   6.336   3.663   6.630
 6684SOL     OW20950   3.342   6.930   1.711
 6684SOL    HW120951   3.367   0.004   1.707
 6684SOL    HW220952   3.294   6.911   1.796
 6685SOL     OW20953   4.131   3.108   6.563
 6685SOL    HW120954   4.206   3.069   6.510
 6685SOL    HW220955   4.052   3.124   6.504
 6686SOL     OW20956   6.157   5.391   3.390
 6686SOL    HW120957   6.091   5.455   3.349
 6686SOL    HW220958   6.231   5.442   3.432
 6687SOL     OW20959   6.767   2.381   1.194
 6687SOL    HW120960   6.806   2.353   1.282
 6687SOL    HW220961   6.840   2.405   1.131
 6688SOL     OW20962   4.212   4.329   0.684
 6688SOL    HW120963   4.151   4.406   0.699
 6688SOL    HW220964   4.235   4.286   0.771
 6689SOL     OW20965   3.833   4.082   5.850
 6689SOL    HW120966   3.866   3.993   5.819
 6689SOL    HW220967   3.791   4.130   5.773
 6690SOL     OW20968   1.203   0.890   6.477
 6690SOL    HW120969   1.265   0.965   6.456
 6690SOL    HW220970   1.132   0.922   6.540
 6691SOL     OW20971   1.727   0.750   2.535
 6691SOL    HW120972   1.711   0.779   2.441
 6691SOL    HW220973   1.639   0.731   2.579
 6692SOL     OW20974   4.072   4.503   1.542
 6692SOL    HW120975   3.998   4.541   1.486
 6692SOL    HW220976   4.127   4.441   1.486
 6693SOL     OW20977   4.682   1.826   4.757
 6693SOL    HW120978   4.774   1.827   4.795
 6693SOL    HW220979   4.637   1.740   4.782
 6694SOL     OW20980   3.757   5.410   1.441
 6694SOL    HW120981   3.720   5.490   1.395
 6694SOL    HW220982   3.734   5.413   1.539
 6695SOL     OW20983   2.841   2.267   0.050
 6695SOL    HW120984   2.789   2.206   7.013
 6695SOL    HW220985   2.794   2.275   0.138
 6696SOL     OW20986   3.850   3.879   3.782
 6696SOL    HW120987   3.832   3.937   3.861
 6696SOL    HW220988   3.783   3.898   3.710
 6697SOL     OW20989   5.366   2.270   2.884
 6697SOL    HW120990   5.277   2.309   2.863
 6697SOL    HW220991   5.384   2.278   2.982
 6698SOL     OW20992   2.968   3.415   1.389
 6698SOL    HW120993   2.885   3.359   1.396
 6698SOL    HW220994   2.964   3.489   1.456
 6699SOL     OW20995   1.904   5.786   6.122
 6699SOL    HW120996   1.895   5.694   6.083
 6699SOL    HW220997   1.836   5.799   6.193
 6700SOL     OW20998   5.801   0.554   0.520
 6700SOL    HW120999   5.884   0.598   0.556
 6700SOL    HW221000   5.721   0.593   0.566
 6701SOL     OW21001   6.335   0.252   1.567
 6701SOL    HW121002   6.299   0.237   1.659
 6701SOL    HW221003   6.330   0.166   1.515
 6702SOL     OW21004   2.119   1.967   1.092
 6702SOL    HW121005   2.203   1.927   1.127
 6702SOL    HW221006   2.102   2.054   1.138
 6703SOL     OW21007   1.239   1.344   6.692
 6703SOL    HW121008   1.322   1.387   6.727
 6703SOL    HW221009   1.254   1.313   6.598
 6704SOL     OW21010   3.545   1.451   4.273
 6704SOL    HW121011   3.561   1.356   4.245
 6704SOL    HW221012   3.516   1.453   4.369
 6705SOL     OW21013   6.041   3.074   1.110
 6705SOL    HW121014   6.055   3.070   1.209
 6705SOL    HW221015   6.027   3.169   1.082
 6706SOL     OW21016   1.602   6.038   1.081
 6706SOL    HW121017   1.696   6.070   1.091
 6706SOL    HW221018   1.556   6.043   1.169
 6707SOL     OW21019   5.659   0.377   2.264
 6707SOL    HW121020   5.616   0.299   2.218
 6707SOL    HW221021   5.610   0.461   2.240
 6708SOL     OW21022   6.270   4.675   1.319
 6708SOL    HW121023   6.352   4.627   1.288
 6708SOL    HW221024   6.296   4.752   1.376
 6709SOL     OW21025   1.060   4.190   2.162
 6709SOL    HW121026   0.978   4.244   2.179
 6709SOL    HW221027   1.075   4.126   2.237
 6710SOL     OW21028   4.732   1.256   2.127
 6710SOL    HW121029   4.683   1.318   2.066
 6710SOL    HW221030   4.802   1.206   2.075
 6711SOL     OW21031   5.015   6.349   6.121
 6711SOL    HW121032   4.980   6.401   6.043
 6711SOL    HW221033   4.968   6.260   6.125
 6712SOL     OW21034   6.608   3.400   0.544
 6712SOL    HW121035   6.637   3.310   0.576
 6712SOL    HW221036   6.595   3.460   0.623
 6713SOL     OW21037   1.174   0.841   3.498
 6713SOL    HW121038   1.265   0.800   3.504
 6713SOL    HW221039   1.105   0.771   3.516
 6714SOL     OW21040   5.985   1.548   1.084
 6714SOL    HW121041   5.947   1.530   1.175
 6714SOL    HW221042   5.959   1.640   1.055
 6715SOL     OW21043   1.639   0.907   1.402
 6715SOL    HW121044   1.724   0.920   1.350
 6715SOL    HW221045   1.637   0.814   1.440
 6716SOL     OW21046   6.410   5.501   2.274
 6716SOL    HW121047   6.470   5.510   2.354
 6716SOL    HW221048   6.315   5.512   2.302
 6717SOL     OW21049   3.056   2.523   6.433
 6717SOL    HW121050   2.960   2.550   6.432
 6717SOL    HW221051   3.066   2.433   6.391
 6718SOL     OW21052   4.562   1.460   1.191
 6718SOL    HW121053   4.647   1.418   1.157
 6718SOL    HW221054   4.498   1.470   1.115
 6719SOL     OW21055   1.782   0.005   0.168
 6719SOL    HW121056   1.731   0.000   0.254
 6719SOL    HW221057   1.879   0.022   0.187
 6720SOL     OW21058   3.059   0.518   5.311
 6720SOL    HW121059   3.148   0.487   5.278
 6720SOL    HW221060   3.022   0.451   5.376
 6721SOL     OW21061   0.209   0.198   0.281
 6721SOL    HW121062   0.136   0.144   0.322
 6721SOL    HW221063   0.287   0.138   0.261
 6722SOL     OW21064   0.284   2.700   0.334
 6722SOL    HW121065   0.312   2.642   0.411
 6722SOL    HW221066   0.338   2.675   0.253
 6723SOL     OW21067   2.104   0.843   6.568
 6723SOL    HW121068   2.197   0.806   6.565
 6723SOL    HW221069   2.086   0.879   6.660
 6724SOL     OW21070   2.447   2.577   6.575
 6724SOL    HW121071   2.434   2.526   6.490
 6724SOL    HW221072   2.537   2.554   6.613
 6725SOL     OW21073   5.721   2.848   3.039
 6725SOL    HW121074   5.741   2.831   3.135
 6725SOL    HW221075   5.804   2.882   2.993
 6726SOL     OW21076   0.723   1.446   5.079
 6726SOL    HW121077   0.642   1.480   5.031
 6726SOL    HW221078   0.707   1.446   5.177
 6727SOL     OW21079   0.915   4.327   5.449
 6727SOL    HW121080   0.976   4.292   5.378
 6727SOL    HW221081   0.914   4.427   5.445
 6728SOL     OW21082   4.216   2.032   3.686
 6728SOL    HW121083   4.206   2.127   3.656
 6728SOL    HW221084   4.293   1.990   3.637
 6729SOL     OW21085   6.206   2.476   0.220
 6729SOL    HW121086   6.149   2.547   0.178
 6729SOL    HW221087   6.289   2.464   0.167
 6730SOL     OW21088   1.335   0.806   1.853
 6730SOL    HW121089   1.410   0.865   1.884
 6730SOL    HW221090   1.313   0.829   1.758
 6731SOL     OW21091   1.870   6.419   1.296
 6731SOL    HW121092   1.836   6.465   1.378
 6731SOL    HW221093   1.968   6.400   1.306
 6732SOL     OW21094   5.515   4.393   4.413
 6732SOL    HW121095   5.538   4.334   4.490
 6732SOL    HW221096   5.501   4.487   4.445
 6733SOL     OW21097   3.791   5.461   6.735
 6733SOL    HW121098   3.808   5.365   6.759
 6733SOL    HW221099   3.838   5.520   6.800
 6734SOL     OW21100   5.127   1.878   5.447
 6734SOL    HW121101   5.102   1.974   5.443
 6734SOL    HW221102   5.118   1.838   5.355
 6735SOL     OW21103   6.266   3.970   4.494
 6735SOL    HW121104   6.327   4.012   4.426
 6735SOL    HW221105   6.206   3.904   4.448
 6736SOL     OW21106   2.810   4.420   0.178
 6736SOL    HW121107   2.753   4.395   0.099
 6736SOL    HW221108   2.894   4.365   0.176
 6737SOL     OW21109   0.931   2.920   1.046
 6737SOL    HW121110   1.001   2.957   1.107
 6737SOL    HW221111   0.847   2.903   1.097
 6738SOL     OW21112   1.341   5.868   3.831
 6738SOL    HW121113   1.426   5.893   3.784
 6738SOL    HW221114   1.354   5.784   3.882
 6739SOL     OW21115   6.791   6.316   3.261
 6739SOL    HW121116   6.717   6.252   3.280
 6739SOL    HW221117   6.878   6.277   3.290
 6740SOL     OW21118   6.315   6.541   4.440
 6740SOL    HW121119   6.399   6.551   4.388
 6740SOL    HW221120   6.312   6.608   4.514
 6741SOL     OW21121   4.304   2.172   5.953
 6741SOL    HW121122   4.255   2.108   5.894
 6741SOL    HW221123   4.305   2.137   6.047
 6742SOL     OW21124   5.700   5.271   3.705
 6742SOL    HW121125   5.665   5.184   3.740
 6742SOL    HW221126   5.651   5.295   3.621
 6743SOL     OW21127   3.992   4.232   6.580
 6743SOL    HW121128   3.940   4.148   6.567
 6743SOL    HW221129   4.074   4.212   6.634
 6744SOL     OW21130   6.930   6.211   5.867
 6744SOL    HW121131   6.989   6.130   5.866
 6744SOL    HW221132   6.925   6.247   5.960
 6745SOL     OW21133   0.123   6.482   3.324
 6745SOL    HW121134   0.171   6.553   3.375
 6745SOL    HW221135   0.025   6.492   3.338
 6746SOL     OW21136   2.020   1.011   2.396
 6746SOL    HW121137   2.023   1.017   2.495
 6746SOL    HW221138   2.046   0.918   2.368
 6747SOL     OW21139   6.552   6.504   6.354
 6747SOL    HW121140   6.562   6.536   6.448
 6747SOL    HW221141   6.554   6.404   6.352
 6748SOL     OW21142   2.696   1.951   3.497
 6748SOL    HW121143   2.699   1.972   3.399
 6748SOL    HW221144   2.764   2.007   3.544
 6749SOL     OW21145   3.632   4.088   0.864
 6749SOL    HW121146   3.544   4.136   0.872
 6749SOL    HW221147   3.615   3.991   0.850
 6750SOL     OW21148   2.561   1.842   3.981
 6750SOL    HW121149   2.488   1.845   3.913
 6750SOL    HW221150   2.521   1.837   4.073
 6751SOL     OW21151   4.370   0.412   3.303
 6751SOL    HW121152   4.280   0.391   3.341
 6751SOL    HW221153   4.416   0.478   3.362
 6752SOL     OW21154   1.375   0.063   3.928
 6752SOL    HW121155   1.377   0.163   3.925
 6752SOL    HW221156   1.283   0.030   3.906
 6753SOL     OW21157   3.553   2.226   5.916
 6753SOL    HW121158   3.538   2.191   6.009
 6753SOL    HW221159   3.602   2.157   5.863
 6754SOL     OW21160   6.226   1.011   1.292
 6754SOL    HW121161   6.131   1.007   1.325
 6754SOL    HW221162   6.258   0.918   1.272
 6755SOL     OW21163   3.332   4.575   0.938
 6755SOL    HW121164   3.362   4.622   0.855
 6755SOL    HW221165   3.234   4.591   0.951
 6756SOL     OW21166   3.465   0.703   5.791
 6756SOL    HW121167   3.505   0.621   5.749
 6756SOL    HW221168   3.473   0.696   5.890
 6757SOL     OW21169   4.143   1.597   1.548
 6757SOL    HW121170   4.070   1.532   1.530
 6757SOL    HW221171   4.195   1.613   1.464
 6758SOL     OW21172   5.869   3.028   1.701
 6758SOL    HW121173   5.819   2.963   1.645
 6758SOL    HW221174   5.964   2.998   1.710
 6759SOL     OW21175   6.888   2.864   3.176
 6759SOL    HW121176   6.826   2.943   3.174
 6759SOL    HW221177   6.941   2.866   3.260
 6760SOL     OW21178   6.324   3.833   2.633
 6760SOL    HW121179   6.260   3.897   2.677
 6760SOL    HW221180   6.278   3.788   2.556
 6761SOL     OW21181   5.281   2.684   4.662
 6761SOL    HW121182   5.282   2.701   4.564
 6761SOL    HW221183   5.308   2.768   4.710
 6762SOL     OW21184   0.619   4.310   4.113
 6762SOL    HW121185   0.562   4.233   4.142
 6762SOL    HW221186   0.622   4.379   4.186
 6763SOL     OW21187   5.406   5.674   5.334
 6763SOL    HW121188   5.442   5.598   5.388
 6763SOL    HW221189   5.331   5.642   5.276
 6764SOL     OW21190   2.261   5.732   2.426
 6764SOL    HW121191   2.201   5.794   2.476
 6764SOL    HW221192   2.317   5.783   2.361
 6765SOL     OW21193   6.323   4.388   3.605
 6765SOL    HW121194   6.390   4.366   3.676
 6765SOL    HW221195   6.298   4.306   3.555
 6766SOL     OW21196   4.812   5.835   6.203
 6766SOL    HW121197   4.824   5.737   6.189
 6766SOL    HW221198   4.715   5.855   6.216
 6767SOL     OW21199   3.501   0.372   1.024
 6767SOL    HW121200   3.530   0.466   1.042
 6767SOL    HW221201   3.527   0.315   1.102
 6768SOL     OW21202   2.059   0.588   5.832
 6768SOL    HW121203   2.151   0.563   5.803
 6768SOL    HW221204   2.037   0.540   5.917
 6769SOL     OW21205   3.281   2.147   1.019
 6769SOL    HW121206   3.184   2.141   0.998
 6769SOL    HW221207   3.300   2.099   1.105
 6770SOL     OW21208   0.198   1.004   1.654
 6770SOL    HW121209   0.219   1.093   1.693
 6770SOL    HW221210   0.248   0.992   1.569
 6771SOL     OW21211   4.588   2.604   3.279
 6771SOL    HW121212   4.582   2.577   3.183
 6771SOL    HW221213   4.510   2.567   3.329
 6772SOL     OW21214   3.341   0.808   3.458
 6772SOL    HW121215   3.286   0.725   3.463
 6772SOL    HW221216   3.410   0.798   3.385
 6773SOL     OW21217   6.825   5.259   1.589
 6773SOL    HW121218   6.793   5.319   1.663
 6773SOL    HW221219   6.746   5.223   1.539
 6774SOL     OW21220   0.876   2.870   5.792
 6774SOL    HW121221   0.875   2.843   5.888
 6774SOL    HW221222   0.839   2.962   5.782
 6775SOL     OW21223   2.562   3.300   1.663
 6775SOL    HW121224   2.622   3.235   1.709
 6775SOL    HW221225   2.537   3.373   1.727
 6776SOL     OW21226   4.521   4.372   0.048
 6776SOL    HW121227   4.594   4.358   0.114
 6776SOL    HW221228   4.532   4.308   6.995
 6777SOL     OW21229   4.374   3.940   6.730
 6777SOL    HW121230   4.293   3.895   6.692
 6777SOL    HW221231   4.428   3.873   6.781
 6778SOL     OW21232   6.761   4.755   2.186
 6778SOL    HW121233   6.681   4.746   2.245
 6778SOL    HW221234   6.747   4.702   2.102
 6779SOL     OW21235   6.802   4.679   5.698
 6779SOL    HW121236   6.877   4.616   5.678
 6779SOL    HW221237   6.838   4.760   5.745
 6780SOL     OW21238   0.916   2.118   2.921
 6780SOL    HW121239   0.837   2.084   2.870
 6780SOL    HW221240   0.952   2.200   2.877
 6781SOL     OW21241   5.642   0.205   4.929
 6781SOL    HW121242   5.664   0.202   4.831
 6781SOL    HW221243   5.726   0.198   4.982
 6782SOL     OW21244   6.996   0.269   3.033
 6782SOL    HW121245   6.946   0.319   2.962
 6782SOL    HW221246   6.932   0.240   3.104
 6783SOL     OW21247   6.703   0.793   6.465
 6783SOL    HW121248   6.701   0.761   6.370
 6783SOL    HW221249   6.638   0.739   6.519
 6784SOL     OW21250   3.134   3.812   0.603
 6784SOL    HW121251   3.157   3.761   0.686
 6784SOL    HW221252   3.214   3.814   0.542
 6785SOL     OW21253   4.907   4.747   2.628
 6785SOL    HW121254   4.974   4.731   2.700
 6785SOL    HW221255   4.954   4.763   2.541
 6786SOL     OW21256   1.474   1.840   0.204
 6786SOL    HW121257   1.521   1.758   0.170
 6786SOL    HW221258   1.494   1.917   0.144
 6787SOL     OW21259   1.660   2.703   0.741
 6787SOL    HW121260   1.641   2.792   0.782
 6787SOL    HW221261   1.759   2.691   0.733
 6788SOL     OW21262   2.344   3.575   1.614
 6788SOL    HW121263   2.356   3.673   1.630
 6788SOL    HW221264   2.360   3.525   1.699
 6789SOL     OW21265   0.148   6.608   3.035
 6789SOL    HW121266   0.110   6.568   3.119
 6789SOL    HW221267   0.082   6.674   2.998
 6790SOL     OW21268   0.958   4.329   0.963
 6790SOL    HW121269   0.951   4.296   0.869
 6790SOL    HW221270   1.002   4.259   1.020
 6791SOL     OW21271   4.261   2.584   1.590
 6791SOL    HW121272   4.244   2.497   1.636
 6791SOL    HW221273   4.220   2.658   1.642
 6792SOL     OW21274   6.745   6.226   5.521
 6792SOL    HW121275   6.830   6.179   5.543
 6792SOL    HW221276   6.706   6.266   5.604
 6793SOL     OW21277   0.973   1.953   0.119
 6793SOL    HW121278   0.984   2.052   0.109
 6793SOL    HW221279   1.054   1.915   0.163
 6794SOL     OW21280   5.084   1.419   5.413
 6794SOL    HW121281   5.100   1.328   5.450
 6794SOL    HW221282   5.126   1.487   5.473
 6795SOL     OW21283   2.512   6.366   0.778
 6795SOL    HW121284   2.461   6.396   0.697
 6795SOL    HW221285   2.482   6.275   0.805
 6796SOL     OW21286   6.479   0.679   2.512
 6796SOL    HW121287   6.548   0.669   2.584
 6796SOL    HW221288   6.410   0.607   2.522
 6797SOL     OW21289   5.397   3.512   1.350
 6797SOL    HW121290   5.426   3.448   1.279
 6797SOL    HW221291   5.374   3.463   1.433
 6798SOL     OW21292   5.560   6.288   2.921
 6798SOL    HW121293   5.620   6.351   2.871
 6798SOL    HW221294   5.558   6.199   2.875
 6799SOL     OW21295   6.888   5.722   6.979
 6799SOL    HW121296   6.922   5.704   6.886
 6799SOL    HW221297   6.962   5.709   0.022
 6800SOL     OW21298   2.097   4.285   1.062
 6800SOL    HW121299   2.170   4.234   1.018
 6800SOL    HW221300   2.032   4.221   1.104
 6801SOL     OW21301   1.146   1.027   2.728
 6801SOL    HW121302   1.162   0.995   2.821
 6801SOL    HW221303   1.187   1.117   2.716
 6802SOL     OW21304   3.299   6.063   0.307
 6802SOL    HW121305   3.211   6.102   0.278
 6802SOL    HW221306   3.341   6.016   0.230
 6803SOL     OW21307   5.146   2.754   6.207
 6803SOL    HW121308   5.105   2.739   6.297
 6803SOL    HW221309   5.246   2.755   6.216
 6804SOL     OW21310   2.908   5.545   3.705
 6804SOL    HW121311   2.895   5.459   3.656
 6804SOL    HW221312   3.003   5.573   3.699
 6805SOL     OW21313   5.613   5.834   5.194
 6805SOL    HW121314   5.643   5.876   5.280
 6805SOL    HW221315   5.558   5.753   5.215
 6806SOL     OW21316   5.569   1.018   3.416
 6806SOL    HW121317   5.528   1.005   3.326
 6806SOL    HW221318   5.611   0.932   3.447
 6807SOL     OW21319   3.001   3.009   0.798
 6807SOL    HW121320   2.980   3.105   0.781
 6807SOL    HW221321   3.065   3.002   0.875
 6808SOL     OW21322   0.379   2.043   5.654
 6808SOL    HW121323   0.377   1.944   5.669
 6808SOL    HW221324   0.300   2.071   5.601
 6809SOL     OW21325   1.167   3.431   1.029
 6809SOL    HW121326   1.211   3.392   1.110
 6809SOL    HW221327   1.236   3.480   0.975
 6810SOL     OW21328   1.787   0.011   1.972
 6810SOL    HW121329   1.706   0.035   2.025
 6810SOL    HW221330   1.823   0.094   1.928
 6811SOL     OW21331   5.221   3.798   0.089
 6811SOL    HW121332   5.168   3.856   0.152
 6811SOL    HW221333   5.167   3.778   0.008
 6812SOL     OW21334   3.261   3.855   3.247
 6812SOL    HW121335   3.196   3.909   3.301
 6812SOL    HW221336   3.223   3.840   3.155
 6813SOL     OW21337   5.098   2.097   2.707
 6813SOL    HW121338   5.047   2.058   2.630
 6813SOL    HW221339   5.131   2.024   2.766
 6814SOL     OW21340   3.413   2.644   0.657
 6814SOL    HW121341   3.482   2.648   0.586
 6814SOL    HW221342   3.323   2.627   0.616
 6815SOL     OW21343   3.430   0.149   1.374
 6815SOL    HW121344   3.337   0.166   1.339
 6815SOL    HW221345   3.446   0.206   1.454
 6816SOL     OW21346   0.316   6.955   6.241
 6816SOL    HW121347   0.333   6.922   6.334
 6816SOL    HW221348   0.256   0.013   6.246
 6817SOL     OW21349   0.324   1.758   4.922
 6817SOL    HW121350   0.239   1.759   4.868
 6817SOL    HW221351   0.310   1.810   5.006
 6818SOL     OW21352   2.916   5.183   1.919
 6818SOL    HW121353   2.855   5.159   1.994
 6818SOL    HW221354   2.874   5.254   1.862
 6819SOL     OW21355   4.487   1.269   4.271
 6819SOL    HW121356   4.531   1.210   4.204
 6819SOL    HW221357   4.511   1.364   4.252
 6820SOL     OW21358   1.005   5.493   2.890
 6820SOL    HW121359   1.048   5.403   2.899
 6820SOL    HW221360   0.933   5.503   2.958
 6821SOL     OW21361   3.083   1.066   5.301
 6821SOL    HW121362   3.039   1.116   5.376
 6821SOL    HW221363   3.124   1.131   5.237
 6822SOL     OW21364   5.780   2.384   6.093
 6822SOL    HW121365   5.876   2.357   6.084
 6822SOL    HW221366   5.763   2.465   6.038
 6823SOL     OW21367   3.667   3.189   3.876
 6823SOL    HW121368   3.739   3.159   3.813
 6823SOL    HW221369   3.684   3.150   3.967
 6824SOL     OW21370   0.697   3.425   6.192
 6824SOL    HW121371   0.794   3.401   6.202
 6824SOL    HW221372   0.671   3.490   6.264
 6825SOL     OW21373   5.239   6.332   2.377
 6825SOL    HW121374   5.271   6.254   2.431
 6825SOL    HW221375   5.204   6.403   2.438
 6826SOL     OW21376   2.091   4.223   2.745
 6826SOL    HW121377   2.040   4.297   2.787
 6826SOL    HW221378   2.141   4.257   2.666
 6827SOL     OW21379   4.718   6.216   6.963
 6827SOL    HW121380   4.677   6.218   6.872
 6827SOL    HW221381   4.797   6.154   6.963
 6828SOL     OW21382   2.574   1.639   2.004
 6828SOL    HW121383   2.602   1.677   1.916
 6828SOL    HW221384   2.590   1.707   2.076
 6829SOL     OW21385   4.588   6.785   4.034
 6829SOL    HW121386   4.622   6.691   4.029
 6829SOL    HW221387   4.569   6.809   4.129
 6830SOL     OW21388   5.545   1.378   3.909
 6830SOL    HW121389   5.490   1.385   3.992
 6830SOL    HW221390   5.539   1.285   3.872
 6831SOL     OW21391   1.113   0.367   6.114
 6831SOL    HW121392   1.148   0.274   6.113
 6831SOL    HW221393   1.073   0.388   6.203
 6832SOL     OW21394   3.054   4.036   1.522
 6832SOL    HW121395   3.113   3.956   1.528
 6832SOL    HW221396   2.971   4.021   1.576
 6833SOL     OW21397   4.497   4.666   6.993
 6833SOL    HW121398   4.508   4.587   0.030
 6833SOL    HW221399   4.411   4.713   7.016
 6834SOL     OW21400   5.376   6.888   2.009
 6834SOL    HW121401   5.416   6.822   1.945
 6834SOL    HW221402   5.363   6.844   2.098
 6835SOL     OW21403   4.294   0.062   5.245
 6835SOL    HW121404   4.295   0.119   5.327
 6835SOL    HW221405   4.257   0.115   5.169
 6836SOL     OW21406   3.418   5.488   0.236
 6836SOL    HW121407   3.343   5.548   0.263
 6836SOL    HW221408   3.440   5.425   0.310
 6837SOL     OW21409   1.585   2.016   2.236
 6837SOL    HW121410   1.491   2.049   2.245
 6837SOL    HW221411   1.612   1.970   2.321
 6838SOL     OW21412   2.185   6.124   0.961
 6838SOL    HW121413   2.120   6.056   0.996
 6838SOL    HW221414   2.239   6.160   1.037
 6839SOL     OW21415   4.863   0.869   6.789
 6839SOL    HW121416   4.906   0.781   6.811
 6839SOL    HW221417   4.924   0.922   6.730
 6840SOL     OW21418   2.419   1.916   5.179
 6840SOL    HW121419   2.453   1.823   5.163
 6840SOL    HW221420   2.477   1.981   5.129
 6841SOL     OW21421   5.507   3.722   5.994
 6841SOL    HW121422   5.552   3.688   5.911
 6841SOL    HW221423   5.408   3.716   5.984
 6842SOL     OW21424   2.895   4.436   1.069
 6842SOL    HW121425   2.887   4.462   1.166
 6842SOL    HW221426   2.807   4.402   1.037
 6843SOL     OW21427   5.776   6.694   0.460
 6843SOL    HW121428   5.709   6.732   0.396
 6843SOL    HW221429   5.810   6.767   0.520
 6844SOL     OW21430   5.185   0.958   4.313
 6844SOL    HW121431   5.141   1.047   4.299
 6844SOL    HW221432   5.282   0.971   4.331
 6845SOL     OW21433   6.219   3.323   2.633
 6845SOL    HW121434   6.219   3.395   2.563
 6845SOL    HW221435   6.219   3.234   2.588
 6846SOL     OW21436   3.284   4.171   0.007
 6846SOL    HW121437   3.241   4.167   6.940
 6846SOL    HW221438   3.376   4.130   0.002
 6847SOL     OW21439   0.274   3.648   4.997
 6847SOL    HW121440   0.235   3.633   5.088
 6847SOL    HW221441   0.221   3.717   4.948
 6848SOL     OW21442   5.121   4.145   3.668
 6848SOL    HW121443   5.124   4.196   3.754
 6848SOL    HW221444   5.037   4.167   3.620
 6849SOL     OW21445   3.840   3.816   5.739
 6849SOL    HW121446   3.869   3.747   5.806
 6849SOL    HW221447   3.912   3.829   5.671
 6850SOL     OW21448   4.728   2.851   3.031
 6850SOL    HW121449   4.744   2.869   3.128
 6850SOL    HW221450   4.758   2.929   2.977
 6851SOL     OW21451   1.325   2.345   2.426
 6851SOL    HW121452   1.314   2.267   2.365
 6851SOL    HW221453   1.238   2.394   2.434
 6852SOL     OW21454   3.072   5.322   0.979
 6852SOL    HW121455   2.996   5.384   1.000
 6852SOL    HW221456   3.078   5.253   1.050
 6853SOL     OW21457   5.189   3.717   6.266
 6853SOL    HW121458   5.275   3.769   6.268
 6853SOL    HW221459   5.185   3.658   6.347
 6854SOL     OW21460   5.809   0.472   5.923
 6854SOL    HW121461   5.718   0.500   5.892
 6854SOL    HW221462   5.802   0.432   6.015
 6855SOL     OW21463   4.091   5.779   3.704
 6855SOL    HW121464   4.165   5.804   3.642
 6855SOL    HW221465   4.072   5.856   3.766
 6856SOL     OW21466   0.715   2.246   5.674
 6856SOL    HW121467   0.693   2.155   5.709
 6856SOL    HW221468   0.786   2.238   5.603
 6857SOL     OW21469   0.813   3.178   6.768
 6857SOL    HW121470   0.887   3.244   6.755
 6857SOL    HW221471   0.846   3.087   6.745
 6858SOL     OW21472   3.556   4.333   1.736
 6858SOL    HW121473   3.519   4.418   1.700
 6858SOL    HW221474   3.591   4.348   1.829
 6859SOL     OW21475   0.630   0.726   1.879
 6859SOL    HW121476   0.593   0.764   1.794
 6859SOL    HW221477   0.568   0.747   1.954
 6860SOL     OW21478   6.485   4.778   1.740
 6860SOL    HW121479   6.417   4.848   1.757
 6860SOL    HW221480   6.439   4.692   1.715
 6861SOL     OW21481   4.830   3.704   6.247
 6861SOL    HW121482   4.896   3.667   6.182
 6861SOL    HW221483   4.787   3.786   6.209
 6862SOL     OW21484   0.477   4.980   5.631
 6862SOL    HW121485   0.473   4.952   5.727
 6862SOL    HW221486   0.398   5.037   5.609
 6863SOL     OW21487   6.814   6.296   5.260
 6863SOL    HW121488   6.780   6.243   5.338
 6863SOL    HW221489   6.913   6.308   5.268
 6864SOL     OW21490   2.289   4.494   5.210
 6864SOL    HW121491   2.346   4.433   5.266
 6864SOL    HW221492   2.230   4.439   5.151
 6865SOL     OW21493   1.211   0.292   5.360
 6865SOL    HW121494   1.255   0.382   5.371
 6865SOL    HW221495   1.222   0.261   5.266
 6866SOL     OW21496   6.280   4.680   2.508
 6866SOL    HW121497   6.347   4.721   2.570
 6866SOL    HW221498   6.251   4.749   2.441
 6867SOL     OW21499   2.055   3.861   1.112
 6867SOL    HW121500   2.019   3.816   1.193
 6867SOL    HW221501   2.143   3.821   1.087
 6868SOL     OW21502   2.526   6.545   5.120
 6868SOL    HW121503   2.543   6.582   5.029
 6868SOL    HW221504   2.605   6.491   5.150
 6869SOL     OW21505   4.294   0.860   5.898
 6869SOL    HW121506   4.387   0.884   5.926
 6869SOL    HW221507   4.230   0.930   5.929
 6870SOL     OW21508   0.113   3.803   1.013
 6870SOL    HW121509   0.203   3.839   1.039
 6870SOL    HW221510   0.044   3.835   1.078
 6871SOL     OW21511   6.780   4.002   2.682
 6871SOL    HW121512   6.831   4.085   2.702
 6871SOL    HW221513   6.826   3.923   2.723
 6872SOL     OW21514   0.831   2.596   2.071
 6872SOL    HW121515   0.785   2.530   2.012
 6872SOL    HW221516   0.764   2.662   2.106
 6873SOL     OW21517   1.123   4.311   3.672
 6873SOL    HW121518   1.152   4.354   3.758
 6873SOL    HW221519   1.112   4.381   3.602
 6874SOL     OW21520   6.714   5.795   3.559
 6874SOL    HW121521   6.693   5.758   3.650
 6874SOL    HW221522   6.764   5.881   3.569
 6875SOL     OW21523   2.201   2.036   2.374
 6875SOL    HW121524   2.253   1.952   2.358
 6875SOL    HW221525   2.110   2.028   2.333
 6876SOL     OW21526   3.287   0.152   3.715
 6876SOL    HW121527   3.233   0.214   3.660
 6876SOL    HW221528   3.253   0.059   3.705
 6877SOL     OW21529   3.262   4.300   1.704
 6877SOL    HW121530   3.301   4.237   1.636
 6877SOL    HW221531   3.221   4.247   1.778
 6878SOL     OW21532   2.656   2.090   3.257
 6878SOL    HW121533   2.558   2.095   3.274
 6878SOL    HW221534   2.674   2.099   3.159
 6879SOL     OW21535   2.391   2.700   0.289
 6879SOL    HW121536   2.475   2.730   0.245
 6879SOL    HW221537   2.409   2.676   0.384
 6880SOL     OW21538   1.336   6.768   5.947
 6880SOL    HW121539   1.387   6.853   5.959
 6880SOL    HW221540   1.245   6.788   5.911
 6881SOL     OW21541   1.474   3.249   1.438
 6881SOL    HW121542   1.455   3.177   1.505
 6881SOL    HW221543   1.550   3.305   1.470
 6882SOL     OW21544   2.750   1.129   0.540
 6882SOL    HW121545   2.662   1.161   0.504
 6882SOL    HW221546   2.766   1.171   0.630
 6883SOL     OW21547   5.654   1.090   5.991
 6883SOL    HW121548   5.666   0.993   6.010
 6883SOL    HW221549   5.559   1.107   5.966
 6884SOL     OW21550   1.550   3.978   2.769
 6884SOL    HW121551   1.582   3.889   2.735
 6884SOL    HW221552   1.458   3.966   2.807
 6885SOL     OW21553   4.933   5.026   4.047
 6885SOL    HW121554   4.873   4.953   4.016
 6885SOL    HW221555   4.969   5.075   3.967
 6886SOL     OW21556   6.781   1.618   5.023
 6886SOL    HW121557   6.686   1.647   5.015
 6886SOL    HW221558   6.833   1.686   5.076
 6887SOL     OW21559   4.556   5.768   0.199
 6887SOL    HW121560   4.476   5.807   0.153
 6887SOL    HW221561   4.608   5.841   0.243
 6888SOL     OW21562   5.076   4.407   6.242
 6888SOL    HW121563   4.999   4.453   6.287
 6888SOL    HW221564   5.161   4.450   6.271
 6889SOL     OW21565   2.158   2.382   5.781
 6889SOL    HW121566   2.086   2.419   5.840
 6889SOL    HW221567   2.121   2.370   5.689
 6890SOL     OW21568   3.854   5.866   2.972
 6890SOL    HW121569   3.863   5.958   3.011
 6890SOL    HW221570   3.805   5.807   3.036
 6891SOL     OW21571   2.116   2.950   1.429
 6891SOL    HW121572   2.104   2.850   1.430
 6891SOL    HW221573   2.212   2.972   1.445
 6892SOL     OW21574   3.007   1.194   3.710
 6892SOL    HW121575   3.040   1.148   3.628
 6892SOL    HW221576   2.917   1.158   3.735
 6893SOL     OW21577   5.708   3.235   0.367
 6893SOL    HW121578   5.704   3.284   0.454
 6893SOL    HW221579   5.625   3.255   0.315
 6894SOL     OW21580   5.142   4.717   1.080
 6894SOL    HW121581   5.046   4.714   1.106
 6894SOL    HW221582   5.187   4.791   1.131
 6895SOL     OW21583   2.119   5.520   0.848
 6895SOL    HW121584   2.112   5.458   0.926
 6895SOL    HW221585   2.028   5.548   0.819
 6896SOL     OW21586   2.988   1.632   3.908
 6896SOL    HW121587   3.039   1.574   3.845
 6896SOL    HW221588   3.044   1.710   3.934
 6897SOL     OW21589   4.912   3.887   5.087
 6897SOL    HW121590   4.928   3.823   5.163
 6897SOL    HW221591   4.861   3.840   5.015
 6898SOL     OW21592   3.177   1.234   1.923
 6898SOL    HW121593   3.259   1.181   1.944
 6898SOL    HW221594   3.099   1.197   1.975
 6899SOL     OW21595   4.694   6.393   2.833
 6899SOL    HW121596   4.650   6.315   2.878
 6899SOL    HW221597   4.680   6.476   2.887
 6900SOL     OW21598   6.950   4.906   5.795
 6900SOL    HW121599   0.025   4.885   5.803
 6900SOL    HW221600   6.909   4.909   5.886
 6901SOL     OW21601   4.463   5.185   6.009
 6901SOL    HW121602   4.392   5.214   5.945
 6901SOL    HW221603   4.549   5.172   5.959
 6902SOL     OW21604   6.608   5.909   5.341
 6902SOL    HW121605   6.578   5.961   5.261
 6902SOL    HW221606   6.570   5.949   5.424
 6903SOL     OW21607   3.068   4.713   5.273
 6903SOL    HW121608   3.001   4.652   5.231
 6903SOL    HW221609   3.063   4.803   5.231
 6904SOL     OW21610   6.430   6.588   5.501
 6904SOL    HW121611   6.391   6.604   5.592
 6904SOL    HW221612   6.431   6.490   5.480
 6905SOL     OW21613   5.681   5.240   6.789
 6905SOL    HW121614   5.670   5.142   6.778
 6905SOL    HW221615   5.761   5.259   6.845
 6906SOL     OW21616   3.388   1.118   3.145
 6906SOL    HW121617   3.430   1.206   3.128
 6906SOL    HW221618   3.316   1.101   3.077
 6907SOL     OW21619   6.493   2.638   1.888
 6907SOL    HW121620   6.501   2.687   1.801
 6907SOL    HW221621   6.397   2.615   1.904
 6908SOL     OW21622   2.459   5.010   6.626
 6908SOL    HW121623   2.528   5.065   6.674
 6908SOL    HW221624   2.504   4.953   6.557
 6909SOL     OW21625   5.542   4.644   1.776
 6909SOL    HW121626   5.546   4.588   1.693
 6909SOL    HW221627   5.512   4.588   1.853
 6910SOL     OW21628   1.692   2.466   2.853
 6910SOL    HW121629   1.697   2.379   2.804
 6910SOL    HW221630   1.650   2.453   2.942
 6911SOL     OW21631   4.240   7.010   4.866
 6911SOL    HW121632   4.245   6.976   4.772
 6911SOL    HW221633   4.239   6.932   4.929
 6912SOL     OW21634   2.458   3.252   6.748
 6912SOL    HW121635   2.478   3.350   6.752
 6912SOL    HW221636   2.382   3.232   6.809
 6913SOL     OW21637   5.116   6.553   4.726
 6913SOL    HW121638   5.055   6.476   4.705
 6913SOL    HW221639   5.147   6.546   4.820
 6914SOL     OW21640   6.323   4.263   3.163
 6914SOL    HW121641   6.224   4.275   3.150
 6914SOL    HW221642   6.365   4.236   3.077
 6915SOL     OW21643   0.985   2.327   2.495
 6915SOL    HW121644   0.975   2.419   2.459
 6915SOL    HW221645   0.894   2.285   2.505
 6916SOL     OW21646   5.455   1.437   5.908
 6916SOL    HW121647   5.513   1.461   5.830
 6916SOL    HW221648   5.473   1.499   5.984
 6917SOL     OW21649   4.401   5.915   2.066
 6917SOL    HW121650   4.422   5.920   2.163
 6917SOL    HW221651   4.411   5.821   2.034
 6918SOL     OW21652   0.029   2.555   3.364
 6918SOL    HW121653   0.110   2.497   3.368
 6918SOL    HW221654   7.012   2.563   3.455
 6919SOL     OW21655   6.569   6.180   3.301
 6919SOL    HW121656   6.592   6.083   3.306
 6919SOL    HW221657   6.469   6.191   3.307
 6920SOL     OW21658   5.597   6.916   6.012
 6920SOL    HW121659   5.531   6.872   6.072
 6920SOL    HW221660   5.550   6.980   5.952
 6921SOL     OW21661   3.979   0.386   3.705
 6921SOL    HW121662   4.072   0.362   3.677
 6921SOL    HW221663   3.963   0.482   3.685
 6922SOL     OW21664   1.854   6.250   5.093
 6922SOL    HW121665   1.870   6.170   5.037
 6922SOL    HW221666   1.761   6.249   5.129
 6923SOL     OW21667   6.104   6.384   2.385
 6923SOL    HW121668   6.093   6.482   2.403
 6923SOL    HW221669   6.110   6.370   2.286
 6924SOL     OW21670   2.999   5.173   0.572
 6924SOL    HW121671   2.962   5.240   0.636
 6924SOL    HW221672   2.981   5.201   0.478
 6925SOL     OW21673   4.469   5.547   5.422
 6925SOL    HW121674   4.469   5.579   5.517
 6925SOL    HW221675   4.489   5.623   5.361
 6926SOL     OW21676   1.989   2.139   0.576
 6926SOL    HW121677   2.016   2.067   0.640
 6926SOL    HW221678   2.022   2.227   0.609
 6927SOL     OW21679   3.436   1.643   6.722
 6927SOL    HW121680   3.509   1.707   6.746
 6927SOL    HW221681   3.355   1.662   6.778
 6928SOL     OW21682   4.900   5.828   1.006
 6928SOL    HW121683   4.880   5.738   0.967
 6928SOL    HW221684   4.915   5.893   0.931
 6929SOL     OW21685   5.212   5.930   1.709
 6929SOL    HW121686   5.141   5.959   1.645
 6929SOL    HW221687   5.205   5.832   1.724
 6930SOL     OW21688   0.667   0.837   0.594
 6930SOL    HW121689   0.719   0.905   0.645
 6930SOL    HW221690   0.655   0.755   0.650
 6931SOL     OW21691   1.608   1.733   1.482
 6931SOL    HW121692   1.575   1.763   1.571
 6931SOL    HW221693   1.659   1.807   1.438
 6932SOL     OW21694   4.944   5.561   1.293
 6932SOL    HW121695   4.952   5.661   1.300
 6932SOL    HW221696   4.867   5.538   1.233
 6933SOL     OW21697   3.461   6.824   6.202
 6933SOL    HW121698   3.421   6.732   6.200
 6933SOL    HW221699   3.415   6.880   6.270
 6934SOL     OW21700   5.250   3.490   5.762
 6934SOL    HW121701   5.264   3.545   5.845
 6934SOL    HW221702   5.203   3.405   5.786
 6935SOL     OW21703   4.291   5.848   2.656
 6935SOL    HW121704   4.297   5.761   2.607
 6935SOL    HW221705   4.322   5.922   2.597
 6936SOL     OW21706   0.041   2.450   4.116
 6936SOL    HW121707   7.017   2.536   4.139
 6936SOL    HW221708   0.127   2.444   4.168
 6937SOL     OW21709   5.762   6.434   0.886
 6937SOL    HW121710   5.702   6.436   0.806
 6937SOL    HW221711   5.801   6.343   0.896
 6938SOL     OW21712   0.516   1.852   4.320
 6938SOL    HW121713   0.576   1.832   4.397
 6938SOL    HW221714   0.493   1.949   4.318
 6939SOL     OW21715   6.344   5.461   3.034
 6939SOL    HW121716   6.359   5.533   2.966
 6939SOL    HW221717   6.342   5.502   3.125
 6940SOL     OW21718   4.161   6.583   0.200
 6940SOL    HW121719   4.231   6.569   0.270
 6940SOL    HW221720   4.204   6.614   0.115
 6941SOL     OW21721   3.011   3.801   2.372
 6941SOL    HW121722   3.075   3.792   2.448
 6941SOL    HW221723   3.037   3.880   2.316
 6942SOL     OW21724   6.079   6.983   1.765
 6942SOL    HW121725   6.016   6.947   1.696
 6942SOL    HW221726   6.120   6.906   1.815
 6943SOL     OW21727   4.017   4.779   0.253
 6943SOL    HW121728   3.990   4.875   0.261
 6943SOL    HW221729   4.112   4.769   0.280
 6944SOL     OW21730   0.914   5.110   6.297
 6944SOL    HW121731   0.883   5.088   6.390
 6944SOL    HW221732   0.897   5.207   6.279
 6945SOL     OW21733   6.968   2.607   1.427
 6945SOL    HW121734   6.869   2.605   1.440
 6945SOL    HW221735   7.011   2.536   1.484
 6946SOL     OW21736   3.829   6.116   1.911
 6946SOL    HW121737   3.854   6.165   1.994
 6946SOL    HW221738   3.856   6.020   1.919
 6947SOL     OW21739   4.147   5.076   6.350
 6947SOL    HW121740   4.135   4.982   6.316
 6947SOL    HW221741   4.108   5.083   6.442
 6948SOL     OW21742   0.867   5.871   1.165
 6948SOL    HW121743   0.929   5.839   1.094
 6948SOL    HW221744   0.877   5.815   1.246
 6949SOL     OW21745   2.707   2.115   2.978
 6949SOL    HW121746   2.668   2.145   2.890
 6949SOL    HW221747   2.764   2.034   2.963
 6950SOL     OW21748   1.888   0.312   4.563
 6950SOL    HW121749   1.859   0.386   4.503
 6950SOL    HW221750   1.912   0.232   4.509
 6951SOL     OW21751   6.504   5.946   6.521
 6951SOL    HW121752   6.508   6.019   6.589
 6951SOL    HW221753   6.583   5.886   6.532
 6952SOL     OW21754   2.326   5.082   2.891
 6952SOL    HW121755   2.324   5.078   2.791
 6952SOL    HW221756   2.403   5.138   2.921
 6953SOL     OW21757   4.841   7.017   0.333
 6953SOL    HW121758   4.754   7.009   0.382
 6953SOL    HW221759   4.900   6.940   0.357
 6954SOL     OW21760   0.040   3.743   1.655
 6954SOL    HW121761   0.043   3.786   1.746
 6954SOL    HW221762   6.969   3.738   1.623
 6955SOL     OW21763   4.699   0.635   2.264
 6955SOL    HW121764   4.669   0.726   2.292
 6955SOL    HW221765   4.799   0.635   2.252
 6956SOL     OW21766   4.972   5.472   3.141
 6956SOL    HW121767   5.018   5.445   3.056
 6956SOL    HW221768   4.876   5.492   3.122
 6957SOL     OW21769   6.139   6.158   0.201
 6957SOL    HW121770   6.185   6.096   0.264
 6957SOL    HW221771   6.140   6.119   0.109
 6958SOL     OW21772   3.491   3.580   3.997
 6958SOL    HW121773   3.406   3.541   4.031
 6958SOL    HW221774   3.474   3.673   3.963
 6959SOL     OW21775   1.726   3.618   2.716
 6959SOL    HW121776   1.784   3.670   2.779
 6959SOL    HW221777   1.717   3.524   2.749
 6960SOL     OW21778   2.617   4.215   1.050
 6960SOL    HW121779   2.687   4.216   1.121
 6960SOL    HW221780   2.591   4.121   1.029
 6961SOL     OW21781   5.247   1.120   4.809
 6961SOL    HW121782   5.204   1.120   4.899
 6961SOL    HW221783   5.346   1.129   4.819
 6962SOL     OW21784   4.618   5.722   1.086
 6962SOL    HW121785   4.538   5.734   1.028
 6962SOL    HW221786   4.645   5.810   1.125
 6963SOL     OW21787   5.460   4.603   0.166
 6963SOL    HW121788   5.543   4.589   0.112
 6963SOL    HW221789   5.396   4.528   0.146
 6964SOL     OW21790   3.560   0.192   5.395
 6964SOL    HW121791   3.638   0.224   5.342
 6964SOL    HW221792   3.551   0.247   5.478
 6965SOL     OW21793   1.859   1.884   0.119
 6965SOL    HW121794   1.846   1.979   0.148
 6965SOL    HW221795   1.865   1.825   0.199
 6966SOL     OW21796   0.988   0.563   2.448
 6966SOL    HW121797   0.960   0.496   2.378
 6966SOL    HW221798   1.087   0.566   2.453
 6967SOL     OW21799   3.469   1.322   5.911
 6967SOL    HW121800   3.390   1.263   5.925
 6967SOL    HW221801   3.445   1.398   5.851
 6968SOL     OW21802   2.368   0.931   3.117
 6968SOL    HW121803   2.467   0.924   3.102
 6968SOL    HW221804   2.349   1.011   3.174
 6969SOL     OW21805   3.418   2.049   1.261
 6969SOL    HW121806   3.481   2.110   1.308
 6969SOL    HW221807   3.462   1.960   1.247
 6970SOL     OW21808   4.055   3.889   5.561
 6970SOL    HW121809   4.091   3.959   5.623
 6970SOL    HW221810   4.131   3.834   5.526
 6971SOL     OW21811   5.597   5.006   1.376
 6971SOL    HW121812   5.575   5.011   1.279
 6971SOL    HW221813   5.619   5.097   1.411
 6972SOL     OW21814   5.438   3.340   2.239
 6972SOL    HW121815   5.417   3.346   2.141
 6972SOL    HW221816   5.475   3.249   2.260
 6973SOL     OW21817   0.872   2.590   3.487
 6973SOL    HW121818   0.848   2.532   3.564
 6973SOL    HW221819   0.809   2.572   3.411
 6974SOL     OW21820   2.918   3.658   2.607
 6974SOL    HW121821   2.880   3.725   2.543
 6974SOL    HW221822   2.887   3.567   2.581
 6975SOL     OW21823   2.192   6.631   4.731
 6975SOL    HW121824   2.095   6.655   4.724
 6975SOL    HW221825   2.211   6.593   4.822
 6976SOL     OW21826   5.717   4.178   5.720
 6976SOL    HW121827   5.701   4.265   5.767
 6976SOL    HW221828   5.656   4.172   5.641
 6977SOL     OW21829   4.101   3.982   1.240
 6977SOL    HW121830   4.061   3.954   1.327
 6977SOL    HW221831   4.196   3.951   1.237
 6978SOL     OW21832   5.107   3.089   1.271
 6978SOL    HW121833   5.128   3.030   1.349
 6978SOL    HW221834   5.082   3.032   1.192
 6979SOL     OW21835   1.509   3.098   1.215
 6979SOL    HW121836   1.487   3.154   1.294
 6979SOL    HW221837   1.424   3.063   1.174
 6980SOL     OW21838   1.874   1.049   3.451
 6980SOL    HW121839   1.938   1.040   3.374
 6980SOL    HW221840   1.832   0.961   3.470
 6981SOL     OW21841   3.510   3.359   5.840
 6981SOL    HW121842   3.604   3.382   5.813
 6981SOL    HW221843   3.498   3.379   5.938
 6982SOL     OW21844   0.932   0.796   3.886
 6982SOL    HW121845   0.901   0.871   3.828
 6982SOL    HW221846   1.016   0.825   3.934
 6983SOL     OW21847   5.058   1.431   4.966
 6983SOL    HW121848   4.984   1.391   4.911
 6983SOL    HW221849   5.021   1.458   5.055
 6984SOL     OW21850   1.567   1.845   2.458
 6984SOL    HW121851   1.504   1.872   2.531
 6984SOL    HW221852   1.515   1.798   2.386
 6985SOL     OW21853   6.265   5.200   0.084
 6985SOL    HW121854   6.253   5.220   0.181
 6985SOL    HW221855   6.208   5.262   0.030
 6986SOL     OW21856   3.480   6.867   6.552
 6986SOL    HW121857   3.566   6.818   6.536
 6986SOL    HW221858   3.466   6.878   6.650
 6987SOL     OW21859   0.026   1.625   5.651
 6987SOL    HW121860   0.023   1.628   5.751
 6987SOL    HW221861   0.106   1.573   5.622
 6988SOL     OW21862   1.851   0.140   6.173
 6988SOL    HW121863   1.926   0.166   6.233
 6988SOL    HW221864   1.773   0.201   6.189
 6989SOL     OW21865   6.475   4.796   2.633
 6989SOL    HW121866   6.433   4.774   2.720
 6989SOL    HW221867   6.517   4.887   2.638
 6990SOL     OW21868   3.939   2.893   1.693
 6990SOL    HW121869   3.882   2.812   1.675
 6990SOL    HW221870   4.019   2.890   1.633
 6991SOL     OW21871   5.462   4.233   3.202
 6991SOL    HW121872   5.550   4.227   3.154
 6991SOL    HW221873   5.474   4.208   3.298
 6992SOL     OW21874   6.970   5.845   0.391
 6992SOL    HW121875   6.890   5.799   0.431
 6992SOL    HW221876   6.951   5.943   0.382
 6993SOL     OW21877   6.420   0.506   1.597
 6993SOL    HW121878   6.477   0.493   1.678
 6993SOL    HW221879   6.379   0.419   1.570
 6994SOL     OW21880   1.647   0.768   4.235
 6994SOL    HW121881   1.741   0.739   4.214
 6994SOL    HW221882   1.649   0.857   4.280
 6995SOL     OW21883   0.124   4.233   0.249
 6995SOL    HW121884   0.163   4.278   0.329
 6995SOL    HW221885   0.040   4.279   0.221
 6996SOL     OW21886   1.065   0.582   0.833
 6996SOL    HW121887   1.047   0.529   0.750
 6996SOL    HW221888   1.070   0.520   0.911
 6997SOL     OW21889   0.237   4.913   4.901
 6997SOL    HW121890   0.229   4.917   5.001
 6997SOL    HW221891   0.259   5.004   4.866
 6998SOL     OW21892   0.878   1.683   1.576
 6998SOL    HW121893   0.836   1.684   1.486
 6998SOL    HW221894   0.948   1.755   1.580
 6999SOL     OW21895   1.090   2.448   6.230
 6999SOL    HW121896   0.996   2.446   6.196
 6999SOL    HW221897   1.110   2.364   6.280
 7000SOL     OW21898   5.915   0.750   1.818
 7000SOL    HW121899   5.855   0.705   1.884
 7000SOL    HW221900   6.001   0.774   1.863
 7001SOL     OW21901   1.029   1.851   5.792
 7001SOL    HW121902   0.935   1.869   5.821
 7001SOL    HW221903   1.079   1.937   5.785
 7002SOL     OW21904   1.684   5.400   3.937
 7002SOL    HW121905   1.652   5.394   4.032
 7002SOL    HW221906   1.742   5.480   3.925
 7003SOL     OW21907   5.227   5.231   1.541
 7003SOL    HW121908   5.202   5.265   1.450
 7003SOL    HW221909   5.250   5.134   1.534
 7004SOL     OW21910   0.961   5.289   0.508
 7004SOL    HW121911   0.886   5.332   0.559
 7004SOL    HW221912   0.936   5.195   0.486
 7005SOL     OW21913   0.929   0.389   0.015
 7005SOL    HW121914   1.025   0.372   7.019
 7005SOL    HW221915   0.883   0.420   6.954
 7006SOL     OW21916   6.544   6.451   3.171
 7006SOL    HW121917   6.513   6.463   3.266
 7006SOL    HW221918   6.625   6.393   3.170
 7007SOL     OW21919   4.333   0.558   5.059
 7007SOL    HW121920   4.386   0.527   4.979
 7007SOL    HW221921   4.269   0.486   5.086
 7008SOL     OW21922   6.618   4.391   3.995
 7008SOL    HW121923   6.589   4.442   4.076
 7008SOL    HW221924   6.714   4.364   4.005
 7009SOL     OW21925   4.414   6.679   1.614
 7009SOL    HW121926   4.461   6.759   1.575
 7009SOL    HW221927   4.328   6.664   1.565
 7010SOL     OW21928   5.753   4.539   3.384
 7010SOL    HW121929   5.673   4.566   3.330
 7010SOL    HW221930   5.729   4.539   3.481
 7011SOL     OW21931   3.971   6.844   0.635
 7011SOL    HW121932   3.899   6.821   0.700
 7011SOL    HW221933   3.934   6.846   0.542
 7012SOL     OW21934   1.406   2.213   1.388
 7012SOL    HW121935   1.479   2.252   1.331
 7012SOL    HW221936   1.320   2.214   1.337
 7013SOL     OW21937   2.515   0.534   6.325
 7013SOL    HW121938   2.448   0.508   6.255
 7013SOL    HW221939   2.469   0.588   6.396
 7014SOL     OW21940   5.421   3.288   1.187
 7014SOL    HW121941   5.328   3.254   1.172
 7014SOL    HW221942   5.444   3.353   1.115
 7015SOL     OW21943   5.827   4.766   2.249
 7015SOL    HW121944   5.805   4.716   2.333
 7015SOL    HW221945   5.825   4.703   2.171
 7016SOL     OW21946   3.671   5.200   1.118
 7016SOL    HW121947   3.672   5.226   1.215
 7016SOL    HW221948   3.702   5.105   1.109
 7017SOL     OW21949   2.698   4.956   3.231
 7017SOL    HW121950   2.727   5.025   3.164
 7017SOL    HW221951   2.645   4.886   3.184
 7018SOL     OW21952   5.375   3.824   4.327
 7018SOL    HW121953   5.329   3.736   4.339
 7018SOL    HW221954   5.472   3.814   4.346
 7019SOL     OW21955   4.506   5.544   2.133
 7019SOL    HW121956   4.571   5.470   2.146
 7019SOL    HW221957   4.552   5.632   2.141
 7020SOL     OW21958   0.431   3.769   6.985
 7020SOL    HW121959   0.398   3.676   6.966
 7020SOL    HW221960   0.353   3.830   6.995
 7021SOL     OW21961   1.368   3.030   4.683
 7021SOL    HW121962   1.447   3.034   4.622
 7021SOL    HW221963   1.396   3.053   4.776
 7022SOL     OW21964   4.473   0.625   6.978
 7022SOL    HW121965   4.541   0.601   0.025
 7022SOL    HW221966   4.501   0.710   6.933
 7023SOL     OW21967   0.215   2.490   1.309
 7023SOL    HW121968   0.161   2.464   1.389
 7023SOL    HW221969   0.259   2.578   1.325
 7024SOL     OW21970   3.793   3.234   3.123
 7024SOL    HW121971   3.885   3.230   3.160
 7024SOL    HW221972   3.727   3.244   3.198
 7025SOL     OW21973   3.633   0.548   0.410
 7025SOL    HW121974   3.627   0.571   0.507
 7025SOL    HW221975   3.724   0.571   0.376
 7026SOL     OW21976   3.799   2.077   2.243
 7026SOL    HW121977   3.702   2.070   2.264
 7026SOL    HW221978   3.812   2.129   2.159
 7027SOL     OW21979   2.348   6.139   3.647
 7027SOL    HW121980   2.332   6.095   3.736
 7027SOL    HW221981   2.290   6.097   3.578
 7028SOL     OW21982   2.610   0.084   3.773
 7028SOL    HW121983   2.651   0.001   3.811
 7028SOL    HW221984   2.673   0.160   3.781
 7029SOL     OW21985   3.578   3.787   5.637
 7029SOL    HW121986   3.542   3.876   5.609
 7029SOL    HW221987   3.669   3.798   5.677
 7030SOL     OW21988   0.685   1.919   4.816
 7030SOL    HW121989   0.781   1.934   4.839
 7030SOL    HW221990   0.631   1.908   4.900
 7031SOL     OW21991   4.373   6.291   0.716
 7031SOL    HW121992   4.350   6.371   0.661
 7031SOL    HW221993   4.447   6.241   0.672
 7032SOL     OW21994   4.315   0.756   3.696
 7032SOL    HW121995   4.270   0.737   3.783
 7032SOL    HW221996   4.275   0.838   3.655
 7033SOL     OW21997   1.555   2.719   4.146
 7033SOL    HW121998   1.570   2.817   4.152
 7033SOL    HW221999   1.588   2.685   4.058
 7034SOL     OW22000   6.540   2.832   3.354
 7034SOL    HW122001   6.615   2.821   3.418
 7034SOL    HW222002   6.557   2.778   3.272
 7035SOL     OW22003   2.507   0.157   1.307
 7035SOL    HW122004   2.502   0.173   1.209
 7035SOL    HW222005   2.445   0.083   1.332
 7036SOL     OW22006   0.177   2.049   2.461
 7036SOL    HW122007   0.129   2.063   2.375
 7036SOL    HW222008   0.136   2.105   2.533
 7037SOL     OW22009   0.360   1.458   6.027
 7037SOL    HW122010   0.288   1.408   6.075
 7037SOL    HW222011   0.422   1.500   6.095
 7038SOL     OW22012   2.457   4.587   5.777
 7038SOL    HW122013   2.398   4.668   5.780
 7038SOL    HW222014   2.433   4.526   5.853
 7039SOL     OW22015   0.336   5.828   3.599
 7039SOL    HW122016   0.272   5.898   3.566
 7039SOL    HW222017   0.429   5.864   3.594
 7040SOL     OW22018   4.526   2.210   5.053
 7040SOL    HW122019   4.565   2.146   5.120
 7040SOL    HW222020   4.502   2.160   4.970
 7041SOL     OW22021   1.145   1.545   3.688
 7041SOL    HW122022   1.217   1.584   3.746
 7041SOL    HW222023   1.059   1.595   3.703
 7042SOL     OW22024   4.256   5.688   4.700
 7042SOL    HW122025   4.171   5.643   4.672
 7042SOL    HW222026   4.321   5.687   4.624
 7043SOL     OW22027   2.562   4.614   3.690
 7043SOL    HW122028   2.523   4.544   3.630
 7043SOL    HW222029   2.594   4.571   3.775
 7044SOL     OW22030   4.876   0.391   4.964
 7044SOL    HW122031   4.954   0.352   4.915
 7044SOL    HW222032   4.909   0.456   5.033
 7045SOL     OW22033   5.659   5.406   2.484
 7045SOL    HW122034   5.737   5.467   2.497
 7045SOL    HW222035   5.602   5.405   2.566
 7046SOL     OW22036   3.266   2.111   3.885
 7046SOL    HW122037   3.358   2.118   3.848
 7046SOL    HW222038   3.207   2.180   3.843
 7047SOL     OW22039   0.371   0.991   1.012
 7047SOL    HW122040   0.416   0.954   1.093
 7047SOL    HW222041   0.333   0.916   0.958
 7048SOL     OW22042   5.857   6.603   4.582
 7048SOL    HW122043   5.861   6.661   4.664
 7048SOL    HW222044   5.763   6.601   4.547
 7049SOL     OW22045   3.958   1.096   2.323
 7049SOL    HW122046   3.872   1.046   2.320
 7049SOL    HW222047   3.956   1.171   2.258
 7050SOL     OW22048   3.761   4.656   0.823
 7050SOL    HW122049   3.791   4.696   0.736
 7050SOL    HW222050   3.825   4.682   0.895
 7051SOL     OW22051   6.491   6.585   1.258
 7051SOL    HW122052   6.508   6.666   1.202
 7051SOL    HW222053   6.533   6.505   1.215
 7052SOL     OW22054   5.773   6.877   3.547
 7052SOL    HW122055   5.858   6.917   3.582
 7052SOL    HW222056   5.777   6.777   3.559
 7053SOL     OW22057   2.101   3.779   3.876
 7053SOL    HW122058   2.059   3.821   3.795
 7053SOL    HW222059   2.128   3.851   3.940
 7054SOL     OW22060   6.922   6.867   0.999
 7054SOL    HW122061   7.003   6.920   1.025
 7054SOL    HW222062   6.911   6.790   1.062
 7055SOL     OW22063   2.709   0.522   0.207
 7055SOL    HW122064   2.634   0.515   0.141
 7055SOL    HW222065   2.794   0.490   0.165
 7056SOL     OW22066   6.839   5.509   1.015
 7056SOL    HW122067   6.752   5.556   1.033
 7056SOL    HW222068   6.915   5.570   1.040
 7057SOL     OW22069   2.899   5.418   4.466
 7057SOL    HW122070   2.994   5.400   4.493
 7057SOL    HW222071   2.842   5.341   4.495
 7058SOL     OW22072   5.524   2.066   6.598
 7058SOL    HW122073   5.535   2.164   6.581
 7058SOL    HW222074   5.550   2.045   6.692
 7059SOL     OW22075   1.547   1.214   4.825
 7059SOL    HW122076   1.643   1.187   4.836
 7059SOL    HW222077   1.535   1.258   4.736
 7060SOL     OW22078   3.572   6.424   2.005
 7060SOL    HW122079   3.644   6.467   2.059
 7060SOL    HW222080   3.607   6.406   1.913
 7061SOL     OW22081   0.632   2.377   2.192
 7061SOL    HW122082   0.664   2.399   2.100
 7061SOL    HW222083   0.709   2.377   2.255
 7062SOL     OW22084   4.209   1.992   4.234
 7062SOL    HW122085   4.215   1.897   4.203
 7062SOL    HW222086   4.207   1.994   4.334
 7063SOL     OW22087   0.578   6.312   2.238
 7063SOL    HW122088   0.541   6.266   2.319
 7063SOL    HW222089   0.507   6.370   2.198
 7064SOL     OW22090   4.643   1.739   6.106
 7064SOL    HW122091   4.564   1.721   6.165
 7064SOL    HW222092   4.701   1.658   6.102
 7065SOL     OW22093   3.402   4.442   5.337
 7065SOL    HW122094   3.358   4.354   5.321
 7065SOL    HW222095   3.493   4.428   5.375
 7066SOL     OW22096   4.618   1.013   6.588
 7066SOL    HW122097   4.567   1.068   6.654
 7066SOL    HW222098   4.701   1.061   6.561
 7067SOL     OW22099   1.338   3.449   6.873
 7067SOL    HW122100   1.242   3.461   6.850
 7067SOL    HW222101   1.390   3.530   6.845
 7068SOL     OW22102   5.758   4.654   4.127
 7068SOL    HW122103   5.689   4.727   4.125
 7068SOL    HW222104   5.845   4.690   4.093
 7069SOL     OW22105   5.983   1.807   5.489
 7069SOL    HW122106   6.034   1.809   5.575
 7069SOL    HW222107   5.894   1.764   5.505
 7070SOL     OW22108   0.605   6.816   4.744
 7070SOL    HW122109   0.594   6.728   4.790
 7070SOL    HW222110   0.517   6.849   4.711
 7071SOL     OW22111   4.998   6.430   6.628
 7071SOL    HW122112   4.973   6.452   6.533
 7071SOL    HW222113   4.977   6.508   6.687
 7072SOL     OW22114   1.636   4.153   6.833
 7072SOL    HW122115   1.606   4.130   6.741
 7072SOL    HW222116   1.613   4.249   6.852
 7073SOL     OW22117   3.808   0.219   2.977
 7073SOL    HW122118   3.771   0.127   2.988
 7073SOL    HW222119   3.744   0.286   3.014
 7074SOL     OW22120   0.000   3.573   4.075
 7074SOL    HW122121   0.096   3.604   4.074
 7074SOL    HW222122   7.020   3.474   4.063
 7075SOL     OW22123   3.039   4.901   4.960
 7075SOL    HW122124   2.944   4.882   4.985
 7075SOL    HW222125   3.073   4.978   5.015
 7076SOL     OW22126   5.905   3.312   1.739
 7076SOL    HW122127   6.001   3.338   1.746
 7076SOL    HW222128   5.898   3.225   1.690
 7077SOL     OW22129   2.371   4.532   2.757
 7077SOL    HW122130   2.457   4.515   2.805
 7077SOL    HW222131   2.359   4.631   2.746
 7078SOL     OW22132   5.163   6.708   0.611
 7078SOL    HW122133   5.233   6.647   0.650
 7078SOL    HW222134   5.131   6.771   0.681
 7079SOL     OW22135   1.291   6.618   4.162
 7079SOL    HW122136   1.304   6.615   4.063
 7079SOL    HW222137   1.292   6.525   4.198
 7080SOL     OW22138   3.852   1.827   4.541
 7080SOL    HW122139   3.856   1.867   4.449
 7080SOL    HW222140   3.795   1.745   4.538
 7081SOL     OW22141   1.309   6.782   0.292
 7081SOL    HW122142   1.363   6.824   0.219
 7081SOL    HW222143   1.272   6.695   0.259
 7082SOL     OW22144   6.756   3.706   1.613
 7082SOL    HW122145   6.738   3.688   1.709
 7082SOL    HW222146   6.680   3.670   1.558
 7083SOL     OW22147   0.068   1.750   2.162
 7083SOL    HW122148   7.016   1.736   2.096
 7083SOL    HW222149   0.056   1.839   2.207
 7084SOL     OW22150   0.222   5.788   4.997
 7084SOL    HW122151   0.230   5.691   5.022
 7084SOL    HW222152   0.158   5.833   5.060
 7085SOL     OW22153   6.896   2.364   2.623
 7085SOL    HW122154   6.871   2.290   2.561
 7085SOL    HW222155   6.891   2.451   2.574
 7086SOL     OW22156   5.994   0.239   0.059
 7086SOL    HW122157   6.044   0.168   0.109
 7086SOL    HW222158   6.014   0.230   6.984
 7087SOL     OW22159   5.256   3.471   2.763
 7087SOL    HW122160   5.276   3.433   2.673
 7087SOL    HW222161   5.333   3.455   2.824
 7088SOL     OW22162   5.851   2.007   5.069
 7088SOL    HW122163   5.942   2.017   5.027
 7088SOL    HW222164   5.786   1.975   5.000
 7089SOL     OW22165   3.025   4.847   2.694
 7089SOL    HW122166   3.118   4.814   2.711
 7089SOL    HW222167   3.015   4.872   2.598
 7090SOL     OW22168   3.016   1.246   0.810
 7090SOL    HW122169   2.962   1.188   0.871
 7090SOL    HW222170   3.082   1.189   0.760
 7091SOL     OW22171   0.860   0.746   0.956
 7091SOL    HW122172   0.798   0.681   0.998
 7091SOL    HW222173   0.938   0.698   0.916
 7092SOL     OW22174   4.413   2.682   6.259
 7092SOL    HW122175   4.494   2.725   6.299
 7092SOL    HW222176   4.440   2.627   6.179
 7093SOL     OW22177   3.464   3.989   1.434
 7093SOL    HW122178   3.540   4.042   1.396
 7093SOL    HW222179   3.461   4.003   1.533
 7094SOL     OW22180   1.793   6.395   5.346
 7094SOL    HW122181   1.860   6.449   5.398
 7094SOL    HW222182   1.840   6.343   5.275
 7095SOL     OW22183   3.147   4.517   5.521
 7095SOL    HW122184   3.242   4.501   5.494
 7095SOL    HW222185   3.145   4.564   5.609
 7096SOL     OW22186   6.898   0.929   1.237
 7096SOL    HW122187   6.971   0.938   1.169
 7096SOL    HW222188   6.916   0.991   1.313
 7097SOL     OW22189   5.363   0.366   2.220
 7097SOL    HW122190   5.395   0.338   2.310
 7097SOL    HW222191   5.409   0.451   2.194
 7098SOL     OW22192   1.954   6.953   4.823
 7098SOL    HW122193   1.979   0.023   4.794
 7098SOL    HW222194   1.996   6.933   4.911
 7099SOL     OW22195   3.564   1.983   3.988
 7099SOL    HW122196   3.525   1.992   3.897
 7099SOL    HW222197   3.652   2.032   3.991
 7100SOL     OW22198   0.396   4.044   0.853
 7100SOL    HW122199   0.346   4.017   0.935
 7100SOL    HW222200   0.403   3.966   0.791
 7101SOL     OW22201   2.542   6.658   4.855
 7101SOL    HW122202   2.602   6.726   4.812
 7101SOL    HW222203   2.560   6.568   4.814
 7102SOL     OW22204   5.214   0.641   0.941
 7102SOL    HW122205   5.275   0.648   0.862
 7102SOL    HW222206   5.119   0.637   0.910
 7103SOL     OW22207   5.198   5.151   1.991
 7103SOL    HW122208   5.233   5.068   1.948
 7103SOL    HW222209   5.246   5.167   2.077
 7104SOL     OW22210   5.179   3.187   3.045
 7104SOL    HW122211   5.275   3.161   3.042
 7104SOL    HW222212   5.171   3.286   3.055
 7105SOL     OW22213   3.968   3.958   4.457
 7105SOL    HW122214   4.067   3.963   4.469
 7105SOL    HW222215   3.944   3.878   4.403
 7106SOL     OW22216   3.615   3.083   1.091
 7106SOL    HW122217   3.669   3.025   1.152
 7106SOL    HW222218   3.666   3.166   1.070
 7107SOL     OW22219   4.053   0.352   6.806
 7107SOL    HW122220   4.044   0.434   6.864
 7107SOL    HW222221   4.092   0.378   6.718
 7108SOL     OW22222   2.561   6.498   2.756
 7108SOL    HW122223   2.613   6.451   2.684
 7108SOL    HW222224   2.591   6.592   2.764
 7109SOL     OW22225   1.526   0.447   6.818
 7109SOL    HW122226   1.531   0.359   6.771
 7109SOL    HW222227   1.617   0.487   6.825
 7110SOL     OW22228   3.405   6.666   4.290
 7110SOL    HW122229   3.467   6.683   4.214
 7110SOL    HW222230   3.398   6.749   4.346
 7111SOL     OW22231   1.216   1.134   3.688
 7111SOL    HW122232   1.275   1.065   3.647
 7111SOL    HW222233   1.135   1.089   3.728
 7112SOL     OW22234   2.399   4.392   4.713
 7112SOL    HW122235   2.441   4.477   4.746
 7112SOL    HW222236   2.411   4.320   4.782
 7113SOL     OW22237   2.805   5.449   5.145
 7113SOL    HW122238   2.785   5.494   5.232
 7113SOL    HW222239   2.852   5.362   5.162
 7114SOL     OW22240   4.494   5.410   1.593
 7114SOL    HW122241   4.553   5.478   1.549
 7114SOL    HW222242   4.466   5.444   1.683
 7115SOL     OW22243   5.387   4.642   6.769
 7115SOL    HW122244   5.456   4.581   6.808
 7115SOL    HW222245   5.406   4.656   6.672
 7116SOL     OW22246   5.747   4.241   3.645
 7116SOL    HW122247   5.802   4.321   3.669
 7116SOL    HW222248   5.733   4.184   3.726
 7117SOL     OW22249   6.010   6.956   4.204
 7117SOL    HW122250   5.933   6.902   4.236
 7117SOL    HW222251   5.978   0.024   4.177
 7118SOL     OW22252   3.688   4.382   5.411
 7118SOL    HW122253   3.691   4.308   5.478
 7118SOL    HW222254   3.735   4.354   5.327
 7119SOL     OW22255   5.205   1.021   5.062
 7119SOL    HW122256   5.135   1.000   5.130
 7119SOL    HW222257   5.243   0.937   5.025
 7120SOL     OW22258   5.429   1.471   1.314
 7120SOL    HW122259   5.377   1.392   1.343
 7120SOL    HW222260   5.373   1.528   1.253
 7121SOL     OW22261   0.922   6.589   3.650
 7121SOL    HW122262   0.838   6.536   3.637
 7121SOL    HW222263   0.994   6.529   3.683
 7122SOL     OW22264   2.649   6.780   5.775
 7122SOL    HW122265   2.591   6.766   5.694
 7122SOL    HW222266   2.684   6.691   5.806
 7123SOL     OW22267   6.209   4.889   4.760
 7123SOL    HW122268   6.131   4.828   4.747
 7123SOL    HW222269   6.175   4.981   4.782
 7124SOL     OW22270   1.433   2.447   1.886
 7124SOL    HW122271   1.378   2.478   1.963
 7124SOL    HW222272   1.385   2.466   1.800
 7125SOL     OW22273   0.507   0.232   2.007
 7125SOL    HW122274   0.480   0.277   2.092
 7125SOL    HW222275   0.541   0.300   1.942
 7126SOL     OW22276   3.993   6.301   1.298
 7126SOL    HW122277   3.923   6.287   1.229
 7126SOL    HW222278   4.063   6.363   1.263
 7127SOL     OW22279   3.395   6.177   5.578
 7127SOL    HW122280   3.323   6.136   5.521
 7127SOL    HW222281   3.411   6.271   5.548
 7128SOL     OW22282   3.857   4.035   6.833
 7128SOL    HW122283   3.894   3.943   6.824
 7128SOL    HW222284   3.906   4.085   6.904
 7129SOL     OW22285   7.018   1.851   0.431
 7129SOL    HW122286   6.984   1.903   0.509
 7129SOL    HW222287   6.942   1.832   0.368
 7130SOL     OW22288   3.010   0.432   4.688
 7130SOL    HW122289   3.096   0.415   4.640
 7130SOL    HW222290   3.000   0.531   4.705
 7131SOL     OW22291   3.200   1.016   2.196
 7131SOL    HW122292   3.259   0.994   2.118
 7131SOL    HW222293   3.220   0.953   2.271
 7132SOL     OW22294   4.933   3.942   6.816
 7132SOL    HW122295   4.971   3.878   6.750
 7132SOL    HW222296   4.986   4.027   6.813
 7133SOL     OW22297   3.910   5.356   3.700
 7133SOL    HW122298   3.955   5.436   3.741
 7133SOL    HW222299   3.818   5.347   3.739
 7134SOL     OW22300   5.403   6.415   1.903
 7134SOL    HW122301   5.403   6.416   2.003
 7134SOL    HW222302   5.371   6.326   1.871
 7135SOL     OW22303   2.103   3.149   1.996
 7135SOL    HW122304   2.109   3.242   2.034
 7135SOL    HW222305   2.089   3.155   1.898
 7136SOL     OW22306   2.897   1.703   1.377
 7136SOL    HW122307   2.849   1.616   1.380
 7136SOL    HW222308   2.963   1.708   1.452
 7137SOL     OW22309   2.966   1.873   0.909
 7137SOL    HW122310   3.029   1.867   0.987
 7137SOL    HW222311   2.874   1.848   0.938
 7138SOL     OW22312   2.375   0.878   1.371
 7138SOL    HW122313   2.392   0.833   1.459
 7138SOL    HW222314   2.461   0.890   1.322
 7139SOL     OW22315   5.010   5.513   2.205
 7139SOL    HW122316   5.099   5.548   2.232
 7139SOL    HW222317   4.969   5.575   2.137
 7140SOL     OW22318   6.154   4.255   0.373
 7140SOL    HW122319   6.157   4.288   0.467
 7140SOL    HW222320   6.106   4.167   0.370
 7141SOL     OW22321   4.258   6.163   1.248
 7141SOL    HW122322   4.249   6.112   1.334
 7141SOL    HW222323   4.205   6.117   1.177
 7142SOL     OW22324   3.116   0.675   4.439
 7142SOL    HW122325   3.162   0.689   4.351
 7142SOL    HW222326   3.155   0.595   4.485
 7143SOL     OW22327   2.448   4.316   6.724
 7143SOL    HW122328   2.356   4.353   6.732
 7143SOL    HW222329   2.481   4.326   6.630
 7144SOL     OW22330   0.118   1.207   4.225
 7144SOL    HW122331   0.152   1.263   4.149
 7144SOL    HW222332   0.053   1.139   4.191
 7145SOL     OW22333   4.602   1.762   6.863
 7145SOL    HW122334   4.604   1.787   6.766
 7145SOL    HW222335   4.546   1.828   6.913
 7146SOL     OW22336   2.135   1.203   5.098
 7146SOL    HW122337   2.153   1.163   5.008
 7146SOL    HW222338   2.215   1.255   5.128
 7147SOL     OW22339   5.405   5.116   3.258
 7147SOL    HW122340   5.346   5.124   3.177
 7147SOL    HW222341   5.501   5.124   3.231
 7148SOL     OW22342   6.392   6.531   0.816
 7148SOL    HW122343   6.315   6.577   0.861
 7148SOL    HW222344   6.448   6.486   0.885
 7149SOL     OW22345   6.894   4.828   3.451
 7149SOL    HW122346   6.966   4.775   3.406
 7149SOL    HW222347   6.919   4.843   3.547
 7150SOL     OW22348   4.079   3.349   0.054
 7150SOL    HW122349   4.150   3.287   0.018
 7150SOL    HW222350   4.115   3.398   0.134
 7151SOL     OW22351   3.288   0.317   0.757
 7151SOL    HW122352   3.270   0.262   0.838
 7151SOL    HW222353   3.369   0.282   0.710
 7152SOL     OW22354   6.743   0.830   6.770
 7152SOL    HW122355   6.697   0.885   6.701
 7152SOL    HW222356   6.835   0.865   6.785
 7153SOL     OW22357   4.116   5.832   1.605
 7153SOL    HW122358   4.113   5.771   1.527
 7153SOL    HW222359   4.023   5.843   1.643
 7154SOL     OW22360   4.369   1.223   2.192
 7154SOL    HW122361   4.329   1.218   2.101
 7154SOL    HW222362   4.404   1.315   2.209
 7155SOL     OW22363   3.480   1.792   1.641
 7155SOL    HW122364   3.414   1.827   1.574
 7155SOL    HW222365   3.570   1.832   1.623
 7156SOL     OW22366   5.473   3.291   1.916
 7156SOL    HW122367   5.402   3.291   1.846
 7156SOL    HW222368   5.486   3.198   1.951
 7157SOL     OW22369   6.015   4.176   6.890
 7157SOL    HW122370   6.063   4.256   6.925
 7157SOL    HW222371   6.052   4.094   6.933
 7158SOL     OW22372   6.111   6.997   3.865
 7158SOL    HW122373   6.208   7.016   3.880
 7158SOL    HW222374   6.099   6.955   3.775
 7159SOL     OW22375   6.690   5.195   4.156
 7159SOL    HW122376   6.659   5.129   4.225
 7159SOL    HW222377   6.774   5.240   4.188
 7160SOL     OW22378   6.122   6.648   2.469
 7160SOL    HW122379   6.061   6.680   2.541
 7160SOL    HW222380   6.210   6.695   2.476
 7161SOL     OW22381   3.504   3.857   3.367
 7161SOL    HW122382   3.568   3.885   3.296
 7161SOL    HW222383   3.411   3.879   3.338
 7162SOL     OW22384   6.921   4.746   1.595
 7162SOL    HW122385   6.903   4.656   1.555
 7162SOL    HW222386   6.967   4.804   1.528
 7163SOL     OW22387   1.045   1.674   2.656
 7163SOL    HW122388   1.128   1.657   2.602
 7163SOL    HW222389   0.967   1.629   2.613
 7164SOL     OW22390   1.735   0.731   6.260
 7164SOL    HW122391   1.693   0.725   6.169
 7164SOL    HW222392   1.833   0.713   6.252
 7165SOL     OW22393   5.441   0.095   0.503
 7165SOL    HW122394   5.528   0.130   0.538
 7165SOL    HW222395   5.407   0.023   0.563
 7166SOL     OW22396   5.553   0.566   5.747
 7166SOL    HW122397   5.586   0.483   5.702
 7166SOL    HW222398   5.541   0.638   5.678
 7167SOL     OW22399   6.101   2.378   5.291
 7167SOL    HW122400   6.141   2.358   5.201
 7167SOL    HW222401   6.024   2.316   5.306
 7168SOL     OW22402   2.643   0.768   2.814
 7168SOL    HW122403   2.637   0.787   2.716
 7168SOL    HW222404   2.733   0.728   2.834
 7169SOL     OW22405   1.649   4.282   4.897
 7169SOL    HW122406   1.684   4.192   4.871
 7169SOL    HW222407   1.619   4.331   4.815
 7170SOL     OW22408   4.729   0.340   2.089
 7170SOL    HW122409   4.709   0.410   2.158
 7170SOL    HW222410   4.686   0.254   2.115
 7171SOL     OW22411   5.482   5.044   1.082
 7171SOL    HW122412   5.519   5.049   0.989
 7171SOL    HW222413   5.388   5.008   1.079
 7172SOL     OW22414   1.750   1.461   5.218
 7172SOL    HW122415   1.697   1.417   5.290
 7172SOL    HW222416   1.787   1.391   5.156
 7173SOL     OW22417   5.917   5.987   6.800
 7173SOL    HW122418   5.858   6.011   6.878
 7173SOL    HW222419   5.890   6.041   6.720
 7174SOL     OW22420   5.716   4.528   1.400
 7174SOL    HW122421   5.766   4.539   1.314
 7174SOL    HW222422   5.698   4.618   1.440
 7175SOL     OW22423   6.136   3.835   5.057
 7175SOL    HW122424   6.204   3.869   5.121
 7175SOL    HW222425   6.105   3.745   5.086
 7176SOL     OW22426   0.709   1.229   3.812
 7176SOL    HW122427   0.650   1.177   3.874
 7176SOL    HW222428   0.755   1.302   3.863
 7177SOL     OW22429   1.854   5.609   5.742
 7177SOL    HW122430   1.807   5.692   5.773
 7177SOL    HW222431   1.871   5.549   5.820
 7178SOL     OW22432   0.206   0.732   5.601
 7178SOL    HW122433   0.304   0.714   5.596
 7178SOL    HW222434   0.163   0.662   5.657
 7179SOL     OW22435   2.210   4.657   6.089
 7179SOL    HW122436   2.148   4.584   6.061
 7179SOL    HW222437   2.205   4.733   6.024
 7180SOL     OW22438   1.941   4.791   1.217
 7180SOL    HW122439   2.026   4.828   1.180
 7180SOL    HW222440   1.902   4.726   1.152
 7181SOL     OW22441   2.219   1.273   5.771
 7181SOL    HW122442   2.254   1.338   5.839
 7181SOL    HW222443   2.219   1.181   5.811
 7182SOL     OW22444   0.306   3.018   4.367
 7182SOL    HW122445   0.403   3.037   4.353
 7182SOL    HW222446   0.262   3.096   4.411
 7183SOL     OW22447   1.815   6.583   1.498
 7183SOL    HW122448   1.836   6.540   1.586
 7183SOL    HW222449   1.886   6.648   1.474
 7184SOL     OW22450   5.995   1.237   3.355
 7184SOL    HW122451   6.035   1.239   3.446
 7184SOL    HW222452   5.899   1.266   3.360
 7185SOL     OW22453   5.055   1.284   5.717
 7185SOL    HW122454   5.045   1.262   5.814
 7185SOL    HW222455   5.116   1.363   5.707
 7186SOL     OW22456   0.180   6.947   0.136
 7186SOL    HW122457   0.223   6.905   0.216
 7186SOL    HW222458   0.087   6.913   0.126
 7187SOL     OW22459   3.042   3.665   4.521
 7187SOL    HW122460   3.000   3.714   4.444
 7187SOL    HW222461   3.086   3.731   4.582
 7188SOL     OW22462   4.665   4.301   6.736
 7188SOL    HW122463   4.762   4.325   6.739
 7188SOL    HW222464   4.654   4.202   6.726
 7189SOL     OW22465   6.357   3.053   5.316
 7189SOL    HW122466   6.293   3.010   5.379
 7189SOL    HW222467   6.389   3.140   5.355
 7190SOL     OW22468   5.899   5.693   1.022
 7190SOL    HW122469   5.888   5.726   0.928
 7190SOL    HW222470   5.949   5.761   1.075
 7191SOL     OW22471   0.612   4.248   3.092
 7191SOL    HW122472   0.514   4.250   3.111
 7191SOL    HW222473   0.640   4.336   3.054
 7192SOL     OW22474   1.608   4.101   6.546
 7192SOL    HW122475   1.546   4.030   6.580
 7192SOL    HW222476   1.690   4.058   6.507
 7193SOL     OW22477   2.813   1.954   2.292
 7193SOL    HW122478   2.791   1.932   2.387
 7193SOL    HW222479   2.831   2.052   2.284
 7194SOL     OW22480   2.344   2.309   0.311
 7194SOL    HW122481   2.249   2.285   0.331
 7194SOL    HW222482   2.350   2.405   0.283
 7195SOL     OW22483   6.854   4.121   0.035
 7195SOL    HW122484   6.935   4.179   0.031
 7195SOL    HW222485   6.794   4.142   6.981
 7196SOL     OW22486   3.487   3.934   2.578
 7196SOL    HW122487   3.471   3.843   2.616
 7196SOL    HW222488   3.513   3.997   2.651
 7197SOL     OW22489   1.312   3.547   5.431
 7197SOL    HW122490   1.244   3.474   5.422
 7197SOL    HW222491   1.311   3.583   5.524
 7198SOL     OW22492   0.232   0.567   0.440
 7198SOL    HW122493   0.319   0.519   0.432
 7198SOL    HW222494   0.248   0.666   0.447
 7199SOL     OW22495   0.628   0.503   2.237
 7199SOL    HW122496   0.678   0.588   2.226
 7199SOL    HW222497   0.531   0.517   2.215
 7200SOL     OW22498   1.800   2.398   0.931
 7200SOL    HW122499   1.749   2.464   0.987
 7200SOL    HW222500   1.800   2.309   0.976
 7201SOL     OW22501   0.016   5.210   3.944
 7201SOL    HW122502   0.072   5.261   3.878
 7201SOL    HW222503   6.945   5.245   3.944
 7202SOL     OW22504   5.217   6.972   6.270
 7202SOL    HW122505   5.239   7.007   6.179
 7202SOL    HW222506   5.300   6.974   6.327
 7203SOL     OW22507   0.626   0.990   2.078
 7203SOL    HW122508   0.668   1.015   2.165
 7203SOL    HW222509   0.555   0.921   2.093
 7204SOL     OW22510   6.321   1.519   0.458
 7204SOL    HW122511   6.307   1.515   0.557
 7204SOL    HW222512   6.387   1.449   0.431
 7205SOL     OW22513   1.456   3.078   4.940
 7205SOL    HW122514   1.408   3.101   5.025
 7205SOL    HW222515   1.554   3.071   4.959
 7206SOL     OW22516   1.417   1.502   1.621
 7206SOL    HW122517   1.374   1.478   1.534
 7206SOL    HW222518   1.414   1.424   1.683
 7207SOL     OW22519   1.814   2.237   4.086
 7207SOL    HW122520   1.875   2.278   4.019
 7207SOL    HW222521   1.853   2.150   4.117
 7208SOL     OW22522   3.827   0.823   4.238
 7208SOL    HW122523   3.730   0.805   4.222
 7208SOL    HW222524   3.859   0.892   4.173
 7209SOL     OW22525   2.363   2.376   2.558
 7209SOL    HW122526   2.447   2.322   2.555
 7209SOL    HW222527   2.354   2.427   2.473
 7210SOL     OW22528   3.215   2.084   3.134
 7210SOL    HW122529   3.312   2.089   3.114
 7210SOL    HW222530   3.189   1.988   3.148
 7211SOL     OW22531   2.716   6.209   5.620
 7211SOL    HW122532   2.668   6.211   5.532
 7211SOL    HW222533   2.791   6.274   5.618
 7212SOL     OW22534   6.233   5.971   6.200
 7212SOL    HW122535   6.180   5.913   6.138
 7212SOL    HW222536   6.197   5.961   6.293
 7213SOL     OW22537   3.630   0.026   0.321
 7213SOL    HW122538   3.672   0.116   0.310
 7213SOL    HW222539   3.701   6.980   0.336
 7214SOL     OW22540   6.807   1.102   6.113
 7214SOL    HW122541   6.855   1.113   6.026
 7214SOL    HW222542   6.870   1.068   6.182
 7215SOL     OW22543   6.682   2.591   3.896
 7215SOL    HW122544   6.690   2.685   3.862
 7215SOL    HW222545   6.588   2.574   3.924
 7216SOL     OW22546   2.942   6.460   2.330
 7216SOL    HW122547   3.000   6.477   2.250
 7216SOL    HW222548   2.988   6.394   2.390
 7217SOL     OW22549   1.338   4.655   3.812
 7217SOL    HW122550   1.253   4.603   3.812
 7217SOL    HW222551   1.331   4.731   3.876
 7218SOL     OW22552   6.892   2.867   3.838
 7218SOL    HW122553   6.884   2.804   3.760
 7218SOL    HW222554   6.837   2.833   3.914
 7219SOL     OW22555   3.291   6.381   1.452
 7219SOL    HW122556   3.262   6.477   1.450
 7219SOL    HW222557   3.214   6.323   1.425
 7220SOL     OW22558   6.628   4.180   4.672
 7220SOL    HW122559   6.604   4.218   4.761
 7220SOL    HW222560   6.727   4.176   4.663
 7221SOL     OW22561   3.191   6.123   4.866
 7221SOL    HW122562   3.241   6.053   4.814
 7221SOL    HW222563   3.142   6.183   4.804
 7222SOL     OW22564   5.700   6.537   3.184
 7222SOL    HW122565   5.667   6.535   3.090
 7222SOL    HW222566   5.717   6.632   3.211
 7223SOL     OW22567   2.409   2.088   1.108
 7223SOL    HW122568   2.495   2.039   1.119
 7223SOL    HW222569   2.392   2.145   1.188
 7224SOL     OW22570   4.622   2.604   4.238
 7224SOL    HW122571   4.662   2.563   4.156
 7224SOL    HW222572   4.538   2.555   4.262
 7225SOL     OW22573   2.064   6.426   0.245
 7225SOL    HW122574   2.131   6.391   0.179
 7225SOL    HW222575   2.034   6.351   0.304
 7226SOL     OW22576   6.095   0.787   0.525
 7226SOL    HW122577   6.142   0.852   0.465
 7226SOL    HW222578   6.104   0.695   0.487
 7227SOL     OW22579   3.099   0.850   1.926
 7227SOL    HW122580   3.194   0.880   1.927
 7227SOL    HW222581   3.046   0.911   1.867
 7228SOL     OW22582   0.414   1.494   3.114
 7228SOL    HW122583   0.499   1.455   3.078
 7228SOL    HW222584   0.343   1.490   3.044
 7229SOL     OW22585   6.908   6.647   4.405
 7229SOL    HW122586   6.972   6.594   4.462
 7229SOL    HW222587   6.866   6.587   4.338
 7230SOL     OW22588   2.740   5.247   3.846
 7230SOL    HW122589   2.837   5.222   3.853
 7230SOL    HW222590   2.726   5.298   3.761
 7231SOL     OW22591   3.578   6.921   0.696
 7231SOL    HW122592   3.559   7.004   0.644
 7231SOL    HW222593   3.607   6.946   0.789
 7232SOL     OW22594   4.887   6.498   2.677
 7232SOL    HW122595   4.874   6.597   2.685
 7232SOL    HW222596   4.831   6.451   2.745
 7233SOL     OW22597   6.376   1.833   5.620
 7233SOL    HW122598   6.393   1.850   5.716
 7233SOL    HW222599   6.297   1.887   5.590
 7234SOL     OW22600   5.355   3.879   2.434
 7234SOL    HW122601   5.423   3.807   2.421
 7234SOL    HW222602   5.358   3.910   2.529
 7235SOL     OW22603   6.356   5.520   1.454
 7235SOL    HW122604   6.280   5.574   1.417
 7235SOL    HW222605   6.321   5.454   1.521
 7236SOL     OW22606   1.997   2.551   2.889
 7236SOL    HW122607   1.905   2.519   2.865
 7236SOL    HW222608   2.060   2.528   2.815
 7237SOL     OW22609   4.686   0.053   6.466
 7237SOL    HW122610   4.696   6.992   6.521
 7237SOL    HW222611   4.777   0.086   6.441
 7238SOL     OW22612   4.440   2.780   6.915
 7238SOL    HW122613   4.476   2.854   6.972
 7238SOL    HW222614   4.501   2.701   6.922
 7239SOL     OW22615   0.552   3.238   2.638
 7239SOL    HW122616   0.562   3.229   2.539
 7239SOL    HW222617   0.642   3.247   2.681
 7240SOL     OW22618   6.752   2.122   6.958
 7240SOL    HW122619   6.657   2.139   6.986
 7240SOL    HW222620   6.784   2.197   6.901
 7241SOL     OW22621   2.224   0.223   0.297
 7241SOL    HW122622   2.298   0.289   0.302
 7241SOL    HW222623   2.186   0.220   0.204
 7242SOL     OW22624   0.044   5.952   5.128
 7242SOL    HW122625   7.005   5.961   5.207
 7242SOL    HW222626   0.114   6.024   5.133
 7243SOL     OW22627   6.896   3.898   6.749
 7243SOL    HW122628   6.980   3.893   6.694
 7243SOL    HW222629   6.879   3.993   6.775
 7244SOL     OW22630   0.310   6.685   0.847
 7244SOL    HW122631   0.386   6.750   0.837
 7244SOL    HW222632   0.223   6.732   0.833
 7245SOL     OW22633   1.719   2.059   5.586
 7245SOL    HW122634   1.713   1.962   5.609
 7245SOL    HW222635   1.682   2.113   5.662
 7246SOL     OW22636   2.353   0.380   4.494
 7246SOL    HW122637   2.408   0.461   4.472
 7246SOL    HW222638   2.385   0.341   4.580
 7247SOL     OW22639   3.211   2.369   5.601
 7247SOL    HW122640   3.195   2.270   5.604
 7247SOL    HW222641   3.156   2.410   5.528
 7248SOL     OW22642   3.161   0.450   3.843
 7248SOL    HW122643   3.110   0.475   3.761
 7248SOL    HW222644   3.153   0.524   3.911
 7249SOL     OW22645   4.535   4.869   1.850
 7249SOL    HW122646   4.612   4.883   1.912
 7249SOL    HW222647   4.542   4.778   1.808
 7250SOL     OW22648   5.131   4.754   5.884
 7250SOL    HW122649   5.090   4.674   5.928
 7250SOL    HW222650   5.221   4.772   5.924
 7251SOL     OW22651   0.586   0.149   5.722
 7251SOL    HW122652   0.575   0.248   5.734
 7251SOL    HW222653   0.496   0.107   5.711
 7252SOL     OW22654   3.022   3.829   1.818
 7252SOL    HW122655   2.960   3.900   1.787
 7252SOL    HW222656   3.071   3.790   1.740
 7253SOL     OW22657   1.694   6.593   6.443
 7253SOL    HW122658   1.694   6.553   6.351
 7253SOL    HW222659   1.783   6.634   6.461
 7254SOL     OW22660   6.041   5.189   4.207
 7254SOL    HW122661   6.052   5.188   4.108
 7254SOL    HW222662   5.962   5.134   4.232
 7255SOL     OW22663   4.870   3.606   6.704
 7255SOL    HW122664   4.807   3.531   6.683
 7255SOL    HW222665   4.867   3.674   6.630
 7256SOL     OW22666   3.965   6.167   5.866
 7256SOL    HW122667   3.869   6.159   5.837
 7256SOL    HW222668   3.969   6.177   5.965
 7257SOL     OW22669   0.254   1.983   4.619
 7257SOL    HW122670   0.351   1.963   4.631
 7257SOL    HW222671   0.214   1.918   4.554
 7258SOL     OW22672   5.537   1.867   2.484
 7258SOL    HW122673   5.472   1.878   2.408
 7258SOL    HW222674   5.531   1.947   2.544
 7259SOL     OW22675   1.083   3.121   2.450
 7259SOL    HW122676   1.073   3.109   2.549
 7259SOL    HW222677   1.167   3.172   2.431
 7260SOL     OW22678   5.267   2.091   1.306
 7260SOL    HW122679   5.188   2.146   1.277
 7260SOL    HW222680   5.241   1.994   1.305
 7261SOL     OW22681   0.586   4.471   1.486
 7261SOL    HW122682   0.527   4.478   1.566
 7261SOL    HW222683   0.678   4.501   1.509
 7262SOL     OW22684   5.536   1.096   6.640
 7262SOL    HW122685   5.446   1.091   6.685
 7262SOL    HW222686   5.524   1.107   6.542
 7263SOL     OW22687   0.195   6.180   0.251
 7263SOL    HW122688   0.178   6.256   0.188
 7263SOL    HW222689   0.108   6.145   0.285
 7264SOL     OW22690   5.428   0.923   0.909
 7264SOL    HW122691   5.474   0.838   0.882
 7264SOL    HW222692   5.446   0.940   1.006
 7265SOL     OW22693   5.676   5.008   4.935
 7265SOL    HW122694   5.716   5.099   4.926
 7265SOL    HW222695   5.655   4.990   5.031
 7266SOL     OW22696   6.654   0.742   3.802
 7266SOL    HW122697   6.574   0.793   3.772
 7266SOL    HW222698   6.735   0.777   3.756
 7267SOL     OW22699   6.487   6.951   5.147
 7267SOL    HW122700   6.522   0.022   5.145
 7267SOL    HW222701   6.441   6.931   5.060
 7268SOL     OW22702   0.153   6.166   4.205
 7268SOL    HW122703   0.072   6.127   4.246
 7268SOL    HW222704   0.214   6.201   4.276
 7269SOL     OW22705   1.842   6.030   5.874
 7269SOL    HW122706   1.801   6.121   5.874
 7269SOL    HW222707   1.909   6.023   5.948
 7270SOL     OW22708   0.054   2.034   3.812
 7270SOL    HW122709   0.107   2.079   3.884
 7270SOL    HW222710   0.039   2.099   3.737
 7271SOL     OW22711   1.826   5.152   4.167
 7271SOL    HW122712   1.730   5.182   4.170
 7271SOL    HW222713   1.848   5.107   4.254
 7272SOL     OW22714   6.233   5.819   2.080
 7272SOL    HW122715   6.254   5.775   1.992
 7272SOL    HW222716   6.185   5.754   2.139
 7273SOL     OW22717   5.180   3.429   7.006
 7273SOL    HW122718   5.137   3.516   6.981
 7273SOL    HW222719   5.275   3.429   6.973
 7274SOL     OW22720   0.195   4.731   0.040
 7274SOL    HW122721   0.268   4.691   7.007
 7274SOL    HW222722   0.146   4.800   7.009
 7275SOL     OW22723   0.199   5.721   2.791
 7275SOL    HW122724   0.270   5.761   2.850
 7275SOL    HW222725   0.122   5.784   2.787
 7276SOL     OW22726   5.788   0.520   3.534
 7276SOL    HW122727   5.872   0.501   3.483
 7276SOL    HW222728   5.718   0.452   3.509
 7277SOL     OW22729   4.972   0.635   5.101
 7277SOL    HW122730   5.054   0.631   5.158
 7277SOL    HW222731   4.978   0.712   5.039
 7278SOL     OW22732   3.619   3.760   1.255
 7278SOL    HW122733   3.547   3.828   1.266
 7278SOL    HW222734   3.595   3.697   1.180
 7279SOL     OW22735   4.307   5.806   0.056
 7279SOL    HW122736   4.261   5.893   0.043
 7279SOL    HW222737   4.262   5.736   0.000
 7280SOL     OW22738   6.880   0.075   4.091
 7280SOL    HW122739   6.841   0.134   4.162
 7280SOL    HW222740   6.901   7.008   4.131
 7281SOL     OW22741   2.906   1.761   0.147
 7281SOL    HW122742   2.981   1.820   0.118
 7281SOL    HW222743   2.868   1.795   0.233
 7282SOL     OW22744   5.957   5.191   2.331
 7282SOL    HW122745   5.970   5.092   2.330
 7282SOL    HW222746   6.014   5.232   2.260
 7283SOL     OW22747   3.120   1.832   3.151
 7283SOL    HW122748   3.021   1.825   3.162
 7283SOL    HW222749   3.163   1.745   3.172
 7284SOL     OW22750   0.613   3.644   5.870
 7284SOL    HW122751   0.570   3.583   5.804
 7284SOL    HW222752   0.709   3.618   5.882
 7285SOL     OW22753   5.349   3.567   2.047
 7285SOL    HW122754   5.309   3.476   2.038
 7285SOL    HW222755   5.294   3.622   2.110
 7286SOL     OW22756   2.720   1.705   1.021
 7286SOL    HW122757   2.644   1.656   1.064
 7286SOL    HW222758   2.705   1.712   0.923
 7287SOL     OW22759   6.767   2.440   6.496
 7287SOL    HW122760   6.668   2.435   6.511
 7287SOL    HW222761   6.811   2.363   6.543
 7288SOL     OW22762   3.150   0.883   0.206
 7288SOL    HW122763   3.123   0.975   0.176
 7288SOL    HW222764   3.247   0.882   0.229
 7289SOL     OW22765   6.149   1.440   3.527
 7289SOL    HW122766   6.055   1.423   3.556
 7289SOL    HW222767   6.152   1.448   3.427
 7290SOL     OW22768   3.562   6.998   5.786
 7290SOL    HW122769   3.512   6.913   5.799
 7290SOL    HW222770   3.524   0.046   5.845
 7291SOL     OW22771   1.468   6.560   0.830
 7291SOL    HW122772   1.515   6.552   0.918
 7291SOL    HW222773   1.503   6.639   0.781
 7292SOL     OW22774   2.410   1.159   4.213
 7292SOL    HW122775   2.330   1.202   4.255
 7292SOL    HW222776   2.392   1.062   4.196
 7293SOL     OW22777   1.621   1.810   5.622
 7293SOL    HW122778   1.529   1.784   5.651
 7293SOL    HW222779   1.686   1.790   5.695
 7294SOL     OW22780   2.094   4.997   0.134
 7294SOL    HW122781   2.105   4.959   0.043
 7294SOL    HW222782   2.104   4.924   0.202
 7295SOL     OW22783   0.836   2.215   1.103
 7295SOL    HW122784   0.842   2.258   1.013
 7295SOL    HW222785   0.772   2.139   1.101
 7296SOL     OW22786   2.434   5.230   1.393
 7296SOL    HW122787   2.377   5.311   1.407
 7296SOL    HW222788   2.386   5.150   1.429
 7297SOL     OW22789   3.429   5.683   0.918
 7297SOL    HW122790   3.522   5.659   0.946
 7297SOL    HW222791   3.373   5.600   0.916
 7298SOL     OW22792   4.510   4.253   5.778
 7298SOL    HW122793   4.567   4.188   5.727
 7298SOL    HW222794   4.568   4.328   5.812
 7299SOL     OW22795   0.257   1.895   0.510
 7299SOL    HW122796   0.174   1.879   0.457
 7299SOL    HW222797   0.270   1.822   0.576
 7300SOL     OW22798   6.183   6.087   2.448
 7300SOL    HW122799   6.149   6.181   2.458
 7300SOL    HW222800   6.164   6.035   2.531
 7301SOL     OW22801   6.710   1.215   4.819
 7301SOL    HW122802   6.681   1.121   4.799
 7301SOL    HW222803   6.770   1.248   4.746
 7302SOL     OW22804   1.194   1.681   6.380
 7302SOL    HW122805   1.165   1.746   6.450
 7302SOL    HW222806   1.115   1.649   6.329
 7303SOL     OW22807   4.678   0.384   6.220
 7303SOL    HW122808   4.747   0.390   6.148
 7303SOL    HW222809   4.638   0.474   6.236
 7304SOL     OW22810   3.913   4.567   0.132
 7304SOL    HW122811   3.971   4.640   0.169
 7304SOL    HW222812   3.913   4.490   0.195
 7305SOL     OW22813   4.687   0.998   0.606
 7305SOL    HW122814   4.758   1.052   0.559
 7305SOL    HW222815   4.661   0.921   0.548
 7306SOL     OW22816   5.177   2.194   1.598
 7306SOL    HW122817   5.232   2.176   1.515
 7306SOL    HW222818   5.212   2.276   1.643
 7307SOL     OW22819   2.376   0.359   2.374
 7307SOL    HW122820   2.466   0.386   2.409
 7307SOL    HW222821   2.357   0.264   2.398
 7308SOL     OW22822   0.008   4.171   5.409
 7308SOL    HW122823   0.010   4.074   5.433
 7308SOL    HW222824   0.047   4.184   5.318
 7309SOL     OW22825   5.094   5.964   0.344
 7309SOL    HW122826   5.188   5.974   0.376
 7309SOL    HW222827   5.057   6.054   0.321
 7310SOL     OW22828   2.194   3.453   1.430
 7310SOL    HW122829   2.241   3.489   1.510
 7310SOL    HW222830   2.105   3.414   1.457
 7311SOL     OW22831   3.551   2.037   2.096
 7311SOL    HW122832   3.596   2.110   2.046
 7311SOL    HW222833   3.528   1.963   2.033
 7312SOL     OW22834   7.002   3.617   6.339
 7312SOL    HW122835   0.057   3.619   6.276
 7312SOL    HW222836   0.011   3.631   6.432
 7313SOL     OW22837   3.519   2.219   6.459
 7313SOL    HW122838   3.482   2.277   6.531
 7313SOL    HW222839   3.618   2.211   6.469
 7314SOL     OW22840   6.639   3.642   5.032
 7314SOL    HW122841   6.659   3.579   4.957
 7314SOL    HW222842   6.553   3.689   5.013
 7315SOL     OW22843   6.492   0.382   2.606
 7315SOL    HW122844   6.564   0.448   2.587
 7315SOL    HW222845   6.529   0.289   2.603
 7316SOL     OW22846   2.593   4.165   6.095
 7316SOL    HW122847   2.609   4.106   6.017
 7316SOL    HW222848   2.519   4.229   6.074
 7317SOL     OW22849   4.441   1.030   2.375
 7317SOL    HW122850   4.432   1.092   2.297
 7317SOL    HW222851   4.351   0.996   2.400
 7318SOL     OW22852   1.158   0.919   0.860
 7318SOL    HW122853   1.139   0.830   0.819
 7318SOL    HW222854   1.114   0.924   0.949
 7319SOL     OW22855   6.316   4.255   5.737
 7319SOL    HW122856   6.398   4.262   5.793
 7319SOL    HW222857   6.309   4.162   5.700
 7320SOL     OW22858   6.464   3.653   1.717
 7320SOL    HW122859   6.518   3.725   1.761
 7320SOL    HW222860   6.395   3.694   1.657
 7321SOL     OW22861   2.726   6.374   5.206
 7321SOL    HW122862   2.703   6.300   5.269
 7321SOL    HW222863   2.816   6.410   5.228
 7322SOL     OW22864   6.725   2.483   3.498
 7322SOL    HW122865   6.750   2.470   3.402
 7322SOL    HW222866   6.696   2.395   3.537
 7323SOL     OW22867   2.112   1.806   1.922
 7323SOL    HW122868   2.063   1.765   1.846
 7323SOL    HW222869   2.187   1.746   1.951
 7324SOL     OW22870   4.821   6.125   2.472
 7324SOL    HW122871   4.802   6.218   2.443
 7324SOL    HW222872   4.820   6.121   2.572
 7325SOL     OW22873   3.695   6.510   0.002
 7325SOL    HW122874   3.668   6.459   0.084
 7325SOL    HW222875   3.728   6.446   6.955
 7326SOL     OW22876   3.249   6.396   5.239
 7326SOL    HW122877   3.307   6.345   5.175
 7326SOL    HW222878   3.296   6.406   5.326
 7327SOL     OW22879   6.620   2.760   5.498
 7327SOL    HW122880   6.648   2.855   5.510
 7327SOL    HW222881   6.550   2.754   5.427
 7328SOL     OW22882   3.256   1.101   6.038
 7328SOL    HW122883   3.342   1.049   6.038
 7328SOL    HW222884   3.197   1.069   5.964
 7329SOL     OW22885   5.087   4.326   1.706
 7329SOL    HW122886   5.059   4.297   1.797
 7329SOL    HW222887   5.181   4.294   1.688
 7330SOL     OW22888   2.726   2.356   0.295
 7330SOL    HW122889   2.680   2.415   0.230
 7330SOL    HW222890   2.787   2.411   0.353
 7331SOL     OW22891   5.757   6.983   2.246
 7331SOL    HW122892   5.839   6.973   2.189
 7331SOL    HW222893   5.703   0.038   2.213
 7332SOL     OW22894   2.136   5.398   0.481
 7332SOL    HW122895   2.210   5.428   0.540
 7332SOL    HW222896   2.164   5.316   0.430
 7333SOL     OW22897   0.008   3.342   3.397
 7333SOL    HW122898   6.935   3.345   3.368
 7333SOL    HW222899   0.050   3.431   3.379
 7334SOL     OW22900   3.335   6.048   6.533
 7334SOL    HW122901   3.307   6.138   6.566
 7334SOL    HW222902   3.398   6.007   6.599
 7335SOL     OW22903   1.758   2.688   2.647
 7335SOL    HW122904   1.704   2.638   2.715
 7335SOL    HW222905   1.766   2.632   2.564
 7336SOL     OW22906   1.382   6.664   3.350
 7336SOL    HW122907   1.392   6.762   3.332
 7336SOL    HW222908   1.449   6.636   3.418
 7337SOL     OW22909   0.399   2.955   1.922
 7337SOL    HW122910   0.335   2.982   1.849
 7337SOL    HW222911   0.493   2.969   1.890
 7338SOL     OW22912   6.210   3.004   1.505
 7338SOL    HW122913   6.225   2.945   1.584
 7338SOL    HW222914   6.132   2.970   1.453
 7339SOL     OW22915   5.528   6.245   3.708
 7339SOL    HW122916   5.589   6.271   3.634
 7339SOL    HW222917   5.454   6.312   3.716
 7340SOL     OW22918   1.857   1.008   1.183
 7340SOL    HW122919   1.835   1.106   1.187
 7340SOL    HW222920   1.831   0.972   1.093
 7341SOL     OW22921   6.497   3.031   6.993
 7341SOL    HW122922   6.440   3.045   0.051
 7341SOL    HW222923   6.440   3.040   6.911
 7342SOL     OW22924   6.909   1.708   1.963
 7342SOL    HW122925   6.919   1.766   1.882
 7342SOL    HW222926   6.812   1.689   1.978
 7343SOL     OW22927   4.973   3.222   6.813
 7343SOL    HW122928   5.066   3.253   6.793
 7343SOL    HW222929   4.942   3.263   6.899
 7344SOL     OW22930   0.741   0.194   5.939
 7344SOL    HW122931   0.674   0.172   5.868
 7344SOL    HW222932   0.826   0.227   5.896
 7345SOL     OW22933   4.255   3.414   5.343
 7345SOL    HW122934   4.167   3.372   5.366
 7345SOL    HW222935   4.241   3.507   5.310
 7346SOL     OW22936   3.751   5.879   2.694
 7346SOL    HW122937   3.753   5.864   2.792
 7346SOL    HW222938   3.716   5.798   2.648
 7347SOL     OW22939   0.583   1.766   0.757
 7347SOL    HW122940   0.630   1.720   0.833
 7347SOL    HW222941   0.582   1.865   0.773
 7348SOL     OW22942   1.625   4.217   3.695
 7348SOL    HW122943   1.527   4.198   3.684
 7348SOL    HW222944   1.661   4.252   3.608
 7349SOL     OW22945   4.062   0.697   2.328
 7349SOL    HW122946   4.056   0.741   2.239
 7349SOL    HW222947   4.158   0.689   2.355
 7350SOL     OW22948   2.620   1.973   5.666
 7350SOL    HW122949   2.641   2.067   5.690
 7350SOL    HW222950   2.536   1.969   5.611
 7351SOL     OW22951   5.765   5.902   3.721
 7351SOL    HW122952   5.709   5.872   3.644
 7351SOL    HW222953   5.706   5.926   3.798
 7352SOL     OW22954   0.545   1.500   2.471
 7352SOL    HW122955   0.593   1.476   2.387
 7352SOL    HW222956   0.563   1.596   2.493
 7353SOL     OW22957   0.258   0.559   6.421
 7353SOL    HW122958   0.307   0.639   6.389
 7353SOL    HW222959   0.224   0.507   6.343
 7354SOL     OW22960   1.351   1.412   5.251
 7354SOL    HW122961   1.290   1.419   5.329
 7354SOL    HW222962   1.303   1.367   5.175
 7355SOL     OW22963   0.793   1.557   0.072
 7355SOL    HW122964   0.734   1.595   0.143
 7355SOL    HW222965   0.771   1.460   0.058
 7356SOL     OW22966   3.711   3.497   6.199
 7356SOL    HW122967   3.796   3.451   6.171
 7356SOL    HW222968   3.644   3.429   6.228
 7357SOL     OW22969   2.943   5.790   2.332
 7357SOL    HW122970   2.857   5.788   2.281
 7357SOL    HW222971   2.931   5.848   2.413
 7358SOL     OW22972   6.334   3.628   2.800
 7358SOL    HW122973   6.370   3.714   2.762
 7358SOL    HW222974   6.387   3.551   2.763
 7359SOL     OW22975   4.134   2.254   5.590
 7359SOL    HW122976   4.194   2.332   5.605
 7359SOL    HW222977   4.047   2.269   5.637
 7360SOL     OW22978   2.525   3.301   5.486
 7360SOL    HW122979   2.538   3.329   5.581
 7360SOL    HW222980   2.459   3.226   5.483
 7361SOL     OW22981   5.315   0.920   2.549
 7361SOL    HW122982   5.333   1.003   2.496
 7361SOL    HW222983   5.270   0.944   2.635
 7362SOL     OW22984   2.354   6.188   6.216
 7362SOL    HW122985   2.343   6.091   6.238
 7362SOL    HW222986   2.302   6.209   6.134
 7363SOL     OW22987   4.740   1.180   1.352
 7363SOL    HW122988   4.719   1.175   1.449
 7363SOL    HW222989   4.807   1.110   1.329
 7364SOL     OW22990   4.213   0.357   2.016
 7364SOL    HW122991   4.235   0.390   2.108
 7364SOL    HW222992   4.117   0.329   2.013
 7365SOL     OW22993   0.852   5.816   2.183
 7365SOL    HW122994   0.817   5.883   2.118
 7365SOL    HW222995   0.892   5.864   2.262
 7366SOL     OW22996   2.307   6.502   5.527
 7366SOL    HW122997   2.320   6.406   5.504
 7366SOL    HW222998   2.253   6.547   5.456
 7367SOL     OW22999   3.603   2.619   0.267
 7367SOL    HW123000   3.685   2.641   0.215
 7367SOL    HW223001   3.619   2.537   0.322
 7368SOL     OW23002   3.765   2.952   2.483
 7368SOL    HW123003   3.805   3.029   2.434
 7368SOL    HW223004   3.795   2.866   2.440
 7369SOL     OW23005   3.701   2.742   1.060
 7369SOL    HW123006   3.629   2.687   1.102
 7369SOL    HW223007   3.662   2.798   0.987
 7370SOL     OW23008   2.476   2.294   6.442
 7370SOL    HW123009   2.377   2.290   6.437
 7370SOL    HW223010   2.507   2.242   6.522
 7371SOL     OW23011   3.226   6.319   3.736
 7371SOL    HW123012   3.181   6.343   3.822
 7371SOL    HW223013   3.322   6.297   3.754
 7372SOL     OW23014   4.306   6.862   4.583
 7372SOL    HW123015   4.369   6.929   4.545
 7372SOL    HW223016   4.354   6.804   4.649
 7373SOL     OW23017   5.857   2.169   5.309
 7373SOL    HW123018   5.878   2.096   5.243
 7373SOL    HW223019   5.788   2.135   5.374
 7374SOL     OW23020   1.840   1.842   4.612
 7374SOL    HW123021   1.915   1.907   4.624
 7374SOL    HW223022   1.858   1.760   4.666
 7375SOL     OW23023   2.160   2.230   2.064
 7375SOL    HW123024   2.159   2.322   2.025
 7375SOL    HW223025   2.072   2.210   2.106
 7376SOL     OW23026   1.185   2.619   1.366
 7376SOL    HW123027   1.129   2.573   1.297
 7376SOL    HW223028   1.150   2.597   1.457
 7377SOL     OW23029   4.293   4.894   0.549
 7377SOL    HW123030   4.288   4.884   0.449
 7377SOL    HW223031   4.253   4.813   0.592
 7378SOL     OW23032   1.451   0.028   5.301
 7378SOL    HW123033   1.495   0.067   5.381
 7378SOL    HW223034   1.515   0.029   5.224
 7379SOL     OW23035   2.979   0.600   1.961
 7379SOL    HW123036   2.920   0.591   1.881
 7379SOL    HW223037   3.019   0.691   1.963
 7380SOL     OW23038   6.734   4.052   3.546
 7380SOL    HW123039   6.717   4.078   3.641
 7380SOL    HW223040   6.833   4.055   3.528
 7381SOL     OW23041   3.983   2.934   0.467
 7381SOL    HW123042   3.923   2.937   0.387
 7381SOL    HW223043   3.965   3.013   0.525
 7382SOL     OW23044   0.125   2.022   5.902
 7382SOL    HW123045   0.081   2.078   5.832
 7382SOL    HW223046   0.062   1.951   5.932
 7383SOL     OW23047   2.623   5.621   1.735
 7383SOL    HW123048   2.552   5.574   1.682
 7383SOL    HW223049   2.677   5.679   1.674
 7384SOL     OW23050   6.694   7.006   1.598
 7384SOL    HW123051   6.653   0.038   1.671
 7384SOL    HW223052   6.645   6.919   1.590
 7385SOL     OW23053   2.689   5.180   2.846
 7385SOL    HW123054   2.647   5.096   2.811
 7385SOL    HW223055   2.694   5.248   2.773
 7386SOL     OW23056   6.366   2.971   6.495
 7386SOL    HW123057   6.453   3.009   6.465
 7386SOL    HW223058   6.292   3.034   6.474
 7387SOL     OW23059   6.667   5.174   5.191
 7387SOL    HW123060   6.610   5.245   5.234
 7387SOL    HW223061   6.670   5.188   5.093
 7388SOL     OW23062   1.334   4.921   2.399
 7388SOL    HW123063   1.239   4.902   2.424
 7388SOL    HW223064   1.367   4.850   2.338
 7389SOL     OW23065   6.988   3.728   0.220
 7389SOL    HW123066   6.961   3.746   0.126
 7389SOL    HW223067   0.029   3.651   0.223
 7390SOL     OW23068   2.958   1.830   2.096
 7390SOL    HW123069   2.881   1.860   2.154
 7390SOL    HW223070   3.014   1.910   2.073
 7391SOL     OW23071   4.070   3.130   2.749
 7391SOL    HW123072   4.012   3.072   2.806
 7391SOL    HW223073   4.138   3.073   2.703
 7392SOL     OW23074   3.585   5.683   6.941
 7392SOL    HW123075   3.683   5.661   6.946
 7392SOL    HW223076   3.532   5.603   6.968
 7393SOL     OW23077   5.984   4.695   3.413
 7393SOL    HW123078   6.064   4.636   3.403
 7393SOL    HW223079   5.901   4.641   3.404
 7394SOL     OW23080   1.631   3.159   6.007
 7394SOL    HW123081   1.662   3.222   5.936
 7394SOL    HW223082   1.698   3.153   6.080
 7395SOL     OW23083   2.013   2.869   0.972
 7395SOL    HW123084   1.966   2.794   1.021
 7395SOL    HW223085   1.956   2.951   0.976
 7396SOL     OW23086   2.428   6.409   1.713
 7396SOL    HW123087   2.499   6.434   1.647
 7396SOL    HW223088   2.472   6.375   1.797
 7397SOL     OW23089   4.856   3.986   4.271
 7397SOL    HW123090   4.805   4.023   4.349
 7397SOL    HW223091   4.871   3.888   4.284
 7398SOL     OW23092   0.951   5.974   2.883
 7398SOL    HW123093   0.918   5.970   2.978
 7398SOL    HW223094   1.046   6.004   2.882
 7399SOL     OW23095   6.468   3.248   4.925
 7399SOL    HW123096   6.469   3.152   4.897
 7399SOL    HW223097   6.374   3.278   4.941
 7400SOL     OW23098   5.064   2.207   5.756
 7400SOL    HW123099   5.034   2.274   5.688
 7400SOL    HW223100   5.096   2.255   5.838
 7401SOL     OW23101   1.617   2.741   3.114
 7401SOL    HW123102   1.526   2.736   3.074
 7401SOL    HW223103   1.609   2.753   3.213
 7402SOL     OW23104   3.413   4.215   6.200
 7402SOL    HW123105   3.385   4.155   6.124
 7402SOL    HW223106   3.349   4.291   6.207
 7403SOL     OW23107   1.449   2.982   2.667
 7403SOL    HW123108   1.540   2.963   2.630
 7403SOL    HW223109   1.384   2.913   2.635
 7404SOL     OW23110   2.863   4.032   1.711
 7404SOL    HW123111   2.767   4.015   1.731
 7404SOL    HW223112   2.878   4.130   1.699
 7405SOL     OW23113   2.798   5.397   4.834
 7405SOL    HW123114   2.699   5.406   4.846
 7405SOL    HW223115   2.837   5.346   4.911
 7406SOL     OW23116   0.862   1.706   5.042
 7406SOL    HW123117   0.830   1.776   5.105
 7406SOL    HW223118   0.811   1.621   5.057
 7407SOL     OW23119   1.356   6.501   5.858
 7407SOL    HW123120   1.277   6.482   5.915
 7407SOL    HW223121   1.403   6.582   5.893
 7408SOL     OW23122   3.670   4.243   5.075
 7408SOL    HW123123   3.598   4.312   5.085
 7408SOL    HW223124   3.682   4.221   4.979
 7409SOL     OW23125   5.351   4.316   0.348
 7409SOL    HW123126   5.282   4.309   0.276
 7409SOL    HW223127   5.431   4.261   0.324
 7410SOL     OW23128   0.754   0.883   0.336
 7410SOL    HW123129   0.685   0.853   0.270
 7410SOL    HW223130   0.717   0.874   0.429
 7411SOL     OW23131   1.865   0.375   6.662
 7411SOL    HW123132   1.859   0.416   6.754
 7411SOL    HW223133   1.879   0.277   6.671
 7412SOL     OW23134   3.781   6.262   1.120
 7412SOL    HW123135   3.793   6.295   1.027
 7412SOL    HW223136   3.696   6.299   1.158
 7413SOL     OW23137   4.910   4.451   3.838
 7413SOL    HW123138   4.830   4.401   3.804
 7413SOL    HW223139   4.946   4.509   3.764
 7414SOL     OW23140   2.212   1.624   4.099
 7414SOL    HW123141   2.151   1.551   4.067
 7414SOL    HW223142   2.174   1.713   4.073
 7415SOL     OW23143   2.682   5.580   5.943
 7415SOL    HW123144   2.660   5.528   6.026
 7415SOL    HW223145   2.672   5.520   5.863
 7416SOL     OW23146   2.055   1.268   2.340
 7416SOL    HW123147   2.012   1.178   2.348
 7416SOL    HW223148   2.052   1.315   2.428
 7417SOL     OW23149   1.838   1.883   2.443
 7417SOL    HW123150   1.740   1.889   2.457
 7417SOL    HW223151   1.865   1.787   2.437
 7418SOL     OW23152   1.944   4.731   6.939
 7418SOL    HW123153   2.027   4.711   6.991
 7418SOL    HW223154   1.961   4.807   6.876
 7419SOL     OW23155   6.611   3.760   3.685
 7419SOL    HW123156   6.666   3.836   3.650
 7419SOL    HW223157   6.597   3.771   3.783
 7420SOL     OW23158   6.832   5.971   1.130
 7420SOL    HW123159   6.889   6.042   1.089
 7420SOL    HW223160   6.886   5.919   1.196
 7421SOL     OW23161   4.218   3.720   1.397
 7421SOL    HW123162   4.284   3.795   1.387
 7421SOL    HW223163   4.178   3.723   1.489
 7422SOL     OW23164   6.552   3.949   2.067
 7422SOL    HW123165   6.564   4.048   2.070
 7422SOL    HW223166   6.512   3.917   2.153
 7423SOL     OW23167   6.203   2.935   5.492
 7423SOL    HW123168   6.106   2.959   5.491
 7423SOL    HW223169   6.215   2.849   5.542
 7424SOL     OW23170   0.155   1.850   5.446
 7424SOL    HW123171   0.122   1.776   5.503
 7424SOL    HW223172   0.145   1.825   5.350
 7425SOL     OW23173   5.238   0.004   0.342
 7425SOL    HW123174   5.266   6.932   0.359
 7425SOL    HW223175   5.300   0.067   0.389
 7426SOL     OW23176   3.404   1.930   5.694
 7426SOL    HW123177   3.355   1.996   5.637
 7426SOL    HW223178   3.353   1.913   5.778
 7427SOL     OW23179   3.760   0.924   3.913
 7427SOL    HW123180   3.748   0.951   3.817
 7427SOL    HW223181   3.822   0.988   3.959
 7428SOL     OW23182   4.514   0.751   5.148
 7428SOL    HW123183   4.439   0.688   5.129
 7428SOL    HW223184   4.546   0.791   5.062
 7429SOL     OW23185   1.180   6.500   2.942
 7429SOL    HW123186   1.151   6.480   3.036
 7429SOL    HW223187   1.103   6.540   2.891
 7430SOL     OW23188   6.584   4.190   1.676
 7430SOL    HW123189   6.636   4.250   1.616
 7430SOL    HW223190   6.622   4.097   1.672
 7431SOL     OW23191   1.656   2.112   3.672
 7431SOL    HW123192   1.678   2.199   3.716
 7431SOL    HW223193   1.729   2.088   3.608
 7432SOL     OW23194   1.931   0.152   3.533
 7432SOL    HW123195   2.030   0.146   3.542
 7432SOL    HW223196   1.907   0.192   3.445
 7433SOL     OW23197   3.398   6.523   6.715
 7433SOL    HW123198   3.386   6.543   6.812
 7433SOL    HW223199   3.379   6.605   6.662
 7434SOL     OW23200   4.622   5.840   5.429
 7434SOL    HW123201   4.631   5.939   5.424
 7434SOL    HW223202   4.688   5.797   5.367
 7435SOL     OW23203   4.476   6.074   1.802
 7435SOL    HW123204   4.516   6.153   1.849
 7435SOL    HW223205   4.429   6.016   1.869
 7436SOL     OW23206   4.508   4.641   6.185
 7436SOL    HW123207   4.431   4.644   6.249
 7436SOL    HW223208   4.559   4.727   6.191
 7437SOL     OW23209   3.191   5.734   1.590
 7437SOL    HW123210   3.246   5.685   1.522
 7437SOL    HW223211   3.212   5.832   1.586
 7438SOL     OW23212   1.991   0.267   0.470
 7438SOL    HW123213   2.075   0.244   0.420
 7438SOL    HW223214   1.920   0.293   0.404
 7439SOL     OW23215   1.419   5.685   5.180
 7439SOL    HW123216   1.371   5.772   5.167
 7439SOL    HW223217   1.417   5.633   5.094
 7440SOL     OW23218   5.980   3.244   3.872
 7440SOL    HW123219   5.943   3.301   3.799
 7440SOL    HW223220   5.929   3.260   3.956
 7441SOL     OW23221   6.055   6.873   3.601
 7441SOL    HW123222   6.151   6.882   3.576
 7441SOL    HW223223   6.019   6.787   3.564
 7442SOL     OW23224   6.121   1.334   6.471
 7442SOL    HW123225   6.141   1.326   6.374
 7442SOL    HW223226   6.039   1.281   6.493
 7443SOL     OW23227   6.795   5.450   1.781
 7443SOL    HW123228   6.809   5.544   1.751
 7443SOL    HW223229   6.812   5.443   1.879
 7444SOL     OW23230   6.553   1.461   6.352
 7444SOL    HW123231   6.530   1.423   6.262
 7444SOL    HW223232   6.469   1.482   6.402
 7445SOL     OW23233   3.662   0.231   1.199
 7445SOL    HW123234   3.726   0.154   1.195
 7445SOL    HW223235   3.594   0.215   1.270
 7446SOL     OW23236   5.102   2.383   0.440
 7446SOL    HW123237   5.040   2.373   0.362
 7446SOL    HW223238   5.080   2.467   0.490
 7447SOL     OW23239   6.892   4.548   6.363
 7447SOL    HW123240   6.871   4.632   6.414
 7447SOL    HW223241   6.977   4.560   6.313
 7448SOL     OW23242   5.000   6.242   5.365
 7448SOL    HW123243   5.035   6.309   5.431
 7448SOL    HW223244   5.053   6.249   5.280
 7449SOL     OW23245   0.549   5.562   0.283
 7449SOL    HW123246   0.576   5.599   0.372
 7449SOL    HW223247   0.588   5.618   0.210
 7450SOL     OW23248   5.167   2.561   5.556
 7450SOL    HW123249   5.080   2.532   5.597
 7450SOL    HW223250   5.238   2.563   5.626
 7451SOL     OW23251   5.460   5.324   2.654
 7451SOL    HW123252   5.482   5.330   2.752
 7451SOL    HW223253   5.394   5.250   2.640
 7452SOL     OW23254   6.607   6.206   4.277
 7452SOL    HW123255   6.622   6.227   4.374
 7452SOL    HW223256   6.512   6.177   4.264
 7453SOL     OW23257   4.889   5.377   6.194
 7453SOL    HW123258   4.875   5.324   6.110
 7453SOL    HW223259   4.922   5.316   6.266
 7454SOL     OW23260   2.503   1.213   0.448
 7454SOL    HW123261   2.501   1.273   0.368
 7454SOL    HW223262   2.409   1.196   0.479
 7455SOL     OW23263   6.384   3.193   2.204
 7455SOL    HW123264   6.372   3.208   2.106
 7455SOL    HW223265   6.410   3.279   2.248
 7456SOL     OW23266   2.741   1.844   5.017
 7456SOL    HW123267   2.680   1.767   4.997
 7456SOL    HW223268   2.806   1.855   4.942
 7457SOL     OW23269   3.210   0.377   4.159
 7457SOL    HW123270   3.265   0.388   4.076
 7457SOL    HW223271   3.214   0.462   4.212
 7458SOL     OW23272   1.399   0.420   6.242
 7458SOL    HW123273   1.342   0.453   6.167
 7458SOL    HW223274   1.402   0.490   6.314
 7459SOL     OW23275   6.643   0.909   2.142
 7459SOL    HW123276   6.653   1.002   2.106
 7459SOL    HW223277   6.734   0.874   2.167
 7460SOL     OW23278   1.547   6.098   6.856
 7460SOL    HW123279   1.555   6.103   6.757
 7460SOL    HW223280   1.460   6.138   6.885
 7461SOL     OW23281   6.190   5.982   5.620
 7461SOL    HW123282   6.224   5.981   5.714
 7461SOL    HW223283   6.097   6.018   5.619
 7462SOL     OW23284   1.784   4.884   1.889
 7462SOL    HW123285   1.725   4.950   1.840
 7462SOL    HW223286   1.860   4.857   1.830
 7463SOL     OW23287   3.431   4.238   0.337
 7463SOL    HW123288   3.462   4.317   0.285
 7463SOL    HW223289   3.507   4.202   0.392
 7464SOL     OW23290   6.720   6.761   5.077
 7464SOL    HW123291   6.631   6.803   5.097
 7464SOL    HW223292   6.708   6.663   5.066
 7465SOL     OW23293   2.935   5.285   0.331
 7465SOL    HW123294   2.837   5.274   0.343
 7465SOL    HW223295   2.972   5.208   0.280
 7466SOL     OW23296   0.731   0.533   6.271
 7466SOL    HW123297   0.657   0.474   6.302
 7466SOL    HW223298   0.741   0.610   6.334
 7467SOL     OW23299   0.447   2.273   6.383
 7467SOL    HW123300   0.500   2.263   6.467
 7467SOL    HW223301   0.505   2.309   6.311
 7468SOL     OW23302   5.074   2.646   4.035
 7468SOL    HW123303   5.062   2.610   3.942
 7468SOL    HW223304   5.049   2.743   4.036
 7469SOL     OW23305   6.489   2.179   0.281
 7469SOL    HW123306   6.412   2.115   0.287
 7469SOL    HW223307   6.486   2.243   0.357
 7470SOL     OW23308   5.475   3.904   3.622
 7470SOL    HW123309   5.496   3.811   3.590
 7470SOL    HW223310   5.419   3.899   3.704
 7471SOL     OW23311   4.989   6.034   5.715
 7471SOL    HW123312   4.994   5.970   5.638
 7471SOL    HW223313   4.999   5.984   5.800
 7472SOL     OW23314   6.130   0.923   5.350
 7472SOL    HW123315   6.118   1.000   5.414
 7472SOL    HW223316   6.167   0.957   5.264
 7473SOL     OW23317   5.295   6.421   3.758
 7473SOL    HW123318   5.365   6.478   3.715
 7473SOL    HW223319   5.205   6.443   3.719
 7474SOL     OW23320   6.490   2.715   6.553
 7474SOL    HW123321   6.427   2.791   6.534
 7474SOL    HW223322   6.481   2.688   6.649
 7475SOL     OW23323   4.486   2.409   1.927
 7475SOL    HW123324   4.411   2.342   1.932
 7475SOL    HW223325   4.519   2.429   2.019
 7476SOL     OW23326   1.967   1.997   3.149
 7476SOL    HW123327   1.886   1.939   3.144
 7476SOL    HW223328   2.035   1.965   3.082
 7477SOL     OW23329   0.457   3.223   5.362
 7477SOL    HW123330   0.456   3.124   5.359
 7477SOL    HW223331   0.493   3.258   5.275
 7478SOL     OW23332   5.569   3.635   5.327
 7478SOL    HW123333   5.609   3.546   5.349
 7478SOL    HW223334   5.559   3.644   5.228
 7479SOL     OW23335   5.227   2.967   0.458
 7479SOL    HW123336   5.177   3.053   0.464
 7479SOL    HW223337   5.176   2.903   0.402
 7480SOL     OW23338   2.110   5.070   2.445
 7480SOL    HW123339   2.024   5.044   2.401
 7480SOL    HW223340   2.187   5.033   2.394
 7481SOL     OW23341   6.228   4.760   6.909
 7481SOL    HW123342   6.139   4.774   6.950
 7481SOL    HW223343   6.247   4.834   6.844
 7482SOL     OW23344   4.281   2.317   2.617
 7482SOL    HW123345   4.299   2.395   2.676
 7482SOL    HW223346   4.301   2.232   2.666
 7483SOL     OW23347   4.703   2.829   4.728
 7483SOL    HW123348   4.800   2.835   4.753
 7483SOL    HW223349   4.647   2.832   4.811
 7484SOL     OW23350   1.589   5.390   4.781
 7484SOL    HW123351   1.612   5.445   4.700
 7484SOL    HW223352   1.669   5.383   4.840
 7485SOL     OW23353   2.727   6.862   3.583
 7485SOL    HW123354   2.763   6.933   3.523
 7485SOL    HW223355   2.631   6.844   3.561
 7486SOL     OW23356   0.886   5.917   0.085
 7486SOL    HW123357   0.844   6.006   0.064
 7486SOL    HW223358   0.930   5.881   0.003
 7487SOL     OW23359   3.850   0.625   3.224
 7487SOL    HW123360   3.921   0.611   3.155
 7487SOL    HW223361   3.877   0.581   3.309
 7488SOL     OW23362   1.824   6.045   4.649
 7488SOL    HW123363   1.854   6.072   4.558
 7488SOL    HW223364   1.880   6.090   4.719
 7489SOL     OW23365   6.512   3.381   0.024
 7489SOL    HW123366   6.468   3.461   7.006
 7489SOL    HW223367   6.455   3.300   0.010
 7490SOL     OW23368   1.571   1.788   2.090
 7490SOL    HW123369   1.569   1.875   2.140
 7490SOL    HW223370   1.647   1.732   2.124
 7491SOL     OW23371   5.091   2.759   0.322
 7491SOL    HW123372   5.094   2.701   0.403
 7491SOL    HW223373   5.066   2.703   0.243
 7492SOL     OW23374   1.910   1.426   4.367
 7492SOL    HW123375   1.943   1.385   4.282
 7492SOL    HW223376   1.928   1.525   4.365
 7493SOL     OW23377   6.753   3.219   5.285
 7493SOL    HW123378   6.838   3.264   5.314
 7493SOL    HW223379   6.759   3.198   5.188
 7494SOL     OW23380   5.709   1.071   4.006
 7494SOL    HW123381   5.801   1.111   4.001
 7494SOL    HW223382   5.689   1.022   3.921
 7495SOL     OW23383   1.683   2.743   4.589
 7495SOL    HW123384   1.693   2.816   4.657
 7495SOL    HW223385   1.741   2.666   4.614
 7496SOL     OW23386   5.468   3.282   4.304
 7496SOL    HW123387   5.460   3.231   4.218
 7496SOL    HW223388   5.376   3.298   4.341
 7497SOL     OW23389   1.683   6.243   1.395
 7497SOL    HW123390   1.755   6.304   1.362
 7497SOL    HW223391   1.724   6.162   1.436
 7498SOL     OW23392   2.220   0.708   4.265
 7498SOL    HW123393   2.127   0.704   4.301
 7498SOL    HW223394   2.241   0.622   4.217
 7499SOL     OW23395   4.361   1.875   3.486
 7499SOL    HW123396   4.290   1.812   3.455
 7499SOL    HW223397   4.417   1.904   3.407
 7500SOL     OW23398   3.447   5.729   3.632
 7500SOL    HW123399   3.445   5.818   3.586
 7500SOL    HW223400   3.520   5.673   3.593
 7501SOL     OW23401   5.815   3.395   4.043
 7501SOL    HW123402   5.725   3.430   4.015
 7501SOL    HW223403   5.884   3.465   4.026
 7502SOL     OW23404   3.562   0.296   3.923
 7502SOL    HW123405   3.655   0.268   3.948
 7502SOL    HW223406   3.542   0.267   3.830
 7503SOL     OW23407   1.924   6.207   0.371
 7503SOL    HW123408   1.935   6.260   0.455
 7503SOL    HW223409   1.830   6.174   0.364
 7504SOL     OW23410   0.664   6.139   2.028
 7504SOL    HW123411   0.586   6.093   1.986
 7504SOL    HW223412   0.632   6.219   2.080
 7505SOL     OW23413   1.177   1.630   5.883
 7505SOL    HW123414   1.150   1.537   5.858
 7505SOL    HW223415   1.122   1.696   5.831
 7506SOL     OW23416   4.212   2.304   3.604
 7506SOL    HW123417   4.114   2.311   3.584
 7506SOL    HW223418   4.264   2.326   3.521
 7507SOL     OW23419   6.603   3.018   3.964
 7507SOL    HW123420   6.508   3.016   3.935
 7507SOL    HW223421   6.633   3.112   3.977
 7508SOL     OW23422   1.844   5.352   0.720
 7508SOL    HW123423   1.776   5.280   0.704
 7508SOL    HW223424   1.893   5.370   0.635
 7509SOL     OW23425   5.727   3.355   0.659
 7509SOL    HW123426   5.772   3.319   0.741
 7509SOL    HW223427   5.709   3.453   0.671
 7510SOL     OW23428   4.031   3.483   3.810
 7510SOL    HW123429   3.957   3.533   3.854
 7510SOL    HW223430   4.071   3.418   3.876
 7511SOL     OW23431   2.861   6.090   3.481
 7511SOL    HW123432   2.772   6.061   3.518
 7511SOL    HW223433   2.876   6.045   3.393
 7512SOL     OW23434   2.790   0.996   6.842
 7512SOL    HW123435   2.730   1.007   6.921
 7512SOL    HW223436   2.877   0.955   6.871
 7513SOL     OW23437   2.401   2.126   3.269
 7513SOL    HW123438   2.344   2.206   3.290
 7513SOL    HW223439   2.377   2.092   3.178
 7514SOL     OW23440   1.895   4.845   4.032
 7514SOL    HW123441   1.905   4.749   4.057
 7514SOL    HW223442   1.943   4.902   4.099
 7515SOL     OW23443   6.902   4.237   5.100
 7515SOL    HW123444   6.978   4.175   5.120
 7515SOL    HW223445   6.930   4.302   5.030
 7516SOL     OW23446   0.619   5.489   6.107
 7516SOL    HW123447   0.685   5.549   6.153
 7516SOL    HW223448   0.576   5.539   6.031
 7517SOL     OW23449   1.370   2.495   6.975
 7517SOL    HW123450   1.450   2.551   6.957
 7517SOL    HW223451   1.396   2.413   0.004
 7518SOL     OW23452   4.960   3.150   3.753
 7518SOL    HW123453   4.939   3.062   3.795
 7518SOL    HW223454   5.058   3.170   3.763
 7519SOL     OW23455   5.240   0.047   4.267
 7519SOL    HW123456   5.230   0.007   4.176
 7519SOL    HW223457   5.227   0.146   4.263
 7520SOL     OW23458   1.426   1.494   2.622
 7520SOL    HW123459   1.387   1.582   2.593
 7520SOL    HW223460   1.452   1.441   2.541
 7521SOL     OW23461   4.758   2.069   4.652
 7521SOL    HW123462   4.845   2.057   4.603
 7521SOL    HW223463   4.728   1.981   4.688
 7522SOL     OW23464   1.305   0.243   5.078
 7522SOL    HW123465   1.396   0.206   5.060
 7522SOL    HW223466   1.309   0.343   5.080
 7523SOL     OW23467   5.371   0.787   5.856
 7523SOL    HW123468   5.333   0.775   5.948
 7523SOL    HW223469   5.469   0.802   5.862
 7524SOL     OW23470   0.028   2.857   4.960
 7524SOL    HW123471   0.031   2.957   4.967
 7524SOL    HW223472   0.076   2.817   5.039
 7525SOL     OW23473   4.171   6.632   6.667
 7525SOL    HW123474   4.110   6.652   6.745
 7525SOL    HW223475   4.124   6.654   6.582
 7526SOL     OW23476   2.442   2.715   1.671
 7526SOL    HW123477   2.455   2.664   1.756
 7526SOL    HW223478   2.384   2.661   1.609
 7527SOL     OW23479   3.522   5.895   4.084
 7527SOL    HW123480   3.446   5.959   4.093
 7527SOL    HW223481   3.493   5.816   4.031
 7528SOL     OW23482   5.350   2.368   6.731
 7528SOL    HW123483   5.420   2.335   6.668
 7528SOL    HW223484   5.390   2.382   6.822
 7529SOL     OW23485   5.317   2.310   3.834
 7529SOL    HW123486   5.319   2.311   3.934
 7529SOL    HW223487   5.333   2.402   3.799
 7530SOL     OW23488   6.484   1.319   2.022
 7530SOL    HW123489   6.487   1.394   2.087
 7530SOL    HW223490   6.501   1.353   1.930
 7531SOL     OW23491   5.079   3.015   3.235
 7531SOL    HW123492   4.997   3.047   3.282
 7531SOL    HW223493   5.090   3.065   3.150
 7532SOL     OW23494   4.601   6.200   6.226
 7532SOL    HW123495   4.561   6.281   6.181
 7532SOL    HW223496   4.697   6.191   6.199
 7533SOL     OW23497   4.511   2.630   1.476
 7533SOL    HW123498   4.573   2.675   1.541
 7533SOL    HW223499   4.430   2.598   1.525
 7534SOL     OW23500   4.555   6.233   4.428
 7534SOL    HW123501   4.481   6.174   4.394
 7534SOL    HW223502   4.530   6.329   4.416
 7535SOL     OW23503   1.517   6.718   4.948
 7535SOL    HW123504   1.534   6.815   4.929
 7535SOL    HW223505   1.535   6.664   4.866
 7536SOL     OW23506   5.575   6.191   4.002
 7536SOL    HW123507   5.555   6.208   3.905
 7536SOL    HW223508   5.495   6.217   4.057
 7537SOL     OW23509   1.864   4.972   2.352
 7537SOL    HW123510   1.792   4.929   2.298
 7537SOL    HW223511   1.832   4.985   2.446
 7538SOL     OW23512   1.624   2.649   1.854
 7538SOL    HW123513   1.541   2.609   1.815
 7538SOL    HW223514   1.603   2.695   1.940
 7539SOL     OW23515   1.723   5.285   3.253
 7539SOL    HW123516   1.624   5.292   3.258
 7539SOL    HW223517   1.761   5.370   3.217
 7540SOL     OW23518   4.781   6.080   4.579
 7540SOL    HW123519   4.716   6.146   4.541
 7540SOL    HW223520   4.733   6.013   4.635
 7541SOL     OW23521   0.610   4.226   6.261
 7541SOL    HW123522   0.643   4.243   6.354
 7541SOL    HW223523   0.682   4.247   6.196
 7542SOL     OW23524   6.649   5.656   5.260
 7542SOL    HW123525   6.696   5.626   5.343
 7542SOL    HW223526   6.625   5.752   5.267
 7543SOL     OW23527   2.988   0.679   4.973
 7543SOL    HW123528   2.903   0.628   4.987
 7543SOL    HW223529   2.987   0.761   5.029
 7544SOL     OW23530   0.760   2.853   4.549
 7544SOL    HW123531   0.689   2.786   4.526
 7544SOL    HW223532   0.735   2.900   4.633
 7545SOL     OW23533   0.301   5.974   5.855
 7545SOL    HW123534   0.288   5.875   5.866
 7545SOL    HW223535   0.237   6.022   5.915
 7546SOL     OW23536   4.803   2.740   1.406
 7546SOL    HW123537   4.877   2.752   1.339
 7546SOL    HW223538   4.730   2.686   1.366
 7547SOL     OW23539   4.546   0.546   1.092
 7547SOL    HW123540   4.636   0.557   1.051
 7547SOL    HW223541   4.494   0.631   1.081
 7548SOL     OW23542   4.301   2.189   6.888
 7548SOL    HW123543   4.307   2.121   6.815
 7548SOL    HW223544   4.233   2.258   6.864
 7549SOL     OW23545   3.520   2.752   6.626
 7549SOL    HW123546   3.620   2.749   6.638
 7549SOL    HW223547   3.494   2.687   6.555
 7550SOL     OW23548   1.713   4.427   3.412
 7550SOL    HW123549   1.723   4.518   3.372
 7550SOL    HW223550   1.803   4.393   3.440
 7551SOL     OW23551   5.367   2.947   5.349
 7551SOL    HW123552   5.352   2.983   5.257
 7551SOL    HW223553   5.431   2.870   5.345
 7552SOL     OW23554   1.344   5.773   4.655
 7552SOL    HW123555   1.292   5.803   4.575
 7552SOL    HW223556   1.429   5.825   4.662
 7553SOL     OW23557   5.795   6.177   6.063
 7553SOL    HW123558   5.695   6.181   6.070
 7553SOL    HW223559   5.836   6.199   6.151
 7554SOL     OW23560   5.133   0.915   0.395
 7554SOL    HW123561   5.160   0.825   0.361
 7554SOL    HW223562   5.215   0.967   0.418
 7555SOL     OW23563   2.967   5.856   6.209
 7555SOL    HW123564   2.940   5.941   6.163
 7555SOL    HW223565   3.016   5.797   6.145
 7556SOL     OW23566   1.096   1.540   0.614
 7556SOL    HW123567   1.109   1.638   0.599
 7556SOL    HW223568   1.160   1.489   0.556
 7557SOL     OW23569   4.560   0.207   0.012
 7557SOL    HW123570   4.620   0.287   0.007
 7557SOL    HW223571   4.579   0.158   0.097
 7558SOL     OW23572   1.587   2.727   3.389
 7558SOL    HW123573   1.492   2.751   3.369
 7558SOL    HW223574   1.591   2.674   3.473
 7559SOL     OW23575   3.865   2.391   5.369
 7559SOL    HW123576   3.901   2.346   5.287
 7559SOL    HW223577   3.915   2.477   5.384
 7560SOL     OW23578   6.299   0.060   6.993
 7560SOL    HW123579   6.266   6.990   6.974
 7560SOL    HW223580   6.294   0.077   0.069
 7561SOL     OW23581   5.710   3.392   5.389
 7561SOL    HW123582   5.805   3.394   5.359
 7561SOL    HW223583   5.694   3.313   5.448
 7562SOL     OW23584   0.986   5.115   4.728
 7562SOL    HW123585   1.073   5.118   4.678
 7562SOL    HW223586   0.931   5.194   4.703
 7563SOL     OW23587   2.595   6.105   2.682
 7563SOL    HW123588   2.621   6.127   2.776
 7563SOL    HW223589   2.561   6.011   2.679
 7564SOL     OW23590   4.055   0.701   4.874
 7564SOL    HW123591   4.063   0.601   4.884
 7564SOL    HW223592   4.140   0.737   4.836
 7565SOL     OW23593   6.074   4.313   5.677
 7565SOL    HW123594   6.172   4.299   5.687
 7565SOL    HW223595   6.054   4.343   5.583
 7566SOL     OW23596   5.256   4.938   2.201
 7566SOL    HW123597   5.288   4.846   2.177
 7566SOL    HW223598   5.334   4.999   2.211
 7567SOL     OW23599   1.059   1.149   4.899
 7567SOL    HW123600   1.081   1.136   4.803
 7567SOL    HW223601   0.980   1.210   4.908
 7568SOL     OW23602   5.675   5.489   1.978
 7568SOL    HW123603   5.678   5.391   1.955
 7568SOL    HW223604   5.762   5.531   1.953
 7569SOL     OW23605   4.148   4.394   6.421
 7569SOL    HW123606   4.210   4.354   6.354
 7569SOL    HW223607   4.088   4.323   6.459
 7570SOL     OW23608   6.938   2.434   3.863
 7570SOL    HW123609   6.846   2.473   3.867
 7570SOL    HW223610   6.964   2.400   3.954
 7571SOL     OW23611   5.384   3.764   2.892
 7571SOL    HW123612   5.351   3.821   2.817
 7571SOL    HW223613   5.428   3.682   2.855
 7572SOL     OW23614   5.214   6.471   3.064
 7572SOL    HW123615   5.121   6.508   3.067
 7572SOL    HW223616   5.272   6.520   3.129
 7573SOL     OW23617   5.946   0.628   5.754
 7573SOL    HW123618   6.044   0.612   5.763
 7573SOL    HW223619   5.897   0.565   5.814
 7574SOL     OW23620   5.750   1.644   4.444
 7574SOL    HW123621   5.673   1.627   4.383
 7574SOL    HW223622   5.817   1.702   4.397
 7575SOL     OW23623   6.264   6.430   0.589
 7575SOL    HW123624   6.321   6.415   0.670
 7575SOL    HW223625   6.250   6.528   0.576
 7576SOL     OW23626   5.091   2.618   0.568
 7576SOL    HW123627   5.018   2.624   0.637
 7576SOL    HW223628   5.169   2.672   0.598
 7577SOL     OW23629   6.941   6.318   0.091
 7577SOL    HW123630   0.003   6.347   0.045
 7577SOL    HW223631   6.942   6.219   0.103
 7578SOL     OW23632   1.355   5.188   2.392
 7578SOL    HW123633   1.370   5.223   2.299
 7578SOL    HW223634   1.341   5.089   2.388
 7579SOL     OW23635   6.774   1.715   1.361
 7579SOL    HW123636   6.731   1.794   1.318
 7579SOL    HW223637   6.859   1.693   1.313
 7580SOL     OW23638   1.604   4.885   3.609
 7580SOL    HW123639   1.651   4.972   3.594
 7580SOL    HW223640   1.605   4.831   3.525
 7581SOL     OW23641   0.687   1.140   1.064
 7581SOL    HW123642   0.618   1.075   1.094
 7581SOL    HW223643   0.778   1.107   1.089
 7582SOL     OW23644   4.052   1.551   3.739
 7582SOL    HW123645   3.986   1.520   3.808
 7582SOL    HW223646   4.094   1.636   3.769
 7583SOL     OW23647   5.256   3.943   3.138
 7583SOL    HW123648   5.194   4.020   3.126
 7583SOL    HW223649   5.229   3.868   3.077
 7584SOL     OW23650   1.118   6.673   2.480
 7584SOL    HW123651   1.149   6.739   2.549
 7584SOL    HW223652   1.127   6.580   2.516
 7585SOL     OW23653   0.899   2.413   6.995
 7585SOL    HW123654   0.843   2.341   0.012
 7585SOL    HW223655   0.991   2.379   6.980
 7586SOL     OW23656   1.721   0.363   2.363
 7586SOL    HW123657   1.811   0.340   2.325
 7586SOL    HW223658   1.681   0.438   2.310
 7587SOL     OW23659   2.843   1.469   0.824
 7587SOL    HW123660   2.901   1.388   0.835
 7587SOL    HW223661   2.819   1.506   0.914
 7588SOL     OW23662   1.176   2.476   4.038
 7588SOL    HW123663   1.118   2.402   4.005
 7588SOL    HW223664   1.213   2.453   4.128
 7589SOL     OW23665   0.045   1.373   3.193
 7589SOL    HW123666   6.981   1.392   3.240
 7589SOL    HW223667   0.027   1.318   3.111
 7590SOL     OW23668   6.316   1.257   6.695
 7590SOL    HW123669   6.335   1.349   6.660
 7590SOL    HW223670   6.243   1.215   6.642
 7591SOL     OW23671   4.757   3.089   6.567
 7591SOL    HW123672   4.779   3.048   6.479
 7591SOL    HW223673   4.659   3.109   6.571
 7592SOL     OW23674   6.403   4.549   4.513
 7592SOL    HW123675   6.392   4.572   4.610
 7592SOL    HW223676   6.394   4.451   4.500
 7593SOL     OW23677   6.702   2.766   6.060
 7593SOL    HW123678   6.786   2.715   6.077
 7593SOL    HW223679   6.638   2.707   6.009
 7594SOL     OW23680   1.067   4.367   1.490
 7594SOL    HW123681   1.029   4.319   1.569
 7594SOL    HW223682   1.147   4.420   1.518
 7595SOL     OW23683   6.624   3.625   6.128
 7595SOL    HW123684   6.542   3.682   6.133
 7595SOL    HW223685   6.698   3.677   6.085
 7596SOL     OW23686   3.282   0.199   4.849
 7596SOL    HW123687   3.232   0.113   4.856
 7596SOL    HW223688   3.264   0.256   4.930
 7597SOL     OW23689   1.874   6.260   2.860
 7597SOL    HW123690   1.941   6.287   2.929
 7597SOL    HW223691   1.851   6.338   2.803
 7598SOL     OW23692   6.166   0.540   2.950
 7598SOL    HW123693   6.090   0.549   3.014
 7598SOL    HW223694   6.168   0.619   2.889
 7599SOL     OW23695   4.940   3.010   1.051
 7599SOL    HW123696   4.894   2.979   0.967
 7599SOL    HW223697   4.872   3.050   1.113
 7600SOL     OW23698   1.552   1.024   3.599
 7600SOL    HW123699   1.630   0.964   3.583
 7600SOL    HW223700   1.559   1.066   3.689
 7601SOL     OW23701   3.089   5.199   2.188
 7601SOL    HW123702   2.997   5.237   2.179
 7601SOL    HW223703   3.121   5.213   2.282
 7602SOL     OW23704   0.161   2.931   0.335
 7602SOL    HW123705   0.081   2.943   0.393
 7602SOL    HW223706   0.212   2.850   0.365
 7603SOL     OW23707   2.204   6.744   5.960
 7603SOL    HW123708   2.203   6.659   5.908
 7603SOL    HW223709   2.296   6.761   5.994
 7604SOL     OW23710   1.612   1.986   4.970
 7604SOL    HW123711   1.591   2.045   5.048
 7604SOL    HW223712   1.530   1.934   4.945
 7605SOL     OW23713   0.603   0.470   0.365
 7605SOL    HW123714   0.677   0.419   0.322
 7605SOL    HW223715   0.631   0.566   0.376
 7606SOL     OW23716   5.764   2.733   4.786
 7606SOL    HW123717   5.792   2.754   4.693
 7606SOL    HW223718   5.827   2.667   4.827
 7607SOL     OW23719   3.759   5.904   0.841
 7607SOL    HW123720   3.719   5.914   0.750
 7607SOL    HW223721   3.820   5.824   0.841
 7608SOL     OW23722   5.359   2.331   6.198
 7608SOL    HW123723   5.336   2.393   6.273
 7608SOL    HW223724   5.404   2.382   6.125
 7609SOL     OW23725   0.508   3.492   3.945
 7609SOL    HW123726   0.494   3.503   4.043
 7609SOL    HW223727   0.448   3.421   3.910
 7610SOL     OW23728   3.831   5.045   6.212
 7610SOL    HW123729   3.843   5.116   6.281
 7610SOL    HW223730   3.864   4.958   6.248
 7611SOL     OW23731   4.945   3.564   1.526
 7611SOL    HW123732   4.977   3.473   1.550
 7611SOL    HW223733   5.012   3.608   1.466
 7612SOL     OW23734   4.100   2.195   3.164
 7612SOL    HW123735   4.032   2.130   3.197
 7612SOL    HW223736   4.091   2.205   3.065
 7613SOL     OW23737   0.721   2.093   1.778
 7613SOL    HW123738   0.811   2.132   1.798
 7613SOL    HW223739   0.720   2.057   1.684
 7614SOL     OW23740   5.166   3.131   0.981
 7614SOL    HW123741   5.080   3.090   1.011
 7614SOL    HW223742   5.147   3.218   0.936
 7615SOL     OW23743   5.474   3.968   5.589
 7615SOL    HW123744   5.493   4.017   5.504
 7615SOL    HW223745   5.519   3.879   5.587
 7616SOL     OW23746   6.260   0.348   3.142
 7616SOL    HW123747   6.300   0.279   3.082
 7616SOL    HW223748   6.216   0.419   3.086
 7617SOL     OW23749   5.000   4.946   3.044
 7617SOL    HW123750   5.016   4.853   3.078
 7617SOL    HW223751   4.932   4.943   2.971
 7618SOL     OW23752   1.436   2.344   0.182
 7618SOL    HW123753   1.406   2.407   0.254
 7618SOL    HW223754   1.528   2.311   0.203
 7619SOL     OW23755   0.376   2.629   4.257
 7619SOL    HW123756   0.350   2.537   4.227
 7619SOL    HW223757   0.297   2.674   4.298
 7620SOL     OW23758   3.614   4.467   0.309
 7620SOL    HW123759   3.533   4.506   0.266
 7620SOL    HW223760   3.668   4.418   0.240
 7621SOL     OW23761   0.261   6.149   0.914
 7621SOL    HW123762   0.208   6.163   0.830
 7621SOL    HW223763   0.270   6.236   0.962
 7622SOL     OW23764   4.311   4.354   0.221
 7622SOL    HW123765   4.367   4.373   0.140
 7622SOL    HW223766   4.344   4.410   0.297
 7623SOL     OW23767   4.130   4.740   0.697
 7623SOL    HW123768   4.084   4.651   0.693
 7623SOL    HW223769   4.065   4.809   0.729
 7624SOL     OW23770   0.285   2.750   2.711
 7624SOL    HW123771   0.222   2.781   2.783
 7624SOL    HW223772   0.323   2.661   2.736
 7625SOL     OW23773   5.473   2.259   0.115
 7625SOL    HW123774   5.456   2.269   0.213
 7625SOL    HW223775   5.421   2.182   0.079
 7626SOL     OW23776   6.476   1.030   5.792
 7626SOL    HW123777   6.552   1.049   5.730
 7626SOL    HW223778   6.454   0.933   5.789
 7627SOL     OW23779   3.546   1.949   0.946
 7627SOL    HW123780   3.457   1.988   0.921
 7627SOL    HW223781   3.587   2.004   1.019
 7628SOL     OW23782   4.249   3.244   1.063
 7628SOL    HW123783   4.221   3.260   1.158
 7628SOL    HW223784   4.177   3.195   1.015
 7629SOL     OW23785   6.251   3.646   4.052
 7629SOL    HW123786   6.239   3.588   4.133
 7629SOL    HW223787   6.345   3.679   4.048
 7630SOL     OW23788   1.349   0.029   5.714
 7630SOL    HW123789   1.312   6.969   5.672
 7630SOL    HW223790   1.415   0.072   5.652
 7631SOL     OW23791   1.296   0.480   5.799
 7631SOL    HW123792   1.257   0.539   5.869
 7631SOL    HW223793   1.222   0.446   5.739
 7632SOL     OW23794   4.543   5.231   1.129
 7632SOL    HW123795   4.451   5.224   1.169
 7632SOL    HW223796   4.586   5.141   1.127
 7633SOL     OW23797   6.090   0.383   1.323
 7633SOL    HW123798   6.128   0.329   1.398
 7633SOL    HW223799   6.111   0.480   1.338
 7634SOL     OW23800   1.336   1.121   1.491
 7634SOL    HW123801   1.339   1.203   1.547
 7634SOL    HW223802   1.428   1.083   1.482
 7635SOL     OW23803   2.535   5.218   4.882
 7635SOL    HW123804   2.539   5.228   4.783
 7635SOL    HW223805   2.483   5.293   4.922
 7636SOL     OW23806   0.170   4.031   4.098
 7636SOL    HW123807   0.085   4.032   4.045
 7636SOL    HW223808   0.149   4.016   4.195
 7637SOL     OW23809   0.749   6.549   3.365
 7637SOL    HW123810   0.804   6.468   3.345
 7637SOL    HW223811   0.805   6.631   3.353
 7638SOL     OW23812   1.469   5.341   1.416
 7638SOL    HW123813   1.471   5.422   1.358
 7638SOL    HW223814   1.495   5.365   1.509
 7639SOL     OW23815   0.244   0.656   0.123
 7639SOL    HW123816   0.271   0.579   0.180
 7639SOL    HW223817   0.227   0.736   0.180
 7640SOL     OW23818   3.484   2.042   6.730
 7640SOL    HW123819   3.435   1.981   6.668
 7640SOL    HW223820   3.575   2.006   6.749
 7641SOL     OW23821   6.867   3.985   3.201
 7641SOL    HW123822   6.951   4.030   3.171
 7641SOL    HW223823   6.817   3.951   3.121
 7642SOL     OW23824   5.974   1.138   2.907
 7642SOL    HW123825   5.995   1.049   2.949
 7642SOL    HW223826   5.925   1.123   2.821
 7643SOL     OW23827   5.248   1.824   3.082
 7643SOL    HW123828   5.319   1.856   3.020
 7643SOL    HW223829   5.180   1.897   3.096
 7644SOL     OW23830   4.852   3.069   2.515
 7644SOL    HW123831   4.869   2.986   2.568
 7644SOL    HW223832   4.837   3.045   2.419
 7645SOL     OW23833   3.996   3.348   5.200
 7645SOL    HW123834   3.898   3.339   5.219
 7645SOL    HW223835   4.010   3.418   5.130
 7646SOL     OW23836   0.712   3.108   3.274
 7646SOL    HW123837   0.678   3.063   3.191
 7646SOL    HW223838   0.635   3.151   3.322
 7647SOL     OW23839   1.016   2.836   4.596
 7647SOL    HW123840   1.042   2.932   4.595
 7647SOL    HW223841   0.917   2.829   4.585
 7648SOL     OW23842   2.411   1.688   2.808
 7648SOL    HW123843   2.428   1.627   2.885
 7648SOL    HW223844   2.406   1.635   2.724
 7649SOL     OW23845   1.139   1.241   4.635
 7649SOL    HW123846   1.083   1.319   4.664
 7649SOL    HW223847   1.107   1.207   4.547
 7650SOL     OW23848   4.987   1.278   0.924
 7650SOL    HW123849   5.029   1.240   1.007
 7650SOL    HW223850   5.044   1.353   0.889
 7651SOL     OW23851   2.074   5.143   4.560
 7651SOL    HW123852   2.100   5.210   4.630
 7651SOL    HW223853   2.118   5.055   4.580
 7652SOL     OW23854   5.828   2.338   5.059
 7652SOL    HW123855   5.825   2.285   5.144
 7652SOL    HW223856   5.794   2.430   5.076
 7653SOL     OW23857   1.031   1.494   7.007
 7653SOL    HW123858   1.114   1.548   7.016
 7653SOL    HW223859   0.954   1.543   0.024
 7654SOL     OW23860   5.843   3.052   4.767
 7654SOL    HW123861   5.758   3.093   4.800
 7654SOL    HW223862   5.843   2.954   4.788
 7655SOL     OW23863   3.109   0.295   3.536
 7655SOL    HW123864   3.056   0.379   3.550
 7655SOL    HW223865   3.114   0.275   3.438
 7656SOL     OW23866   6.458   3.146   5.950
 7656SOL    HW123867   6.544   3.113   5.990
 7656SOL    HW223868   6.384   3.082   5.974
 7657SOL     OW23869   1.868   3.440   4.303
 7657SOL    HW123870   1.821   3.375   4.363
 7657SOL    HW223871   1.963   3.411   4.290
 7658SOL     OW23872   3.196   0.125   1.004
 7658SOL    HW123873   3.244   0.182   1.070
 7658SOL    HW223874   3.111   0.169   0.978
 7659SOL     OW23875   4.789   3.860   6.026
 7659SOL    HW123876   4.803   3.919   5.947
 7659SOL    HW223877   4.742   3.776   5.998
 7660SOL     OW23878   6.389   5.491   4.648
 7660SOL    HW123879   6.418   5.400   4.619
 7660SOL    HW223880   6.374   5.548   4.568
 7661SOL     OW23881   4.445   2.500   6.079
 7661SOL    HW123882   4.475   2.562   6.006
 7661SOL    HW223883   4.368   2.446   6.046
 7662SOL     OW23884   0.728   2.371   3.092
 7662SOL    HW123885   0.745   2.273   3.105
 7662SOL    HW223886   0.713   2.389   2.995
 7663SOL     OW23887   5.322   5.963   6.231
 7663SOL    HW123888   5.252   5.892   6.240
 7663SOL    HW223889   5.337   5.982   6.134
 7664SOL     OW23890   4.048   1.108   3.127
 7664SOL    HW123891   3.999   1.143   3.207
 7664SOL    HW223892   4.085   1.017   3.148
 7665SOL     OW23893   5.661   2.148   4.371
 7665SOL    HW123894   5.748   2.152   4.421
 7665SOL    HW223895   5.586   2.165   4.434
 7666SOL     OW23896   6.370   6.096   4.142
 7666SOL    HW123897   6.427   6.027   4.096
 7666SOL    HW223898   6.323   6.152   4.074
 7667SOL     OW23899   4.557   0.148   2.160
 7667SOL    HW123900   4.495   0.103   2.224
 7667SOL    HW223901   4.506   0.174   2.078
 7668SOL     OW23902   2.710   4.987   0.959
 7668SOL    HW123903   2.734   4.910   0.900
 7668SOL    HW223904   2.616   5.015   0.942
 7669SOL     OW23905   4.138   0.710   6.063
 7669SOL    HW123906   4.176   0.787   6.011
 7669SOL    HW223907   4.185   0.705   6.152
 7670SOL     OW23908   0.872   6.577   0.378
 7670SOL    HW123909   0.938   6.545   0.445
 7670SOL    HW223910   0.913   6.648   0.321
 7671SOL     OW23911   5.609   6.730   2.897
 7671SOL    HW123912   5.569   6.820   2.913
 7671SOL    HW223913   5.708   6.739   2.885
 7672SOL     OW23914   6.813   4.951   3.092
 7672SOL    HW123915   6.862   4.959   3.005
 7672SOL    HW223916   6.823   4.859   3.128
 7673SOL     OW23917   1.433   6.049   2.500
 7673SOL    HW123918   1.412   6.090   2.411
 7673SOL    HW223919   1.531   6.056   2.518
 7674SOL     OW23920   4.418   1.113   3.881
 7674SOL    HW123921   4.475   1.032   3.895
 7674SOL    HW223922   4.322   1.089   3.896
 7675SOL     OW23923   3.621   6.722   3.388
 7675SOL    HW123924   3.712   6.695   3.356
 7675SOL    HW223925   3.594   6.664   3.465
 7676SOL     OW23926   2.855   2.387   5.880
 7676SOL    HW123927   2.788   2.419   5.947
 7676SOL    HW223928   2.825   2.412   5.788
 7677SOL     OW23929   6.974   4.397   1.285
 7677SOL    HW123930   6.977   4.310   1.334
 7677SOL    HW223931   0.044   4.425   1.262
 7678SOL     OW23932   1.759   1.979   5.325
 7678SOL    HW123933   1.735   1.974   5.422
 7678SOL    HW223934   1.845   1.931   5.309
 7679SOL     OW23935   2.101   5.352   5.609
 7679SOL    HW123936   2.005   5.369   5.587
 7679SOL    HW223937   2.159   5.390   5.537
 7680SOL     OW23938   1.404   0.275   5.966
 7680SOL    HW123939   1.487   0.324   5.995
 7680SOL    HW223940   1.360   0.326   5.893
 7681SOL     OW23941   3.104   2.183   6.687
 7681SOL    HW123942   3.012   2.173   6.725
 7681SOL    HW223943   3.168   2.126   6.739
 7682SOL     OW23944   3.649   1.442   2.660
 7682SOL    HW123945   3.553   1.453   2.634
 7682SOL    HW223946   3.702   1.520   2.628
 7683SOL     OW23947   0.894   1.110   4.643
 7683SOL    HW123948   0.859   1.131   4.734
 7683SOL    HW223949   0.877   1.014   4.622
 7684SOL     OW23950   4.313   2.139   1.808
 7684SOL    HW123951   4.228   2.087   1.813
 7684SOL    HW223952   4.338   2.172   1.899
 7685SOL     OW23953   3.951   1.539   6.736
 7685SOL    HW123954   3.944   1.441   6.718
 7685SOL    HW223955   3.936   1.556   6.833
 7686SOL     OW23956   4.832   0.009   4.142
 7686SOL    HW123957   4.882   6.959   4.190
 7686SOL    HW223958   4.783   0.065   4.209
 7687SOL     OW23959   5.167   5.499   4.912
 7687SOL    HW123960   5.220   5.472   4.831
 7687SOL    HW223961   5.224   5.552   4.974
 7688SOL     OW23962   0.106   5.645   5.482
 7688SOL    HW123963   0.110   5.569   5.418
 7688SOL    HW223964   0.197   5.682   5.496
 7689SOL     OW23965   4.790   0.152   1.857
 7689SOL    HW123966   4.798   0.074   1.918
 7689SOL    HW223967   4.739   0.225   1.902
 7690SOL     OW23968   5.699   5.032   0.163
 7690SOL    HW123969   5.749   5.105   0.117
 7690SOL    HW223970   5.718   5.035   0.262
 7691SOL     OW23971   4.534   4.700   2.177
 7691SOL    HW123972   4.563   4.793   2.152
 7691SOL    HW223973   4.615   4.641   2.184
 7692SOL     OW23974   1.188   6.100   1.080
 7692SOL    HW123975   1.282   6.109   1.115
 7692SOL    HW223976   1.129   6.062   1.150
 7693SOL     OW23977   3.043   0.800   1.058
 7693SOL    HW123978   3.095   0.871   1.010
 7693SOL    HW223979   3.065   0.711   1.020
 7694SOL     OW23980   5.545   2.615   4.382
 7694SOL    HW123981   5.481   2.571   4.320
 7694SOL    HW223982   5.503   2.626   4.472
 7695SOL     OW23983   5.716   0.727   2.020
 7695SOL    HW123984   5.672   0.817   2.018
 7695SOL    HW223985   5.776   0.722   2.100
 7696SOL     OW23986   0.571   1.805   6.177
 7696SOL    HW123987   0.554   1.714   6.216
 7696SOL    HW223988   0.528   1.874   6.235
 7697SOL     OW23989   3.364   0.382   2.541
 7697SOL    HW123990   3.407   0.435   2.613
 7697SOL    HW223991   3.329   0.296   2.578
 7698SOL     OW23992   6.121   2.604   6.045
 7698SOL    HW123993   6.133   2.520   6.098
 7698SOL    HW223994   6.069   2.583   5.962
 7699SOL     OW23995   2.268   5.213   6.647
 7699SOL    HW123996   2.348   5.157   6.623
 7699SOL    HW223997   2.186   5.171   6.607
 7700SOL     OW23998   4.486   6.339   3.206
 7700SOL    HW123999   4.426   6.419   3.210
 7700SOL    HW224000   4.553   6.344   3.281
 7701SOL     OW24001   0.133   1.632   5.922
 7701SOL    HW124002   0.091   1.717   5.957
 7701SOL    HW224003   0.231   1.646   5.911
 7702SOL     OW24004   4.315   6.678   5.691
 7702SOL    HW124005   4.381   6.620   5.643
 7702SOL    HW224006   4.351   6.703   5.781
 7703SOL     OW24007   6.622   0.439   4.914
 7703SOL    HW124008   6.674   0.408   4.835
 7703SOL    HW224009   6.533   0.474   4.884
 7704SOL     OW24010   6.444   1.777   3.988
 7704SOL    HW124011   6.470   1.821   3.902
 7704SOL    HW224012   6.526   1.751   4.039
 7705SOL     OW24013   2.493   5.098   0.824
 7705SOL    HW124014   2.423   5.036   0.787
 7705SOL    HW224015   2.568   5.105   0.759
 7706SOL     OW24016   3.330   2.972   3.071
 7706SOL    HW124017   3.347   3.067   3.098
 7706SOL    HW224018   3.238   2.945   3.101
 7707SOL     OW24019   0.150   5.342   6.156
 7707SOL    HW124020   0.156   5.254   6.108
 7707SOL    HW224021   0.089   5.332   6.235
 7708SOL     OW24022   1.316   6.702   3.899
 7708SOL    HW124023   1.324   6.642   3.820
 7708SOL    HW224024   1.244   6.769   3.883
 7709SOL     OW24025   6.601   5.582   1.106
 7709SOL    HW124026   6.584   5.536   1.193
 7709SOL    HW224027   6.573   5.678   1.113
 7710SOL     OW24028   1.969   2.701   0.762
 7710SOL    HW124029   1.974   2.767   0.836
 7710SOL    HW224030   1.999   2.612   0.794
 7711SOL     OW24031   6.559   5.632   5.881
 7711SOL    HW124032   6.560   5.658   5.785
 7711SOL    HW224033   6.620   5.554   5.896
 7712SOL     OW24034   6.633   4.511   6.263
 7712SOL    HW124035   6.564   4.454   6.308
 7712SOL    HW224036   6.722   4.496   6.307
 7713SOL     OW24037   1.580   4.187   0.733
 7713SOL    HW124038   1.523   4.120   0.685
 7713SOL    HW224039   1.571   4.174   0.832
 7714SOL     OW24040   0.008   6.669   4.974
 7714SOL    HW124041   0.041   6.676   5.068
 7714SOL    HW224042   7.014   6.760   4.938
 7715SOL     OW24043   2.908   2.215   6.428
 7715SOL    HW124044   2.939   2.195   6.522
 7715SOL    HW224045   2.985   2.250   6.375
 7716SOL     OW24046   0.454   4.865   6.611
 7716SOL    HW124047   0.472   4.877   6.709
 7716SOL    HW224048   0.455   4.768   6.588
 7717SOL     OW24049   1.351   1.960   5.260
 7717SOL    HW124050   1.382   1.866   5.270
 7717SOL    HW224051   1.399   2.018   5.325
 7718SOL     OW24052   0.638   3.438   3.215
 7718SOL    HW124053   0.614   3.381   3.294
 7718SOL    HW224054   0.614   3.533   3.234
 7719SOL     OW24055   1.766   4.130   4.640
 7719SOL    HW124056   1.821   4.056   4.601
 7719SOL    HW224057   1.796   4.217   4.601
 7720SOL     OW24058   6.180   2.415   6.335
 7720SOL    HW124059   6.264   2.458   6.370
 7720SOL    HW224060   6.148   2.347   6.401
 7721SOL     OW24061   1.496   0.696   2.715
 7721SOL    HW124062   1.460   0.774   2.767
 7721SOL    HW224063   1.421   0.649   2.668
 7722SOL     OW24064   2.301   5.333   3.946
 7722SOL    HW124065   2.374   5.349   4.013
 7722SOL    HW224066   2.213   5.327   3.994
 7723SOL     OW24067   4.915   3.303   6.436
 7723SOL    HW124068   4.867   3.233   6.490
 7723SOL    HW224069   5.007   3.315   6.473
 7724SOL     OW24070   3.180   4.322   0.390
 7724SOL    HW124071   3.274   4.290   0.372
 7724SOL    HW224072   3.183   4.400   0.452
 7725SOL     OW24073   6.104   2.606   2.476
 7725SOL    HW124074   6.117   2.584   2.379
 7725SOL    HW224075   6.012   2.581   2.504
 7726SOL     OW24076   1.404   3.042   6.081
 7726SOL    HW124077   1.487   3.091   6.057
 7726SOL    HW224078   1.415   2.944   6.060
 7727SOL     OW24079   5.888   2.599   1.563
 7727SOL    HW124080   5.876   2.502   1.540
 7727SOL    HW224081   5.864   2.614   1.658
 7728SOL     OW24082   2.280   2.565   5.476
 7728SOL    HW124083   2.336   2.618   5.411
 7728SOL    HW224084   2.286   2.468   5.454
 7729SOL     OW24085   6.148   1.691   1.929
 7729SOL    HW124086   6.235   1.690   1.881
 7729SOL    HW224087   6.088   1.621   1.890
 7730SOL     OW24088   5.639   4.681   5.189
 7730SOL    HW124089   5.704   4.618   5.146
 7730SOL    HW224090   5.577   4.718   5.120
 7731SOL     OW24091   5.935   0.159   0.964
 7731SOL    HW124092   6.002   0.183   0.893
 7731SOL    HW224093   5.852   0.123   0.921
 7732SOL     OW24094   4.034   0.394   0.371
 7732SOL    HW124095   3.952   0.426   0.325
 7732SOL    HW224096   4.115   0.435   0.328
 7733SOL     OW24097   6.033   5.702   2.564
 7733SOL    HW124098   6.089   5.762   2.622
 7733SOL    HW224099   6.004   5.754   2.483
 7734SOL     OW24100   2.464   4.338   5.372
 7734SOL    HW124101   2.519   4.381   5.300
 7734SOL    HW224102   2.462   4.239   5.358
 7735SOL     OW24103   6.448   5.933   0.184
 7735SOL    HW124104   6.381   5.953   0.256
 7735SOL    HW224105   6.446   6.005   0.115
 7736SOL     OW24106   2.806   2.863   0.696
 7736SOL    HW124107   2.774   2.778   0.738
 7736SOL    HW224108   2.884   2.898   0.748
 7737SOL     OW24109   3.705   4.983   1.566
 7737SOL    HW124110   3.731   4.981   1.662
 7737SOL    HW224111   3.651   4.902   1.544
 7738SOL     OW24112   2.375   5.962   6.637
 7738SOL    HW124113   2.458   5.910   6.615
 7738SOL    HW224114   2.393   6.060   6.627
 7739SOL     OW24115   1.088   2.120   2.147
 7739SOL    HW124116   1.059   2.212   2.120
 7739SOL    HW224117   1.127   2.073   2.068
 7740SOL     OW24118   2.015   1.068   2.691
 7740SOL    HW124119   1.923   1.086   2.727
 7740SOL    HW224120   2.083   1.107   2.752
 7741SOL     OW24121   1.625   4.555   5.401
 7741SOL    HW124122   1.691   4.520   5.468
 7741SOL    HW224123   1.552   4.488   5.388
 7742SOL     OW24124   3.693   1.269   3.835
 7742SOL    HW124125   3.703   1.233   3.742
 7742SOL    HW224126   3.599   1.300   3.849
 7743SOL     OW24127   4.809   1.091   6.953
 7743SOL    HW124128   4.797   1.011   6.894
 7743SOL    HW224129   4.725   1.145   6.954
 7744SOL     OW24130   0.717   5.879   4.259
 7744SOL    HW124131   0.738   5.902   4.164
 7744SOL    HW224132   0.793   5.908   4.318
 7745SOL     OW24133   2.143   6.481   6.904
 7745SOL    HW124134   2.211   6.422   6.862
 7745SOL    HW224135   2.136   6.567   6.852
 7746SOL     OW24136   1.332   6.337   0.796
 7746SOL    HW124137   1.380   6.257   0.761
 7746SOL    HW224138   1.399   6.408   0.819
 7747SOL     OW24139   0.039   6.138   0.692
 7747SOL    HW124140   6.975   6.148   0.739
 7747SOL    HW224141   0.060   6.041   0.680
 7748SOL     OW24142   3.607   2.971   5.077
 7748SOL    HW124143   3.545   2.913   5.130
 7748SOL    HW224144   3.610   2.938   4.982
 7749SOL     OW24145   3.317   4.136   3.120
 7749SOL    HW124146   3.384   4.063   3.123
 7749SOL    HW224147   3.225   4.097   3.120
 7750SOL     OW24148   5.298   5.435   6.036
 7750SOL    HW124149   5.221   5.372   6.040
 7750SOL    HW224150   5.294   5.488   5.951
 7751SOL     OW24151   0.276   1.512   3.792
 7751SOL    HW124152   0.262   1.495   3.890
 7751SOL    HW224153   0.299   1.427   3.746
 7752SOL     OW24154   5.940   5.390   5.293
 7752SOL    HW124155   5.874   5.327   5.250
 7752SOL    HW224156   5.958   5.361   5.387
 7753SOL     OW24157   2.583   0.643   5.084
 7753SOL    HW124158   2.500   0.593   5.057
 7753SOL    HW224159   2.663   0.601   5.041
 7754SOL     OW24160   5.431   0.611   1.295
 7754SOL    HW124161   5.352   0.663   1.263
 7754SOL    HW224162   5.495   0.598   1.220
 7755SOL     OW24163   0.819   6.631   5.525
 7755SOL    HW124164   0.903   6.577   5.526
 7755SOL    HW224165   0.765   6.610   5.606
 7756SOL     OW24166   2.458   5.643   2.621
 7756SOL    HW124167   2.394   5.678   2.553
 7756SOL    HW224168   2.551   5.645   2.583
 7757SOL     OW24169   4.482   6.140   4.776
 7757SOL    HW124170   4.498   6.235   4.747
 7757SOL    HW224171   4.471   6.082   4.696
 7758SOL     OW24172   1.963   2.553   6.467
 7758SOL    HW124173   2.051   2.508   6.479
 7758SOL    HW224174   1.958   2.594   6.376
 7759SOL     OW24175   2.917   0.734   5.267
 7759SOL    HW124176   2.826   0.727   5.309
 7759SOL    HW224177   2.960   0.644   5.267
 7760SOL     OW24178   5.948   2.935   2.098
 7760SOL    HW124179   6.029   2.954   2.154
 7760SOL    HW224180   5.897   3.020   2.083
 7761SOL     OW24181   2.999   6.926   5.979
 7761SOL    HW124182   2.994   6.826   5.990
 7761SOL    HW224183   3.072   6.962   6.038
 7762SOL     OW24184   3.889   1.100   5.837
 7762SOL    HW124185   3.875   1.187   5.789
 7762SOL    HW224186   3.986   1.076   5.836
 7763SOL     OW24187   1.326   1.720   1.273
 7763SOL    HW124188   1.362   1.814   1.273
 7763SOL    HW224189   1.383   1.663   1.332
 7764SOL     OW24190   3.908   3.383   2.559
 7764SOL    HW124191   3.821   3.433   2.550
 7764SOL    HW224192   3.917   3.350   2.653
 7765SOL     OW24193   6.561   3.395   4.235
 7765SOL    HW124194   6.647   3.440   4.260
 7765SOL    HW224195   6.538   3.327   4.305
 7766SOL     OW24196   5.093   2.297   6.767
 7766SOL    HW124197   5.099   2.203   6.801
 7766SOL    HW224198   5.182   2.325   6.730
 7767SOL     OW24199   3.481   6.403   3.422
 7767SOL    HW124200   3.392   6.386   3.463
 7767SOL    HW224201   3.473   6.405   3.322
 7768SOL     OW24202   3.908   4.945   2.797
 7768SOL    HW124203   3.945   4.866   2.748
 7768SOL    HW224204   3.983   4.995   2.840
 7769SOL     OW24205   5.187   1.635   1.871
 7769SOL    HW124206   5.258   1.686   1.822
 7769SOL    HW224207   5.106   1.626   1.813
 7770SOL     OW24208   2.397   4.483   2.389
 7770SOL    HW124209   2.425   4.515   2.299
 7770SOL    HW224210   2.465   4.510   2.457
 7771SOL     OW24211   2.418   2.568   4.971
 7771SOL    HW124212   2.402   2.633   4.897
 7771SOL    HW224213   2.375   2.602   5.055
 7772SOL     OW24214   5.036   1.269   3.531
 7772SOL    HW124215   5.106   1.205   3.564
 7772SOL    HW224216   5.008   1.328   3.606
 7773SOL     OW24217   3.267   4.932   5.492
 7773SOL    HW124218   3.261   4.860   5.423
 7773SOL    HW224219   3.191   4.922   5.557
 7774SOL     OW24220   5.789   1.797   5.905
 7774SOL    HW124221   5.733   1.830   5.981
 7774SOL    HW224222   5.884   1.825   5.920
 7775SOL     OW24223   3.622   6.983   2.942
 7775SOL    HW124224   3.604   6.976   3.041
 7775SOL    HW224225   3.602   6.895   2.899
 7776SOL     OW24226   3.074   3.005   5.920
 7776SOL    HW124227   3.098   3.010   5.823
 7776SOL    HW224228   3.156   2.982   5.972
 7777SOL     OW24229   2.406   1.722   5.440
 7777SOL    HW124230   2.356   1.751   5.358
 7777SOL    HW224231   2.502   1.704   5.417
 7778SOL     OW24232   5.210   6.978   0.010
 7778SOL    HW124233   5.228   6.981   6.934
 7778SOL    HW224234   5.292   7.008   0.059
 7779SOL     OW24235   3.696   2.914   0.300
 7779SOL    HW124236   3.751   2.998   0.301
 7779SOL    HW224237   3.731   2.852   0.230
 7780SOL     OW24238   1.922   5.586   4.800
 7780SOL    HW124239   1.977   5.545   4.873
 7780SOL    HW224240   1.871   5.514   4.752
 7781SOL     OW24241   0.629   3.884   5.990
 7781SOL    HW124242   0.686   3.862   6.069
 7781SOL    HW224243   0.623   3.805   5.930
 7782SOL     OW24244   1.860   3.518   5.545
 7782SOL    HW124245   1.890   3.573   5.623
 7782SOL    HW224246   1.767   3.545   5.518
 7783SOL     OW24247   3.134   6.562   6.072
 7783SOL    HW124248   3.094   6.604   5.991
 7783SOL    HW224249   3.160   6.468   6.051
 7784SOL     OW24250   1.797   2.638   0.037
 7784SOL    HW124251   1.739   2.658   6.980
 7784SOL    HW224252   1.885   2.684   0.027
 7785SOL     OW24253   1.785   6.648   4.251
 7785SOL    HW124254   1.872   6.608   4.222
 7785SOL    HW224255   1.755   6.715   4.183
 7786SOL     OW24256   3.112   4.695   5.771
 7786SOL    HW124257   3.030   4.686   5.828
 7786SOL    HW224258   3.192   4.708   5.830
 7787SOL     OW24259   2.113   2.103   5.521
 7787SOL    HW124260   2.056   2.182   5.545
 7787SOL    HW224261   2.055   2.032   5.481
 7788SOL     OW24262   1.520   1.002   1.928
 7788SOL    HW124263   1.589   1.015   2.000
 7788SOL    HW224264   1.512   1.086   1.874
 7789SOL     OW24265   2.546   0.131   1.012
 7789SOL    HW124266   2.511   0.184   0.935
 7789SOL    HW224267   2.633   0.090   0.988
 7790SOL     OW24268   6.388   4.532   3.052
 7790SOL    HW124269   6.405   4.444   3.097
 7790SOL    HW224270   6.334   4.591   3.112
 7791SOL     OW24271   2.608   6.419   3.948
 7791SOL    HW124272   2.544   6.433   3.873
 7791SOL    HW224273   2.612   6.322   3.972
 7792SOL     OW24274   1.409   5.317   5.753
 7792SOL    HW124275   1.398   5.239   5.815
 7792SOL    HW224276   1.393   5.287   5.659
 7793SOL     OW24277   1.946   1.155   5.771
 7793SOL    HW124278   2.039   1.180   5.796
 7793SOL    HW224279   1.929   1.183   5.676
 7794SOL     OW24280   5.086   5.319   4.579
 7794SOL    HW124281   5.160   5.383   4.559
 7794SOL    HW224282   5.111   5.228   4.545
 7795SOL     OW24283   2.219   4.144   5.259
 7795SOL    HW124284   2.125   4.135   5.225
 7795SOL    HW224285   2.276   4.072   5.218
 7796SOL     OW24286   3.529   4.119   3.897
 7796SOL    HW124287   3.625   4.125   3.924
 7796SOL    HW224288   3.522   4.129   3.798
 7797SOL     OW24289   0.225   5.848   3.247
 7797SOL    HW124290   0.209   5.903   3.329
 7797SOL    HW224291   0.144   5.791   3.229
 7798SOL     OW24292   2.048   4.823   6.670
 7798SOL    HW124293   2.002   4.765   6.603
 7798SOL    HW224294   2.085   4.904   6.625
 7799SOL     OW24295   6.920   5.997   1.958
 7799SOL    HW124296   6.914   5.976   1.860
 7799SOL    HW224297   6.909   6.095   1.972
 7800SOL     OW24298   1.002   4.494   1.233
 7800SOL    HW124299   0.918   4.543   1.255
 7800SOL    HW224300   1.035   4.446   1.315
 7801SOL     OW24301   2.415   1.863   1.615
 7801SOL    HW124302   2.391   1.928   1.687
 7801SOL    HW224303   2.399   1.904   1.525
 7802SOL     OW24304   5.959   2.907   0.896
 7802SOL    HW124305   6.001   2.816   0.901
 7802SOL    HW224306   6.004   2.968   0.961
 7803SOL     OW24307   4.527   3.707   5.679
 7803SOL    HW124308   4.473   3.649   5.618
 7803SOL    HW224309   4.624   3.684   5.671
 7804SOL     OW24310   6.001   1.549   4.163
 7804SOL    HW124311   5.932   1.491   4.120
 7804SOL    HW224312   6.086   1.498   4.172
 7805SOL     OW24313   5.225   1.580   1.149
 7805SOL    HW124314   5.227   1.598   1.051
 7805SOL    HW224315   5.161   1.505   1.167
 7806SOL     OW24316   6.175   3.318   5.661
 7806SOL    HW124317   6.271   3.292   5.664
 7806SOL    HW224318   6.162   3.392   5.595
 7807SOL     OW24319   0.412   4.963   6.135
 7807SOL    HW124320   0.481   5.010   6.080
 7807SOL    HW224321   0.414   4.998   6.229
 7808SOL     OW24322   0.241   3.292   4.500
 7808SOL    HW124323   0.340   3.299   4.502
 7808SOL    HW224324   0.205   3.293   4.593
 7809SOL     OW24325   2.606   6.412   4.723
 7809SOL    HW124326   2.659   6.353   4.784
 7809SOL    HW224327   2.558   6.355   4.655
 7810SOL     OW24328   3.158   0.330   5.562
 7810SOL    HW124329   3.134   0.294   5.652
 7810SOL    HW224330   3.233   0.395   5.571
 7811SOL     OW24331   6.665   4.116   3.914
 7811SOL    HW124332   6.750   4.160   3.885
 7811SOL    HW224333   6.601   4.186   3.946
 7812SOL     OW24334   1.446   1.616   3.729
 7812SOL    HW124335   1.459   1.517   3.718
 7812SOL    HW224336   1.532   1.663   3.711
 7813SOL     OW24337   4.815   2.570   6.084
 7813SOL    HW124338   4.804   2.518   5.999
 7813SOL    HW224339   4.900   2.545   6.128
 7814SOL     OW24340   6.803   2.497   3.228
 7814SOL    HW124341   6.836   2.440   3.152
 7814SOL    HW224342   6.878   2.553   3.262
 7815SOL     OW24343   4.785   1.124   6.293
 7815SOL    HW124344   4.692   1.088   6.292
 7815SOL    HW224345   4.794   1.188   6.370
 7816SOL     OW24346   2.322   2.541   6.188
 7816SOL    HW124347   2.347   2.482   6.112
 7816SOL    HW224348   2.396   2.607   6.204
 7817SOL     OW24349   6.133   3.581   3.794
 7817SOL    HW124350   6.048   3.607   3.839
 7817SOL    HW224351   6.209   3.590   3.858
 7818SOL     OW24352   5.192   0.529   2.511
 7818SOL    HW124353   5.206   0.620   2.472
 7818SOL    HW224354   5.269   0.470   2.486
 7819SOL     OW24355   0.260   3.058   1.687
 7819SOL    HW124356   0.294   3.067   1.593
 7819SOL    HW224357   0.193   3.130   1.704
 7820SOL     OW24358   1.944   2.169   4.420
 7820SOL    HW124359   1.965   2.142   4.514
 7820SOL    HW224360   1.858   2.219   4.418
 7821SOL     OW24361   4.715   5.457   1.173
 7821SOL    HW124362   4.660   5.382   1.138
 7821SOL    HW224363   4.697   5.540   1.119
 7822SOL     OW24364   0.286   0.665   5.246
 7822SOL    HW124365   0.232   0.581   5.249
 7822SOL    HW224366   0.365   0.657   5.307
 7823SOL     OW24367   2.177   3.945   4.718
 7823SOL    HW124368   2.193   4.023   4.657
 7823SOL    HW224369   2.230   3.956   4.802
 7824SOL     OW24370   6.583   2.244   4.730
 7824SOL    HW124371   6.678   2.247   4.762
 7824SOL    HW224372   6.569   2.316   4.661
 7825SOL     OW24373   2.655   2.753   0.306
 7825SOL    HW124374   2.636   2.688   0.380
 7825SOL    HW224375   2.751   2.780   0.309
 7826SOL     OW24376   6.765   1.322   0.833
 7826SOL    HW124377   6.811   1.406   0.805
 7826SOL    HW224378   6.789   1.248   0.770
 7827SOL     OW24379   1.220   5.640   1.542
 7827SOL    HW124380   1.183   5.552   1.571
 7827SOL    HW224381   1.298   5.625   1.481
 7828SOL     OW24382   6.288   4.535   6.746
 7828SOL    HW124383   6.202   4.525   6.697
 7828SOL    HW224384   6.283   4.616   6.805
 7829SOL     OW24385   3.239   3.340   1.376
 7829SOL    HW124386   3.298   3.416   1.403
 7829SOL    HW224387   3.146   3.373   1.363
 7830SOL     OW24388   3.531   5.338   5.609
 7830SOL    HW124389   3.489   5.424   5.639
 7830SOL    HW224390   3.462   5.265   5.609
 7831SOL     OW24391   2.328   0.892   1.955
 7831SOL    HW124392   2.258   0.880   1.885
 7831SOL    HW224393   2.296   0.955   2.025
 7832SOL     OW24394   5.826   0.187   4.176
 7832SOL    HW124395   5.778   0.163   4.261
 7832SOL    HW224396   5.891   0.261   4.195
 7833SOL     OW24397   1.752   0.979   4.531
 7833SOL    HW124398   1.677   0.944   4.586
 7833SOL    HW224399   1.733   1.073   4.503
 7834SOL     OW24400   6.916   1.697   3.281
 7834SOL    HW124401   6.972   1.667   3.359
 7834SOL    HW224402   6.845   1.760   3.314
 7835SOL     OW24403   3.734   1.537   4.473
 7835SOL    HW124404   3.705   1.504   4.383
 7835SOL    HW224405   3.681   1.491   4.544
 7836SOL     OW24406   3.338   4.218   5.605
 7836SOL    HW124407   3.275   4.270   5.548
 7836SOL    HW224408   3.288   4.180   5.683
 7837SOL     OW24409   5.097   6.473   0.137
 7837SOL    HW124410   5.006   6.504   0.165
 7837SOL    HW224411   5.166   6.513   0.197
 7838SOL     OW24412   5.050   5.337   1.335
 7838SOL    HW124413   4.972   5.284   1.368
 7838SOL    HW224414   5.018   5.423   1.295
 7839SOL     OW24415   5.580   4.260   4.652
 7839SOL    HW124416   5.671   4.240   4.618
 7839SOL    HW224417   5.550   4.187   4.714
 7840SOL     OW24418   0.860   4.252   4.428
 7840SOL    HW124419   0.808   4.174   4.395
 7840SOL    HW224420   0.951   4.223   4.457
 7841SOL     OW24421   4.618   1.892   6.445
 7841SOL    HW124422   4.663   1.892   6.356
 7841SOL    HW224423   4.583   1.983   6.465
 7842SOL     OW24424   2.102   1.402   2.578
 7842SOL    HW124425   2.059   1.380   2.666
 7842SOL    HW224426   2.114   1.501   2.570
 7843SOL     OW24427   0.076   6.493   4.221
 7843SOL    HW124428   0.112   6.555   4.290
 7843SOL    HW224429   0.125   6.507   4.135
 7844SOL     OW24430   3.736   0.705   2.046
 7844SOL    HW124431   3.755   0.652   2.129
 7844SOL    HW224432   3.651   0.757   2.058
 7845SOL     OW24433   5.215   1.817   1.307
 7845SOL    HW124434   5.187   1.817   1.404
 7845SOL    HW224435   5.185   1.732   1.264
 7846SOL     OW24436   1.210   2.090   0.603
 7846SOL    HW124437   1.166   2.166   0.555
 7846SOL    HW224438   1.304   2.081   0.571
 7847SOL     OW24439   6.308   1.505   4.037
 7847SOL    HW124440   6.334   1.573   4.106
 7847SOL    HW224441   6.227   1.537   3.988
 7848SOL     OW24442   3.074   4.358   0.680
 7848SOL    HW124443   2.983   4.337   0.644
 7848SOL    HW224444   3.112   4.436   0.630
 7849SOL     OW24445   5.895   3.461   4.995
 7849SOL    HW124446   5.958   3.449   4.918
 7849SOL    HW224447   5.922   3.541   5.049
 7850SOL     OW24448   7.020   1.756   3.831
 7850SOL    HW124449   0.001   1.855   3.816
 7850SOL    HW224450   6.993   1.710   3.746
 7851SOL     OW24451   0.809   2.780   1.795
 7851SOL    HW124452   0.761   2.863   1.826
 7851SOL    HW224453   0.763   2.743   1.715
 7852SOL     OW24454   2.785   0.999   0.107
 7852SOL    HW124455   2.778   0.935   0.184
 7852SOL    HW224456   2.874   1.045   0.110
 7853SOL     OW24457   4.607   2.812   1.648
 7853SOL    HW124458   4.586   2.872   1.725
 7853SOL    HW224459   4.654   2.864   1.577
 7854SOL     OW24460   4.231   2.514   6.363
 7854SOL    HW124461   4.302   2.574   6.326
 7854SOL    HW224462   4.150   2.517   6.305
 7855SOL     OW24463   4.740   6.130   4.175
 7855SOL    HW124464   4.762   6.188   4.253
 7855SOL    HW224465   4.702   6.043   4.207
 7856SOL     OW24466   1.230   4.987   5.483
 7856SOL    HW124467   1.270   4.897   5.497
 7856SOL    HW224468   1.161   4.982   5.411
 7857SOL     OW24469   4.854   3.837   0.549
 7857SOL    HW124470   4.774   3.896   0.559
 7857SOL    HW224471   4.836   3.749   0.592
 7858SOL     OW24472   6.683   5.801   4.459
 7858SOL    HW124473   6.730   5.763   4.539
 7858SOL    HW224474   6.629   5.880   4.486
 7859SOL     OW24475   4.472   3.292   6.796
 7859SOL    HW124476   4.467   3.198   6.760
 7859SOL    HW224477   4.523   3.349   6.731
 7860SOL     OW24478   3.885   1.484   3.945
 7860SOL    HW124479   3.805   1.425   3.957
 7860SOL    HW224480   3.943   1.479   4.027
 7861SOL     OW24481   2.641   5.617   2.328
 7861SOL    HW124482   2.705   5.578   2.393
 7861SOL    HW224483   2.679   5.701   2.290
 7862SOL     OW24484   2.569   5.698   1.988
 7862SOL    HW124485   2.500   5.632   2.019
 7862SOL    HW224486   2.579   5.692   1.889
 7863SOL     OW24487   0.645   4.411   3.359
 7863SOL    HW124488   0.712   4.378   3.427
 7863SOL    HW224489   0.639   4.345   3.284
 7864SOL     OW24490   1.702   5.676   6.505
 7864SOL    HW124491   1.800   5.667   6.485
 7864SOL    HW224492   1.691   5.701   6.601
 7865SOL     OW24493   6.088   5.800   4.023
 7865SOL    HW124494   6.097   5.859   3.943
 7865SOL    HW224495   6.110   5.706   3.998
 7866SOL     OW24496   2.302   0.279   4.988
 7866SOL    HW124497   2.222   0.308   5.041
 7866SOL    HW224498   2.347   0.203   5.035
 7867SOL     OW24499   5.572   0.053   3.593
 7867SOL    HW124500   5.569   7.010   3.669
 7867SOL    HW224501   5.652   0.035   3.536
 7868SOL     OW24502   3.711   5.590   0.932
 7868SOL    HW124503   3.785   5.615   0.869
 7868SOL    HW224504   3.674   5.501   0.907
 7869SOL     OW24505   5.092   4.922   5.667
 7869SOL    HW124506   5.090   4.866   5.750
 7869SOL    HW224507   5.185   4.928   5.632
 7870SOL     OW24508   4.728   0.186   5.080
 7870SOL    HW124509   4.742   0.201   5.178
 7870SOL    HW224510   4.783   0.253   5.028
 7871SOL     OW24511   5.613   1.733   2.007
 7871SOL    HW124512   5.653   1.740   1.915
 7871SOL    HW224513   5.607   1.636   2.033
 7872SOL     OW24514   1.559   4.769   2.602
 7872SOL    HW124515   1.535   4.709   2.526
 7872SOL    HW224516   1.516   4.735   2.686
 7873SOL     OW24517   6.319   1.173   0.481
 7873SOL    HW124518   6.247   1.120   0.437
 7873SOL    HW224519   6.400   1.175   0.422
 7874SOL     OW24520   5.335   2.810   1.239
 7874SOL    HW124521   5.383   2.810   1.327
 7874SOL    HW224522   5.398   2.833   1.166
 7875SOL     OW24523   3.646   3.421   0.167
 7875SOL    HW124524   3.685   3.474   0.092
 7875SOL    HW224525   3.668   3.465   0.254
 7876SOL     OW24526   0.993   0.213   3.332
 7876SOL    HW124527   1.006   0.196   3.430
 7876SOL    HW224528   0.898   0.194   3.307
 7877SOL     OW24529   6.816   1.870   2.854
 7877SOL    HW124530   6.775   1.930   2.786
 7877SOL    HW224531   6.745   1.825   2.908
 7878SOL     OW24532   4.822   3.804   3.467
 7878SOL    HW124533   4.863   3.775   3.380
 7878SOL    HW224534   4.757   3.878   3.450
 7879SOL     OW24535   3.128   5.004   3.218
 7879SOL    HW124536   3.223   4.985   3.194
 7879SOL    HW224537   3.069   4.985   3.140
 7880SOL     OW24538   2.268   3.746   0.951
 7880SOL    HW124539   2.290   3.649   0.952
 7880SOL    HW224540   2.345   3.797   0.912
 7881SOL     OW24541   5.067   4.580   4.344
 7881SOL    HW124542   4.974   4.547   4.356
 7881SOL    HW224543   5.129   4.524   4.400
 7882SOL     OW24544   2.376   3.850   1.740
 7882SOL    HW124545   2.452   3.906   1.774
 7882SOL    HW224546   2.324   3.903   1.673
 7883SOL     OW24547   0.968   0.321   5.854
 7883SOL    HW124548   1.032   0.287   5.785
 7883SOL    HW224549   1.018   0.363   5.929
 7884SOL     OW24550   1.023   3.988   4.083
 7884SOL    HW124551   0.974   4.075   4.072
 7884SOL    HW224552   0.958   3.917   4.109
 7885SOL     OW24553   6.226   5.399   0.953
 7885SOL    HW124554   6.285   5.477   0.930
 7885SOL    HW224555   6.282   5.323   0.984
 7886SOL     OW24556   4.225   5.976   0.643
 7886SOL    HW124557   4.280   6.015   0.717
 7886SOL    HW224558   4.136   6.022   0.640
 7887SOL     OW24559   3.659   1.993   0.068
 7887SOL    HW124560   3.712   2.078   0.070
 7887SOL    HW224561   3.563   2.014   0.088
 7888SOL     OW24562   4.957   0.384   3.881
 7888SOL    HW124563   4.880   0.447   3.890
 7888SOL    HW224564   4.947   0.330   3.797
 7889SOL     OW24565   1.415   5.637   1.344
 7889SOL    HW124566   1.510   5.668   1.353
 7889SOL    HW224567   1.354   5.717   1.346
 7890SOL     OW24568   1.896   3.586   2.226
 7890SOL    HW124569   1.883   3.680   2.196
 7890SOL    HW224570   1.904   3.583   2.325
 7891SOL     OW24571   2.318   5.065   2.592
 7891SOL    HW124572   2.371   5.145   2.563
 7891SOL    HW224573   2.239   5.053   2.533
 7892SOL     OW24574   2.005   2.437   5.039
 7892SOL    HW124575   1.937   2.383   5.089
 7892SOL    HW224576   2.084   2.379   5.019
 7893SOL     OW24577   5.915   6.618   1.280
 7893SOL    HW124578   5.909   6.519   1.272
 7893SOL    HW224579   5.883   6.660   1.195
 7894SOL     OW24580   2.688   6.282   2.301
 7894SOL    HW124581   2.764   6.222   2.274
 7894SOL    HW224582   2.604   6.251   2.256
 7895SOL     OW24583   6.382   1.360   5.114
 7895SOL    HW124584   6.371   1.268   5.153
 7895SOL    HW224585   6.399   1.426   5.187
 7896SOL     OW24586   4.761   4.032   5.824
 7896SOL    HW124587   4.838   4.076   5.778
 7896SOL    HW224588   4.692   4.006   5.756
 7897SOL     OW24589   2.509   3.418   6.154
 7897SOL    HW124590   2.605   3.407   6.128
 7897SOL    HW224591   2.471   3.498   6.107
 7898SOL     OW24592   4.757   2.262   3.725
 7898SOL    HW124593   4.773   2.345   3.777
 7898SOL    HW224594   4.787   2.183   3.778
 7899SOL     OW24595   6.618   1.937   1.243
 7899SOL    HW124596   6.608   1.968   1.338
 7899SOL    HW224597   6.640   2.015   1.185
 7900SOL     OW24598   1.444   5.176   1.151
 7900SOL    HW124599   1.465   5.108   1.220
 7900SOL    HW224600   1.374   5.140   1.088
 7901SOL     OW24601   5.501   0.230   5.881
 7901SOL    HW124602   5.563   0.249   5.957
 7901SOL    HW224603   5.434   0.303   5.873
 7902SOL     OW24604   4.840   5.008   1.862
 7902SOL    HW124605   4.876   4.917   1.881
 7902SOL    HW224606   4.887   5.047   1.783
 7903SOL     OW24607   5.630   1.966   0.128
 7903SOL    HW124608   5.577   1.954   0.212
 7903SOL    HW224609   5.682   2.051   0.132
 7904SOL     OW24610   6.576   1.091   2.455
 7904SOL    HW124611   6.518   1.027   2.505
 7904SOL    HW224612   6.657   1.044   2.421
 7905SOL     OW24613   4.808   1.609   0.914
 7905SOL    HW124614   4.740   1.648   0.852
 7905SOL    HW224615   4.840   1.679   0.978
 7906SOL     OW24616   6.806   5.992   6.690
 7906SOL    HW124617   6.769   5.976   6.782
 7906SOL    HW224618   6.873   6.067   6.694
 7907SOL     OW24619   6.144   2.315   4.533
 7907SOL    HW124620   6.049   2.288   4.547
 7907SOL    HW224621   6.147   2.403   4.486
 7908SOL     OW24622   1.197   0.848   3.986
 7908SOL    HW124623   1.254   0.860   3.905
 7908SOL    HW224624   1.227   0.767   4.036
 7909SOL     OW24625   4.904   3.738   4.814
 7909SOL    HW124626   4.928   3.673   4.885
 7909SOL    HW224627   4.867   3.688   4.735
 7910SOL     OW24628   3.886   2.916   5.135
 7910SOL    HW124629   3.913   2.862   5.055
 7910SOL    HW224630   3.788   2.937   5.128
 7911SOL     OW24631   6.907   4.687   0.750
 7911SOL    HW124632   6.889   4.685   0.651
 7911SOL    HW224633   6.822   4.671   0.799
 7912SOL     OW24634   6.847   5.589   6.531
 7912SOL    HW124635   6.837   5.682   6.496
 7912SOL    HW224636   6.783   5.528   6.484
 7913SOL     OW24637   0.367   5.473   6.237
 7913SOL    HW124638   0.442   5.466   6.172
 7913SOL    HW224639   0.287   5.424   6.201
 7914SOL     OW24640   6.848   4.934   0.454
 7914SOL    HW124641   6.838   5.025   0.493
 7914SOL    HW224642   6.824   4.936   0.357
 7915SOL     OW24643   4.918   2.218   2.983
 7915SOL    HW124644   4.850   2.256   3.046
 7915SOL    HW224645   4.921   2.274   2.900
 7916SOL     OW24646   5.511   3.979   5.206
 7916SOL    HW124647   5.479   3.887   5.186
 7916SOL    HW224648   5.605   3.974   5.241
 7917SOL     OW24649   3.888   3.023   4.029
 7917SOL    HW124650   3.932   3.047   4.116
 7917SOL    HW224651   3.791   3.007   4.044
 7918SOL     OW24652   5.973   1.715   1.526
 7918SOL    HW124653   5.915   1.762   1.459
 7918SOL    HW224654   5.922   1.698   1.610
 7919SOL     OW24655   6.716   4.306   2.847
 7919SOL    HW124656   6.628   4.340   2.815
 7919SOL    HW224657   6.703   4.244   2.924
 7920SOL     OW24658   6.891   4.815   1.211
 7920SOL    HW124659   6.815   4.868   1.248
 7920SOL    HW224660   6.863   4.721   1.198
 7921SOL     OW24661   3.336   6.520   1.042
 7921SOL    HW124662   3.424   6.516   0.995
 7921SOL    HW224663   3.298   6.427   1.048
 7922SOL     OW24664   6.717   5.674   0.189
 7922SOL    HW124665   6.755   5.728   0.114
 7922SOL    HW224666   6.738   5.720   0.276
 7923SOL     OW24667   1.833   1.102   3.043
 7923SOL    HW124668   1.793   1.020   3.001
 7923SOL    HW224669   1.908   1.075   3.103
 7924SOL     OW24670   2.994   6.576   3.556
 7924SOL    HW124671   2.913   6.617   3.515
 7924SOL    HW224672   3.068   6.573   3.489
 7925SOL     OW24673   6.964   1.864   6.284
 7925SOL    HW124674   7.002   1.835   6.372
 7925SOL    HW224675   6.865   1.853   6.285
 7926SOL     OW24676   3.410   0.585   3.733
 7926SOL    HW124677   3.337   0.528   3.772
 7926SOL    HW224678   3.382   0.681   3.736
 7927SOL     OW24679   4.085   5.363   4.827
 7927SOL    HW124680   4.100   5.414   4.742
 7927SOL    HW224681   4.128   5.273   4.820
 7928SOL     OW24682   1.412   4.730   3.286
 7928SOL    HW124683   1.397   4.702   3.381
 7928SOL    HW224684   1.417   4.829   3.281
 7929SOL     OW24685   3.918   3.469   4.520
 7929SOL    HW124686   3.949   3.491   4.613
 7929SOL    HW224687   3.856   3.391   4.524
 7930SOL     OW24688   4.979   5.949   3.546
 7930SOL    HW124689   4.913   5.879   3.517
 7930SOL    HW224690   5.058   5.904   3.589
 7931SOL     OW24691   2.016   2.565   6.834
 7931SOL    HW124692   2.091   2.540   6.773
 7931SOL    HW224693   1.929   2.538   6.793
 7932SOL     OW24694   2.513   0.533   6.974
 7932SOL    HW124695   2.492   0.443   6.935
 7932SOL    HW224696   2.593   0.572   6.928
 7933SOL     OW24697   0.624   6.848   6.771
 7933SOL    HW124698   0.692   6.864   6.843
 7933SOL    HW224699   0.578   6.934   6.749
 7934SOL     OW24700   2.338   3.448   0.361
 7934SOL    HW124701   2.336   3.470   0.264
 7934SOL    HW224702   2.333   3.348   0.373
 7935SOL     OW24703   4.910   6.002   6.977
 7935SOL    HW124704   4.911   5.925   0.018
 7935SOL    HW224705   5.000   6.045   6.976
 7936SOL     OW24706   3.488   6.071   3.225
 7936SOL    HW124707   3.404   6.100   3.180
 7936SOL    HW224708   3.515   5.981   3.189
 7937SOL     OW24709   5.162   0.012   4.779
 7937SOL    HW124710   5.071   7.011   4.746
 7937SOL    HW224711   5.184   6.979   4.859
 7938SOL     OW24712   4.542   4.876   4.903
 7938SOL    HW124713   4.580   4.944   4.841
 7938SOL    HW224714   4.587   4.882   4.992
 7939SOL     OW24715   0.754   1.290   5.975
 7939SOL    HW124716   0.732   1.385   5.953
 7939SOL    HW224717   0.678   1.249   6.027
 7940SOL     OW24718   2.512   4.968   1.987
 7940SOL    HW124719   2.548   4.900   1.924
 7940SOL    HW224720   2.450   4.924   2.052
 7941SOL     OW24721   6.604   0.575   0.718
 7941SOL    HW124722   6.656   0.559   0.634
 7941SOL    HW224723   6.665   0.608   0.789
 7942SOL     OW24724   0.415   6.505   2.121
 7942SOL    HW124725   0.453   6.583   2.072
 7942SOL    HW224726   0.319   6.493   2.095
 7943SOL     OW24727   5.842   2.180   1.039
 7943SOL    HW124728   5.744   2.177   1.060
 7943SOL    HW224729   5.855   2.221   0.949
 7944SOL     OW24730   6.987   3.306   1.094
 7944SOL    HW124731   6.933   3.388   1.116
 7944SOL    HW224732   0.055   3.313   1.137
 7945SOL     OW24733   5.115   0.046   2.752
 7945SOL    HW124734   5.079   0.107   2.822
 7945SOL    HW224735   5.052   0.042   2.675
 7946SOL     OW24736   2.033   1.854   6.182
 7946SOL    HW124737   1.948   1.842   6.234
 7946SOL    HW224738   2.108   1.807   6.228
 7947SOL     OW24739   3.993   2.876   6.619
 7947SOL    HW124740   4.049   2.948   6.576
 7947SOL    HW224741   3.901   2.879   6.580
 7948SOL     OW24742   6.737   6.738   0.841
 7948SOL    HW124743   6.796   6.810   0.877
 7948SOL    HW224744   6.761   6.720   0.745
 7949SOL     OW24745   5.091   5.045   4.518
 7949SOL    HW124746   5.042   5.060   4.603
 7949SOL    HW224747   5.028   5.009   4.449
 7950SOL     OW24748   4.508   5.008   3.674
 7950SOL    HW124749   4.594   4.959   3.686
 7950SOL    HW224750   4.495   5.030   3.578
 7951SOL     OW24751   2.679   3.501   1.083
 7951SOL    HW124752   2.663   3.588   1.130
 7951SOL    HW224753   2.694   3.518   0.986
 7952SOL     OW24754   6.713   3.085   6.865
 7952SOL    HW124755   6.643   3.056   6.930
 7952SOL    HW224756   6.683   3.063   6.772
 7953SOL     OW24757   2.019   2.491   3.154
 7953SOL    HW124758   2.098   2.433   3.176
 7953SOL    HW224759   2.008   2.496   3.055
 7954SOL     OW24760   4.142   5.435   4.354
 7954SOL    HW124761   4.240   5.417   4.343
 7954SOL    HW224762   4.109   5.490   4.277
 7955SOL     OW24763   0.024   6.460   6.735
 7955SOL    HW124764   7.004   6.518   6.665
 7955SOL    HW224765   0.115   6.432   6.704
 7956SOL     OW24766   0.370   5.915   2.911
 7956SOL    HW124767   0.403   5.914   3.006
 7956SOL    HW224768   0.356   6.010   2.882
 7957SOL     OW24769   1.461   1.881   0.492
 7957SOL    HW124770   1.425   1.827   0.568
 7957SOL    HW224771   1.495   1.821   0.420
 7958SOL     OW24772   3.632   5.667   4.414
 7958SOL    HW124773   3.546   5.678   4.464
 7958SOL    HW224774   3.662   5.757   4.381
 7959SOL     OW24775   5.022   4.866   0.515
 7959SOL    HW124776   4.937   4.869   0.567
 7959SOL    HW224777   5.003   4.889   0.419
 7960SOL     OW24778   3.323   1.800   1.409
 7960SOL    HW124779   3.282   1.883   1.370
 7960SOL    HW224780   3.368   1.748   1.336
 7961SOL     OW24781   1.969   6.445   6.544
 7961SOL    HW124782   2.049   6.497   6.574
 7961SOL    HW224783   1.957   6.457   6.445
 7962SOL     OW24784   2.264   0.667   1.064
 7962SOL    HW124785   2.170   0.654   1.032
 7962SOL    HW224786   2.278   0.615   1.148
 7963SOL     OW24787   0.108   1.241   4.937
 7963SOL    HW124788   0.042   1.174   4.972
 7963SOL    HW224789   0.059   1.321   4.903
 7964SOL     OW24790   5.603   5.048   3.820
 7964SOL    HW124791   5.528   4.989   3.851
 7964SOL    HW224792   5.691   5.005   3.842
 7965SOL     OW24793   4.171   2.756   6.919
 7965SOL    HW124794   4.269   2.765   6.905
 7965SOL    HW224795   4.131   2.846   6.938
 7966SOL     OW24796   0.785   3.974   4.712
 7966SOL    HW124797   0.812   3.995   4.805
 7966SOL    HW224798   0.832   3.892   4.680
 7967SOL     OW24799   3.108   5.984   3.501
 7967SOL    HW124800   3.162   5.996   3.584
 7967SOL    HW224801   3.020   6.030   3.511
 7968SOL     OW24802   2.415   2.641   3.574
 7968SOL    HW124803   2.389   2.722   3.520
 7968SOL    HW224804   2.344   2.571   3.564
 7969SOL     OW24805   3.740   6.770   2.306
 7969SOL    HW124806   3.695   6.753   2.219
 7969SOL    HW224807   3.784   6.686   2.339
 7970SOL     OW24808   0.186   3.603   3.000
 7970SOL    HW124809   0.107   3.562   2.954
 7970SOL    HW224810   0.250   3.639   2.933
 7971SOL     OW24811   2.979   1.022   1.722
 7971SOL    HW124812   2.942   1.112   1.699
 7971SOL    HW224813   2.904   0.957   1.735
 7972SOL     OW24814   6.503   4.528   1.205
 7972SOL    HW124815   6.602   4.512   1.209
 7972SOL    HW224816   6.486   4.615   1.158
 7973SOL     OW24817   5.048   3.754   3.590
 7973SOL    HW124818   5.050   3.823   3.662
 7973SOL    HW224819   4.961   3.759   3.541
 7974SOL     OW24820   6.055   0.329   4.581
 7974SOL    HW124821   6.071   0.424   4.554
 7974SOL    HW224822   5.982   0.326   4.649
 7975SOL     OW24823   4.872   0.672   4.195
 7975SOL    HW124824   4.898   0.697   4.288
 7975SOL    HW224825   4.808   0.595   4.198
 7976SOL     OW24826   0.755   6.493   5.194
 7976SOL    HW124827   0.709   6.412   5.157
 7976SOL    HW224828   0.688   6.554   5.236
 7977SOL     OW24829   4.561   5.784   2.432
 7977SOL    HW124830   4.625   5.834   2.490
 7977SOL    HW224831   4.487   5.844   2.402
 7978SOL     OW24832   5.021   4.015   6.150
 7978SOL    HW124833   5.093   4.007   6.220
 7978SOL    HW224834   4.961   3.935   6.156
 7979SOL     OW24835   3.401   0.117   4.558
 7979SOL    HW124836   3.360   0.159   4.639
 7979SOL    HW224837   3.496   0.146   4.550
 7980SOL     OW24838   3.845   5.764   0.340
 7980SOL    HW124839   3.904   5.692   0.378
 7980SOL    HW224840   3.754   5.727   0.322
 7981SOL     OW24841   0.992   5.352   1.412
 7981SOL    HW124842   1.045   5.344   1.496
 7981SOL    HW224843   1.012   5.275   1.352
 7982SOL     OW24844   0.020   2.456   0.628
 7982SOL    HW124845   0.064   2.370   0.652
 7982SOL    HW224846   0.081   2.532   0.650
 7983SOL     OW24847   5.487   1.805   3.404
 7983SOL    HW124848   5.404   1.830   3.454
 7983SOL    HW224849   5.470   1.723   3.350
 7984SOL     OW24850   0.778   1.867   1.972
 7984SOL    HW124851   0.793   1.951   1.921
 7984SOL    HW224852   0.686   1.866   2.010
 7985SOL     OW24853   1.772   0.275   2.643
 7985SOL    HW124854   1.735   0.321   2.562
 7985SOL    HW224855   1.698   0.258   2.707
 7986SOL     OW24856   3.463   1.389   6.865
 7986SOL    HW124857   3.539   1.324   6.856
 7986SOL    HW224858   3.479   1.467   6.805
 7987SOL     OW24859   0.268   3.670   5.732
 7987SOL    HW124860   0.266   3.627   5.822
 7987SOL    HW224861   0.363   3.683   5.703
 7988SOL     OW24862   2.690   2.311   4.735
 7988SOL    HW124863   2.612   2.281   4.789
 7988SOL    HW224864   2.662   2.385   4.674
 7989SOL     OW24865   3.433   2.851   5.270
 7989SOL    HW124866   3.515   2.834   5.324
 7989SOL    HW224867   3.374   2.770   5.273
 7990SOL     OW24868   1.411   3.476   3.295
 7990SOL    HW124869   1.504   3.447   3.272
 7990SOL    HW224870   1.413   3.539   3.372
 7991SOL     OW24871   6.958   2.654   6.104
 7991SOL    HW124872   7.002   2.567   6.087
 7991SOL    HW224873   6.966   2.678   6.201
 7992SOL     OW24874   1.084   6.321   0.941
 7992SOL    HW124875   1.166   6.361   0.898
 7992SOL    HW224876   1.106   6.230   0.976
 7993SOL     OW24877   2.350   5.615   6.887
 7993SOL    HW124878   2.308   5.582   6.802
 7993SOL    HW224879   2.445   5.640   6.870
 7994SOL     OW24880   4.711   0.533   3.681
 7994SOL    HW124881   4.781   0.506   3.616
 7994SOL    HW224882   4.752   0.585   3.756
 7995SOL     OW24883   3.744   5.492   4.022
 7995SOL    HW124884   3.749   5.438   4.106
 7995SOL    HW224885   3.779   5.584   4.039
 7996SOL     OW24886   3.645   6.477   4.055
 7996SOL    HW124887   3.728   6.440   4.096
 7996SOL    HW224888   3.637   6.574   4.076
 7997SOL     OW24889   6.603   1.706   1.059
 7997SOL    HW124890   6.577   1.781   1.120
 7997SOL    HW224891   6.624   1.624   1.113
 7998SOL     OW24892   4.922   5.032   0.292
 7998SOL    HW124893   4.851   5.101   0.303
 7998SOL    HW224894   4.998   5.070   0.239
 7999SOL     OW24895   1.188   0.020   5.435
 7999SOL    HW124896   1.170   0.105   5.385
 7999SOL    HW224897   1.287   0.011   5.450
 8000SOL     OW24898   5.517   0.218   6.394
 8000SOL    HW124899   5.496   0.120   6.396
 8000SOL    HW224900   5.432   0.270   6.384
 8001SOL     OW24901   2.635   6.140   1.909
 8001SOL    HW124902   2.697   6.091   1.971
 8001SOL    HW224903   2.636   6.237   1.932
 8002SOL     OW24904   0.014   3.346   5.685
 8002SOL    HW124905   7.019   3.396   5.770
 8002SOL    HW224906   6.963   3.280   5.670
 8003SOL     OW24907   2.785   4.729   2.723
 8003SOL    HW124908   2.878   4.764   2.727
 8003SOL    HW224909   2.767   4.692   2.632
 8004SOL     OW24910   2.030   4.679   3.287
 8004SOL    HW124911   2.005   4.735   3.209
 8004SOL    HW224912   2.081   4.734   3.354
 8005SOL     OW24913   3.460   1.217   2.180
 8005SOL    HW124914   3.554   1.182   2.180
 8005SOL    HW224915   3.463   1.317   2.169
 8006SOL     OW24916   2.443   5.985   0.203
 8006SOL    HW124917   2.380   6.055   0.170
 8006SOL    HW224918   2.527   6.029   0.236
 8007SOL     OW24919   0.752   0.432   3.914
 8007SOL    HW124920   0.710   0.342   3.915
 8007SOL    HW224921   0.851   0.423   3.904
 8008SOL     OW24922   5.177   6.633   6.273
 8008SOL    HW124923   5.121   6.560   6.312
 8008SOL    HW224924   5.120   6.692   6.215
 8009SOL     OW24925   6.258   0.253   2.681
 8009SOL    HW124926   6.324   0.324   2.656
 8009SOL    HW224927   6.284   0.167   2.637
 8010SOL     OW24928   2.116   1.542   6.905
 8010SOL    HW124929   2.027   1.527   6.863
 8010SOL    HW224930   2.105   1.589   6.992
 8011SOL     OW24931   2.071   2.040   1.451
 8011SOL    HW124932   2.063   2.107   1.377
 8011SOL    HW224933   2.087   1.949   1.413
 8012SOL     OW24934   1.825   6.093   0.729
 8012SOL    HW124935   1.796   6.005   0.692
 8012SOL    HW224936   1.869   6.147   0.657
 8013SOL     OW24937   6.752   5.062   4.618
 8013SOL    HW124938   6.784   4.971   4.592
 8013SOL    HW224939   6.667   5.054   4.671
 8014SOL     OW24940   1.536   5.889   6.272
 8014SOL    HW124941   1.455   5.910   6.216
 8014SOL    HW224942   1.514   5.816   6.337
 8015SOL     OW24943   3.004   2.159   0.980
 8015SOL    HW124944   2.998   2.071   0.934
 8015SOL    HW224945   2.915   2.184   1.018
 8016SOL     OW24946   4.638   0.380   0.337
 8016SOL    HW124947   4.644   0.299   0.395
 8016SOL    HW224948   4.698   0.451   0.373
 8017SOL     OW24949   0.498   4.710   5.630
 8017SOL    HW124950   0.476   4.806   5.615
 8017SOL    HW224951   0.577   4.703   5.692
 8018SOL     OW24952   4.748   1.847   5.779
 8018SOL    HW124953   4.827   1.843   5.718
 8018SOL    HW224954   4.726   1.756   5.812
 8019SOL     OW24955   1.948   4.071   0.359
 8019SOL    HW124956   1.851   4.051   0.343
 8019SOL    HW224957   1.989   3.995   0.410
 8020SOL     OW24958   5.706   6.096   6.612
 8020SOL    HW124959   5.663   6.135   6.531
 8020SOL    HW224960   5.646   6.109   6.691
 8021SOL     OW24961   0.683   1.144   1.560
 8021SOL    HW124962   0.748   1.156   1.635
 8021SOL    HW224963   0.590   1.155   1.596
 8022SOL     OW24964   3.933   1.097   2.895
 8022SOL    HW124965   3.952   1.185   2.850
 8022SOL    HW224966   3.974   1.098   2.986
 8023SOL     OW24967   6.118   6.287   3.056
 8023SOL    HW124968   6.099   6.375   3.101
 8023SOL    HW224969   6.087   6.291   2.961
 8024SOL     OW24970   3.504   5.319   6.687
 8024SOL    HW124971   3.556   5.400   6.660
 8024SOL    HW224972   3.508   5.309   6.787
 8025SOL     OW24973   3.627   6.190   6.150
 8025SOL    HW124974   3.711   6.243   6.164
 8025SOL    HW224975   3.600   6.148   6.237
 8026SOL     OW24976   0.313   4.104   0.085
 8026SOL    HW124977   0.274   4.043   0.015
 8026SOL    HW224978   0.239   4.156   0.128
 8027SOL     OW24979   4.577   2.039   5.248
 8027SOL    HW124980   4.496   1.985   5.227
 8027SOL    HW224981   4.650   1.978   5.281
 8028SOL     OW24982   3.953   4.861   5.726
 8028SOL    HW124983   4.029   4.896   5.671
 8028SOL    HW224984   3.966   4.888   5.821
 8029SOL     OW24985   5.250   4.074   6.391
 8029SOL    HW124986   5.254   4.129   6.307
 8029SOL    HW224987   5.326   4.010   6.392
 8030SOL     OW24988   5.642   4.350   5.917
 8030SOL    HW124989   5.573   4.399   5.863
 8030SOL    HW224990   5.640   4.384   6.011
 8031SOL     OW24991   4.826   5.392   2.418
 8031SOL    HW124992   4.830   5.426   2.324
 8031SOL    HW224993   4.898   5.434   2.472
 8032SOL     OW24994   5.935   3.948   4.886
 8032SOL    HW124995   6.009   3.902   4.936
 8032SOL    HW224996   5.975   4.015   4.823
 8033SOL     OW24997   5.499   2.877   0.217
 8033SOL    HW124998   5.447   2.792   0.207
 8033SOL    HW224999   5.512   2.897   0.314
 8034SOL     OW25000   6.637   0.639   5.167
 8034SOL    HW125001   6.573   0.591   5.107
 8034SOL    HW225002   6.723   0.588   5.170
 8035SOL     OW25003   5.747   6.473   5.403
 8035SOL    HW125004   5.648   6.471   5.387
 8035SOL    HW225005   5.765   6.486   5.500
 8036SOL     OW25006   1.581   3.657   1.626
 8036SOL    HW125007   1.658   3.717   1.650
 8036SOL    HW225008   1.517   3.653   1.703
 8037SOL     OW25009   1.818   3.518   1.351
 8037SOL    HW125010   1.881   3.449   1.314
 8037SOL    HW225011   1.746   3.472   1.404
 8038SOL     OW25012   5.536   2.063   3.286
 8038SOL    HW125013   5.521   1.964   3.285
 8038SOL    HW225014   5.635   2.081   3.286
 8039SOL     OW25015   1.509   6.997   3.276
 8039SOL    HW125016   1.427   0.026   3.252
 8039SOL    HW225017   1.526   7.004   3.374
 8040SOL     OW25018   0.633   5.255   0.981
 8040SOL    HW125019   0.661   5.192   1.053
 8040SOL    HW225020   0.574   5.208   0.915
 8041SOL     OW25021   3.468   1.528   1.272
 8041SOL    HW125022   3.413   1.482   1.342
 8041SOL    HW225023   3.560   1.544   1.307
 8042SOL     OW25024   3.406   2.957   1.790
 8042SOL    HW125025   3.328   3.020   1.798
 8042SOL    HW225026   3.431   2.922   1.881
 8043SOL     OW25027   3.014   0.549   0.475
 8043SOL    HW125028   3.021   0.451   0.496
 8043SOL    HW225029   3.041   0.564   0.380
 8044SOL     OW25030   2.918   3.139   1.181
 8044SOL    HW125031   2.953   3.229   1.206
 8044SOL    HW225032   2.987   3.090   1.127
 8045SOL     OW25033   5.883   1.123   2.659
 8045SOL    HW125034   5.792   1.102   2.694
 8045SOL    HW225035   5.874   1.176   2.574
 8046SOL     OW25036   6.135   4.703   5.919
 8046SOL    HW125037   6.088   4.640   5.857
 8046SOL    HW225038   6.139   4.663   6.010
 8047SOL     OW25039   3.509   5.067   4.872
 8047SOL    HW125040   3.456   5.074   4.957
 8047SOL    HW225041   3.454   5.101   4.796
 8048SOL     OW25042   5.367   1.244   5.444
 8048SOL    HW125043   5.348   1.339   5.469
 8048SOL    HW225044   5.333   1.226   5.352
 8049SOL     OW25045   0.336   6.853   1.380
 8049SOL    HW125046   0.380   6.784   1.437
 8049SOL    HW225047   0.330   6.819   1.286
 8050SOL     OW25048   1.274   3.334   1.269
 8050SOL    HW125049   1.199   3.323   1.334
 8050SOL    HW225050   1.361   3.329   1.319
 8051SOL     OW25051   5.162   0.062   3.406
 8051SOL    HW125052   5.162   0.052   3.505
 8051SOL    HW225053   5.068   0.052   3.372
 8052SOL     OW25054   3.505   1.685   2.350
 8052SOL    HW125055   3.474   1.754   2.416
 8052SOL    HW225056   3.427   1.656   2.294
 8053SOL     OW25057   3.913   3.897   2.702
 8053SOL    HW125058   3.840   3.829   2.706
 8053SOL    HW225059   4.000   3.853   2.726
 8054SOL     OW25060   4.452   6.747   4.762
 8054SOL    HW125061   4.396   6.745   4.845
 8054SOL    HW225062   4.547   6.729   4.786
 8055SOL     OW25063   0.553   0.596   5.936
 8055SOL    HW125064   0.505   0.508   5.946
 8055SOL    HW225065   0.651   0.579   5.930
 8056SOL     OW25066   4.447   1.369   2.940
 8056SOL    HW125067   4.469   1.323   3.027
 8056SOL    HW225068   4.509   1.335   2.869
 8057SOL     OW25069   2.745   0.491   2.657
 8057SOL    HW125070   2.657   0.449   2.678
 8057SOL    HW225071   2.737   0.548   2.576
 8058SOL     OW25072   3.163   6.931   2.734
 8058SOL    HW125073   3.205   6.862   2.794
 8058SOL    HW225074   3.092   6.980   2.785
 8059SOL     OW25075   3.725   2.077   4.692
 8059SOL    HW125076   3.772   1.989   4.686
 8059SOL    HW225077   3.786   2.150   4.662
 8060SOL     OW25078   0.804   1.261   4.888
 8060SOL    HW125079   0.796   1.335   4.955
 8060SOL    HW225080   0.728   1.197   4.901
 8061SOL     OW25081   6.913   5.742   2.068
 8061SOL    HW125082   6.814   5.731   2.081
 8061SOL    HW225083   6.933   5.838   2.048
 8062SOL     OW25084   1.819   4.193   4.295
 8062SOL    HW125085   1.833   4.223   4.389
 8062SOL    HW225086   1.765   4.261   4.245
 8063SOL     OW25087   2.297   3.693   6.844
 8063SOL    HW125088   2.301   3.723   6.748
 8063SOL    HW225089   2.243   3.610   6.851
 8064SOL     OW25090   0.336   4.768   0.292
 8064SOL    HW125091   0.283   4.730   0.216
 8064SOL    HW225092   0.301   4.733   0.378
 8065SOL     OW25093   4.035   0.030   4.267
 8065SOL    HW125094   4.028   0.127   4.292
 8065SOL    HW225095   3.960   0.006   4.205
 8066SOL     OW25096   1.630   0.821   6.912
 8066SOL    HW125097   1.660   0.725   6.909
 8066SOL    HW225098   1.546   0.831   6.858
 8067SOL     OW25099   4.038   3.366   1.740
 8067SOL    HW125100   4.082   3.454   1.719
 8067SOL    HW225101   4.045   3.348   1.838
 8068SOL     OW25102   6.171   5.986   5.303
 8068SOL    HW125103   6.131   5.909   5.254
 8068SOL    HW225104   6.194   5.957   5.396
 8069SOL     OW25105   2.574   6.008   1.595
 8069SOL    HW125106   2.649   5.943   1.611
 8069SOL    HW225107   2.519   6.016   1.678
 8070SOL     OW25108   3.154   5.217   1.276
 8070SOL    HW125109   3.211   5.298   1.266
 8070SOL    HW225110   3.110   5.217   1.366
 8071SOL     OW25111   4.267   6.780   5.026
 8071SOL    HW125112   4.235   6.686   5.037
 8071SOL    HW225113   4.309   6.811   5.111
 8072SOL     OW25114   4.258   1.258   0.371
 8072SOL    HW125115   4.345   1.218   0.400
 8072SOL    HW225116   4.272   1.315   0.290
 8073SOL     OW25117   4.766   0.559   6.747
 8073SOL    HW125118   4.825   0.506   6.686
 8073SOL    HW225119   4.682   0.583   6.699
 8074SOL     OW25120   3.073   3.144   0.421
 8074SOL    HW125121   2.995   3.193   0.460
 8074SOL    HW225122   3.149   3.207   0.407
 8075SOL     OW25123   6.815   1.328   1.265
 8075SOL    HW125124   6.913   1.344   1.249
 8075SOL    HW225125   6.762   1.382   1.200
 8076SOL     OW25126   4.977   2.109   5.447
 8076SOL    HW125127   5.032   2.190   5.429
 8076SOL    HW225128   4.880   2.131   5.438
 8077SOL     OW25129   0.520   6.704   1.528
 8077SOL    HW125130   0.591   6.744   1.469
 8077SOL    HW225131   0.554   6.618   1.566
 8078SOL     OW25132   6.202   1.742   0.301
 8078SOL    HW125133   6.110   1.752   0.340
 8078SOL    HW225134   6.243   1.658   0.335
 8079SOL     OW25135   6.235   1.929   2.955
 8079SOL    HW125136   6.195   1.937   2.863
 8079SOL    HW225137   6.271   2.018   2.983
 8080SOL     OW25138   2.118   3.912   0.528
 8080SOL    HW125139   2.169   3.998   0.528
 8080SOL    HW225140   2.102   3.883   0.622
 8081SOL     OW25141   5.715   1.218   5.199
 8081SOL    HW125142   5.712   1.154   5.122
 8081SOL    HW225143   5.693   1.171   5.284
 8082SOL     OW25144   5.984   2.425   2.949
 8082SOL    HW125145   5.983   2.525   2.957
 8082SOL    HW225146   5.890   2.392   2.938
 8083SOL     OW25147   4.921   3.341   2.516
 8083SOL    HW125148   5.013   3.311   2.539
 8083SOL    HW225149   4.856   3.267   2.533
 8084SOL     OW25150   6.639   6.181   1.117
 8084SOL    HW125151   6.682   6.258   1.164
 8084SOL    HW225152   6.685   6.096   1.143
 8085SOL     OW25153   5.836   6.826   1.086
 8085SOL    HW125154   5.882   6.822   0.997
 8085SOL    HW225155   5.856   6.913   1.130
 8086SOL     OW25156   3.843   0.271   3.926
 8086SOL    HW125157   3.884   0.182   3.944
 8086SOL    HW225158   3.880   0.309   3.841
 8087SOL     OW25159   2.745   2.204   1.082
 8087SOL    HW125160   2.709   2.116   1.110
 8087SOL    HW225161   2.670   2.266   1.060
 8088SOL     OW25162   6.102   1.419   1.824
 8088SOL    HW125163   6.172   1.400   1.754
 8088SOL    HW225164   6.129   1.376   1.910
 8089SOL     OW25165   5.162   2.889   6.956
 8089SOL    HW125166   5.163   2.845   6.866
 8089SOL    HW225167   5.134   2.822   0.003
 8090SOL     OW25168   5.165   2.032   6.351
 8090SOL    HW125169   5.119   2.009   6.265
 8090SOL    HW225170   5.263   2.038   6.335
 8091SOL     OW25171   3.373   4.542   6.963
 8091SOL    HW125172   3.276   4.530   6.940
 8091SOL    HW225173   3.422   4.580   6.885
 8092SOL     OW25174   1.261   1.215   4.388
 8092SOL    HW125175   1.335   1.233   4.322
 8092SOL    HW225176   1.204   1.140   4.355
 8093SOL     OW25177   6.427   5.817   1.417
 8093SOL    HW125178   6.525   5.812   1.437
 8093SOL    HW225179   6.384   5.729   1.439
 8094SOL     OW25180   1.762   4.672   6.138
 8094SOL    HW125181   1.824   4.608   6.184
 8094SOL    HW225182   1.698   4.620   6.081
 8095SOL     OW25183   6.132   3.756   4.378
 8095SOL    HW125184   6.084   3.738   4.463
 8095SOL    HW225185   6.198   3.683   4.362
 8096SOL     OW25186   2.733   5.710   3.325
 8096SOL    HW125187   2.720   5.725   3.423
 8096SOL    HW225188   2.679   5.631   3.296
 8097SOL     OW25189   4.598   0.236   3.533
 8097SOL    HW125190   4.620   0.249   3.630
 8097SOL    HW225191   4.627   0.317   3.481
 8098SOL     OW25192   2.450   5.884   4.136
 8098SOL    HW125193   2.415   5.793   4.113
 8098SOL    HW225194   2.380   5.936   4.184
 8099SOL     OW25195   6.592   0.413   4.084
 8099SOL    HW125196   6.578   0.357   4.002
 8099SOL    HW225197   6.635   0.500   4.058
 8100SOL     OW25198   0.315   6.572   0.208
 8100SOL    HW125199   0.285   6.590   0.114
 8100SOL    HW225200   0.392   6.509   0.207
 8101SOL     OW25201   1.674   0.346   4.957
 8101SOL    HW125202   1.671   0.436   5.001
 8101SOL    HW225203   1.653   0.356   4.860
 8102SOL     OW25204   0.883   5.401   6.328
 8102SOL    HW125205   0.958   5.429   6.269
 8102SOL    HW225206   0.817   5.475   6.337
 8103SOL     OW25207   4.409   1.318   1.759
 8103SOL    HW125208   4.483   1.371   1.801
 8103SOL    HW225209   4.348   1.283   1.830
 8104SOL     OW25210   4.096   7.000   5.961
 8104SOL    HW125211   4.105   6.944   5.878
 8104SOL    HW225212   4.046   6.948   6.030
 8105SOL     OW25213   2.707   2.327   3.623
 8105SOL    HW125214   2.756   2.249   3.585
 8105SOL    HW225215   2.679   2.388   3.550
 8106SOL     OW25216   1.395   5.076   3.698
 8106SOL    HW125217   1.447   4.993   3.675
 8106SOL    HW225218   1.434   5.118   3.780
 8107SOL     OW25219   2.191   6.513   5.788
 8107SOL    HW125220   2.204   6.420   5.822
 8107SOL    HW225221   2.215   6.516   5.691
 8108SOL     OW25222   6.866   3.648   4.484
 8108SOL    HW125223   6.932   3.677   4.553
 8108SOL    HW225224   6.831   3.557   4.507
 8109SOL     OW25225   2.126   4.706   4.836
 8109SOL    HW125226   2.100   4.619   4.794
 8109SOL    HW225227   2.193   4.690   4.909
 8110SOL     OW25228   2.433   6.409   0.466
 8110SOL    HW125229   2.402   6.316   0.488
 8110SOL    HW225230   2.366   6.475   0.501
 8111SOL     OW25231   2.771   6.737   5.103
 8111SOL    HW125232   2.820   6.696   5.026
 8111SOL    HW225233   2.834   6.746   5.181
 8112SOL     OW25234   2.465   0.816   5.670
 8112SOL    HW125235   2.497   0.727   5.700
 8112SOL    HW225236   2.371   0.808   5.634
 8113SOL     OW25237   3.167   2.617   0.526
 8113SOL    HW125238   3.165   2.517   0.521
 8113SOL    HW225239   3.078   2.650   0.554
 8114SOL     OW25240   2.167   2.896   2.168
 8114SOL    HW125241   2.154   2.918   2.265
 8114SOL    HW225242   2.166   2.980   2.114
 8115SOL     OW25243   4.076   1.170   1.636
 8115SOL    HW125244   4.057   1.250   1.580
 8115SOL    HW225245   4.061   1.192   1.732
 8116SOL     OW25246   5.709   6.838   5.540
 8116SOL    HW125247   5.637   6.787   5.586
 8116SOL    HW225248   5.795   6.788   5.547
 8117SOL     OW25249   1.494   1.984   3.980
 8117SOL    HW125250   1.488   2.082   3.958
 8117SOL    HW225251   1.470   1.970   4.076
 8118SOL     OW25252   0.935   3.965   5.693
 8118SOL    HW125253   1.022   3.993   5.731
 8118SOL    HW225254   0.890   4.043   5.650
 8119SOL     OW25255   0.400   5.318   3.978
 8119SOL    HW125256   0.370   5.224   3.992
 8119SOL    HW225257   0.499   5.325   3.994
 8120SOL     OW25258   4.038   4.310   0.266
 8120SOL    HW125259   4.038   4.284   0.362
 8120SOL    HW225260   4.128   4.343   0.240
 8121SOL     OW25261   0.456   6.629   2.718
 8121SOL    HW125262   0.470   6.695   2.644
 8121SOL    HW225263   0.545   6.601   2.754
 8122SOL     OW25264   0.699   4.829   2.063
 8122SOL    HW125265   0.764   4.904   2.078
 8122SOL    HW225266   0.692   4.810   1.965
 8123SOL     OW25267   0.619   0.078   6.175
 8123SOL    HW125268   0.672   0.136   6.112
 8123SOL    HW225269   0.601   7.012   6.132
 8124SOL     OW25270   1.877   6.092   1.004
 8124SOL    HW125271   1.914   6.002   1.027
 8124SOL    HW225272   1.872   6.102   0.905
 8125SOL     OW25273   5.986   4.793   2.718
 8125SOL    HW125274   5.925   4.738   2.774
 8125SOL    HW225275   6.019   4.738   2.641
 8126SOL     OW25276   5.831   4.606   2.825
 8126SOL    HW125277   5.803   4.536   2.890
 8126SOL    HW225278   5.765   4.612   2.751
 8127SOL     OW25279   2.266   5.255   0.827
 8127SOL    HW125280   2.185   5.313   0.815
 8127SOL    HW225281   2.282   5.201   0.745
 8128SOL     OW25282   3.075   2.698   6.735
 8128SOL    HW125283   3.026   2.732   6.655
 8128SOL    HW225284   3.166   2.741   6.739
 8129SOL     OW25285   5.468   0.887   6.176
 8129SOL    HW125286   5.380   0.840   6.170
 8129SOL    HW225287   5.533   0.845   6.113
 8130SOL     OW25288   1.096   5.379   6.133
 8130SOL    HW125289   1.143   5.294   6.155
 8130SOL    HW225290   1.078   5.383   6.035
 8131SOL     OW25291   3.449   1.484   0.772
 8131SOL    HW125292   3.442   1.580   0.747
 8131SOL    HW225293   3.422   1.427   0.695
 8132SOL     OW25294   6.051   5.458   4.998
 8132SOL    HW125295   6.055   5.544   5.050
 8132SOL    HW225296   6.029   5.383   5.060
 8133SOL     OW25297   3.396   4.888   3.521
 8133SOL    HW125298   3.451   4.929   3.595
 8133SOL    HW225299   3.444   4.808   3.485
 8134SOL     OW25300   1.930   2.003   4.182
 8134SOL    HW125301   1.944   2.052   4.268
 8134SOL    HW225302   1.932   1.905   4.199
 8135SOL     OW25303   3.215   4.947   2.169
 8135SOL    HW125304   3.145   4.880   2.145
 8135SOL    HW225305   3.174   5.038   2.173
 8136SOL     OW25306   4.026   5.086   2.226
 8136SOL    HW125307   4.031   5.078   2.326
 8136SOL    HW225308   3.938   5.127   2.200
 8137SOL     OW25309   1.771   3.238   4.564
 8137SOL    HW125310   1.825   3.291   4.630
 8137SOL    HW225311   1.833   3.177   4.512
 8138SOL     OW25312   5.462   1.947   2.120
 8138SOL    HW125313   5.528   1.879   2.091
 8138SOL    HW225314   5.386   1.901   2.167
 8139SOL     OW25315   0.508   3.399   3.648
 8139SOL    HW125316   0.509   3.451   3.733
 8139SOL    HW225317   0.416   3.364   3.631
 8140SOL     OW25318   4.421   6.840   6.625
 8140SOL    HW125319   4.388   6.933   6.639
 8140SOL    HW225320   4.357   6.775   6.667
 8141SOL     OW25321   4.776   1.076   5.484
 8141SOL    HW125322   4.757   0.981   5.457
 8141SOL    HW225323   4.868   1.082   5.521
 8142SOL     OW25324   2.687   5.220   0.304
 8142SOL    HW125325   2.629   5.147   0.267
 8142SOL    HW225326   2.659   5.308   0.264
 8143SOL     OW25327   5.481   4.470   1.019
 8143SOL    HW125328   5.411   4.514   0.963
 8143SOL    HW225329   5.547   4.425   0.959
 8144SOL     OW25330   0.361   5.791   5.499
 8144SOL    HW125331   0.384   5.880   5.540
 8144SOL    HW225332   0.404   5.785   5.409
 8145SOL     OW25333   5.265   5.781   0.208
 8145SOL    HW125334   5.362   5.799   0.223
 8145SOL    HW225335   5.210   5.832   0.275
 8146SOL     OW25336   6.264   0.259   4.734
 8146SOL    HW125337   6.203   0.291   4.661
 8146SOL    HW225338   6.256   0.318   4.813
 8147SOL     OW25339   0.682   0.700   6.545
 8147SOL    HW125340   0.583   0.710   6.540
 8147SOL    HW225341   0.720   0.770   6.604
 8148SOL     OW25342   4.327   3.954   0.160
 8148SOL    HW125343   4.413   3.924   0.118
 8148SOL    HW225344   4.347   4.017   0.235
 8149SOL     OW25345   1.666   6.753   4.477
 8149SOL    HW125346   1.740   6.732   4.413
 8149SOL    HW225347   1.585   6.782   4.425
 8150SOL     OW25348   0.863   3.383   0.989
 8150SOL    HW125349   0.791   3.448   1.015
 8150SOL    HW225350   0.952   3.425   1.007
 8151SOL     OW25351   5.983   5.042   3.706
 8151SOL    HW125352   5.954   4.968   3.644
 8151SOL    HW225353   5.932   5.034   3.792
 8152SOL     OW25354   4.347   2.120   2.806
 8152SOL    HW125355   4.348   2.020   2.796
 8152SOL    HW225356   4.438   2.156   2.792
 8153SOL     OW25357   0.900   0.481   3.436
 8153SOL    HW125358   0.923   0.389   3.404
 8153SOL    HW225359   0.938   0.548   3.372
 8154SOL     OW25360   2.681   1.722   3.370
 8154SOL    HW125361   2.693   1.800   3.432
 8154SOL    HW225362   2.686   1.637   3.422
 8155SOL     OW25363   1.445   4.137   2.228
 8155SOL    HW125364   1.437   4.107   2.323
 8155SOL    HW225365   1.415   4.063   2.167
 8156SOL     OW25366   5.744   5.524   1.152
 8156SOL    HW125367   5.692   5.578   1.217
 8156SOL    HW225368   5.816   5.580   1.111
 8157SOL     OW25369   6.112   3.766   5.937
 8157SOL    HW125370   6.023   3.803   5.966
 8157SOL    HW225371   6.106   3.666   5.933
 8158SOL     OW25372   5.388   4.736   6.003
 8158SOL    HW125373   5.444   4.765   5.926
 8158SOL    HW225374   5.430   4.766   6.088
 8159SOL     OW25375   3.934   6.419   5.768
 8159SOL    HW125376   3.881   6.469   5.836
 8159SOL    HW225377   3.974   6.338   5.811
 8160SOL     OW25378   5.039   1.519   3.360
 8160SOL    HW125379   4.976   1.569   3.420
 8160SOL    HW225380   5.027   1.421   3.374
 8161SOL     OW25381   5.408   3.210   0.393
 8161SOL    HW125382   5.393   3.160   0.478
 8161SOL    HW225383   5.386   3.150   0.316
 8162SOL     OW25384   0.005   4.921   6.993
 8162SOL    HW125385   6.948   4.865   6.970
 8162SOL    HW225386   7.007   4.977   0.051
 8163SOL     OW25387   4.156   4.753   5.581
 8163SOL    HW125388   4.085   4.733   5.649
 8163SOL    HW225389   4.190   4.667   5.543
 8164SOL     OW25390   4.594   0.855   6.891
 8164SOL    HW125391   4.533   0.852   6.812
 8164SOL    HW225392   4.687   0.875   6.860
 8165SOL     OW25393   6.678   3.270   6.419
 8165SOL    HW125394   6.642   3.204   6.353
 8165SOL    HW225395   6.705   3.353   6.371
 8166SOL     OW25396   1.723   2.339   3.801
 8166SOL    HW125397   1.720   2.409   3.872
 8166SOL    HW225398   1.818   2.313   3.784
 8167SOL     OW25399   6.443   1.079   4.024
 8167SOL    HW125400   6.437   1.168   4.068
 8167SOL    HW225401   6.406   1.086   3.931
 8168SOL     OW25402   2.134   0.651   1.475
 8168SOL    HW125403   2.111   0.732   1.421
 8168SOL    HW225404   2.049   0.607   1.507
 8169SOL     OW25405   4.331   1.741   0.218
 8169SOL    HW125406   4.333   1.834   0.254
 8169SOL    HW225407   4.363   1.677   0.288
 8170SOL     OW25408   6.730   4.003   2.404
 8170SOL    HW125409   6.726   3.907   2.376
 8170SOL    HW225410   6.744   4.010   2.502
 8171SOL     OW25411   1.777   1.036   0.068
 8171SOL    HW125412   1.739   0.952   0.030
 8171SOL    HW225413   1.811   1.093   7.016
 8172SOL     OW25414   0.425   1.789   1.810
 8172SOL    HW125415   0.413   1.754   1.903
 8172SOL    HW225416   0.510   1.753   1.772
 8173SOL     OW25417   5.898   2.235   2.564
 8173SOL    HW125418   5.955   2.153   2.576
 8173SOL    HW225419   5.830   2.218   2.492
 8174SOL     OW25420   1.476   6.465   2.250
 8174SOL    HW125421   1.414   6.500   2.179
 8174SOL    HW225422   1.564   6.444   2.209
 8175SOL     OW25423   0.793   2.484   3.907
 8175SOL    HW125424   0.824   2.401   3.954
 8175SOL    HW225425   0.712   2.521   3.953
 8176SOL     OW25426   1.639   4.311   1.452
 8176SOL    HW125427   1.726   4.340   1.411
 8176SOL    HW225428   1.623   4.361   1.536
 8177SOL     OW25429   3.534   0.896   3.159
 8177SOL    HW125430   3.481   0.981   3.152
 8177SOL    HW225431   3.612   0.901   3.096
 8178SOL     OW25432   2.836   6.295   1.020
 8178SOL    HW125433   2.799   6.365   0.958
 8178SOL    HW225434   2.893   6.231   0.967
 8179SOL     OW25435   5.405   0.460   4.240
 8179SOL    HW125436   5.319   0.510   4.227
 8179SOL    HW225437   5.412   0.387   4.173
 8180SOL     OW25438   5.864   6.793   6.873
 8180SOL    HW125439   5.842   6.891   6.877
 8180SOL    HW225440   5.903   6.771   6.783
 8181SOL     OW25441   0.836   0.951   0.783
 8181SOL    HW125442   0.840   1.042   0.825
 8181SOL    HW225443   0.824   0.882   0.854
 8182SOL     OW25444   3.628   3.577   4.638
 8182SOL    HW125445   3.642   3.506   4.569
 8182SOL    HW225446   3.619   3.534   4.728
 8183SOL     OW25447   6.694   0.820   4.828
 8183SOL    HW125448   6.617   0.758   4.820
 8183SOL    HW225449   6.738   0.808   4.918
 8184SOL     OW25450   1.117   6.907   6.990
 8184SOL    HW125451   1.128   6.808   6.976
 8184SOL    HW225452   1.207   6.950   6.990
 8185SOL     OW25453   1.557   0.652   1.176
 8185SOL    HW125454   1.579   0.618   1.268
 8185SOL    HW225455   1.479   0.714   1.182
 8186SOL     OW25456   1.429   4.628   6.764
 8186SOL    HW125457   1.332   4.604   6.760
 8186SOL    HW225458   1.480   4.555   6.810
 8187SOL     OW25459   2.124   1.939   5.229
 8187SOL    HW125460   2.057   1.945   5.155
 8187SOL    HW225461   2.215   1.926   5.190
 8188SOL     OW25462   4.185   2.210   4.043
 8188SOL    HW125463   4.194   2.136   4.109
 8188SOL    HW225464   4.242   2.190   3.963
 8189SOL     OW25465   5.027   4.644   3.678
 8189SOL    HW125466   5.116   4.648   3.633
 8189SOL    HW225467   4.988   4.736   3.683
 8190SOL     OW25468   5.532   3.917   3.183
 8190SOL    HW125469   5.439   3.946   3.159
 8190SOL    HW225470   5.551   3.829   3.140
 8191SOL     OW25471   4.404   5.036   2.060
 8191SOL    HW125472   4.379   5.079   1.973
 8191SOL    HW225473   4.492   4.990   2.051
 8192SOL     OW25474   1.889   5.451   2.426
 8192SOL    HW125475   1.808   5.503   2.400
 8192SOL    HW225476   1.862   5.374   2.483
 8193SOL     OW25477   6.769   5.630   4.251
 8193SOL    HW125478   6.800   5.700   4.187
 8193SOL    HW225479   6.741   5.673   4.337
 8194SOL     OW25480   4.415   0.199   0.779
 8194SOL    HW125481   4.361   0.179   0.697
 8194SOL    HW225482   4.487   0.264   0.757
 8195SOL     OW25483   6.038   6.496   4.405
 8195SOL    HW125484   5.968   6.539   4.462
 8195SOL    HW225485   6.127   6.504   4.449
 8196SOL     OW25486   4.279   0.470   0.018
 8196SOL    HW125487   4.294   0.381   6.999
 8196SOL    HW225488   4.355   0.531   7.019
 8197SOL     OW25489   4.757   1.806   1.776
 8197SOL    HW125490   4.823   1.876   1.801
 8197SOL    HW225491   4.664   1.844   1.784
 8198SOL     OW25492   2.671   0.526   1.982
 8198SOL    HW125493   2.699   0.436   2.016
 8198SOL    HW225494   2.703   0.538   1.888
 8199SOL     OW25495   4.561   2.982   6.102
 8199SOL    HW125496   4.644   2.928   6.099
 8199SOL    HW225497   4.582   3.078   6.081
 8200SOL     OW25498   5.898   4.383   2.046
 8200SOL    HW125499   5.825   4.326   2.009
 8200SOL    HW225500   5.980   4.371   1.991
 8201SOL     OW25501   0.357   1.065   5.083
 8201SOL    HW125502   0.269   1.082   5.040
 8201SOL    HW225503   0.422   1.136   5.053
 8202SOL     OW25504   0.351   6.659   2.343
 8202SOL    HW125505   0.364   6.596   2.266
 8202SOL    HW225506   0.287   6.618   2.409
 8203SOL     OW25507   2.114   2.435   0.041
 8203SOL    HW125508   2.130   2.480   0.128
 8203SOL    HW225509   2.052   2.491   7.008
 8204SOL     OW25510   4.192   3.834   0.816
 8204SOL    HW125511   4.231   3.793   0.898
 8204SOL    HW225512   4.261   3.889   0.770
 8205SOL     OW25513   0.665   2.535   6.910
 8205SOL    HW125514   0.690   2.616   6.857
 8205SOL    HW225515   0.748   2.482   6.931
 8206SOL     OW25516   4.892   1.101   0.188
 8206SOL    HW125517   4.985   1.139   0.183
 8206SOL    HW225518   4.867   1.060   0.100
 8207SOL     OW25519   3.095   3.991   4.180
 8207SOL    HW125520   3.135   4.068   4.130
 8207SOL    HW225521   3.117   3.999   4.277
 8208SOL     OW25522   0.673   1.146   0.435
 8208SOL    HW125523   0.729   1.069   0.405
 8208SOL    HW225524   0.670   1.148   0.535
 8209SOL     OW25525   0.413   0.949   5.329
 8209SOL    HW125526   0.399   0.989   5.239
 8209SOL    HW225527   0.506   0.970   5.361
 8210SOL     OW25528   2.141   2.538   0.316
 8210SOL    HW125529   2.058   2.568   0.362
 8210SOL    HW225530   2.205   2.614   0.310
 8211SOL     OW25531   3.223   4.484   1.248
 8211SOL    HW125532   3.137   4.531   1.233
 8211SOL    HW225533   3.282   4.539   1.307
 8212SOL     OW25534   1.159   2.163   3.062
 8212SOL    HW125535   1.070   2.127   3.032
 8212SOL    HW225536   1.200   2.215   2.987
 8213SOL     OW25537   6.667   4.166   2.176
 8213SOL    HW125538   6.713   4.122   2.254
 8213SOL    HW225539   6.606   4.238   2.210
 8214SOL     OW25540   5.400   4.849   3.372
 8214SOL    HW125541   5.499   4.848   3.388
 8214SOL    HW225542   5.373   4.941   3.342
 8215SOL     OW25543   3.242   6.066   5.237
 8215SOL    HW125544   3.300   6.127   5.184
 8215SOL    HW225545   3.218   5.986   5.183
 8216SOL     OW25546   5.468   5.787   4.340
 8216SOL    HW125547   5.381   5.829   4.313
 8216SOL    HW225548   5.465   5.689   4.320
 8217SOL     OW25549   2.109   4.609   0.145
 8217SOL    HW125550   2.061   4.543   0.204
 8217SOL    HW225551   2.136   4.689   0.200
 8218SOL     OW25552   0.440   1.304   0.036
 8218SOL    HW125553   0.385   1.358   6.995
 8218SOL    HW225554   0.533   1.296   0.001
 8219SOL     OW25555   4.772   1.512   0.165
 8219SOL    HW125556   4.868   1.512   0.136
 8219SOL    HW225557   4.763   1.567   0.248
 8220SOL     OW25558   3.083   3.164   3.003
 8220SOL    HW125559   3.036   3.175   2.915
 8220SOL    HW225560   3.154   3.235   3.011
 8221SOL     OW25561   4.917   6.256   4.369
 8221SOL    HW125562   4.959   6.195   4.436
 8221SOL    HW225563   4.869   6.330   4.416
 8222SOL     OW25564   5.235   1.745   2.359
 8222SOL    HW125565   5.250   1.673   2.427
 8222SOL    HW225566   5.258   1.833   2.399
 8223SOL     OW25567   1.450   4.050   5.777
 8223SOL    HW125568   1.455   4.118   5.704
 8223SOL    HW225569   1.501   3.968   5.751
 8224SOL     OW25570   0.662   2.694   2.930
 8224SOL    HW125571   0.644   2.596   2.927
 8224SOL    HW225572   0.710   2.716   3.015
 8225SOL     OW25573   4.127   1.153   0.587
 8225SOL    HW125574   4.060   1.081   0.567
 8225SOL    HW225575   4.157   1.195   0.501
 8226SOL     OW25576   5.083   0.029   2.207
 8226SOL    HW125577   5.142   0.072   2.138
 8226SOL    HW225578   5.132   6.976   2.250
 8227SOL     OW25579   0.422   2.415   3.879
 8227SOL    HW125580   0.390   2.496   3.828
 8227SOL    HW225581   0.497   2.442   3.940
 8228SOL     OW25582   0.496   2.758   6.216
 8228SOL    HW125583   0.399   2.746   6.233
 8228SOL    HW225584   0.510   2.838   6.157
 8229SOL     OW25585   3.719   4.325   0.034
 8229SOL    HW125586   3.720   4.400   6.991
 8229SOL    HW225587   3.812   4.290   0.047
 8230SOL     OW25588   5.672   0.338   5.614
 8230SOL    HW125589   5.650   0.384   5.528
 8230SOL    HW225590   5.662   0.239   5.603
 8231SOL     OW25591   3.851   5.886   1.555
 8231SOL    HW125592   3.860   5.985   1.549
 8231SOL    HW225593   3.822   5.850   1.466
 8232SOL     OW25594   5.567   1.051   0.668
 8232SOL    HW125595   5.538   1.001   0.750
 8232SOL    HW225596   5.498   1.042   0.597
 8233SOL     OW25597   0.861   5.807   6.005
 8233SOL    HW125598   0.937   5.801   6.070
 8233SOL    HW225599   0.850   5.720   5.958
 8234SOL     OW25600   2.756   3.493   0.129
 8234SOL    HW125601   2.669   3.507   0.080
 8234SOL    HW225602   2.774   3.571   0.188
 8235SOL     OW25603   2.066   3.151   0.915
 8235SOL    HW125604   1.979   3.198   0.898
 8235SOL    HW225605   2.138   3.191   0.858
 8236SOL     OW25606   6.712   3.578   0.156
 8236SOL    HW125607   6.643   3.517   0.117
 8236SOL    HW225608   6.800   3.531   0.158
 8237SOL     OW25609   4.873   6.520   5.010
 8237SOL    HW125610   4.851   6.494   5.104
 8237SOL    HW225611   4.970   6.541   5.003
 8238SOL     OW25612   1.526   4.289   0.289
 8238SOL    HW125613   1.429   4.266   0.293
 8238SOL    HW225614   1.578   4.221   0.340
 8239SOL     OW25615   6.582   1.799   5.437
 8239SOL    HW125616   6.512   1.795   5.508
 8239SOL    HW225617   6.673   1.785   5.478
 8240SOL     OW25618   3.438   3.699   2.696
 8240SOL    HW125619   3.479   3.725   2.783
 8240SOL    HW225620   3.403   3.605   2.702
 8241SOL     OW25621   3.562   6.629   0.405
 8241SOL    HW125622   3.511   6.630   0.319
 8241SOL    HW225623   3.637   6.695   0.399
 8242SOL     OW25624   1.373   4.496   6.010
 8242SOL    HW125625   1.426   4.477   6.093
 8242SOL    HW225626   1.433   4.488   5.930
 8243SOL     OW25627   1.068   3.215   6.430
 8243SOL    HW125628   1.106   3.139   6.378
 8243SOL    HW225629   1.127   3.295   6.422
 8244SOL     OW25630   0.380   0.089   3.098
 8244SOL    HW125631   0.382   0.095   3.197
 8244SOL    HW225632   0.467   0.055   3.064
 8245SOL     OW25633   3.430   1.009   2.532
 8245SOL    HW125634   3.492   1.079   2.497
 8245SOL    HW225635   3.337   1.043   2.531
 8246SOL     OW25636   6.868   3.685   5.472
 8246SOL    HW125637   6.826   3.766   5.513
 8246SOL    HW225638   6.847   3.682   5.374
 8247SOL     OW25639   0.886   0.374   2.050
 8247SOL    HW125640   0.808   0.316   2.074
 8247SOL    HW225641   0.947   0.323   1.989
 8248SOL     OW25642   5.331   4.867   2.947
 8248SOL    HW125643   5.280   4.939   2.993
 8248SOL    HW225644   5.344   4.891   2.851
 8249SOL     OW25645   2.104   3.406   4.834
 8249SOL    HW125646   2.138   3.414   4.928
 8249SOL    HW225647   2.081   3.497   4.799
 8250SOL     OW25648   3.154   4.043   2.202
 8250SOL    HW125649   3.236   4.048   2.258
 8250SOL    HW225650   3.126   4.135   2.174
 8251SOL     OW25651   6.155   2.778   4.197
 8251SOL    HW125652   6.235   2.785   4.256
 8251SOL    HW225653   6.112   2.868   4.187
 8252SOL     OW25654   3.385   3.103   0.033
 8252SOL    HW125655   3.401   3.197   0.061
 8252SOL    HW225656   3.390   3.043   0.113
 8253SOL     OW25657   3.860   3.891   4.926
 8253SOL    HW125658   3.811   3.978   4.927
 8253SOL    HW225659   3.859   3.854   4.833
 8254SOL     OW25660   4.432   4.776   4.552
 8254SOL    HW125661   4.510   4.830   4.519
 8254SOL    HW225662   4.436   4.767   4.651
 8255SOL     OW25663   3.605   6.157   4.875
 8255SOL    HW125664   3.648   6.189   4.790
 8255SOL    HW225665   3.668   6.097   4.924
 8256SOL     OW25666   6.422   0.748   1.809
 8256SOL    HW125667   6.334   0.699   1.810
 8256SOL    HW225668   6.445   0.777   1.901
 8257SOL     OW25669   6.498   3.972   3.414
 8257SOL    HW125670   6.429   4.034   3.452
 8257SOL    HW225671   6.589   4.005   3.437
 8258SOL     OW25672   5.453   1.299   0.394
 8258SOL    HW125673   5.382   1.367   0.417
 8258SOL    HW225674   5.509   1.334   0.319
 8259SOL     OW25675   4.231   1.808   3.846
 8259SOL    HW125676   4.310   1.762   3.806
 8259SOL    HW225677   4.220   1.899   3.804
 8260SOL     OW25678   2.991   0.518   1.225
 8260SOL    HW125679   2.994   0.608   1.268
 8260SOL    HW225680   3.073   0.505   1.170
 8261SOL     OW25681   6.311   1.433   1.635
 8261SOL    HW125682   6.363   1.369   1.578
 8261SOL    HW225683   6.285   1.513   1.580
 8262SOL     OW25684   1.147   3.004   1.214
 8262SOL    HW125685   1.238   2.966   1.232
 8262SOL    HW225686   1.154   3.103   1.201
 8263SOL     OW25687   0.187   2.195   0.394
 8263SOL    HW125688   0.243   2.265   0.438
 8263SOL    HW225689   0.244   2.135   0.339
 8264SOL     OW25690   1.691   6.161   2.266
 8264SOL    HW125691   1.594   6.178   2.248
 8264SOL    HW225692   1.732   6.243   2.305
 8265SOL     OW25693   0.938   6.619   1.417
 8265SOL    HW125694   0.972   6.531   1.386
 8265SOL    HW225695   0.872   6.655   1.350
 8266SOL     OW25696   1.993   0.544   3.051
 8266SOL    HW125697   2.088   0.569   3.068
 8266SOL    HW225698   1.952   0.610   2.987
 8267SOL     OW25699   1.710   3.266   1.072
 8267SOL    HW125700   1.738   3.223   0.987
 8267SOL    HW225701   1.655   3.201   1.125
 8268SOL     OW25702   2.207   6.451   6.134
 8268SOL    HW125703   2.266   6.428   6.211
 8268SOL    HW225704   2.264   6.485   6.059
 8269SOL     OW25705   5.696   1.436   1.460
 8269SOL    HW125706   5.609   1.435   1.410
 8269SOL    HW225707   5.694   1.365   1.530
 8270SOL     OW25708   2.925   6.973   4.922
 8270SOL    HW125709   2.873   0.036   4.921
 8270SOL    HW225710   2.882   6.908   4.985
 8271SOL     OW25711   0.168   0.859   2.444
 8271SOL    HW125712   0.229   0.797   2.493
 8271SOL    HW225713   0.193   0.860   2.347
 8272SOL     OW25714   5.056   1.248   1.200
 8272SOL    HW125715   4.977   1.281   1.252
 8272SOL    HW225716   5.133   1.234   1.262
 8273SOL     OW25717   2.139   6.052   0.675
 8273SOL    HW125718   2.164   6.092   0.763
 8273SOL    HW225719   2.085   5.970   0.689
 8274SOL     OW25720   4.785   4.575   3.225
 8274SOL    HW125721   4.722   4.499   3.207
 8274SOL    HW225722   4.747   4.633   3.297
 8275SOL     OW25723   4.220   1.135   5.951
 8275SOL    HW125724   4.299   1.180   5.909
 8275SOL    HW225725   4.213   1.163   6.047
 8276SOL     OW25726   1.094   2.244   3.940
 8276SOL    HW125727   1.013   2.190   3.918
 8276SOL    HW225728   1.171   2.183   3.958
 8277SOL     OW25729   0.242   0.777   6.902
 8277SOL    HW125730   0.257   0.724   6.986
 8277SOL    HW225731   0.232   0.716   6.824
 8278SOL     OW25732   2.629   1.767   5.985
 8278SOL    HW125733   2.630   1.681   5.934
 8278SOL    HW225734   2.622   1.844   5.922
 8279SOL     OW25735   1.398   0.418   4.430
 8279SOL    HW125736   1.441   0.446   4.344
 8279SOL    HW225737   1.423   0.482   4.502
 8280SOL     OW25738   2.732   3.107   0.587
 8280SOL    HW125739   2.645   3.084   0.542
 8280SOL    HW225740   2.781   3.023   0.610
 8281SOL     OW25741   1.936   4.788   1.494
 8281SOL    HW125742   1.908   4.765   1.401
 8281SOL    HW225743   1.913   4.712   1.556
 8282SOL     OW25744   5.568   3.746   6.475
 8282SOL    HW125745   5.545   3.650   6.494
 8282SOL    HW225746   5.661   3.765   6.507
 8283SOL     OW25747   1.121   4.589   6.498
 8283SOL    HW125748   1.065   4.659   6.453
 8283SOL    HW225749   1.104   4.501   6.455
 8284SOL     OW25750   0.924   3.837   1.128
 8284SOL    HW125751   0.875   3.895   1.192
 8284SOL    HW225752   0.992   3.782   1.177
 8285SOL     OW25753   3.660   2.834   4.810
 8285SOL    HW125754   3.573   2.869   4.774
 8285SOL    HW225755   3.673   2.740   4.780
 8286SOL     OW25756   5.562   3.319   6.739
 8286SOL    HW125757   5.511   3.238   6.771
 8286SOL    HW225758   5.535   3.398   6.793
 8287SOL     OW25759   1.961   5.367   4.444
 8287SOL    HW125760   2.017   5.287   4.468
 8287SOL    HW225761   1.973   5.388   4.347
 8288SOL     OW25762   2.629   1.659   1.631
 8288SOL    HW125763   2.598   1.753   1.615
 8288SOL    HW225764   2.708   1.660   1.692
 8289SOL     OW25765   0.604   6.523   1.732
 8289SOL    HW125766   0.692   6.479   1.711
 8289SOL    HW225767   0.609   6.566   1.822
 8290SOL     OW25768   5.902   0.916   0.710
 8290SOL    HW125769   5.882   1.011   0.688
 8290SOL    HW225770   5.972   0.881   0.648
 8291SOL     OW25771   4.496   5.676   6.574
 8291SOL    HW125772   4.582   5.718   6.546
 8291SOL    HW225773   4.420   5.738   6.553
 8292SOL     OW25774   2.558   6.215   6.877
 8292SOL    HW125775   2.548   6.120   6.907
 8292SOL    HW225776   2.626   6.220   6.804
 8293SOL     OW25777   3.242   6.996   0.047
 8293SOL    HW125778   3.186   0.055   0.035
 8293SOL    HW225779   3.265   6.985   0.144
 8294SOL     OW25780   5.790   4.608   4.895
 8294SOL    HW125781   5.835   4.523   4.920
 8294SOL    HW225782   5.850   4.661   4.835
 8295SOL     OW25783   5.553   5.410   1.646
 8295SOL    HW125784   5.579   5.323   1.687
 8295SOL    HW225785   5.513   5.469   1.717
 8296SOL     OW25786   2.666   6.701   6.354
 8296SOL    HW125787   2.567   6.714   6.352
 8296SOL    HW225788   2.710   6.787   6.380
 8297SOL     OW25789   6.953   3.086   2.285
 8297SOL    HW125790   7.016   3.106   2.360
 8297SOL    HW225791   6.974   2.996   2.247
 8298SOL     OW25792   5.970   2.383   1.317
 8298SOL    HW125793   5.893   2.409   1.259
 8298SOL    HW225794   6.054   2.424   1.280
 8299SOL     OW25795   6.842   2.398   1.858
 8299SOL    HW125796   6.915   2.463   1.878
 8299SOL    HW225797   6.878   2.322   1.804
 8300SOL     OW25798   0.980   5.810   5.137
 8300SOL    HW125799   1.009   5.871   5.211
 8300SOL    HW225800   1.011   5.717   5.156
 8301SOL     OW25801   4.052   1.890   1.562
 8301SOL    HW125802   4.079   1.931   1.474
 8301SOL    HW225803   4.115   1.815   1.583
 8302SOL     OW25804   5.523   6.165   5.997
 8302SOL    HW125805   5.496   6.069   5.991
 8302SOL    HW225806   5.448   6.218   6.036
 8303SOL     OW25807   6.919   0.838   3.961
 8303SOL    HW125808   6.843   0.892   3.926
 8303SOL    HW225809   6.970   0.797   3.885
 8304SOL     OW25810   1.096   3.007   0.056
 8304SOL    HW125811   1.146   2.921   0.040
 8304SOL    HW225812   1.003   2.998   0.021
 8305SOL     OW25813   3.996   4.841   4.302
 8305SOL    HW125814   3.988   4.829   4.203
 8305SOL    HW225815   4.091   4.860   4.326
 8306SOL     OW25816   0.187   2.822   5.199
 8306SOL    HW125817   0.277   2.830   5.156
 8306SOL    HW225818   0.199   2.809   5.297
 8307SOL     OW25819   4.410   5.156   1.506
 8307SOL    HW125820   4.447   5.244   1.537
 8307SOL    HW225821   4.311   5.154   1.522
 8308SOL     OW25822   4.452   6.057   1.550
 8308SOL    HW125823   4.393   6.123   1.505
 8308SOL    HW225824   4.436   6.059   1.649
 8309SOL     OW25825   6.435   5.529   3.469
 8309SOL    HW125826   6.501   5.461   3.439
 8309SOL    HW225827   6.448   5.548   3.567
 8310SOL     OW25828   1.156   4.283   0.553
 8310SOL    HW125829   1.196   4.368   0.585
 8310SOL    HW225830   1.062   4.275   0.587
 8311SOL     OW25831   0.594   1.094   4.839
 8311SOL    HW125832   0.608   1.041   4.922
 8311SOL    HW225833   0.561   1.033   4.766
 8312SOL     OW25834   4.595   5.868   1.375
 8312SOL    HW125835   4.677   5.910   1.337
 8312SOL    HW225836   4.565   5.921   1.455
 8313SOL     OW25837   4.941   0.922   2.286
 8313SOL    HW125838   4.870   0.855   2.265
 8313SOL    HW225839   4.957   0.980   2.206
 8314SOL     OW25840   4.833   6.892   1.358
 8314SOL    HW125841   4.908   6.899   1.425
 8314SOL    HW225842   4.826   6.797   1.327
 8315SOL     OW25843   3.990   3.483   0.987
 8315SOL    HW125844   4.040   3.516   0.906
 8315SOL    HW225845   4.053   3.477   1.064
 8316SOL     OW25846   1.261   2.495   1.691
 8316SOL    HW125847   1.224   2.404   1.675
 8316SOL    HW225848   1.186   2.560   1.704
 8317SOL     OW25849   2.396   2.720   2.150
 8317SOL    HW125850   2.333   2.795   2.130
 8317SOL    HW225851   2.364   2.671   2.231
 8318SOL     OW25852   4.246   1.356   4.421
 8318SOL    HW125853   4.146   1.362   4.420
 8318SOL    HW225854   4.274   1.263   4.399
 8319SOL     OW25855   3.129   1.868   6.555
 8319SOL    HW125856   3.221   1.846   6.523
 8319SOL    HW225857   3.129   1.962   6.591
 8320SOL     OW25858   3.698   4.194   1.326
 8320SOL    HW125859   3.743   4.107   1.348
 8320SOL    HW225860   3.704   4.255   1.405
 8321SOL     OW25861   0.163   1.429   0.079
 8321SOL    HW125862   0.193   1.342   0.118
 8321SOL    HW225863   0.077   1.415   0.030
 8322SOL     OW25864   0.477   0.293   0.505
 8322SOL    HW125865   0.527   0.361   0.452
 8322SOL    HW225866   0.432   0.229   0.443
 8323SOL     OW25867   6.400   6.313   2.993
 8323SOL    HW125868   6.430   6.367   3.071
 8323SOL    HW225869   6.300   6.308   2.992
 8324SOL     OW25870   6.113   0.832   1.996
 8324SOL    HW125871   6.087   0.784   2.080
 8324SOL    HW225872   6.210   0.856   2.000
 8325SOL     OW25873   3.157   3.365   4.983
 8325SOL    HW125874   3.211   3.286   4.955
 8325SOL    HW225875   3.081   3.336   5.041
 8326SOL     OW25876   4.584   3.128   5.381
 8326SOL    HW125877   4.504   3.082   5.419
 8326SOL    HW225878   4.581   3.225   5.406
 8327SOL     OW25879   5.401   2.786   6.259
 8327SOL    HW125880   5.460   2.820   6.186
 8327SOL    HW225881   5.435   2.698   6.292
 8328SOL     OW25882   2.732   4.153   6.532
 8328SOL    HW125883   2.675   4.235   6.530
 8328SOL    HW225884   2.756   4.126   6.439
 8329SOL     OW25885   6.980   4.039   6.338
 8329SOL    HW125886   0.054   4.013   6.331
 8329SOL    HW225887   6.973   4.128   6.382
 8330SOL     OW25888   2.242   6.801   0.754
 8330SOL    HW125889   2.325   6.775   0.805
 8330SOL    HW225890   2.166   6.809   0.818
 8331SOL     OW25891   2.612   0.771   1.228
 8331SOL    HW125892   2.542   0.802   1.163
 8331SOL    HW225893   2.627   0.673   1.216
 8332SOL     OW25894   4.903   5.089   2.509
 8332SOL    HW125895   4.817   5.077   2.559
 8332SOL    HW225896   4.900   5.173   2.456
 8333SOL     OW25897   0.516   6.478   6.915
 8333SOL    HW125898   0.442   6.545   6.923
 8333SOL    HW225899   0.493   6.395   6.966
 8334SOL     OW25900   4.915   1.427   3.739
 8334SOL    HW125901   4.863   1.502   3.697
 8334SOL    HW225902   5.004   1.460   3.768
 8335SOL     OW25903   6.265   5.521   5.834
 8335SOL    HW125904   6.297   5.428   5.857
 8335SOL    HW225905   6.331   5.587   5.870
 8336SOL     OW25906   0.055   0.245   1.762
 8336SOL    HW125907   7.015   0.218   1.689
 8336SOL    HW225908   0.108   0.165   1.791
 8337SOL     OW25909   0.714   6.655   3.086
 8337SOL    HW125910   0.677   6.576   3.136
 8337SOL    HW225911   0.811   6.666   3.109
 8338SOL     OW25912   1.673   5.156   2.212
 8338SOL    HW125913   1.743   5.200   2.156
 8338SOL    HW225914   1.685   5.057   2.208
 8339SOL     OW25915   5.814   0.566   1.326
 8339SOL    HW125916   5.847   0.619   1.404
 8339SOL    HW225917   5.865   0.480   1.320
 8340SOL     OW25918   5.017   3.895   1.129
 8340SOL    HW125919   5.007   3.880   1.030
 8340SOL    HW225920   5.098   3.953   1.145
 8341SOL     OW25921   2.669   6.441   0.018
 8341SOL    HW125922   2.618   6.375   6.985
 8341SOL    HW225923   2.614   6.465   0.099
 8342SOL     OW25924   3.795   0.684   1.483
 8342SOL    HW125925   3.710   0.695   1.431
 8342SOL    HW225926   3.819   0.587   1.488
 8343SOL     OW25927   1.176   4.876   6.196
 8343SOL    HW125928   1.101   4.912   6.141
 8343SOL    HW225929   1.173   4.776   6.195
 8344SOL     OW25930   4.780   0.048   5.496
 8344SOL    HW125931   4.702   7.010   5.488
 8344SOL    HW225932   4.776   0.118   5.424
 8345SOL     OW25933   5.266   1.980   3.679
 8345SOL    HW125934   5.320   2.061   3.657
 8345SOL    HW225935   5.269   1.916   3.603
 8346SOL     OW25936   3.258   4.767   0.377
 8346SOL    HW125937   3.162   4.787   0.358
 8346SOL    HW225938   3.294   4.832   0.443
 8347SOL     OW25939   3.588   6.745   4.653
 8347SOL    HW125940   3.516   6.731   4.721
 8347SOL    HW225941   3.677   6.737   4.697
 8348SOL     OW25942   0.867   6.758   1.678
 8348SOL    HW125943   0.846   6.854   1.656
 8348SOL    HW225944   0.863   6.703   1.594
 8349SOL     OW25945   6.175   5.796   1.688
 8349SOL    HW125946   6.186   5.802   1.589
 8349SOL    HW225947   6.078   5.798   1.711
 8350SOL     OW25948   5.102   1.231   4.340
 8350SOL    HW125949   5.163   1.281   4.279
 8350SOL    HW225950   5.136   1.238   4.434
 8351SOL     OW25951   4.688   5.386   4.409
 8351SOL    HW125952   4.774   5.433   4.428
 8351SOL    HW225953   4.662   5.330   4.487
 8352SOL     OW25954   0.034   6.814   2.288
 8352SOL    HW125955   0.039   6.716   2.272
 8352SOL    HW225956   0.126   6.853   2.289
 8353SOL     OW25957   5.779   4.007   2.018
 8353SOL    HW125958   5.758   4.101   1.991
 8353SOL    HW225959   5.706   3.946   1.988
 8354SOL     OW25960   3.175   1.007   6.577
 8354SOL    HW125961   3.169   1.025   6.675
 8354SOL    HW225962   3.092   0.961   6.546
 8355SOL     OW25963   2.981   0.695   6.745
 8355SOL    HW125964   3.067   0.644   6.740
 8355SOL    HW225965   2.989   0.766   6.815
 8356SOL     OW25966   1.578   6.409   0.554
 8356SOL    HW125967   1.598   6.427   0.458
 8356SOL    HW225968   1.609   6.485   0.610
 8357SOL     OW25969   3.730   6.757   6.199
 8357SOL    HW125970   3.636   6.791   6.199
 8357SOL    HW225971   3.734   6.673   6.253
 8358SOL     OW25972   1.608   2.620   4.939
 8358SOL    HW125973   1.578   2.540   4.990
 8358SOL    HW225974   1.529   2.677   4.918
 8359SOL     OW25975   3.198   6.437   4.218
 8359SOL    HW125976   3.215   6.346   4.255
 8359SOL    HW225977   3.264   6.502   4.256
 8360SOL     OW25978   3.368   6.247   2.081
 8360SOL    HW125979   3.440   6.287   2.025
 8360SOL    HW225980   3.368   6.290   2.171
 8361SOL     OW25981   2.099   0.759   2.382
 8361SOL    HW125982   2.183   0.707   2.369
 8361SOL    HW225983   2.042   0.714   2.451
 8362SOL     OW25984   2.463   2.126   0.839
 8362SOL    HW125985   2.547   2.075   0.823
 8362SOL    HW225986   2.438   2.121   0.936
 8363SOL     OW25987   0.339   2.764   6.904
 8363SOL    HW125988   0.273   2.704   6.950
 8363SOL    HW225989   0.401   2.803   6.972
 8364SOL     OW25990   6.367   3.544   3.297
 8364SOL    HW125991   6.332   3.575   3.208
 8364SOL    HW225992   6.398   3.623   3.350
 8365SOL     OW25993   1.406   4.023   1.684
 8365SOL    HW125994   1.309   3.997   1.688
 8365SOL    HW225995   1.461   3.951   1.725
 8366SOL     OW25996   3.786   5.390   2.213
 8366SOL    HW125997   3.757   5.471   2.163
 8366SOL    HW225998   3.796   5.313   2.148
 8367SOL     OW25999   4.038   5.995   3.849
 8367SOL    HW126000   4.009   6.010   3.944
 8367SOL    HW226001   3.964   6.022   3.787
 8368SOL     OW26002   2.522   6.484   6.139
 8368SOL    HW126003   2.498   6.420   6.066
 8368SOL    HW226004   2.620   6.501   6.138
 8369SOL     OW26005   2.129   0.292   0.044
 8369SOL    HW126006   2.196   0.236   7.017
 8369SOL    HW226007   2.174   0.375   0.078
 8370SOL     OW26008   2.816   2.155   6.108
 8370SOL    HW126009   2.775   2.180   6.196
 8370SOL    HW226010   2.778   2.213   6.036
 8371SOL     OW26011   1.775   4.354   0.938
 8371SOL    HW126012   1.847   4.372   1.005
 8371SOL    HW226013   1.805   4.284   0.874
 8372SOL     OW26014   0.387   6.169   2.843
 8372SOL    HW126015   0.308   6.225   2.868
 8372SOL    HW226016   0.444   6.219   2.778
 8373SOL     OW26017   0.770   0.386   4.842
 8373SOL    HW126018   0.748   0.323   4.917
 8373SOL    HW226019   0.866   0.414   4.849
 8374SOL     OW26020   6.427   0.437   6.347
 8374SOL    HW126021   6.458   0.447   6.441
 8374SOL    HW226022   6.382   0.521   6.318
 8375SOL     OW26023   3.153   6.550   5.590
 8375SOL    HW126024   3.221   6.529   5.661
 8375SOL    HW226025   3.183   6.631   5.539
 8376SOL     OW26026   2.098   6.838   4.173
 8376SOL    HW126027   2.024   6.902   4.196
 8376SOL    HW226028   2.152   6.876   4.098
 8377SOL     OW26029   5.456   5.986   1.154
 8377SOL    HW126030   5.467   5.887   1.155
 8377SOL    HW226031   5.363   6.009   1.128
 8378SOL     OW26032   4.540   4.488   3.140
 8378SOL    HW126033   4.528   4.439   3.054
 8378SOL    HW226034   4.516   4.584   3.128
 8379SOL     OW26035   6.658   2.783   0.784
 8379SOL    HW126036   6.629   2.835   0.703
 8379SOL    HW226037   6.697   2.696   0.755
 8380SOL     OW26038   6.620   1.384   2.467
 8380SOL    HW126039   6.621   1.397   2.566
 8380SOL    HW226040   6.619   1.286   2.446
 8381SOL     OW26041   0.494   4.175   4.953
 8381SOL    HW126042   0.435   4.099   4.984
 8381SOL    HW226043   0.516   4.162   4.856
 8382SOL     OW26044   1.243   1.373   2.121
 8382SOL    HW126045   1.175   1.429   2.168
 8382SOL    HW226046   1.310   1.432   2.076
 8383SOL     OW26047   2.181   1.129   6.104
 8383SOL    HW126048   2.243   1.082   6.166
 8383SOL    HW226049   2.138   1.206   6.151
 8384SOL     OW26050   0.402   6.938   7.003
 8384SOL    HW126051   0.453   0.002   7.008
 8384SOL    HW226052   0.308   6.952   0.011
 8385SOL     OW26053   5.984   2.691   1.335
 8385SOL    HW126054   6.073   2.662   1.301
 8385SOL    HW226055   5.979   2.673   1.433
 8386SOL     OW26056   0.957   4.251   2.482
 8386SOL    HW126057   0.904   4.187   2.427
 8386SOL    HW226058   0.905   4.276   2.563
 8387SOL     OW26059   0.775   1.418   1.120
 8387SOL    HW126060   0.735   1.338   1.075
 8387SOL    HW226061   0.870   1.398   1.145
 8388SOL     OW26062   1.636   6.111   0.310
 8388SOL    HW126063   1.706   6.063   0.256
 8388SOL    HW226064   1.605   6.052   0.385
 8389SOL     OW26065   5.953   3.531   2.556
 8389SOL    HW126066   5.981   3.558   2.648
 8389SOL    HW226067   6.034   3.521   2.498
 8390SOL     OW26068   3.747   1.687   6.397
 8390SOL    HW126069   3.760   1.718   6.491
 8390SOL    HW226070   3.698   1.757   6.345
 8391SOL     OW26071   6.191   5.706   0.492
 8391SOL    HW126072   6.246   5.647   0.551
 8391SOL    HW226073   6.142   5.650   0.425
 8392SOL     OW26074   5.914   3.498   3.618
 8392SOL    HW126075   5.913   3.469   3.522
 8392SOL    HW226076   6.008   3.516   3.647
 8393SOL     OW26077   5.904   0.718   2.750
 8393SOL    HW126078   5.938   0.779   2.823
 8393SOL    HW226079   5.932   0.754   2.661
 8394SOL     OW26080   5.672   3.085   1.885
 8394SOL    HW126081   5.710   3.105   1.975
 8394SOL    HW226082   5.745   3.089   1.817
 8395SOL     OW26083   2.962   6.684   5.850
 8395SOL    HW126084   2.974   6.700   5.752
 8395SOL    HW226085   2.892   6.614   5.864
 8396SOL     OW26086   4.576   4.790   3.347
 8396SOL    HW126087   4.525   4.760   3.266
 8396SOL    HW226088   4.640   4.863   3.321
 8397SOL     OW26089   0.510   1.018   3.565
 8397SOL    HW126090   0.539   1.009   3.660
 8397SOL    HW226091   0.540   0.937   3.513
 8398SOL     OW26092   4.837   2.436   6.391
 8398SOL    HW126093   4.916   2.382   6.421
 8398SOL    HW226094   4.760   2.375   6.372
 8399SOL     OW26095   6.141   6.359   6.737
 8399SOL    HW126096   6.193   6.397   6.661
 8399SOL    HW226097   6.121   6.432   6.803
 8400SOL     OW26098   1.640   2.450   4.062
 8400SOL    HW126099   1.576   2.472   4.136
 8400SOL    HW226100   1.695   2.371   4.088
 8401SOL     OW26101   2.232   1.146   5.418
 8401SOL    HW126102   2.135   1.152   5.442
 8401SOL    HW226103   2.266   1.236   5.391
 8402SOL     OW26104   5.608   1.937   6.068
 8402SOL    HW126105   5.556   2.011   6.027
 8402SOL    HW226106   5.546   1.872   6.111
 8403SOL     OW26107   0.886   3.734   4.649
 8403SOL    HW126108   0.984   3.715   4.641
 8403SOL    HW226109   0.834   3.661   4.604
 8404SOL     OW26110   3.539   0.366   5.615
 8404SOL    HW126111   3.444   0.391   5.601
 8404SOL    HW226112   3.598   0.440   5.583
 8405SOL     OW26113   3.449   1.767   6.072
 8405SOL    HW126114   3.405   1.835   6.013
 8405SOL    HW226115   3.530   1.807   6.114
 8406SOL     OW26116   3.973   6.979   0.287
 8406SOL    HW126117   3.975   0.013   0.369
 8406SOL    HW226118   3.999   0.010   0.207
 8407SOL     OW26119   4.199   6.398   3.337
 8407SOL    HW126120   4.197   6.352   3.425
 8407SOL    HW226121   4.263   6.475   3.340
 8408SOL     OW26122   5.323   5.469   0.238
 8408SOL    HW126123   5.228   5.448   0.260
 8408SOL    HW226124   5.333   5.567   0.223
 8409SOL     OW26125   4.800   2.333   1.803
 8409SOL    HW126126   4.754   2.278   1.734
 8409SOL    HW226127   4.747   2.416   1.821
 8410SOL     OW26128   6.070   2.224   1.658
 8410SOL    HW126129   6.056   2.190   1.751
 8410SOL    HW226130   6.110   2.151   1.602
 8411SOL     OW26131   0.365   5.949   1.051
 8411SOL    HW126132   0.463   5.936   1.035
 8411SOL    HW226133   0.327   6.005   0.977
 8412SOL     OW26134   4.048   2.545   1.213
 8412SOL    HW126135   4.130   2.550   1.271
 8412SOL    HW226136   3.999   2.632   1.217
 8413SOL     OW26137   4.299   5.493   6.220
 8413SOL    HW126138   4.229   5.532   6.280
 8413SOL    HW226139   4.314   5.397   6.245
 8414SOL     OW26140   2.406   0.904   2.486
 8414SOL    HW126141   2.382   0.988   2.534
 8414SOL    HW226142   2.343   0.831   2.512
 8415SOL     OW26143   2.266   6.682   4.331
 8415SOL    HW126144   2.220   6.762   4.292
 8415SOL    HW226145   2.344   6.657   4.274
 8416SOL     OW26146   6.122   1.630   4.962
 8416SOL    HW126147   6.025   1.643   4.941
 8416SOL    HW226148   6.146   1.533   4.949
 8417SOL     OW26149   2.142   3.215   5.613
 8417SOL    HW126150   2.201   3.170   5.545
 8417SOL    HW226151   2.166   3.183   5.704
 8418SOL     OW26152   0.353   5.665   1.974
 8418SOL    HW126153   0.269   5.616   1.995
 8418SOL    HW226154   0.380   5.720   2.053
 8419SOL     OW26155   5.900   1.532   3.204
 8419SOL    HW126156   5.882   1.544   3.301
 8419SOL    HW226157   5.977   1.591   3.177
 8420SOL     OW26158   3.126   6.545   2.172
 8420SOL    HW126159   3.222   6.572   2.160
 8420SOL    HW226160   3.072   6.582   2.096
 8421SOL     OW26161   3.143   5.473   6.899
 8421SOL    HW126162   3.131   5.513   6.808
 8421SOL    HW226163   3.114   5.377   6.898
 8422SOL     OW26164   3.818   2.039   2.548
 8422SOL    HW126165   3.898   2.089   2.580
 8422SOL    HW226166   3.800   2.062   2.453
 8423SOL     OW26167   4.599   3.994   5.613
 8423SOL    HW126168   4.534   3.920   5.630
 8423SOL    HW226169   4.607   4.009   5.515
 8424SOL     OW26170   2.103   1.928   3.490
 8424SOL    HW126171   2.050   1.981   3.423
 8424SOL    HW226172   2.177   1.985   3.527
 8425SOL     OW26173   3.906   3.560   4.068
 8425SOL    HW126174   3.908   3.657   4.043
 8425SOL    HW226175   3.833   3.514   4.017
 8426SOL     OW26176   3.468   3.215   2.496
 8426SOL    HW126177   3.473   3.176   2.404
 8426SOL    HW226178   3.379   3.195   2.536
 8427SOL     OW26179   3.218   3.766   2.968
 8427SOL    HW126180   3.146   3.699   2.950
 8427SOL    HW226181   3.194   3.853   2.926
 8428SOL     OW26182   0.158   6.519   1.383
 8428SOL    HW126183   0.089   6.447   1.377
 8428SOL    HW226184   0.189   6.528   1.478
 8429SOL     OW26185   1.648   5.341   5.854
 8429SOL    HW126186   1.569   5.340   5.794
 8429SOL    HW226187   1.621   5.312   5.946
 8430SOL     OW26188   3.926   4.889   4.023
 8430SOL    HW126189   3.934   4.877   3.924
 8430SOL    HW226190   3.880   4.976   4.043
 8431SOL     OW26191   3.263   3.823   6.796
 8431SOL    HW126192   3.212   3.908   6.785
 8431SOL    HW226193   3.236   3.758   6.724
 8432SOL     OW26194   6.871   5.339   5.520
 8432SOL    HW126195   6.911   5.322   5.430
 8432SOL    HW226196   6.773   5.357   5.510
 8433SOL     OW26197   4.284   2.655   0.675
 8433SOL    HW126198   4.231   2.740   0.675
 8433SOL    HW226199   4.287   2.618   0.768
 8434SOL     OW26200   2.301   5.996   4.342
 8434SOL    HW126201   2.272   6.090   4.360
 8434SOL    HW226202   2.236   5.932   4.383
 8435SOL     OW26203   5.336   0.387   3.185
 8435SOL    HW126204   5.314   0.290   3.187
 8435SOL    HW226205   5.430   0.400   3.153
 8436SOL     OW26206   3.024   6.373   3.971
 8436SOL    HW126207   3.061   6.361   4.063
 8436SOL    HW226208   2.977   6.461   3.966
 8437SOL     OW26209   2.194   2.666   2.335
 8437SOL    HW126210   2.142   2.632   2.257
 8437SOL    HW226211   2.135   2.671   2.415
 8438SOL     OW26212   2.210   4.015   2.947
 8438SOL    HW126213   2.210   3.917   2.931
 8438SOL    HW226214   2.192   4.063   2.861
 8439SOL     OW26215   6.315   5.099   3.324
 8439SOL    HW126216   6.313   5.073   3.228
 8439SOL    HW226217   6.258   5.180   3.339
 8440SOL     OW26218   2.421   2.291   3.596
 8440SOL    HW126219   2.448   2.321   3.505
 8440SOL    HW226220   2.490   2.321   3.663
 8441SOL     OW26221   5.282   5.952   5.966
 8441SOL    HW126222   5.192   5.952   5.922
 8441SOL    HW226223   5.318   5.858   5.968
 8442SOL     OW26224   3.798   0.681   5.187
 8442SOL    HW126225   3.799   0.740   5.106
 8442SOL    HW226226   3.715   0.627   5.187
 8443SOL     OW26227   2.333   4.982   3.909
 8443SOL    HW126228   2.364   4.930   3.829
 8443SOL    HW226229   2.390   5.063   3.920
 8444SOL     OW26230   3.154   6.887   3.450
 8444SOL    HW126231   3.066   6.840   3.439
 8444SOL    HW226232   3.183   6.881   3.545
 8445SOL     OW26233   2.595   0.792   0.525
 8445SOL    HW126234   2.587   0.817   0.622
 8445SOL    HW226235   2.504   0.794   0.483
 8446SOL     OW26236   6.512   6.043   5.064
 8446SOL    HW126237   6.477   5.971   5.003
 8446SOL    HW226238   6.555   6.115   5.010
 8447SOL     OW26239   3.771   1.277   1.630
 8447SOL    HW126240   3.772   1.185   1.590
 8447SOL    HW226241   3.692   1.286   1.690
 8448SOL     OW26242   4.639   6.297   3.438
 8448SOL    HW126243   4.718   6.238   3.425
 8448SOL    HW226244   4.586   6.266   3.516
 8449SOL     OW26245   0.499   3.092   4.070
 8449SOL    HW126246   0.559   3.128   3.998
 8449SOL    HW226247   0.460   3.005   4.040
 8450SOL     OW26248   0.489   0.665   1.191
 8450SOL    HW126249   0.528   0.755   1.211
 8450SOL    HW226250   0.392   0.674   1.169
 8451SOL     OW26251   3.211   1.087   0.683
 8451SOL    HW126252   3.133   1.060   0.627
 8451SOL    HW226253   3.247   1.175   0.651
 8452SOL     OW26254   5.190   2.454   4.263
 8452SOL    HW126255   5.242   2.503   4.193
 8452SOL    HW226256   5.111   2.509   4.291
 8453SOL     OW26257   0.281   5.093   6.855
 8453SOL    HW126258   0.319   5.118   6.945
 8453SOL    HW226259   0.186   5.124   6.850
 8454SOL     OW26260   0.183   5.274   0.341
 8454SOL    HW126261   0.239   5.282   0.424
 8454SOL    HW226262   0.097   5.323   0.354
 8455SOL     OW26263   0.074   1.891   3.015
 8455SOL    HW126264   0.089   1.837   3.099
 8455SOL    HW226265   6.999   1.900   2.999
 8456SOL     OW26266   4.744   0.753   3.432
 8456SOL    HW126267   4.732   0.750   3.333
 8456SOL    HW226268   4.662   0.792   3.474
 8457SOL     OW26269   6.609   6.279   4.925
 8457SOL    HW126270   6.533   6.342   4.914
 8457SOL    HW226271   6.686   6.326   4.969
 8458SOL     OW26272   1.156   0.354   1.029
 8458SOL    HW126273   1.159   0.259   1.060
 8458SOL    HW226274   1.204   0.411   1.095
 8459SOL     OW26275   1.898   5.694   3.135
 8459SOL    HW126276   1.865   5.622   3.074
 8459SOL    HW226277   1.825   5.762   3.150
 8460SOL     OW26278   4.289   3.824   5.387
 8460SOL    HW126279   4.232   3.792   5.311
 8460SOL    HW226280   4.385   3.806   5.366
 8461SOL     OW26281   0.898   2.136   5.496
 8461SOL    HW126282   0.819   2.101   5.446
 8461SOL    HW226283   0.982   2.093   5.461
 8462SOL     OW26284   3.410   1.755   0.520
 8462SOL    HW126285   3.409   1.838   0.576
 8462SOL    HW226286   3.500   1.743   0.480
 8463SOL     OW26287   6.530   0.119   1.768
 8463SOL    HW126288   6.436   0.088   1.783
 8463SOL    HW226289   6.533   0.219   1.774
 8464SOL     OW26290   5.654   4.135   4.294
 8464SOL    HW126291   5.557   4.148   4.277
 8464SOL    HW226292   5.707   4.192   4.230
 8465SOL     OW26293   1.478   2.155   0.524
 8465SOL    HW126294   1.481   2.057   0.504
 8465SOL    HW226295   1.570   2.193   0.518
 8466SOL     OW26296   1.219   5.980   4.038
 8466SOL    HW126297   1.262   5.935   3.959
 8466SOL    HW226298   1.284   6.043   4.079
 8467SOL     OW26299   2.930   5.848   0.630
 8467SOL    HW126300   2.998   5.871   0.561
 8467SOL    HW226301   2.945   5.755   0.663
 8468SOL     OW26302   3.864   1.886   0.887
 8468SOL    HW126303   3.947   1.939   0.905
 8468SOL    HW226304   3.785   1.935   0.924
 8469SOL     OW26305   3.344   3.421   6.661
 8469SOL    HW126306   3.348   3.403   6.760
 8469SOL    HW226307   3.364   3.336   6.612
 8470SOL     OW26308   2.242   2.921   1.707
 8470SOL    HW126309   2.313   2.852   1.715
 8470SOL    HW226310   2.282   3.007   1.674
 8471SOL     OW26311   2.579   0.384   3.667
 8471SOL    HW126312   2.643   0.345   3.733
 8471SOL    HW226313   2.588   0.336   3.580
 8472SOL     OW26314   0.336   7.002   4.416
 8472SOL    HW126315   0.241   7.002   4.385
 8472SOL    HW226316   0.397   7.007   4.337
 8473SOL     OW26317   0.109   5.452   6.954
 8473SOL    HW126318   0.104   5.486   0.025
 8473SOL    HW226319   0.080   5.524   6.891
 8474SOL     OW26320   3.011   3.067   1.807
 8474SOL    HW126321   3.049   3.022   1.888
 8474SOL    HW226322   3.064   3.150   1.788
 8475SOL     OW26323   6.328   1.623   2.551
 8475SOL    HW126324   6.332   1.681   2.470
 8475SOL    HW226325   6.253   1.558   2.542
 8476SOL     OW26326   6.261   0.188   1.827
 8476SOL    HW126327   6.207   0.237   1.895
 8476SOL    HW226328   6.215   0.102   1.803
 8477SOL     OW26329   3.041   6.300   1.352
 8477SOL    HW126330   2.971   6.369   1.334
 8477SOL    HW226331   3.039   6.230   1.280
 8478SOL     OW26332   1.651   0.484   5.514
 8478SOL    HW126333   1.686   0.413   5.576
 8478SOL    HW226334   1.562   0.455   5.478
 8479SOL     OW26335   6.076   1.104   0.191
 8479SOL    HW126336   5.979   1.118   0.215
 8479SOL    HW226337   6.125   1.190   0.202
 8480SOL     OW26338   3.285   1.360   1.426
 8480SOL    HW126339   3.239   1.402   1.504
 8480SOL    HW226340   3.223   1.296   1.381
 8481SOL     OW26341   3.677   1.686   4.090
 8481SOL    HW126342   3.610   1.613   4.103
 8481SOL    HW226343   3.727   1.670   4.004
 8482SOL     OW26344   2.008   0.199   2.252
 8482SOL    HW126345   2.030   0.217   2.348
 8482SOL    HW226346   1.983   0.103   2.240
 8483SOL     OW26347   3.422   5.463   2.842
 8483SOL    HW126348   3.469   5.441   2.756
 8483SOL    HW226349   3.460   5.406   2.916
 8484SOL     OW26350   0.286   4.671   2.926
 8484SOL    HW126351   0.281   4.674   2.826
 8484SOL    HW226352   0.320   4.759   2.960
 8485SOL     OW26353   2.104   3.614   0.123
 8485SOL    HW126354   2.185   3.564   0.092
 8485SOL    HW226355   2.094   3.698   0.070
 8486SOL     OW26356   5.323   1.187   2.613
 8486SOL    HW126357   5.238   1.209   2.662
 8486SOL    HW226358   5.314   1.215   2.517
 8487SOL     OW26359   5.186   0.335   0.602
 8487SOL    HW126360   5.156   0.242   0.583
 8487SOL    HW226361   5.199   0.346   0.701
 8488SOL     OW26362   5.540   5.581   4.937
 8488SOL    HW126363   5.515   5.622   4.849
 8488SOL    HW226364   5.472   5.606   5.006
 8489SOL     OW26365   5.836   6.046   1.487
 8489SOL    HW126366   5.934   6.060   1.477
 8489SOL    HW226367   5.787   6.099   1.419
 8490SOL     OW26368   4.554   5.825   3.431
 8490SOL    HW126369   4.544   5.906   3.372
 8490SOL    HW226370   4.531   5.743   3.379
 8491SOL     OW26371   2.557   0.448   1.546
 8491SOL    HW126372   2.510   0.360   1.545
 8491SOL    HW226373   2.656   0.432   1.545
 8492SOL     OW26374   4.824   3.788   5.603
 8492SOL    HW126375   4.796   3.883   5.589
 8492SOL    HW226376   4.827   3.741   5.515
 8493SOL     OW26377   3.354   2.015   0.364
 8493SOL    HW126378   3.376   2.027   0.267
 8493SOL    HW226379   3.345   1.918   0.384
 8494SOL     OW26380   1.888   4.659   6.497
 8494SOL    HW126381   1.829   4.740   6.496
 8494SOL    HW226382   1.842   4.584   6.449
 8495SOL     OW26383   7.013   3.036   1.042
 8495SOL    HW126384   7.006   3.123   1.091
 8495SOL    HW226385   6.928   3.020   0.992
 8496SOL     OW26386   0.444   1.886   3.370
 8496SOL    HW126387   0.435   1.957   3.300
 8496SOL    HW226388   0.495   1.923   3.448
 8497SOL     OW26389   5.377   6.259   4.175
 8497SOL    HW126390   5.279   6.278   4.168
 8497SOL    HW226391   5.391   6.167   4.214
 8498SOL     OW26392   0.280   6.533   1.620
 8498SOL    HW126393   0.223   6.571   1.692
 8498SOL    HW226394   0.372   6.573   1.626
 8499SOL     OW26395   2.387   5.668   6.583
 8499SOL    HW126396   2.456   5.642   6.516
 8499SOL    HW226397   2.430   5.718   6.658
 8500SOL     OW26398   2.391   0.254   5.548
 8500SOL    HW126399   2.430   0.305   5.472
 8500SOL    HW226400   2.315   0.198   5.515
 8501SOL     OW26401   1.611   2.639   6.873
 8501SOL    HW126402   1.535   2.681   6.825
 8501SOL    HW226403   1.668   2.588   6.809
 8502SOL     OW26404   0.956   5.602   1.289
 8502SOL    HW126405   1.026   5.595   1.218
 8502SOL    HW226406   0.953   5.516   1.341
 8503SOL     OW26407   1.153   5.176   3.109
 8503SOL    HW126408   1.235   5.215   3.066
 8503SOL    HW226409   1.151   5.202   3.205
 8504SOL     OW26410   1.555   5.990   3.664
 8504SOL    HW126411   1.577   6.079   3.703
 8504SOL    HW226412   1.639   5.938   3.648
 8505SOL     OW26413   5.219   3.976   3.415
 8505SOL    HW126414   5.224   3.952   3.318
 8505SOL    HW226415   5.133   3.943   3.453
 8506SOL     OW26416   0.824   6.859   6.969
 8506SOL    HW126417   0.832   6.869   0.046
 8506SOL    HW226418   0.891   6.792   6.937
 8507SOL     OW26419   2.542   0.996   5.365
 8507SOL    HW126420   2.448   1.028   5.350
 8507SOL    HW226421   2.581   1.045   5.443
 8508SOL     OW26422   6.664   2.945   4.852
 8508SOL    HW126423   6.673   2.873   4.920
 8508SOL    HW226424   6.597   2.918   4.783
 8509SOL     OW26425   5.754   1.328   4.919
 8509SOL    HW126426   5.759   1.317   4.820
 8509SOL    HW226427   5.775   1.423   4.943
 8510SOL     OW26428   6.577   5.350   3.292
 8510SOL    HW126429   6.560   5.282   3.221
 8510SOL    HW226430   6.648   5.316   3.354
 8511SOL     OW26431   5.287   4.201   1.852
 8511SOL    HW126432   5.377   4.222   1.815
 8511SOL    HW226433   5.279   4.239   1.944
 8512SOL     OW26434   4.079   2.094   0.454
 8512SOL    HW126435   4.148   2.164   0.437
 8512SOL    HW226436   4.062   2.086   0.552
 8513SOL     OW26437   4.984   3.614   1.210
 8513SOL    HW126438   5.030   3.535   1.249
 8513SOL    HW226439   5.052   3.683   1.185
 8514SOL     OW26440   2.443   2.595   3.841
 8514SOL    HW126441   2.507   2.519   3.852
 8514SOL    HW226442   2.437   2.619   3.744
 8515SOL     OW26443   0.263   1.208   0.188
 8515SOL    HW126444   0.279   1.116   0.223
 8515SOL    HW226445   0.341   1.237   0.132
 8516SOL     OW26446   5.808   3.163   2.104
 8516SOL    HW126447   5.738   3.188   2.172
 8516SOL    HW226448   5.843   3.246   2.061
 8517SOL     OW26449   2.201   2.797   5.603
 8517SOL    HW126450   2.229   2.712   5.559
 8517SOL    HW226451   2.164   2.860   5.535
 8518SOL     OW26452   5.277   4.285   6.112
 8518SOL    HW126453   5.211   4.328   6.174
 8518SOL    HW226454   5.248   4.299   6.017
 8519SOL     OW26455   0.508   4.593   0.523
 8519SOL    HW126456   0.410   4.612   0.519
 8519SOL    HW226457   0.560   4.678   0.515
 8520SOL     OW26458   3.256   3.470   5.235
 8520SOL    HW126459   3.247   3.569   5.239
 8520SOL    HW226460   3.211   3.435   5.153
 8521SOL     OW26461   1.995   6.538   5.468
 8521SOL    HW126462   2.063   6.481   5.422
 8521SOL    HW226463   2.037   6.625   5.493
 8522SOL     OW26464   0.376   0.190   1.120
 8522SOL    HW126465   0.424   0.271   1.085
 8522SOL    HW226466   0.371   0.194   1.220
 8523SOL     OW26467   3.051   0.157   6.938
 8523SOL    HW126468   2.957   0.145   6.968
 8523SOL    HW226469   3.059   0.131   6.842
 8524SOL     OW26470   1.592   4.393   4.647
 8524SOL    HW126471   1.594   4.461   4.720
 8524SOL    HW226472   1.654   4.421   4.574
 8525SOL     OW26473   5.776   5.222   1.228
 8525SOL    HW126474   5.739   5.237   1.319
 8525SOL    HW226475   5.738   5.289   1.165
 8526SOL     OW26476   3.197   6.549   0.812
 8526SOL    HW126477   3.241   6.628   0.770
 8526SOL    HW226478   3.223   6.543   0.908
 8527SOL     OW26479   3.567   0.976   6.994
 8527SOL    HW126480   3.487   0.944   6.945
 8527SOL    HW226481   3.539   1.013   0.060
 8528SOL     OW26482   4.398   1.673   0.708
 8528SOL    HW126483   4.401   1.639   0.802
 8528SOL    HW226484   4.490   1.671   0.669
 8529SOL     OW26485   1.021   6.720   0.211
 8529SOL    HW126486   1.041   6.698   0.115
 8529SOL    HW226487   1.092   6.780   0.247
 8530SOL     OW26488   3.608   3.846   4.592
 8530SOL    HW126489   3.558   3.865   4.508
 8530SOL    HW226490   3.636   3.750   4.593
 8531SOL     OW26491   6.856   5.126   2.656
 8531SOL    HW126492   6.892   5.085   2.572
 8531SOL    HW226493   6.930   5.134   2.723
 8532SOL     OW26494   3.848   6.305   4.607
 8532SOL    HW126495   3.888   6.290   4.517
 8532SOL    HW226496   3.771   6.368   4.600
 8533SOL     OW26497   1.580   5.839   6.993
 8533SOL    HW126498   1.515   5.827   0.045
 8533SOL    HW226499   1.569   5.931   6.954
 8534SOL     OW26500   4.729   2.592   3.779
 8534SOL    HW126501   4.705   2.659   3.709
 8534SOL    HW226502   4.828   2.576   3.777
 8535SOL     OW26503   5.723   1.408   4.595
 8535SOL    HW126504   5.754   1.494   4.553
 8535SOL    HW226505   5.802   1.353   4.620
 8536SOL     OW26506   0.852   2.092   4.989
 8536SOL    HW126507   0.813   2.044   5.068
 8536SOL    HW226508   0.952   2.096   4.999
 8537SOL     OW26509   5.904   1.718   3.435
 8537SOL    HW126510   5.977   1.781   3.407
 8537SOL    HW226511   5.870   1.744   3.526
 8538SOL     OW26512   2.157   1.928   0.294
 8538SOL    HW126513   2.253   1.918   0.266
 8538SOL    HW226514   2.109   1.985   0.227
 8539SOL     OW26515   6.510   1.509   2.252
 8539SOL    HW126516   6.412   1.525   2.262
 8539SOL    HW226517   6.548   1.485   2.341
 8540SOL     OW26518   5.976   0.415   6.608
 8540SOL    HW126519   6.038   0.493   6.600
 8540SOL    HW226520   5.882   0.445   6.591
 8541SOL     OW26521   3.496   1.913   3.354
 8541SOL    HW126522   3.474   1.879   3.263
 8541SOL    HW226523   3.450   1.856   3.423
 8542SOL     OW26524   3.528   4.255   6.576
 8542SOL    HW126525   3.614   4.280   6.620
 8542SOL    HW226526   3.546   4.209   6.489
 8543SOL     OW26527   1.677   1.510   1.367
 8543SOL    HW126528   1.655   1.595   1.415
 8543SOL    HW226529   1.593   1.462   1.343
 8544SOL     OW26530   5.656   2.916   4.293
 8544SOL    HW126531   5.579   2.859   4.324
 8544SOL    HW226532   5.688   2.882   4.205
 8545SOL     OW26533   4.822   6.979   5.918
 8545SOL    HW126534   4.783   0.049   5.915
 8545SOL    HW226535   4.835   6.952   6.013
 8546SOL     OW26536   6.004   2.609   3.795
 8546SOL    HW126537   5.969   2.685   3.740
 8546SOL    HW226538   5.958   2.607   3.883
 8547SOL     OW26539   1.019   6.111   6.278
 8547SOL    HW126540   1.019   6.116   6.178
 8547SOL    HW226541   1.051   6.021   6.307
 8548SOL     OW26542   6.207   2.470   4.807
 8548SOL    HW126543   6.257   2.448   4.890
 8548SOL    HW226544   6.239   2.413   4.732
 8549SOL     OW26545   0.367   3.756   4.621
 8549SOL    HW126546   0.405   3.704   4.698
 8549SOL    HW226547   0.424   3.741   4.540
 8550SOL     OW26548   1.755   4.680   0.121
 8550SOL    HW126549   1.811   4.691   0.039
 8550SOL    HW226550   1.737   4.770   0.161
 8551SOL     OW26551   3.774   4.367   6.664
 8551SOL    HW126552   3.781   4.408   6.755
 8551SOL    HW226553   3.857   4.314   6.645
 8552SOL     OW26554   2.992   6.130   3.825
 8552SOL    HW126555   2.980   6.225   3.853
 8552SOL    HW226556   2.906   6.094   3.791
 8553SOL     OW26557   5.167   5.838   6.791
 8553SOL    HW126558   5.249   5.842   6.734
 8553SOL    HW226559   5.163   5.920   6.848
 8554SOL     OW26560   0.076   4.836   0.473
 8554SOL    HW126561   7.020   4.898   0.484
 8554SOL    HW226562   0.055   4.768   0.403
 8555SOL     OW26563   0.936   0.684   3.221
 8555SOL    HW126564   0.843   0.677   3.187
 8555SOL    HW226565   0.957   0.779   3.242
 8556SOL     OW26566   0.793   0.248   2.894
 8556SOL    HW126567   0.809   0.344   2.918
 8556SOL    HW226568   0.865   0.216   2.833
 8557SOL     OW26569   6.596   1.178   1.724
 8557SOL    HW126570   6.545   1.259   1.754
 8557SOL    HW226571   6.535   1.117   1.675
 8558SOL     OW26572   2.654   5.491   3.180
 8558SOL    HW126573   2.727   5.437   3.223
 8558SOL    HW226574   2.565   5.453   3.206
 8559SOL     OW26575   0.059   0.372   2.551
 8559SOL    HW126576   0.027   0.318   2.629
 8559SOL    HW226577   0.007   0.457   2.545
 8560SOL     OW26578   6.891   0.316   1.028
 8560SOL    HW126579   6.835   0.235   1.009
 8560SOL    HW226580   6.838   0.399   1.012
 8561SOL     OW26581   4.111   5.805   2.385
 8561SOL    HW126582   4.086   5.776   2.477
 8561SOL    HW226583   4.069   5.894   2.366
 8562SOL     OW26584   5.244   6.860   4.990
 8562SOL    HW126585   5.289   6.771   4.995
 8562SOL    HW226586   5.291   6.924   5.051
 8563SOL     OW26587   2.847   3.104   6.600
 8563SOL    HW126588   2.792   3.154   6.667
 8563SOL    HW226589   2.840   3.006   6.618
 8564SOL     OW26590   1.897   0.304   3.286
 8564SOL    HW126591   1.798   0.290   3.284
 8564SOL    HW226592   1.920   0.391   3.244
 8565SOL     OW26593   4.249   0.015   1.549
 8565SOL    HW126594   4.203   6.983   1.619
 8565SOL    HW226595   4.332   0.055   1.587
 8566SOL     OW26596   1.285   1.333   2.791
 8566SOL    HW126597   1.340   1.397   2.736
 8566SOL    HW226598   1.189   1.361   2.789
 8567SOL     OW26599   6.622   1.413   1.479
 8567SOL    HW126600   6.696   1.362   1.435
 8567SOL    HW226601   6.659   1.476   1.546
 8568SOL     OW26602   4.946   1.567   6.849
 8568SOL    HW126603   4.972   1.663   6.838
 8568SOL    HW226604   4.972   1.536   6.941
 8569SOL     OW26605   4.637   1.481   5.508
 8569SOL    HW126606   4.675   1.527   5.428
 8569SOL    HW226607   4.544   1.514   5.525
 8570SOL     OW26608   1.172   3.548   6.056
 8570SOL    HW126609   1.196   3.451   6.043
 8570SOL    HW226610   1.160   3.591   5.967
 8571SOL     OW26611   0.293   5.161   5.567
 8571SOL    HW126612   0.208   5.128   5.526
 8571SOL    HW226613   0.327   5.239   5.515
 8572SOL     OW26614   2.274   5.282   5.836
 8572SOL    HW126615   2.195   5.294   5.777
 8572SOL    HW226616   2.252   5.218   5.909
 8573SOL     OW26617   3.852   6.119   6.620
 8573SOL    HW126618   3.778   6.109   6.688
 8573SOL    HW226619   3.848   6.042   6.556
 8574SOL     OW26620   0.906   4.831   5.557
 8574SOL    HW126621   0.902   4.897   5.632
 8574SOL    HW226622   0.948   4.874   5.477
 8575SOL     OW26623   2.594   2.141   6.911
 8575SOL    HW126624   2.567   2.046   6.923
 8575SOL    HW226625   2.517   2.201   6.933
 8576SOL     OW26626   0.595   6.543   0.987
 8576SOL    HW126627   0.555   6.504   0.904
 8576SOL    HW226628   0.650   6.474   1.033
 8577SOL     OW26629   6.183   5.188   4.549
 8577SOL    HW126630   6.269   5.180   4.498
 8577SOL    HW226631   6.135   5.271   4.519
 8578SOL     OW26632   4.381   0.217   4.383
 8578SOL    HW126633   4.335   0.246   4.299
 8578SOL    HW226634   4.355   0.278   4.458
 8579SOL     OW26635   1.257   5.787   3.446
 8579SOL    HW126636   1.352   5.755   3.444
 8579SOL    HW226637   1.241   5.848   3.368
 8580SOL     OW26638   2.488   0.075   2.019
 8580SOL    HW126639   2.440   0.025   2.091
 8580SOL    HW226640   2.434   0.074   1.935
 8581SOL     OW26641   3.539   2.540   1.673
 8581SOL    HW126642   3.441   2.536   1.695
 8581SOL    HW226643   3.588   2.472   1.728
 8582SOL     OW26644   4.734   4.568   2.399
 8582SOL    HW126645   4.675   4.491   2.377
 8582SOL    HW226646   4.829   4.537   2.402
 8583SOL     OW26647   5.738   0.925   6.351
 8583SOL    HW126648   5.656   0.944   6.296
 8583SOL    HW226649   5.712   0.903   6.444
 8584SOL     OW26650   0.061   4.459   0.601
 8584SOL    HW126651   7.012   4.402   0.561
 8584SOL    HW226652   0.067   4.440   0.699
 8585SOL     OW26653   0.010   0.047   0.395
 8585SOL    HW126654   6.973   0.116   0.435
 8585SOL    HW226655   6.982   6.985   0.381
 8586SOL     OW26656   2.729   6.103   2.931
 8586SOL    HW126657   2.800   6.125   2.999
 8586SOL    HW226658   2.735   6.006   2.907
 8587SOL     OW26659   0.608   0.863   2.904
 8587SOL    HW126660   0.685   0.855   2.841
 8587SOL    HW226661   0.554   0.779   2.901
 8588SOL     OW26662   3.158   1.690   0.321
 8588SOL    HW126663   3.062   1.684   0.293
 8588SOL    HW226664   3.163   1.720   0.416
 8589SOL     OW26665   4.064   1.495   4.160
 8589SOL    HW126666   4.157   1.523   4.185
 8589SOL    HW226667   4.042   1.409   4.206
 8590SOL     OW26668   6.621   5.897   4.169
 8590SOL    HW126669   6.571   5.812   4.150
 8590SOL    HW226670   6.626   5.911   4.268
 8591SOL     OW26671   0.660   4.418   6.828
 8591SOL    HW126672   0.586   4.354   6.845
 8591SOL    HW226673   0.742   4.368   6.800
 8592SOL     OW26674   6.926   4.406   0.263
 8592SOL    HW126675   6.838   4.417   0.218
 8592SOL    HW226676   6.921   4.332   0.330
 8593SOL     OW26677   0.867   6.590   1.902
 8593SOL    HW126678   0.875   6.649   1.822
 8593SOL    HW226679   0.848   6.497   1.873
 8594SOL     OW26680   3.268   4.152   4.727
 8594SOL    HW126681   3.193   4.179   4.786
 8594SOL    HW226682   3.270   4.052   4.719
 8595SOL     OW26683   2.034   1.936   2.639
 8595SOL    HW126684   2.133   1.938   2.621
 8595SOL    HW226685   1.986   1.984   2.566
 8596SOL     OW26686   5.770   5.701   2.290
 8596SOL    HW126687   5.773   5.632   2.362
 8596SOL    HW226688   5.735   5.787   2.327
 8597SOL     OW26689   3.918   1.833   1.233
 8597SOL    HW126690   3.860   1.871   1.161
 8597SOL    HW226691   4.005   1.883   1.235
 8598SOL     OW26692   0.082   5.278   1.275
 8598SOL    HW126693   0.096   5.180   1.270
 8598SOL    HW226694   0.139   5.324   1.206
 8599SOL     OW26695   0.964   2.985   3.768
 8599SOL    HW126696   1.011   2.913   3.717
 8599SOL    HW226697   0.983   2.975   3.866
 8600SOL     OW26698   5.807   4.714   6.742
 8600SOL    HW126699   5.862   4.788   6.703
 8600SOL    HW226700   5.820   4.712   6.842
 8601SOL     OW26701   0.575   0.981   4.449
 8601SOL    HW126702   0.557   0.936   4.537
 8601SOL    HW226703   0.498   1.041   4.426
 8602SOL     OW26704   2.712   6.761   2.724
 8602SOL    HW126705   2.735   6.690   2.658
 8602SOL    HW226706   2.688   6.845   2.675
 8603SOL     OW26707   3.881   3.765   6.813
 8603SOL    HW126708   3.782   3.778   6.814
 8603SOL    HW226709   3.906   3.702   6.740
 8604SOL     OW26710   5.904   2.883   3.740
 8604SOL    HW126711   5.813   2.867   3.702
 8604SOL    HW226712   5.963   2.923   3.669
 8605SOL     OW26713   3.602   5.165   4.479
 8605SOL    HW126714   3.650   5.191   4.563
 8605SOL    HW226715   3.648   5.086   4.438
 8606SOL     OW26716   1.923   3.963   5.900
 8606SOL    HW126717   1.989   3.996   5.966
 8606SOL    HW226718   1.956   3.980   5.807
 8607SOL     OW26719   3.410   5.294   1.182
 8607SOL    HW126720   3.482   5.266   1.118
 8607SOL    HW226721   3.399   5.224   1.252
 8608SOL     OW26722   4.465   4.895   2.825
 8608SOL    HW126723   4.521   4.846   2.758
 8608SOL    HW226724   4.396   4.950   2.777
 8609SOL     OW26725   3.587   0.680   4.197
 8609SOL    HW126726   3.514   0.651   4.259
 8609SOL    HW226727   3.576   0.634   4.109
 8610SOL     OW26728   0.903   6.957   3.059
 8610SOL    HW126729   0.960   7.021   3.110
 8610SOL    HW226730   0.934   6.954   2.964
 8611SOL     OW26731   1.519   2.259   4.547
 8611SOL    HW126732   1.422   2.266   4.524
 8611SOL    HW226733   1.573   2.270   4.464
 8612SOL     OW26734   3.158   3.203   6.280
 8612SOL    HW126735   3.207   3.283   6.314
 8612SOL    HW226736   3.215   3.122   6.291
 8613SOL     OW26737   2.356   1.313   1.381
 8613SOL    HW126738   2.366   1.255   1.461
 8613SOL    HW226739   2.368   1.258   1.298
 8614SOL     OW26740   0.860   4.081   3.082
 8614SOL    HW126741   0.901   4.045   3.165
 8614SOL    HW226742   0.775   4.129   3.104
 8615SOL     OW26743   4.430   1.870   5.034
 8615SOL    HW126744   4.387   1.940   4.977
 8615SOL    HW226745   4.381   1.783   5.025
 8616SOL     OW26746   0.246   4.649   0.540
 8616SOL    HW126747   0.205   4.739   0.528
 8616SOL    HW226748   0.175   4.582   0.561
 8617SOL     OW26749   6.648   1.776   0.250
 8617SOL    HW126750   6.623   1.720   0.329
 8617SOL    HW226751   6.641   1.873   0.274
 8618SOL     OW26752   4.372   6.916   1.932
 8618SOL    HW126753   4.450   6.887   1.877
 8618SOL    HW226754   4.362   7.015   1.926
 8619SOL     OW26755   4.076   5.032   0.646
 8619SOL    HW126756   4.163   4.982   0.639
 8619SOL    HW226757   4.092   5.128   0.626
 8620SOL     OW26758   6.341   6.710   2.759
 8620SOL    HW126759   6.348   6.737   2.663
 8620SOL    HW226760   6.426   6.665   2.787
 8621SOL     OW26761   6.027   1.242   3.811
 8621SOL    HW126762   5.970   1.307   3.761
 8621SOL    HW226763   6.117   1.238   3.769
 8622SOL     OW26764   4.604   4.308   0.471
 8622SOL    HW126765   4.552   4.362   0.537
 8622SOL    HW226766   4.678   4.364   0.433
 8623SOL     OW26767   0.372   4.419   3.075
 8623SOL    HW126768   0.289   4.401   3.129
 8623SOL    HW226769   0.384   4.518   3.064
 8624SOL     OW26770   1.353   5.157   3.438
 8624SOL    HW126771   1.373   5.183   3.532
 8624SOL    HW226772   1.287   5.082   3.438
 8625SOL     OW26773   4.384   0.592   4.132
 8625SOL    HW126774   4.479   0.559   4.141
 8625SOL    HW226775   4.383   0.692   4.134
 8626SOL     OW26776   3.734   3.362   4.229
 8626SOL    HW126777   3.644   3.364   4.188
 8626SOL    HW226778   3.791   3.434   4.189
 8627SOL     OW26779   1.008   0.325   2.297
 8627SOL    HW126780   0.975   0.343   2.205
 8627SOL    HW226781   1.026   0.228   2.309
 8628SOL     OW26782   6.440   6.774   0.664
 8628SOL    HW126783   6.415   6.699   0.723
 8628SOL    HW226784   6.362   6.800   0.607
 8629SOL     OW26785   1.833   4.931   4.357
 8629SOL    HW126786   1.921   4.912   4.400
 8629SOL    HW226787   1.813   4.861   4.289
 8630SOL     OW26788   6.137   4.364   4.777
 8630SOL    HW126789   6.104   4.283   4.729
 8630SOL    HW226790   6.071   4.390   4.848
 8631SOL     OW26791   3.882   6.277   6.183
 8631SOL    HW126792   3.945   6.202   6.164
 8631SOL    HW226793   3.903   6.317   6.272
 8632SOL     OW26794   3.484   6.598   3.820
 8632SOL    HW126795   3.496   6.525   3.887
 8632SOL    HW226796   3.391   6.635   3.828
 8633SOL     OW26797   5.377   1.388   4.156
 8633SOL    HW126798   5.369   1.291   4.133
 8633SOL    HW226799   5.417   1.398   4.247
 8634SOL     OW26800   6.260   3.463   0.983
 8634SOL    HW126801   6.280   3.553   0.944
 8634SOL    HW226802   6.229   3.402   0.910
 8635SOL     OW26803   6.036   3.848   5.666
 8635SOL    HW126804   6.073   3.812   5.751
 8635SOL    HW226805   5.994   3.937   5.683
 8636SOL     OW26806   5.989   4.929   6.776
 8636SOL    HW126807   6.074   4.927   6.723
 8636SOL    HW226808   5.987   5.012   6.832
 8637SOL     OW26809   1.317   0.776   0.497
 8637SOL    HW126810   1.373   0.854   0.526
 8637SOL    HW226811   1.236   0.810   0.450
 8638SOL     OW26812   2.049   3.302   0.067
 8638SOL    HW126813   2.010   3.220   0.108
 8638SOL    HW226814   2.052   3.375   0.136
 8639SOL     OW26815   5.645   2.417   1.734
 8639SOL    HW126816   5.567   2.408   1.672
 8639SOL    HW226817   5.721   2.360   1.701
 8640SOL     OW26818   5.135   3.564   0.281
 8640SOL    HW126819   5.201   3.533   0.212
 8640SOL    HW226820   5.162   3.655   0.314
 8641SOL     OW26821   6.756   3.896   4.099
 8641SOL    HW126822   6.770   3.836   4.021
 8641SOL    HW226823   6.728   3.987   4.067
 8642SOL     OW26824   4.504   0.501   2.401
 8642SOL    HW126825   4.531   0.444   2.479
 8642SOL    HW226826   4.580   0.562   2.377
 8643SOL     OW26827   4.689   6.842   6.618
 8643SOL    HW126828   4.720   6.760   6.667
 8643SOL    HW226829   4.590   6.850   6.626
 8644SOL     OW26830   5.458   2.767   5.685
 8644SOL    HW126831   5.404   2.694   5.724
 8644SOL    HW226832   5.418   2.856   5.709
 8645SOL     OW26833   5.867   4.851   1.831
 8645SOL    HW126834   5.859   4.772   1.892
 8645SOL    HW226835   5.938   4.834   1.763
 8646SOL     OW26836   5.830   0.968   0.982
 8646SOL    HW126837   5.878   1.030   1.044
 8646SOL    HW226838   5.881   0.958   0.897
 8647SOL     OW26839   3.899   4.912   6.548
 8647SOL    HW126840   3.942   4.969   6.618
 8647SOL    HW226841   3.805   4.942   6.533
 8648SOL     OW26842   5.504   1.187   4.844
 8648SOL    HW126843   5.597   1.151   4.854
 8648SOL    HW226844   5.502   1.282   4.877
 8649SOL     OW26845   5.612   5.278   5.740
 8649SOL    HW126846   5.515   5.259   5.723
 8649SOL    HW226847   5.659   5.193   5.762
 8650SOL     OW26848   1.628   4.979   4.536
 8650SOL    HW126849   1.577   4.895   4.552
 8650SOL    HW226850   1.712   4.959   4.485
 8651SOL     OW26851   4.155   0.789   0.414
 8651SOL    HW126852   4.153   0.720   0.487
 8651SOL    HW226853   4.118   0.875   0.449
 8652SOL     OW26854   1.591   4.600   3.050
 8652SOL    HW126855   1.542   4.654   3.118
 8652SOL    HW226856   1.673   4.560   3.090
 8653SOL     OW26857   6.335   3.029   6.778
 8653SOL    HW126858   6.241   3.028   6.811
 8653SOL    HW226859   6.335   3.026   6.678
 8654SOL     OW26860   0.834   6.369   2.283
 8654SOL    HW126861   0.735   6.361   2.269
 8654SOL    HW226862   0.855   6.458   2.324
 8655SOL     OW26863   5.767   0.361   3.892
 8655SOL    HW126864   5.669   0.362   3.913
 8655SOL    HW226865   5.799   0.267   3.886
 8656SOL     OW26866   5.955   1.140   1.127
 8656SOL    HW126867   5.927   1.214   1.189
 8656SOL    HW226868   6.025   1.174   1.064
 8657SOL     OW26869   4.397   5.212   6.295
 8657SOL    HW126870   4.394   5.205   6.195
 8657SOL    HW226871   4.352   5.131   6.334
 8658SOL     OW26872   4.842   5.501   0.101
 8658SOL    HW126873   4.768   5.526   0.040
 8658SOL    HW226874   4.820   5.530   0.194
 8659SOL     OW26875   4.473   0.924   2.856
 8659SOL    HW126876   4.491   1.015   2.893
 8659SOL    HW226877   4.456   0.931   2.758
 8660SOL     OW26878   5.586   3.893   0.516
 8660SOL    HW126879   5.501   3.945   0.526
 8660SOL    HW226880   5.658   3.936   0.570
 8661SOL     OW26881   5.682   4.260   1.981
 8661SOL    HW126882   5.611   4.254   1.910
 8661SOL    HW226883   5.638   4.255   2.071
 8662SOL     OW26884   5.160   6.721   1.744
 8662SOL    HW126885   5.138   6.711   1.841
 8662SOL    HW226886   5.258   6.735   1.733
 8663SOL     OW26887   2.358   5.787   0.449
 8663SOL    HW126888   2.281   5.847   0.423
 8663SOL    HW226889   2.404   5.755   0.367
 8664SOL     OW26890   4.177   5.285   0.592
 8664SOL    HW126891   4.268   5.327   0.591
 8664SOL    HW226892   4.119   5.328   0.522
 8665SOL     OW26893   5.005   5.842   5.490
 8665SOL    HW126894   5.078   5.896   5.449
 8665SOL    HW226895   4.933   5.827   5.423
 8666SOL     OW26896   5.157   2.307   5.366
 8666SOL    HW126897   5.147   2.361   5.449
 8666SOL    HW226898   5.252   2.279   5.356
 8667SOL     OW26899   5.075   2.038   3.098
 8667SOL    HW126900   5.017   2.098   3.043
 8667SOL    HW226901   5.041   2.037   3.192
 8668SOL     OW26902   5.191   2.719   3.770
 8668SOL    HW126903   5.290   2.705   3.759
 8668SOL    HW226904   5.171   2.817   3.767
 8669SOL     OW26905   3.578   0.336   6.494
 8669SOL    HW126906   3.661   0.383   6.463
 8669SOL    HW226907   3.602   0.266   6.561
 8670SOL     OW26908   3.543   4.878   5.234
 8670SOL    HW126909   3.461   4.824   5.253
 8670SOL    HW226910   3.580   4.913   5.320
 8671SOL     OW26911   5.322   0.781   4.080
 8671SOL    HW126912   5.400   0.827   4.121
 8671SOL    HW226913   5.340   0.762   3.983
 8672SOL     OW26914   2.816   6.129   4.290
 8672SOL    HW126915   2.795   6.142   4.193
 8672SOL    HW226916   2.794   6.212   4.341
 8673SOL     OW26917   0.343   1.012   6.818
 8673SOL    HW126918   0.320   0.926   6.862
 8673SOL    HW226919   0.265   1.045   6.765
 8674SOL     OW26920   6.588   5.959   1.733
 8674SOL    HW126921   6.505   6.010   1.755
 8674SOL    HW226922   6.629   5.994   1.649
 8675SOL     OW26923   3.178   2.157   4.270
 8675SOL    HW126924   3.205   2.252   4.280
 8675SOL    HW226925   3.259   2.101   4.248
 8676SOL     OW26926   3.339   6.967   3.263
 8676SOL    HW126927   3.290   6.937   3.346
 8676SOL    HW226928   3.276   6.968   3.186
 8677SOL     OW26929   1.972   5.356   6.451
 8677SOL    HW126930   2.011   5.447   6.464
 8677SOL    HW226931   1.924   5.353   6.363
 8678SOL     OW26932   0.166   0.063   6.888
 8678SOL    HW126933   0.134   0.099   6.975
 8678SOL    HW226934   0.163   0.135   6.819
 8679SOL     OW26935   6.090   2.521   4.365
 8679SOL    HW126936   6.098   2.606   4.312
 8679SOL    HW226937   5.993   2.499   4.377
 8680SOL     OW26938   0.473   3.717   0.787
 8680SOL    HW126939   0.570   3.692   0.787
 8680SOL    HW226940   0.419   3.637   0.814
 8681SOL     OW26941   4.762   4.434   0.239
 8681SOL    HW126942   4.811   4.458   0.156
 8681SOL    HW226943   4.778   4.505   0.309
 8682SOL     OW26944   3.580   6.717   2.883
 8682SOL    HW126945   3.663   6.697   2.936
 8682SOL    HW226946   3.563   6.642   2.819
 8683SOL     OW26947   1.653   2.293   2.169
 8683SOL    HW126948   1.600   2.372   2.202
 8683SOL    HW226949   1.609   2.209   2.199
 8684SOL     OW26950   0.322   3.256   4.796
 8684SOL    HW126951   0.392   3.202   4.843
 8684SOL    HW226952   0.232   3.216   4.813
 8685SOL     OW26953   1.312   2.292   5.956
 8685SOL    HW126954   1.225   2.269   5.999
 8685SOL    HW226955   1.387   2.279   6.021
 8686SOL     OW26956   6.391   1.717   1.784
 8686SOL    HW126957   6.468   1.772   1.817
 8686SOL    HW226958   6.387   1.723   1.684
 8687SOL     OW26959   3.514   6.141   2.499
 8687SOL    HW126960   3.540   6.056   2.454
 8687SOL    HW226961   3.449   6.121   2.573
 8688SOL     OW26962   3.146   6.377   6.817
 8688SOL    HW126963   3.071   6.439   6.839
 8688SOL    HW226964   3.233   6.420   6.844
 8689SOL     OW26965   3.418   5.846   0.105
 8689SOL    HW126966   3.446   5.773   0.042
 8689SOL    HW226967   3.352   5.809   0.171
 8690SOL     OW26968   1.569   2.605   3.653
 8690SOL    HW126969   1.599   2.523   3.605
 8690SOL    HW226970   1.490   2.583   3.710
 8691SOL     OW26971   4.269   2.945   6.075
 8691SOL    HW126972   4.212   2.903   6.145
 8691SOL    HW226973   4.365   2.943   6.104
 8692SOL     OW26974   3.289   2.101   2.448
 8692SOL    HW126975   3.235   2.173   2.492
 8692SOL    HW226976   3.272   2.101   2.350
 8693SOL     OW26977   5.817   1.787   0.926
 8693SOL    HW126978   5.775   1.776   1.017
 8693SOL    HW226979   5.745   1.793   0.857
 8694SOL     OW26980   4.385   0.827   6.727
 8694SOL    HW126981   4.309   0.764   6.715
 8694SOL    HW226982   4.354   0.907   6.780
 8695SOL     OW26983   4.703   2.580   5.596
 8695SOL    HW126984   4.633   2.535   5.540
 8695SOL    HW226985   4.678   2.573   5.693
 8696SOL     OW26986   3.530   6.026   0.996
 8696SOL    HW126987   3.486   6.093   0.936
 8696SOL    HW226988   3.607   5.984   0.947
 8697SOL     OW26989   6.479   3.791   0.609
 8697SOL    HW126990   6.533   3.867   0.571
 8697SOL    HW226991   6.525   3.755   0.691
 8698SOL     OW26992   5.991   5.979   3.846
 8698SOL    HW126993   6.027   6.016   3.761
 8698SOL    HW226994   5.907   5.928   3.827
 8699SOL     OW26995   1.301   2.136   5.594
 8699SOL    HW126996   1.326   2.081   5.674
 8699SOL    HW226997   1.220   2.190   5.616
 8700SOL     OW26998   2.498   0.880   4.682
 8700SOL    HW126999   2.440   0.804   4.653
 8700SOL    HW227000   2.476   0.906   4.776
 8701SOL     OW27001   1.483   0.916   0.161
 8701SOL    HW127002   1.495   0.831   0.110
 8701SOL    HW227003   1.386   0.940   0.162
 8702SOL     OW27004   5.444   4.874   0.172
 8702SOL    HW127005   5.431   4.778   0.197
 8702SOL    HW227006   5.537   4.903   0.195
 8703SOL     OW27007   2.813   5.557   1.262
 8703SOL    HW127008   2.779   5.484   1.322
 8703SOL    HW227009   2.907   5.579   1.287
 8704SOL     OW27010   6.039   3.316   2.833
 8704SOL    HW127011   6.118   3.296   2.775
 8704SOL    HW227012   6.031   3.415   2.845
 8705SOL     OW27013   5.093   1.111   6.940
 8705SOL    HW127014   4.994   1.096   6.930
 8705SOL    HW227015   5.125   1.064   7.022
 8706SOL     OW27016   4.947   2.432   5.658
 8706SOL    HW127017   4.915   2.393   5.745
 8706SOL    HW227018   4.878   2.494   5.622
 8707SOL     OW27019   4.754   2.299   0.024
 8707SOL    HW127020   4.672   2.343   0.060
 8707SOL    HW227021   4.728   2.231   6.978
 8708SOL     OW27022   4.344   2.210   2.073
 8708SOL    HW127023   4.389   2.132   2.116
 8708SOL    HW227024   4.330   2.282   2.142
 8709SOL     OW27025   6.610   5.446   6.386
 8709SOL    HW127026   6.518   5.430   6.420
 8709SOL    HW227027   6.609   5.521   6.320
 8710SOL     OW27028   2.093   2.901   2.879
 8710SOL    HW127029   2.146   2.840   2.820
 8710SOL    HW227030   2.023   2.849   2.927
 8711SOL     OW27031   7.018   6.042   2.255
 8711SOL    HW127032   6.985   6.101   2.328
 8711SOL    HW227033   6.961   6.055   2.173
 8712SOL     OW27034   4.181   2.317   4.337
 8712SOL    HW127035   4.236   2.321   4.253
 8712SOL    HW227036   4.116   2.242   4.330
 8713SOL     OW27037   0.343   4.204   3.495
 8713SOL    HW127038   0.381   4.183   3.405
 8713SOL    HW227039   0.271   4.273   3.485
 8714SOL     OW27040   0.287   1.021   6.013
 8714SOL    HW127041   0.220   1.076   6.064
 8714SOL    HW227042   0.302   1.063   5.923
 8715SOL     OW27043   5.232   0.434   1.381
 8715SOL    HW127044   5.165   0.483   1.436
 8715SOL    HW227045   5.307   0.496   1.356
 8716SOL     OW27046   1.028   1.085   1.126
 8716SOL    HW127047   1.009   1.142   1.046
 8716SOL    HW227048   1.126   1.086   1.146
 8717SOL     OW27049   4.017   3.631   2.719
 8717SOL    HW127050   4.075   3.566   2.768
 8717SOL    HW227051   3.924   3.627   2.756
 8718SOL     OW27052   1.414   2.842   5.504
 8718SOL    HW127053   1.451   2.836   5.412
 8718SOL    HW227054   1.318   2.871   5.500
 8719SOL     OW27055   1.962   0.463   6.067
 8719SOL    HW127056   2.008   0.447   6.154
 8719SOL    HW227057   1.863   0.464   6.081
 8720SOL     OW27058   6.412   5.013   5.512
 8720SOL    HW127059   6.429   5.015   5.611
 8720SOL    HW227060   6.349   5.087   5.488
 8721SOL     OW27061   5.919   2.301   3.783
 8721SOL    HW127062   5.998   2.354   3.755
 8721SOL    HW227063   5.933   2.266   3.876
 8722SOL     OW27064   3.887   0.691   0.788
 8722SOL    HW127065   3.802   0.738   0.762
 8722SOL    HW227066   3.878   0.593   0.770
 8723SOL     OW27067   5.329   6.169   1.751
 8723SOL    HW127068   5.286   6.081   1.730
 8723SOL    HW227069   5.385   6.198   1.673
 8724SOL     OW27070   6.012   6.715   4.821
 8724SOL    HW127071   5.915   6.737   4.814
 8724SOL    HW227072   6.030   6.673   4.909
 8725SOL     OW27073   2.535   0.068   0.127
 8725SOL    HW127074   2.462   0.035   0.187
 8725SOL    HW227075   2.574   7.013   0.077
 8726SOL     OW27076   6.514   0.686   1.138
 8726SOL    HW127077   6.607   0.686   1.176
 8726SOL    HW227078   6.502   0.767   1.081
 8727SOL     OW27079   6.345   6.522   1.865
 8727SOL    HW127080   6.321   6.438   1.817
 8727SOL    HW227081   6.442   6.544   1.849
 8728SOL     OW27082   3.967   0.064   4.608
 8728SOL    HW127083   3.930   0.124   4.680
 8728SOL    HW227084   3.998   0.120   4.531
 8729SOL     OW27085   4.745   6.091   3.193
 8729SOL    HW127086   4.820   6.093   3.259
 8729SOL    HW227087   4.658   6.090   3.242
 8730SOL     OW27088   6.693   5.356   2.678
 8730SOL    HW127089   6.630   5.329   2.751
 8730SOL    HW227090   6.765   5.288   2.668
 8731SOL     OW27091   2.120   1.900   2.933
 8731SOL    HW127092   2.020   1.895   2.934
 8731SOL    HW227093   2.153   1.906   2.839
 8732SOL     OW27094   4.848   4.579   1.867
 8732SOL    HW127095   4.866   4.581   1.966
 8732SOL    HW227096   4.847   4.484   1.836
 8733SOL     OW27097   1.485   5.628   3.143
 8733SOL    HW127098   1.518   5.659   3.054
 8733SOL    HW227099   1.385   5.634   3.146
 8734SOL     OW27100   1.166   4.428   1.841
 8734SOL    HW127101   1.138   4.521   1.866
 8734SOL    HW227102   1.252   4.432   1.791
 8735SOL     OW27103   0.791   1.811   6.970
 8735SOL    HW127104   0.835   1.880   0.004
 8735SOL    HW227105   0.779   1.727   0.000
 8736SOL     OW27106   0.581   6.738   0.122
 8736SOL    HW127107   0.661   6.712   0.068
 8736SOL    HW227108   0.519   6.793   0.066
 8737SOL     OW27109   3.306   6.973   6.395
 8737SOL    HW127110   3.380   6.952   6.459
 8737SOL    HW227111   3.218   6.956   6.439
 8738SOL     OW27112   2.180   4.000   4.044
 8738SOL    HW127113   2.194   3.990   4.142
 8738SOL    HW227114   2.098   4.056   4.028
 8739SOL     OW27115   6.574   5.304   6.062
 8739SOL    HW127116   6.533   5.224   6.107
 8739SOL    HW227117   6.531   5.387   6.097
 8740SOL     OW27118   4.151   1.319   5.334
 8740SOL    HW127119   4.156   1.238   5.276
 8740SOL    HW227120   4.223   1.383   5.306
 8741SOL     OW27121   1.991   1.397   2.101
 8741SOL    HW127122   2.043   1.372   2.020
 8741SOL    HW227123   2.004   1.328   2.172
 8742SOL     OW27124   4.965   6.059   1.604
 8742SOL    HW127125   4.871   6.025   1.601
 8742SOL    HW227126   4.982   6.103   1.692
 8743SOL     OW27127   2.139   6.656   2.838
 8743SOL    HW127128   2.106   6.725   2.774
 8743SOL    HW227129   2.180   6.580   2.786
 8744SOL     OW27130   3.620   2.842   6.109
 8744SOL    HW127131   3.650   2.771   6.172
 8744SOL    HW227132   3.548   2.805   6.050
 8745SOL     OW27133   6.269   2.495   5.817
 8745SOL    HW127134   6.303   2.526   5.728
 8745SOL    HW227135   6.169   2.489   5.814
 8746SOL     OW27136   4.124   4.258   5.331
 8746SOL    HW127137   4.188   4.213   5.393
 8746SOL    HW227138   4.172   4.284   5.247
 8747SOL     OW27139   1.030   2.760   3.626
 8747SOL    HW127140   0.976   2.720   3.552
 8747SOL    HW227141   1.127   2.752   3.605
 8748SOL     OW27142   0.572   1.090   6.669
 8748SOL    HW127143   0.543   1.129   6.582
 8748SOL    HW227144   0.492   1.078   6.728
 8749SOL     OW27145   2.796   0.495   5.004
 8749SOL    HW127146   2.769   0.463   5.095
 8749SOL    HW227147   2.841   0.421   4.954
 8750SOL     OW27148   2.359   3.118   5.454
 8750SOL    HW127149   2.383   3.036   5.506
 8750SOL    HW227150   2.374   3.101   5.356
 8751SOL     OW27151   6.690   7.009   1.944
 8751SOL    HW127152   6.766   6.955   1.908
 8751SOL    HW227153   6.639   0.027   1.869
 8752SOL     OW27154   2.646   4.116   0.081
 8752SOL    HW127155   2.650   4.108   0.181
 8752SOL    HW227156   2.674   4.030   0.040
 8753SOL     OW27157   5.111   1.489   4.638
 8753SOL    HW127158   5.113   1.589   4.637
 8753SOL    HW227159   5.033   1.458   4.692
 8754SOL     OW27160   1.086   2.187   6.070
 8754SOL    HW127161   1.074   2.089   6.088
 8754SOL    HW227162   1.046   2.240   6.145
 8755SOL     OW27163   2.870   1.639   6.844
 8755SOL    HW127164   2.871   1.577   6.923
 8755SOL    HW227165   2.898   1.588   6.762
 8756SOL     OW27166   2.087   3.197   3.566
 8756SOL    HW127167   2.034   3.209   3.650
 8756SOL    HW227168   2.166   3.139   3.585
 8757SOL     OW27169   5.645   6.414   6.309
 8757SOL    HW127170   5.694   6.402   6.396
 8757SOL    HW227171   5.643   6.511   6.285
 8758SOL     OW27172   5.018   5.953   2.380
 8758SOL    HW127173   4.948   6.017   2.413
 8758SOL    HW227174   5.107   5.999   2.380
 8759SOL     OW27175   4.401   1.592   6.235
 8759SOL    HW127176   4.468   1.555   6.300
 8759SOL    HW227177   4.366   1.518   6.177
 8760SOL     OW27178   1.933   1.632   4.767
 8760SOL    HW127179   1.865   1.628   4.840
 8760SOL    HW227180   1.962   1.539   4.744
 8761SOL     OW27181   4.450   0.276   1.073
 8761SOL    HW127182   4.413   0.264   0.981
 8761SOL    HW227183   4.481   0.370   1.084
 8762SOL     OW27184   1.401   3.248   2.572
 8762SOL    HW127185   1.394   3.162   2.623
 8762SOL    HW227186   1.497   3.265   2.550
 8763SOL     OW27187   6.074   6.130   4.623
 8763SOL    HW127188   6.119   6.105   4.538
 8763SOL    HW227189   6.012   6.056   4.651
 8764SOL     OW27190   5.084   1.091   3.949
 8764SOL    HW127191   5.024   1.162   3.986
 8764SOL    HW227192   5.041   1.002   3.957
 8765SOL     OW27193   6.165   6.346   4.788
 8765SOL    HW127194   6.138   6.262   4.741
 8765SOL    HW227195   6.085   6.404   4.799
 8766SOL     OW27196   3.906   4.881   3.443
 8766SOL    HW127197   3.968   4.958   3.425
 8766SOL    HW227198   3.960   4.798   3.459
 8767SOL     OW27199   4.558   0.719   3.179
 8767SOL    HW127200   4.486   0.707   3.110
 8767SOL    HW227201   4.518   0.761   3.261
 8768SOL     OW27202   1.990   3.027   0.165
 8768SOL    HW127203   1.922   3.016   0.237
 8768SOL    HW227204   2.064   2.960   0.178
 8769SOL     OW27205   0.860   0.569   5.477
 8769SOL    HW127206   0.807   0.505   5.421
 8769SOL    HW227207   0.903   0.637   5.417
 8770SOL     OW27208   4.952   3.752   2.126
 8770SOL    HW127209   4.946   3.670   2.182
 8770SOL    HW227210   4.939   3.728   2.029
 8771SOL     OW27211   2.187   0.293   5.968
 8771SOL    HW127212   2.091   0.293   5.996
 8771SOL    HW227213   2.199   0.231   5.891
 8772SOL     OW27214   5.834   7.007   0.109
 8772SOL    HW127215   5.753   6.952   0.085
 8772SOL    HW227216   5.812   0.082   0.099
 8773SOL     OW27217   4.534   2.067   3.631
 8773SOL    HW127218   4.467   2.064   3.557
 8773SOL    HW227219   4.539   2.160   3.668
 8774SOL     OW27220   1.669   1.106   0.749
 8774SOL    HW127221   1.652   1.205   0.750
 8774SOL    HW227222   1.597   1.061   0.696
 8775SOL     OW27223   5.491   0.165   4.202
 8775SOL    HW127224   5.418   0.108   4.241
 8775SOL    HW227225   5.552   0.195   4.275
 8776SOL     OW27226   3.156   3.080   4.821
 8776SOL    HW127227   3.133   3.031   4.906
 8776SOL    HW227228   3.073   3.095   4.768
 8777SOL     OW27229   6.616   4.478   1.515
 8777SOL    HW127230   6.603   4.556   1.454
 8777SOL    HW227231   6.713   4.471   1.539
 8778SOL     OW27232   0.297   2.371   4.187
 8778SOL    HW127233   0.378   2.334   4.142
 8778SOL    HW227234   0.293   2.339   4.281
 8779SOL     OW27235   2.012   5.365   2.173
 8779SOL    HW127236   2.055   5.455   2.177
 8779SOL    HW227237   1.963   5.347   2.258
 8780SOL     OW27238   1.554   5.648   3.396
 8780SOL    HW127239   1.537   5.646   3.298
 8780SOL    HW227240   1.650   5.627   3.413
 8781SOL     OW27241   6.656   1.666   3.616
 8781SOL    HW127242   6.698   1.657   3.706
 8781SOL    HW227243   6.558   1.644   3.623
 8782SOL     OW27244   5.687   1.114   1.455
 8782SOL    HW127245   5.624   1.119   1.378
 8782SOL    HW227246   5.658   1.179   1.526
 8783SOL     OW27247   6.200   4.003   3.912
 8783SOL    HW127248   6.287   3.957   3.898
 8783SOL    HW227249   6.151   3.960   3.988
 8784SOL     OW27250   5.009   4.756   5.124
 8784SOL    HW127251   5.034   4.695   5.049
 8784SOL    HW227252   4.912   4.780   5.117
 8785SOL     OW27253   5.784   3.438   0.084
 8785SOL    HW127254   5.844   3.466   0.159
 8785SOL    HW227255   5.802   3.495   0.004
 8786SOL     OW27256   2.459   6.612   6.816
 8786SOL    HW127257   2.546   6.660   6.808
 8786SOL    HW227258   2.412   6.641   6.899
 8787SOL     OW27259   1.574   2.828   2.088
 8787SOL    HW127260   1.564   2.776   2.172
 8787SOL    HW227261   1.634   2.907   2.103
 8788SOL     OW27262   6.501   2.281   5.565
 8788SOL    HW127263   6.472   2.266   5.660
 8788SOL    HW227264   6.525   2.377   5.553
 8789SOL     OW27265   5.862   0.258   6.105
 8789SOL    HW127266   5.949   0.300   6.130
 8789SOL    HW227267   5.832   0.197   6.178
 8790SOL     OW27268   6.688   1.006   6.985
 8790SOL    HW127269   6.676   0.925   6.929
 8790SOL    HW227270   6.631   1.080   6.949
 8791SOL     OW27271   5.193   0.126   5.568
 8791SOL    HW127272   5.205   0.194   5.495
 8791SOL    HW227273   5.105   0.142   5.614
 8792SOL     OW27274   4.023   6.866   3.115
 8792SOL    HW127275   4.054   6.939   3.176
 8792SOL    HW227276   3.969   6.905   3.040
 8793SOL     OW27277   1.962   5.741   4.135
 8793SOL    HW127278   1.971   5.643   4.154
 8793SOL    HW227279   1.866   5.768   4.146
 8794SOL     OW27280   3.147   6.237   2.403
 8794SOL    HW127281   3.243   6.265   2.397
 8794SOL    HW227282   3.131   6.190   2.490
 8795SOL     OW27283   1.503   6.530   5.145
 8795SOL    HW127284   1.534   6.439   5.120
 8795SOL    HW227285   1.516   6.592   5.068
 8796SOL     OW27286   3.853   1.449   5.466
 8796SOL    HW127287   3.842   1.418   5.371
 8796SOL    HW227288   3.928   1.399   5.509
 8797SOL     OW27289   1.676   6.403   6.248
 8797SOL    HW127290   1.697   6.305   6.252
 8797SOL    HW227291   1.678   6.433   6.153
 8798SOL     OW27292   5.586   4.340   5.532
 8798SOL    HW127293   5.557   4.416   5.591
 8798SOL    HW227294   5.506   4.301   5.487
 8799SOL     OW27295   2.484   4.461   3.476
 8799SOL    HW127296   2.520   4.463   3.383
 8799SOL    HW227297   2.388   4.488   3.475
 8800SOL     OW27298   5.193   3.663   5.303
 8800SOL    HW127299   5.175   3.621   5.391
 8800SOL    HW227300   5.224   3.757   5.317
 8801SOL     OW27301   2.137   1.273   3.896
 8801SOL    HW127302   2.203   1.199   3.887
 8801SOL    HW227303   2.179   1.359   3.868
 8802SOL     OW27304   0.880   0.033   1.145
 8802SOL    HW127305   0.801   0.095   1.150
 8802SOL    HW227306   0.853   6.972   1.097
 8803SOL     OW27307   1.467   4.897   6.290
 8803SOL    HW127308   1.479   4.809   6.336
 8803SOL    HW227309   1.375   4.931   6.306
 8804SOL     OW27310   4.208   0.913   1.676
 8804SOL    HW127311   4.160   1.000   1.682
 8804SOL    HW227312   4.272   0.915   1.599
 8805SOL     OW27313   1.869   6.883   3.705
 8805SOL    HW127314   1.774   6.897   3.731
 8805SOL    HW227315   1.898   6.957   3.644
 8806SOL     OW27316   2.123   5.227   1.686
 8806SOL    HW127317   2.187   5.274   1.747
 8806SOL    HW227318   2.082   5.293   1.623
 8807SOL     OW27319   6.643   5.872   5.967
 8807SOL    HW127320   6.615   5.780   5.943
 8807SOL    HW227321   6.568   5.919   6.014
 8808SOL     OW27322   5.585   1.759   0.760
 8808SOL    HW127323   5.590   1.660   0.749
 8808SOL    HW227324   5.559   1.801   0.673
 8809SOL     OW27325   5.514   3.791   2.029
 8809SOL    HW127326   5.467   3.703   2.025
 8809SOL    HW227327   5.447   3.865   2.029
 8810SOL     OW27328   5.832   1.767   5.185
 8810SOL    HW127329   5.855   1.857   5.148
 8810SOL    HW227330   5.735   1.767   5.212
 8811SOL     OW27331   2.168   1.892   4.060
 8811SOL    HW127332   2.153   1.940   4.147
 8811SOL    HW227333   2.172   1.959   3.986
 8812SOL     OW27334   0.682   0.565   0.756
 8812SOL    HW127335   0.669   0.467   0.738
 8812SOL    HW227336   0.779   0.586   0.759
 8813SOL     OW27337   1.392   5.036   1.789
 8813SOL    HW127338   1.362   5.097   1.716
 8813SOL    HW227339   1.492   5.037   1.794
 8814SOL     OW27340   6.890   0.883   0.066
 8814SOL    HW127341   6.808   0.937   0.049
 8814SOL    HW227342   6.881   0.793   0.023
 8815SOL     OW27343   6.598   5.799   0.791
 8815SOL    HW127344   6.588   5.852   0.706
 8815SOL    HW227345   6.630   5.859   0.864
 8816SOL     OW27346   1.168   6.780   0.824
 8816SOL    HW127347   1.227   6.706   0.792
 8816SOL    HW227348   1.223   6.851   0.867
 8817SOL     OW27349   0.491   5.532   5.555
 8817SOL    HW127350   0.522   5.554   5.463
 8817SOL    HW227351   0.455   5.614   5.599
 8818SOL     OW27352   0.263   3.528   3.446
 8818SOL    HW127353   0.319   3.608   3.424
 8818SOL    HW227354   0.276   3.458   3.376
 8819SOL     OW27355   4.551   6.610   3.794
 8819SOL    HW127356   4.457   6.579   3.778
 8819SOL    HW227357   4.574   6.595   3.891
 8820SOL     OW27358   2.347   2.481   4.260
 8820SOL    HW127359   2.282   2.440   4.325
 8820SOL    HW227360   2.366   2.417   4.186
 8821SOL     OW27361   1.540   6.480   6.797
 8821SOL    HW127362   1.637   6.456   6.794
 8821SOL    HW227363   1.499   6.465   6.706
 8822SOL     OW27364   0.662   0.578   3.081
 8822SOL    HW127365   0.573   0.571   3.036
 8822SOL    HW227366   0.651   0.622   3.170
 8823SOL     OW27367   2.274   0.481   1.263
 8823SOL    HW127368   2.214   0.447   1.191
 8823SOL    HW227369   2.219   0.499   1.345
 8824SOL     OW27370   2.567   3.642   0.670
 8824SOL    HW127371   2.589   3.594   0.585
 8824SOL    HW227372   2.493   3.708   0.652
 8825SOL     OW27373   1.706   0.475   3.703
 8825SOL    HW127374   1.801   0.461   3.676
 8825SOL    HW227375   1.646   0.433   3.634
 8826SOL     OW27376   6.089   2.322   0.043
 8826SOL    HW127377   6.104   2.377   6.984
 8826SOL    HW227378   6.129   2.368   0.122
 8827SOL     OW27379   3.114   1.225   3.096
 8827SOL    HW127380   3.014   1.223   3.098
 8827SOL    HW227381   3.150   1.211   3.188
 8828SOL     OW27382   4.236   5.370   3.685
 8828SOL    HW127383   4.259   5.350   3.780
 8828SOL    HW227384   4.158   5.433   3.682
 8829SOL     OW27385   0.129   3.201   0.251
 8829SOL    HW127386   0.172   3.179   0.164
 8829SOL    HW227387   0.123   3.118   0.307
 8830SOL     OW27388   6.938   1.723   6.801
 8830SOL    HW127389   6.914   1.673   6.884
 8830SOL    HW227390   6.993   1.803   6.825
 8831SOL     OW27391   5.383   1.215   3.513
 8831SOL    HW127392   5.462   1.156   3.498
 8831SOL    HW227393   5.310   1.190   3.449
 8832SOL     OW27394   0.152   6.470   2.077
 8832SOL    HW127395   0.064   6.509   2.105
 8832SOL    HW227396   0.149   6.371   2.086
 8833SOL     OW27397   2.150   6.078   5.172
 8833SOL    HW127398   2.216   6.128   5.115
 8833SOL    HW227399   2.068   6.059   5.118
 8834SOL     OW27400   5.613   3.523   4.441
 8834SOL    HW127401   5.575   3.446   4.389
 8834SOL    HW227402   5.552   3.602   4.434
 8835SOL     OW27403   6.266   0.485   5.545
 8835SOL    HW127404   6.269   0.580   5.513
 8835SOL    HW227405   6.172   0.452   5.545
 8836SOL     OW27406   4.507   1.010   0.818
 8836SOL    HW127407   4.577   1.026   0.749
 8836SOL    HW227408   4.417   1.002   0.773
 8837SOL     OW27409   1.005   0.223   2.638
 8837SOL    HW127410   1.022   0.321   2.649
 8837SOL    HW227411   0.943   0.209   2.561
 8838SOL     OW27412   3.087   5.229   3.373
 8838SOL    HW127413   3.119   5.150   3.321
 8838SOL    HW227414   3.087   5.208   3.471
 8839SOL     OW27415   5.538   6.116   3.197
 8839SOL    HW127416   5.566   6.207   3.166
 8839SOL    HW227417   5.619   6.064   3.223
 8840SOL     OW27418   6.458   2.228   2.171
 8840SOL    HW127419   6.520   2.163   2.214
 8840SOL    HW227420   6.509   2.286   2.107
 8841SOL     OW27421   1.484   0.754   5.021
 8841SOL    HW127422   1.434   0.841   5.021
 8841SOL    HW227423   1.542   0.749   5.102
 8842SOL     OW27424   3.786   2.533   0.701
 8842SOL    HW127425   3.826   2.580   0.780
 8842SOL    HW227426   3.778   2.596   0.625
 8843SOL     OW27427   1.555   2.265   5.701
 8843SOL    HW127428   1.455   2.267   5.694
 8843SOL    HW227429   1.594   2.328   5.633
 8844SOL     OW27430   5.882   1.221   6.562
 8844SOL    HW127431   5.874   1.122   6.578
 8844SOL    HW227432   5.804   1.252   6.508
 8845SOL     OW27433   4.095   3.458   0.320
 8845SOL    HW127434   4.005   3.491   0.348
 8845SOL    HW227435   4.151   3.535   0.288
 8846SOL     OW27436   2.273   5.710   3.970
 8846SOL    HW127437   2.211   5.656   4.027
 8846SOL    HW227438   2.328   5.649   3.913
 8847SOL     OW27439   3.063   0.720   2.669
 8847SOL    HW127440   3.083   0.639   2.615
 8847SOL    HW227441   3.028   0.793   2.610
 8848SOL     OW27442   2.418   0.886   1.058
 8848SOL    HW127443   2.355   0.810   1.047
 8848SOL    HW227444   2.429   0.933   0.970
 8849SOL     OW27445   2.488   5.787   3.164
 8849SOL    HW127446   2.563   5.793   3.098
 8849SOL    HW227447   2.509   5.843   3.244
 8850SOL     OW27448   2.142   1.649   0.132
 8850SOL    HW127449   2.114   1.713   0.203
 8850SOL    HW227450   2.231   1.610   0.155
 8851SOL     OW27451   1.898   4.656   2.552
 8851SOL    HW127452   1.881   4.648   2.454
 8851SOL    HW227453   1.813   4.637   2.602
 8852SOL     OW27454   1.420   1.766   5.786
 8852SOL    HW127455   1.343   1.718   5.829
 8852SOL    HW227456   1.403   1.864   5.786
 8853SOL     OW27457   3.145   1.432   1.672
 8853SOL    HW127458   3.154   1.346   1.721
 8853SOL    HW227459   3.206   1.500   1.713
 8854SOL     OW27460   1.804   3.345   4.976
 8854SOL    HW127461   1.857   3.331   5.059
 8854SOL    HW227462   1.822   3.271   4.911
 8855SOL     OW27463   6.322   5.339   1.678
 8855SOL    HW127464   6.260   5.317   1.754
 8855SOL    HW227465   6.377   5.258   1.656
 8856SOL     OW27466   6.317   5.725   6.608
 8856SOL    HW127467   6.370   5.809   6.617
 8856SOL    HW227468   6.305   5.683   6.698
 8857SOL     OW27469   6.856   2.303   4.795
 8857SOL    HW127470   6.944   2.347   4.780
 8857SOL    HW227471   6.824   2.322   4.887
 8858SOL     OW27472   0.399   4.781   5.287
 8858SOL    HW127473   0.401   4.729   5.202
 8858SOL    HW227474   0.326   4.747   5.346
 8859SOL     OW27475   0.956   0.641   4.099
 8859SOL    HW127476   1.051   0.613   4.092
 8859SOL    HW227477   0.929   0.690   4.016
 8860SOL     OW27478   6.893   3.042   1.515
 8860SOL    HW127479   6.983   3.052   1.473
 8860SOL    HW227480   6.853   3.133   1.530
 8861SOL     OW27481   4.250   0.926   0.727
 8861SOL    HW127482   4.204   1.007   0.693
 8861SOL    HW227483   4.195   0.883   0.799
 8862SOL     OW27484   4.602   5.647   4.277
 8862SOL    HW127485   4.657   5.582   4.224
 8862SOL    HW227486   4.572   5.605   4.362
 8863SOL     OW27487   2.204   4.552   3.524
 8863SOL    HW127488   2.147   4.480   3.484
 8863SOL    HW227489   2.164   4.641   3.506
 8864SOL     OW27490   4.823   3.785   6.520
 8864SOL    HW127491   4.830   3.721   6.443
 8864SOL    HW227492   4.771   3.866   6.492
 8865SOL     OW27493   2.633   1.559   5.781
 8865SOL    HW127494   2.571   1.636   5.764
 8865SOL    HW227495   2.641   1.503   5.699
 8866SOL     OW27496   5.667   6.369   2.545
 8866SOL    HW127497   5.681   6.418   2.460
 8866SOL    HW227498   5.607   6.422   2.605
 8867SOL     OW27499   6.352   3.738   3.052
 8867SOL    HW127500   6.255   3.760   3.049
 8867SOL    HW227501   6.379   3.691   2.968
 8868SOL     OW27502   6.946   3.343   2.213
 8868SOL    HW127503   6.866   3.392   2.178
 8868SOL    HW227504   6.931   3.245   2.206
 8869SOL     OW27505   4.379   5.166   4.625
 8869SOL    HW127506   4.395   5.251   4.675
 8869SOL    HW227507   4.360   5.186   4.529
 8870SOL     OW27508   2.358   6.663   1.966
 8870SOL    HW127509   2.454   6.682   1.942
 8870SOL    HW227510   2.303   6.745   1.952
 8871SOL     OW27511   1.134   1.166   3.141
 8871SOL    HW127512   1.206   1.235   3.144
 8871SOL    HW227513   1.095   1.155   3.232
 8872SOL     OW27514   0.919   4.516   6.159
 8872SOL    HW127515   1.013   4.526   6.190
 8872SOL    HW227516   0.905   4.423   6.125
 8873SOL     OW27517   1.921   0.532   1.835
 8873SOL    HW127518   1.904   0.589   1.915
 8873SOL    HW227519   2.015   0.498   1.837
 8874SOL     OW27520   1.357   5.145   1.529
 8874SOL    HW127521   1.403   5.219   1.479
 8874SOL    HW227522   1.349   5.065   1.471
 8875SOL     OW27523   0.010   3.306   4.023
 8875SOL    HW127524   6.991   3.244   3.956
 8875SOL    HW227525   0.059   3.253   4.092
 8876SOL     OW27526   2.931   0.498   6.362
 8876SOL    HW127527   2.987   0.579   6.378
 8876SOL    HW227528   2.855   0.521   6.302
 8877SOL     OW27529   1.331   3.375   1.719
 8877SOL    HW127530   1.410   3.314   1.715
 8877SOL    HW227531   1.361   3.468   1.737
 8878SOL     OW27532   3.527   4.425   0.618
 8878SOL    HW127533   3.604   4.362   0.618
 8878SOL    HW227534   3.497   4.441   0.524
 8879SOL     OW27535   6.569   5.055   2.704
 8879SOL    HW127536   6.531   5.108   2.779
 8879SOL    HW227537   6.667   5.075   2.695
 8880SOL     OW27538   3.967   6.517   3.946
 8880SOL    HW127539   3.926   6.558   3.864
 8880SOL    HW227540   3.993   6.589   4.010
 8881SOL     OW27541   5.192   4.676   3.893
 8881SOL    HW127542   5.143   4.710   3.973
 8881SOL    HW227543   5.128   4.670   3.816
 8882SOL     OW27544   3.928   0.958   0.511
 8882SOL    HW127545   3.884   0.953   0.421
 8882SOL    HW227546   3.860   0.982   0.579
 8883SOL     OW27547   0.004   6.770   5.972
 8883SOL    HW127548   7.018   6.729   6.063
 8883SOL    HW227549   0.101   6.779   5.948
 8884SOL     OW27550   5.344   4.486   5.103
 8884SOL    HW127551   5.273   4.502   5.172
 8884SOL    HW227552   5.367   4.573   5.059
 8885SOL     OW27553   5.776   5.329   0.053
 8885SOL    HW127554   5.840   5.296   0.123
 8885SOL    HW227555   5.682   5.312   0.083
 8886SOL     OW27556   3.833   5.223   6.405
 8886SOL    HW127557   3.812   5.199   6.500
 8886SOL    HW227558   3.844   5.322   6.397
 8887SOL     OW27559   4.161   0.359   0.759
 8887SOL    HW127560   4.107   0.276   0.742
 8887SOL    HW227561   4.244   0.357   0.702
 8888SOL     OW27562   1.802   1.993   3.471
 8888SOL    HW127563   1.792   1.978   3.373
 8888SOL    HW227564   1.837   1.910   3.514
 8889SOL     OW27565   0.139   6.389   6.103
 8889SOL    HW127566   0.179   6.299   6.088
 8889SOL    HW227567   0.046   6.380   6.137
 8890SOL     OW27568   0.320   5.968   6.957
 8890SOL    HW127569   0.412   5.942   6.931
 8890SOL    HW227570   0.306   5.949   0.032
 8891SOL     OW27571   5.128   4.543   6.853
 8891SOL    HW127572   5.224   4.570   6.846
 8891SOL    HW227573   5.094   4.517   6.763
 8892SOL     OW27574   3.797   5.092   3.724
 8892SOL    HW127575   3.851   5.024   3.773
 8892SOL    HW227576   3.855   5.168   3.696
 8893SOL     OW27577   1.425   5.033   5.154
 8893SOL    HW127578   1.345   5.093   5.156
 8893SOL    HW227579   1.394   4.938   5.142
 8894SOL     OW27580   4.998   1.885   0.745
 8894SOL    HW127581   5.078   1.914   0.797
 8894SOL    HW227582   4.916   1.925   0.786
 8895SOL     OW27583   1.026   2.991   0.691
 8895SOL    HW127584   1.048   3.066   0.629
 8895SOL    HW227585   0.968   3.025   0.765
 8896SOL     OW27586   1.420   2.801   4.899
 8896SOL    HW127587   1.428   2.892   4.939
 8896SOL    HW227588   1.346   2.800   4.832
 8897SOL     OW27589   2.095   3.915   3.538
 8897SOL    HW127590   2.145   3.945   3.619
 8897SOL    HW227591   2.140   3.834   3.500
 8898SOL     OW27592   5.683   3.628   2.552
 8898SOL    HW127593   5.776   3.598   2.532
 8898SOL    HW227594   5.643   3.668   2.469
 8899SOL     OW27595   6.856   4.864   6.084
 8899SOL    HW127596   6.800   4.908   6.154
 8899SOL    HW227597   6.944   4.839   6.123
 8900SOL     OW27598   5.515   2.180   3.561
 8900SOL    HW127599   5.506   2.139   3.470
 8900SOL    HW227600   5.601   2.150   3.602
 8901SOL     OW27601   0.657   2.043   3.460
 8901SOL    HW127602   0.697   2.060   3.369
 8901SOL    HW227603   0.729   2.016   3.524
 8902SOL     OW27604   1.335   4.670   0.077
 8902SOL    HW127605   1.408   4.602   0.066
 8902SOL    HW227606   1.326   4.692   0.175
 8903SOL     OW27607   1.362   1.045   5.260
 8903SOL    HW127608   1.369   1.007   5.168
 8903SOL    HW227609   1.437   1.010   5.316
 8904SOL     OW27610   0.240   1.581   2.689
 8904SOL    HW127611   0.257   1.508   2.623
 8904SOL    HW227612   0.243   1.670   2.642
 8905SOL     OW27613   1.698   2.959   2.544
 8905SOL    HW127614   1.720   2.885   2.607
 8905SOL    HW227615   1.779   2.985   2.492
 8906SOL     OW27616   0.605   6.659   0.628
 8906SOL    HW127617   0.681   6.611   0.671
 8906SOL    HW227618   0.585   6.616   0.539
 8907SOL     OW27619   3.238   2.635   5.312
 8907SOL    HW127620   3.244   2.541   5.277
 8907SOL    HW227621   3.145   2.653   5.344
 8908SOL     OW27622   1.353   4.606   0.362
 8908SOL    HW127623   1.450   4.609   0.387
 8908SOL    HW227624   1.298   4.591   0.444
 8909SOL     OW27625   2.642   0.785   5.988
 8909SOL    HW127626   2.582   0.865   5.998
 8909SOL    HW227627   2.719   0.808   5.928
 8910SOL     OW27628   0.766   2.541   5.318
 8910SOL    HW127629   0.784   2.539   5.416
 8910SOL    HW227630   0.852   2.547   5.268
 8911SOL     OW27631   5.099   1.772   4.363
 8911SOL    HW127632   5.162   1.767   4.440
 8911SOL    HW227633   5.037   1.693   4.365
 8912SOL     OW27634   3.973   3.106   5.489
 8912SOL    HW127635   4.000   3.087   5.395
 8912SOL    HW227636   3.986   3.203   5.509
 8913SOL     OW27637   5.426   5.273   6.900
 8913SOL    HW127638   5.438   5.267   6.999
 8913SOL    HW227639   5.515   5.261   6.855
 8914SOL     OW27640   5.178   6.692   5.215
 8914SOL    HW127641   5.272   6.720   5.235
 8914SOL    HW227642   5.114   6.751   5.265
 8915SOL     OW27643   1.044   1.250   4.154
 8915SOL    HW127644   1.016   1.330   4.208
 8915SOL    HW227645   0.963   1.198   4.128
 8916SOL     OW27646   5.560   2.009   6.879
 8916SOL    HW127647   5.598   1.917   6.876
 8916SOL    HW227648   5.480   2.010   6.939
 8917SOL     OW27649   5.955   1.689   0.717
 8917SOL    HW127650   6.030   1.746   0.681
 8917SOL    HW227651   5.910   1.736   0.792
 8918SOL     OW27652   1.800   5.577   0.996
 8918SOL    HW127653   1.808   5.477   0.994
 8918SOL    HW227654   1.704   5.602   1.010
 8919SOL     OW27655   5.013   4.969   6.690
 8919SOL    HW127656   5.072   5.048   6.708
 8919SOL    HW227657   4.920   4.989   6.721
 8920SOL     OW27658   0.468   1.350   0.347
 8920SOL    HW127659   0.384   1.316   0.304
 8920SOL    HW227660   0.530   1.273   0.363
 8921SOL     OW27661   1.421   2.639   1.243
 8921SOL    HW127662   1.478   2.687   1.310
 8921SOL    HW227663   1.332   2.618   1.284
 8922SOL     OW27664   3.709   6.557   2.535
 8922SOL    HW127665   3.804   6.583   2.550
 8922SOL    HW227666   3.701   6.507   2.449
 8923SOL     OW27667   1.402   2.045   5.850
 8923SOL    HW127668   1.368   2.139   5.839
 8923SOL    HW227669   1.500   2.047   5.870
 8924SOL     OW27670   5.356   5.716   4.736
 8924SOL    HW127671   5.278   5.773   4.711
 8924SOL    HW227672   5.345   5.625   4.696
 8925SOL     OW27673   0.515   0.600   2.576
 8925SOL    HW127674   0.472   0.510   2.585
 8925SOL    HW227675   0.605   0.591   2.533
 8926SOL     OW27676   6.422   3.760   5.434
 8926SOL    HW127677   6.457   3.830   5.372
 8926SOL    HW227678   6.431   3.792   5.529
 8927SOL     OW27679   6.308   2.238   5.893
 8927SOL    HW127680   6.319   2.332   5.861
 8927SOL    HW227681   6.399   2.196   5.903
 8928SOL     OW27682   2.288   0.464   5.734
 8928SOL    HW127683   2.372   0.513   5.755
 8928SOL    HW227684   2.306   0.397   5.661
 8929SOL     OW27685   6.416   2.434   4.969
 8929SOL    HW127686   6.485   2.393   4.910
 8929SOL    HW227687   6.389   2.368   5.040
 8930SOL     OW27688   0.898   3.576   2.987
 8930SOL    HW127689   0.902   3.476   2.982
 8930SOL    HW227690   0.930   3.606   3.077
 8931SOL     OW27691   3.015   2.723   1.405
 8931SOL    HW127692   3.080   2.716   1.329
 8931SOL    HW227693   3.052   2.785   1.475
 8932SOL     OW27694   0.183   1.626   3.218
 8932SOL    HW127695   0.261   1.577   3.179
 8932SOL    HW227696   0.099   1.578   3.193
 8933SOL     OW27697   3.177   2.434   6.815
 8933SOL    HW127698   3.134   2.520   6.790
 8933SOL    HW227699   3.135   2.359   6.764
 8934SOL     OW27700   3.389   5.338   4.860
 8934SOL    HW127701   3.411   5.325   4.957
 8934SOL    HW227702   3.472   5.363   4.810
 8935SOL     OW27703   0.495   5.022   0.870
 8935SOL    HW127704   0.412   4.975   0.838
 8935SOL    HW227705   0.476   5.068   0.957
 8936SOL     OW27706   1.856   3.553   0.836
 8936SOL    HW127707   1.904   3.520   0.755
 8936SOL    HW227708   1.911   3.535   0.917
 8937SOL     OW27709   0.130   6.740   5.316
 8937SOL    HW127710   0.051   6.797   5.292
 8937SOL    HW227711   0.098   6.649   5.343
 8938SOL     OW27712   0.263   5.430   1.143
 8938SOL    HW127713   0.264   5.520   1.186
 8938SOL    HW227714   0.251   5.440   1.044
 8939SOL     OW27715   4.887   2.448   4.786
 8939SOL    HW127716   4.874   2.547   4.780
 8939SOL    HW227717   4.799   2.402   4.771
 8940SOL     OW27718   0.243   0.955   3.870
 8940SOL    HW127719   0.192   0.898   3.934
 8940SOL    HW227720   0.311   1.009   3.920
 8941SOL     OW27721   5.779   2.271   5.824
 8941SOL    HW127722   5.795   2.174   5.807
 8941SOL    HW227723   5.801   2.292   5.919
 8942SOL     OW27724   0.465   3.482   5.723
 8942SOL    HW127725   0.514   3.435   5.649
 8942SOL    HW227726   0.384   3.429   5.748
 8943SOL     OW27727   5.111   3.810   0.457
 8943SOL    HW127728   5.024   3.825   0.504
 8943SOL    HW227729   5.162   3.896   0.455
 8944SOL     OW27730   4.902   5.233   5.566
 8944SOL    HW127731   4.905   5.177   5.483
 8944SOL    HW227732   4.846   5.314   5.550
 8945SOL     OW27733   2.007   0.695   4.584
 8945SOL    HW127734   2.102   0.697   4.616
 8945SOL    HW227735   1.998   0.753   4.503
 8946SOL     OW27736   3.331   2.112   4.915
 8946SOL    HW127737   3.322   2.127   4.817
 8946SOL    HW227738   3.257   2.159   4.963
 8947SOL     OW27739   1.533   3.746   5.195
 8947SOL    HW127740   1.548   3.708   5.104
 8947SOL    HW227741   1.436   3.764   5.209
 8948SOL     OW27742   5.738   5.434   3.923
 8948SOL    HW127743   5.722   5.362   3.855
 8948SOL    HW227744   5.830   5.424   3.961
 8949SOL     OW27745   2.021   0.076   0.652
 8949SOL    HW127746   1.987   0.144   0.587
 8949SOL    HW227747   2.106   0.037   0.618
 8950SOL     OW27748   4.647   3.074   5.803
 8950SOL    HW127749   4.653   2.990   5.857
 8950SOL    HW227750   4.669   3.053   5.707
 8951SOL     OW27751   1.817   2.109   4.814
 8951SOL    HW127752   1.757   2.188   4.802
 8951SOL    HW227753   1.777   2.046   4.881
 8952SOL     OW27754   1.158   0.846   2.535
 8952SOL    HW127755   1.142   0.915   2.605
 8952SOL    HW227756   1.232   0.876   2.475
 8953SOL     OW27757   1.091   3.587   6.928
 8953SOL    HW127758   1.054   3.608   6.838
 8953SOL    HW227759   1.015   3.572   6.992
 8954SOL     OW27760   0.641   5.997   5.392
 8954SOL    HW127761   0.617   5.918   5.336
 8954SOL    HW227762   0.712   6.051   5.347
 8955SOL     OW27763   0.067   4.218   2.809
 8955SOL    HW127764   0.136   4.263   2.752
 8955SOL    HW227765   7.002   4.218   2.761
 8956SOL     OW27766   0.180   1.383   6.788
 8956SOL    HW127767   0.085   1.405   6.767
 8956SOL    HW227768   0.187   1.285   6.807
 8957SOL     OW27769   3.001   4.379   1.450
 8957SOL    HW127770   3.010   4.309   1.380
 8957SOL    HW227771   3.082   4.378   1.509
 8958SOL     OW27772   0.889   0.690   4.353
 8958SOL    HW127773   0.846   0.605   4.383
 8958SOL    HW227774   0.911   0.683   4.256
 8959SOL     OW27775   0.910   4.326   0.660
 8959SOL    HW127776   0.822   4.300   0.620
 8959SOL    HW227777   0.917   4.425   0.665
 8960SOL     OW27778   4.441   5.405   2.906
 8960SOL    HW127779   4.427   5.503   2.897
 8960SOL    HW227780   4.529   5.380   2.865
 8961SOL     OW27781   1.222   2.302   4.453
 8961SOL    HW127782   1.228   2.252   4.366
 8961SOL    HW227783   1.250   2.397   4.438
 8962SOL     OW27784   6.056   6.703   2.189
 8962SOL    HW127785   6.074   6.707   2.287
 8962SOL    HW227786   6.035   6.795   2.156
 8963SOL     OW27787   4.691   6.540   4.046
 8963SOL    HW127788   4.780   6.556   4.088
 8963SOL    HW227789   4.696   6.459   3.987
 8964SOL     OW27790   6.138   4.015   2.728
 8964SOL    HW127791   6.162   4.051   2.818
 8964SOL    HW227792   6.123   4.090   2.664
 8965SOL     OW27793   1.796   5.024   1.178
 8965SOL    HW127794   1.744   5.012   1.094
 8965SOL    HW227795   1.832   4.936   1.209
 8966SOL     OW27796   1.885   3.266   5.509
 8966SOL    HW127797   1.975   3.235   5.539
 8966SOL    HW227798   1.871   3.360   5.538
 8967SOL     OW27799   2.882   6.042   1.772
 8967SOL    HW127800   2.940   6.114   1.736
 8967SOL    HW227801   2.796   6.082   1.806
 8968SOL     OW27802   4.665   5.136   2.657
 8968SOL    HW127803   4.664   5.234   2.677
 8968SOL    HW227804   4.572   5.100   2.659
 8969SOL     OW27805   6.185   0.533   3.891
 8969SOL    HW127806   6.194   0.445   3.843
 8969SOL    HW227807   6.241   0.531   3.974
 8970SOL     OW27808   3.218   3.004   0.624
 8970SOL    HW127809   3.142   3.000   0.689
 8970SOL    HW227810   3.191   3.059   0.545
 8971SOL     OW27811   3.404   5.719   2.476
 8971SOL    HW127812   3.472   5.781   2.436
 8971SOL    HW227813   3.384   5.646   2.411
 8972SOL     OW27814   4.905   5.975   6.720
 8972SOL    HW127815   4.904   5.975   6.820
 8972SOL    HW227816   4.821   5.934   6.685
 8973SOL     OW27817   0.562   3.703   1.895
 8973SOL    HW127818   0.542   3.795   1.930
 8973SOL    HW227819   0.485   3.643   1.914
 8974SOL     OW27820   1.195   4.278   6.069
 8974SOL    HW127821   1.263   4.351   6.063
 8974SOL    HW227822   1.156   4.261   5.978
 8975SOL     OW27823   2.516   0.989   7.022
 8975SOL    HW127824   2.593   1.027   0.050
 8975SOL    HW227825   2.501   0.894   0.026
 8976SOL     OW27826   1.013   4.957   5.313
 8976SOL    HW127827   0.975   4.894   5.245
 8976SOL    HW227828   0.969   5.046   5.306
 8977SOL     OW27829   5.890   1.319   6.830
 8977SOL    HW127830   5.973   1.345   6.880
 8977SOL    HW227831   5.904   1.336   6.732
 8978SOL     OW27832   6.445   6.126   6.738
 8978SOL    HW127833   6.456   6.103   6.835
 8978SOL    HW227834   6.351   6.105   6.710
 8979SOL     OW27835   1.484   3.402   4.150
 8979SOL    HW127836   1.461   3.386   4.246
 8979SOL    HW227837   1.403   3.384   4.093
 8980SOL     OW27838   2.473   2.901   5.604
 8980SOL    HW127839   2.390   2.852   5.632
 8980SOL    HW227840   2.523   2.931   5.684
 8981SOL     OW27841   3.918   1.650   5.200
 8981SOL    HW127842   3.830   1.698   5.202
 8981SOL    HW227843   3.903   1.554   5.223
 8982SOL     OW27844   1.313   2.636   0.304
 8982SOL    HW127845   1.394   2.604   0.354
 8982SOL    HW227846   1.266   2.706   0.359
 8983SOL     OW27847   2.798   6.014   6.894
 8983SOL    HW127848   2.860   5.972   6.828
 8983SOL    HW227849   2.728   5.948   6.922
 8984SOL     OW27850   1.153   7.012   3.736
 8984SOL    HW127851   1.083   0.056   3.762
 8984SOL    HW227852   1.217   0.031   3.672
 8985SOL     OW27853   4.133   2.298   1.109
 8985SOL    HW127854   4.076   2.361   1.161
 8985SOL    HW227855   4.221   2.340   1.088
 8986SOL     OW27856   4.127   5.076   2.890
 8986SOL    HW127857   4.155   5.166   2.856
 8986SOL    HW227858   4.192   5.043   2.957
 8987SOL     OW27859   3.743   6.458   2.273
 8987SOL    HW127860   3.806   6.485   2.200
 8987SOL    HW227861   3.752   6.360   2.290
 8988SOL     OW27862   1.349   4.822   4.012
 8988SOL    HW127863   1.448   4.828   3.999
 8988SOL    HW227864   1.323   4.873   4.094
 8989SOL     OW27865   4.274   3.188   6.976
 8989SOL    HW127866   4.201   3.122   6.955
 8989SOL    HW227867   4.329   3.202   6.894
 8990SOL     OW27868   1.133   5.175   3.909
 8990SOL    HW127869   1.231   5.172   3.928
 8990SOL    HW227870   1.094   5.084   3.921
 8991SOL     OW27871   1.653   3.601   4.732
 8991SOL    HW127872   1.625   3.565   4.821
 8991SOL    HW227873   1.643   3.700   4.731
 8992SOL     OW27874   4.811   2.049   0.891
 8992SOL    HW127875   4.725   2.061   0.841
 8992SOL    HW227876   4.791   2.035   0.988
 8993SOL     OW27877   4.050   3.063   0.959
 8993SOL    HW127878   4.062   2.999   1.034
 8993SOL    HW227879   4.064   3.016   0.872
 8994SOL     OW27880   1.376   4.374   5.378
 8994SOL    HW127881   1.287   4.417   5.382
 8994SOL    HW227882   1.396   4.347   5.284
 8995SOL     OW27883   0.354   1.926   0.166
 8995SOL    HW127884   0.329   1.829   0.171
 8995SOL    HW227885   0.337   1.959   0.073
 8996SOL     OW27886   5.180   4.078   6.685
 8996SOL    HW127887   5.158   3.986   6.654
 8996SOL    HW227888   5.208   4.134   6.607
 8997SOL     OW27889   4.452   1.255   5.860
 8997SOL    HW127890   4.496   1.283   5.945
 8997SOL    HW227891   4.520   1.253   5.786
 8998SOL     OW27892   5.804   3.670   4.245
 8998SOL    HW127893   5.733   3.737   4.266
 8998SOL    HW227894   5.807   3.601   4.316
 8999SOL     OW27895   4.921   6.482   6.374
 8999SOL    HW127896   4.948   6.417   6.303
 8999SOL    HW227897   4.855   6.547   6.336
 9000SOL     OW27898   1.899   2.997   2.335
 9000SOL    HW127899   1.844   2.990   2.252
 9000SOL    HW227900   1.989   3.034   2.312
 9001SOL     OW27901   1.178   4.959   1.913
 9001SOL    HW127902   1.133   5.042   1.880
 9001SOL    HW227903   1.270   4.953   1.875
 9002SOL     OW27904   1.802   5.050   5.451
 9002SOL    HW127905   1.709   5.046   5.414
 9002SOL    HW227906   1.821   4.967   5.503
 9003SOL     OW27907   5.403   3.960   1.482
 9003SOL    HW127908   5.411   3.863   1.507
 9003SOL    HW227909   5.494   4.001   1.477
 9004SOL     OW27910   4.705   5.073   0.700
 9004SOL    HW127911   4.648   5.072   0.618
 9004SOL    HW227912   4.789   5.125   0.682
 9005SOL     OW27913   6.823   1.924   5.319
 9005SOL    HW127914   6.769   2.005   5.343
 9005SOL    HW227915   6.842   1.870   5.401
 9006SOL     OW27916   2.833   5.879   1.328
 9006SOL    HW127917   2.771   5.829   1.268
 9006SOL    HW227918   2.845   5.972   1.294
 9007SOL     OW27919   3.066   0.955   2.846
 9007SOL    HW127920   3.140   1.020   2.862
 9007SOL    HW227921   3.096   0.885   2.782
 9008SOL     OW27922   0.259   4.961   2.447
 9008SOL    HW127923   0.174   5.012   2.461
 9008SOL    HW227924   0.315   5.008   2.379
 9009SOL     OW27925   3.559   4.975   0.982
 9009SOL    HW127926   3.461   4.991   0.997
 9009SOL    HW227927   3.576   4.876   0.978
 9010SOL     OW27928   2.167   6.507   4.161
 9010SOL    HW127929   2.193   6.575   4.229
 9010SOL    HW227930   2.117   6.551   4.087
 9011SOL     OW27931   4.429   1.130   1.351
 9011SOL    HW127932   4.440   1.048   1.406
 9011SOL    HW227933   4.488   1.126   1.271
 9012SOL     OW27934   2.323   4.704   6.690
 9012SOL    HW127935   2.239   4.758   6.685
 9012SOL    HW227936   2.402   4.766   6.698
 9013SOL     OW27937   1.247   1.117   6.129
 9013SOL    HW127938   1.155   1.134   6.165
 9013SOL    HW227939   1.262   1.018   6.120
 9014SOL     OW27940   6.795   2.162   0.768
 9014SOL    HW127941   6.885   2.177   0.726
 9014SOL    HW227942   6.734   2.119   0.701
 9015SOL     OW27943   4.716   2.162   1.572
 9015SOL    HW127944   4.812   2.144   1.548
 9015SOL    HW227945   4.681   2.235   1.512
 9016SOL     OW27946   6.459   5.848   6.892
 9016SOL    HW127947   6.437   5.751   6.876
 9016SOL    HW227948   6.556   5.856   6.915
 9017SOL     OW27949   4.852   1.269   3.958
 9017SOL    HW127950   4.833   1.345   4.021
 9017SOL    HW227951   4.875   1.305   3.868
 9018SOL     OW27952   2.447   3.544   5.342
 9018SOL    HW127953   2.535   3.565   5.301
 9018SOL    HW227954   2.448   3.451   5.379
 9019SOL     OW27955   1.235   5.151   2.739
 9019SOL    HW127956   1.207   5.175   2.832
 9019SOL    HW227957   1.197   5.062   2.714
 9020SOL     OW27958   6.877   4.307   0.861
 9020SOL    HW127959   6.940   4.356   0.919
 9020SOL    HW227960   6.826   4.372   0.804
 9021SOL     OW27961   6.523   1.188   3.504
 9021SOL    HW127962   6.440   1.183   3.448
 9021SOL    HW227963   6.596   1.233   3.452
 9022SOL     OW27964   3.262   1.427   0.103
 9022SOL    HW127965   3.295   1.371   0.027
 9022SOL    HW227966   3.334   1.490   0.132
 9023SOL     OW27967   4.095   3.673   1.662
 9023SOL    HW127968   4.149   3.634   1.736
 9023SOL    HW227969   3.998   3.672   1.687
 9024SOL     OW27970   1.438   4.054   5.323
 9024SOL    HW127971   1.455   4.127   5.389
 9024SOL    HW227972   1.431   3.966   5.371
 9025SOL     OW27973   0.310   5.191   0.992
 9025SOL    HW127974   0.253   5.201   0.911
 9025SOL    HW227975   0.318   5.280   1.038
 9026SOL     OW27976   3.686   2.058   1.136
 9026SOL    HW127977   3.681   2.042   1.235
 9026SOL    HW227978   3.679   2.156   1.118
 9027SOL     OW27979   0.800   3.299   3.011
 9027SOL    HW127980   0.790   3.209   3.053
 9027SOL    HW227981   0.741   3.364   3.059
 9028SOL     OW27982   3.299   3.081   5.206
 9028SOL    HW127983   3.340   3.167   5.235
 9028SOL    HW227984   3.362   3.006   5.225
 9029SOL     OW27985   4.163   6.523   5.041
 9029SOL    HW127986   4.077   6.568   5.065
 9029SOL    HW227987   4.148   6.462   4.963
 9030SOL     OW27988   2.311   2.062   3.604
 9030SOL    HW127989   2.344   2.156   3.596
 9030SOL    HW227990   2.389   1.999   3.607
 9031SOL     OW27991   4.217   6.864   4.300
 9031SOL    HW127992   4.262   6.887   4.386
 9031SOL    HW227993   4.144   6.930   4.281
 9032SOL     OW27994   4.631   4.459   0.902
 9032SOL    HW127995   4.726   4.471   0.933
 9032SOL    HW227996   4.608   4.362   0.902
 9033SOL     OW27997   0.808   4.601   2.558
 9033SOL    HW127998   0.855   4.564   2.478
 9033SOL    HW227999   0.874   4.650   2.615
 9034SOL     OW28000   3.355   5.934   4.748
 9034SOL    HW128001   3.292   5.894   4.681
 9034SOL    HW228002   3.433   5.974   4.700
 9035SOL     OW28003   2.509   5.037   0.232
 9035SOL    HW128004   2.485   4.959   0.290
 9035SOL    HW228005   2.498   5.012   0.136
 9036SOL     OW28006   2.246   3.467   5.670
 9036SOL    HW128007   2.196   3.534   5.616
 9036SOL    HW228008   2.206   3.376   5.655
 9037SOL     OW28009   1.378   3.534   3.748
 9037SOL    HW128010   1.414   3.565   3.837
 9037SOL    HW228011   1.281   3.514   3.757
 9038SOL     OW28012   4.478   2.387   6.721
 9038SOL    HW128013   4.508   2.456   6.786
 9038SOL    HW228014   4.378   2.390   6.712
 9039SOL     OW28015   2.576   4.655   6.394
 9039SOL    HW128016   2.613   4.739   6.354
 9039SOL    HW228017   2.477   4.651   6.379
 9040SOL     OW28018   2.701   2.382   2.418
 9040SOL    HW128019   2.647   2.441   2.358
 9040SOL    HW228020   2.688   2.411   2.513
 9041SOL     OW28021   1.154   2.201   1.237
 9041SOL    HW128022   1.073   2.219   1.182
 9041SOL    HW228023   1.166   2.102   1.248
 9042SOL     OW28024   3.802   0.358   4.184
 9042SOL    HW128025   3.824   0.351   4.087
 9042SOL    HW228026   3.783   0.267   4.221
 9043SOL     OW28027   2.718   1.213   6.313
 9043SOL    HW128028   2.769   1.156   6.250
 9043SOL    HW228029   2.745   1.308   6.302
 9044SOL     OW28030   6.842   1.090   0.341
 9044SOL    HW128031   6.824   1.158   0.269
 9044SOL    HW228032   6.939   1.091   0.363
 9045SOL     OW28033   3.499   0.749   2.445
 9045SOL    HW128034   3.569   0.720   2.509
 9045SOL    HW228035   3.472   0.844   2.465
 9046SOL     OW28036   3.796   4.093   2.853
 9046SOL    HW128037   3.837   4.027   2.790
 9046SOL    HW228038   3.861   4.114   2.926
 9047SOL     OW28039   1.403   3.847   4.742
 9047SOL    HW128040   1.351   3.813   4.664
 9047SOL    HW228041   1.373   3.799   4.825
 9048SOL     OW28042   6.129   2.886   6.067
 9048SOL    HW128043   6.151   2.931   5.981
 9048SOL    HW228044   6.106   2.790   6.050
 9049SOL     OW28045   4.144   6.306   5.604
 9049SOL    HW128046   4.137   6.214   5.643
 9049SOL    HW228047   4.090   6.370   5.660
 9050SOL     OW28048   0.190   3.526   1.627
 9050SOL    HW128049   0.128   3.604   1.626
 9050SOL    HW228050   0.270   3.545   1.570
 9051SOL     OW28051   2.290   6.998   1.731
 9051SOL    HW128052   2.346   6.931   1.682
 9051SOL    HW228053   2.249   6.955   1.812
 9052SOL     OW28054   2.202   2.700   4.114
 9052SOL    HW128055   2.105   2.677   4.114
 9052SOL    HW228056   2.252   2.635   4.172
 9053SOL     OW28057   2.058   1.101   1.566
 9053SOL    HW128058   1.993   1.094   1.642
 9053SOL    HW228059   2.054   1.016   1.512
 9054SOL     OW28060   2.580   6.004   4.872
 9054SOL    HW128061   2.671   5.969   4.850
 9054SOL    HW228062   2.550   6.066   4.799
 9055SOL     OW28063   6.428   2.486   3.800
 9055SOL    HW128064   6.397   2.545   3.875
 9055SOL    HW228065   6.432   2.539   3.715
 9056SOL     OW28066   0.001   2.098   1.494
 9056SOL    HW128067   0.038   2.007   1.513
 9056SOL    HW228068   6.999   2.105   1.398
 9057SOL     OW28069   4.588   2.507   5.137
 9057SOL    HW128070   4.654   2.449   5.089
 9057SOL    HW228071   4.595   2.601   5.102
 9058SOL     OW28072   1.648   1.099   1.629
 9058SOL    HW128073   1.619   1.052   1.546
 9058SOL    HW228074   1.572   1.152   1.667
 9059SOL     OW28075   0.998   2.239   3.290
 9059SOL    HW128076   1.025   2.320   3.342
 9059SOL    HW228077   1.061   2.227   3.213
 9060SOL     OW28078   5.876   2.771   4.539
 9060SOL    HW128079   5.902   2.683   4.500
 9060SOL    HW228080   5.902   2.845   4.476
 9061SOL     OW28081   3.057   5.497   2.325
 9061SOL    HW128082   2.985   5.467   2.263
 9061SOL    HW228083   3.046   5.594   2.346
 9062SOL     OW28084   1.211   6.207   1.457
 9062SOL    HW128085   1.281   6.233   1.390
 9062SOL    HW228086   1.254   6.193   1.546
 9063SOL     OW28087   3.017   0.554   3.638
 9063SOL    HW128088   3.051   0.590   3.551
 9063SOL    HW228089   2.918   0.569   3.644
 9064SOL     OW28090   6.348   3.567   6.301
 9064SOL    HW128091   6.350   3.603   6.394
 9064SOL    HW228092   6.329   3.641   6.237
 9065SOL     OW28093   3.808   0.235   0.032
 9065SOL    HW128094   3.785   0.274   0.121
 9065SOL    HW228095   3.902   0.201   0.034
 9066SOL     OW28096   5.043   0.191   0.225
 9066SOL    HW128097   5.118   0.151   0.278
 9066SOL    HW228098   4.961   0.135   0.234
 9067SOL     OW28099   1.273   0.601   3.671
 9067SOL    HW128100   1.174   0.597   3.678
 9067SOL    HW228101   1.306   0.686   3.711
 9068SOL     OW28102   1.143   0.020   5.126
 9068SOL    HW128103   1.182   0.005   5.216
 9068SOL    HW228104   1.195   0.090   5.077
 9069SOL     OW28105   1.147   3.203   6.844
 9069SOL    HW128106   1.199   3.117   6.845
 9069SOL    HW228107   1.141   3.239   6.937
 9070SOL     OW28108   1.883   3.689   4.946
 9070SOL    HW128109   1.897   3.671   4.849
 9070SOL    HW228110   1.960   3.742   4.981
 9071SOL     OW28111   6.528   6.305   0.703
 9071SOL    HW128112   6.621   6.316   0.667
 9071SOL    HW228113   6.530   6.307   0.803
 9072SOL     OW28114   6.756   2.945   0.974
 9072SOL    HW128115   6.730   2.886   0.898
 9072SOL    HW228116   6.738   2.898   1.060
 9073SOL     OW28117   1.956   6.848   2.072
 9073SOL    HW128118   1.909   6.762   2.053
 9073SOL    HW228119   1.896   6.925   2.048
 9074SOL     OW28120   1.429   0.946   2.815
 9074SOL    HW128121   1.424   1.000   2.731
 9074SOL    HW228122   1.354   0.972   2.875
 9075SOL     OW28123   6.987   1.294   2.397
 9075SOL    HW128124   6.931   1.268   2.318
 9075SOL    HW228125   0.007   1.383   2.381
 9076SOL     OW28126   0.746   1.312   6.711
 9076SOL    HW128127   0.835   1.323   6.668
 9076SOL    HW228128   0.718   1.216   6.706
 9077SOL     OW28129   4.525   6.402   1.592
 9077SOL    HW128130   4.506   6.488   1.544
 9077SOL    HW228131   4.560   6.422   1.683
 9078SOL     OW28132   3.400   2.973   4.490
 9078SOL    HW128133   3.432   2.976   4.585
 9078SOL    HW228134   3.302   2.990   4.487
 9079SOL     OW28135   2.792   0.608   4.468
 9079SOL    HW128136   2.812   0.535   4.402
 9079SOL    HW228137   2.876   0.637   4.512
 9080SOL     OW28138   5.029   2.764   6.719
 9080SOL    HW128139   5.046   2.678   6.767
 9080SOL    HW228140   4.949   2.809   6.759
 9081SOL     OW28141   5.155   6.087   2.708
 9081SOL    HW128142   5.199   6.142   2.779
 9081SOL    HW228143   5.147   5.992   2.740
 9082SOL     OW28144   1.562   6.970   4.639
 9082SOL    HW128145   1.522   0.021   4.584
 9082SOL    HW228146   1.611   6.907   4.580
 9083SOL     OW28147   4.711   4.421   5.862
 9083SOL    HW128148   4.803   4.393   5.889
 9083SOL    HW228149   4.693   4.514   5.892
 9084SOL     OW28150   3.858   3.571   3.000
 9084SOL    HW128151   3.883   3.484   2.957
 9084SOL    HW228152   3.770   3.562   3.047
 9085SOL     OW28153   2.229   0.706   0.732
 9085SOL    HW128154   2.256   0.707   0.828
 9085SOL    HW228155   2.208   0.613   0.704
 9086SOL     OW28156   0.253   4.304   0.482
 9086SOL    HW128157   0.326   4.300   0.550
 9086SOL    HW228158   0.184   4.370   0.512
 9087SOL     OW28159   5.353   2.961   2.487
 9087SOL    HW128160   5.306   2.957   2.399
 9087SOL    HW228161   5.447   2.991   2.473
 9088SOL     OW28162   6.123   0.425   0.599
 9088SOL    HW128163   6.209   0.466   0.630
 9088SOL    HW228164   6.121   0.424   0.500
 9089SOL     OW28165   4.984   6.414   5.701
 9089SOL    HW128166   5.025   6.504   5.686
 9089SOL    HW228167   5.055   6.344   5.695
 9090SOL     OW28168   6.233   1.049   5.116
 9090SOL    HW128169   6.261   1.026   5.023
 9090SOL    HW228170   6.146   1.098   5.112
 9091SOL     OW28171   2.885   3.470   6.685
 9091SOL    HW128172   2.846   3.476   6.593
 9091SOL    HW228173   2.956   3.400   6.687
 9092SOL     OW28174   6.727   1.417   6.863
 9092SOL    HW128175   6.668   1.337   6.854
 9092SOL    HW228176   6.682   1.497   6.824
 9093SOL     OW28177   1.701   5.684   5.143
 9093SOL    HW128178   1.715   5.728   5.232
 9093SOL    HW228179   1.604   5.666   5.129
 9094SOL     OW28180   0.541   3.670   3.319
 9094SOL    HW128181   0.570   3.746   3.377
 9094SOL    HW228182   0.497   3.705   3.236
 9095SOL     OW28183   4.502   4.717   5.695
 9095SOL    HW128184   4.430   4.691   5.759
 9095SOL    HW228185   4.582   4.658   5.708
 9096SOL     OW28186   6.654   4.742   3.352
 9096SOL    HW128187   6.736   4.789   3.387
 9096SOL    HW228188   6.597   4.808   3.303
 9097SOL     OW28189   1.222   2.790   6.442
 9097SOL    HW128190   1.265   2.700   6.453
 9097SOL    HW228191   1.129   2.778   6.406
 9098SOL     OW28192   2.166   2.226   5.120
 9098SOL    HW128193   2.175   2.231   5.220
 9098SOL    HW228194   2.086   2.172   5.096
 9099SOL     OW28195   2.502   2.734   6.274
 9099SOL    HW128196   2.522   2.760   6.180
 9099SOL    HW228197   2.495   2.816   6.331
 9100SOL     OW28198   0.960   3.721   2.468
 9100SOL    HW128199   0.975   3.689   2.561
 9100SOL    HW228200   1.009   3.662   2.404
 9101SOL     OW28201   2.982   1.323   2.656
 9101SOL    HW128202   2.893   1.297   2.692
 9101SOL    HW228203   2.974   1.409   2.606
 9102SOL     OW28204   4.546   6.422   2.619
 9102SOL    HW128205   4.618   6.431   2.688
 9102SOL    HW228206   4.490   6.342   2.638
 9103SOL     OW28207   6.135   1.326   6.931
 9103SOL    HW128208   6.146   1.324   0.008
 9103SOL    HW228209   6.197   1.259   6.890
 9104SOL     OW28210   6.749   0.701   1.272
 9104SOL    HW128211   6.726   0.705   1.369
 9104SOL    HW228212   6.803   0.781   1.247
 9105SOL     OW28213   0.978   6.936   5.609
 9105SOL    HW128214   1.035   6.973   5.535
 9105SOL    HW228215   0.887   6.976   5.604
 9106SOL     OW28216   0.710   4.170   0.306
 9106SOL    HW128217   0.712   4.178   0.406
 9106SOL    HW228218   0.615   4.173   0.275
 9107SOL     OW28219   2.540   0.244   6.523
 9107SOL    HW128220   2.625   0.207   6.562
 9107SOL    HW228221   2.559   0.331   6.477
 9108SOL     OW28222   5.335   4.909   5.511
 9108SOL    HW128223   5.294   4.913   5.419
 9108SOL    HW228224   5.386   4.824   5.521
 9109SOL     OW28225   5.163   3.189   2.574
 9109SOL    HW128226   5.152   3.141   2.661
 9109SOL    HW228227   5.144   3.126   2.499
 9110SOL     OW28228   0.956   5.676   4.681
 9110SOL    HW128229   0.984   5.770   4.661
 9110SOL    HW228230   0.890   5.646   4.612
 9111SOL     OW28231   4.774   2.846   6.032
 9111SOL    HW128232   4.790   2.755   6.071
 9111SOL    HW228233   4.860   2.896   6.029
 9112SOL     OW28234   1.841   5.162   2.868
 9112SOL    HW128235   1.838   5.071   2.828
 9112SOL    HW228236   1.911   5.165   2.939
 9113SOL     OW28237   5.250   2.392   3.443
 9113SOL    HW128238   5.216   2.342   3.364
 9113SOL    HW228239   5.219   2.347   3.527
 9114SOL     OW28240   1.629   6.134   4.272
 9114SOL    HW128241   1.713   6.118   4.324
 9114SOL    HW228242   1.600   6.229   4.282
 9115SOL     OW28243   5.257   4.701   3.532
 9115SOL    HW128244   5.321   4.630   3.560
 9115SOL    HW228245   5.284   4.736   3.442
 9116SOL     OW28246   0.373   6.883   3.388
 9116SOL    HW128247   0.360   6.974   3.348
 9116SOL    HW228248   0.372   6.814   3.316
 9117SOL     OW28249   4.452   1.166   6.760
 9117SOL    HW128250   4.354   1.143   6.761
 9117SOL    HW228251   4.483   1.182   6.854
 9118SOL     OW28252   6.085   3.555   0.629
 9118SOL    HW128253   6.153   3.608   0.578
 9118SOL    HW228254   6.029   3.616   0.685
 9119SOL     OW28255   3.548   6.354   1.208
 9119SOL    HW128256   3.487   6.287   1.166
 9119SOL    HW228257   3.507   6.445   1.202
 9120SOL     OW28258   6.590   2.501   6.204
 9120SOL    HW128259   6.565   2.531   6.112
 9120SOL    HW228260   6.679   2.456   6.202
 9121SOL     OW28261   4.090   0.563   5.515
 9121SOL    HW128262   4.087   0.510   5.600
 9121SOL    HW228263   4.172   0.621   5.514
 9122SOL     OW28264   2.230   4.342   2.072
 9122SOL    HW128265   2.176   4.290   2.139
 9122SOL    HW228266   2.205   4.439   2.077
 9123SOL     OW28267   1.642   0.221   3.242
 9123SOL    HW128268   1.656   0.244   3.145
 9123SOL    HW228269   1.607   0.127   3.249
 9124SOL     OW28270   3.875   5.154   1.415
 9124SOL    HW128271   3.810   5.095   1.463
 9124SOL    HW228272   3.845   5.249   1.422
 9125SOL     OW28273   3.456   5.881   6.784
 9125SOL    HW128274   3.510   5.817   6.838
 9125SOL    HW228275   3.359   5.871   6.807
 9126SOL     OW28276   4.317   4.568   0.922
 9126SOL    HW128277   4.403   4.519   0.935
 9126SOL    HW228278   4.323   4.627   0.841
 9127SOL     OW28279   0.062   3.775   4.917
 9127SOL    HW128280   7.006   3.832   4.893
 9127SOL    HW228281   0.054   3.747   5.013
 9128SOL     OW28282   6.113   3.033   4.776
 9128SOL    HW128283   6.125   2.940   4.810
 9128SOL    HW228284   6.017   3.058   4.779
 9129SOL     OW28285   2.349   1.825   0.965
 9129SOL    HW128286   2.293   1.834   0.884
 9129SOL    HW228287   2.409   1.905   0.973
 9130SOL     OW28288   2.862   4.416   5.580
 9130SOL    HW128289   2.767   4.446   5.566
 9130SOL    HW228290   2.910   4.417   5.492
 9131SOL     OW28291   6.366   2.863   0.880
 9131SOL    HW128292   6.390   2.930   0.810
 9131SOL    HW228293   6.317   2.787   0.837
 9132SOL     OW28294   1.132   4.683   3.328
 9132SOL    HW128295   1.213   4.720   3.282
 9132SOL    HW228296   1.157   4.601   3.379
 9133SOL     OW28297   4.234   0.714   1.059
 9133SOL    HW128298   4.325   0.734   1.021
 9133SOL    HW228299   4.166   0.772   1.014
 9134SOL     OW28300   4.801   5.258   0.954
 9134SOL    HW128301   4.896   5.246   0.927
 9134SOL    HW228302   4.779   5.355   0.959
 9135SOL     OW28303   1.426   6.009   1.561
 9135SOL    HW128304   1.428   5.917   1.600
 9135SOL    HW228305   1.394   6.074   1.630
 9136SOL     OW28306   5.402   4.969   6.396
 9136SOL    HW128307   5.449   5.057   6.394
 9136SOL    HW228308   5.304   4.983   6.409
 9137SOL     OW28309   4.668   6.269   6.492
 9137SOL    HW128310   4.639   6.211   6.416
 9137SOL    HW228311   4.655   6.365   6.467
 9138SOL     OW28312   2.880   2.565   0.376
 9138SOL    HW128313   2.926   2.533   0.293
 9138SOL    HW228314   2.888   2.665   0.382
 9139SOL     OW28315   0.142   0.045   1.068
 9139SOL    HW128316   0.137   0.066   0.970
 9139SOL    HW228317   0.230   0.073   1.104
 9140SOL     OW28318   0.580   3.926   2.732
 9140SOL    HW128319   0.594   3.904   2.636
 9140SOL    HW228320   0.657   3.891   2.786
 9141SOL     OW28321   6.997   5.650   5.907
 9141SOL    HW128322   7.021   5.586   5.834
 9141SOL    HW228323   6.965   5.600   5.987
 9142SOL     OW28324   1.072   3.885   2.744
 9142SOL    HW128325   1.014   3.814   2.704
 9142SOL    HW228326   1.017   3.967   2.763
 9143SOL     OW28327   0.429   3.780   3.104
 9143SOL    HW128328   0.416   3.866   3.054
 9143SOL    HW228329   0.442   3.705   3.039
 9144SOL     OW28330   2.756   4.999   5.272
 9144SOL    HW128331   2.826   5.039   5.331
 9144SOL    HW228332   2.666   5.037   5.295
 9145SOL     OW28333   1.059   6.849   6.644
 9145SOL    HW128334   1.042   6.933   6.695
 9145SOL    HW228335   0.977   6.825   6.591
 9146SOL     OW28336   5.545   3.021   3.352
 9146SOL    HW128337   5.557   3.039   3.449
 9146SOL    HW228338   5.608   2.949   3.324
 9147SOL     OW28339   5.182   6.969   4.030
 9147SOL    HW128340   5.130   0.029   4.008
 9147SOL    HW228341   5.279   6.987   4.017
 9148SOL     OW28342   6.634   0.426   1.356
 9148SOL    HW128343   6.575   0.415   1.277
 9148SOL    HW228344   6.592   0.382   1.435
 9149SOL     OW28345   5.947   4.141   1.317
 9149SOL    HW128346   5.946   4.240   1.335
 9149SOL    HW228347   6.034   4.102   1.349
 9150SOL     OW28348   2.655   4.345   6.950
 9150SOL    HW128349   2.653   4.263   7.007
 9150SOL    HW228350   2.598   4.330   6.869
 9151SOL     OW28351   1.732   3.959   3.717
 9151SOL    HW128352   1.728   4.059   3.713
 9151SOL    HW228353   1.785   3.925   3.639
 9152SOL     OW28354   2.036   4.294   3.731
 9152SOL    HW128355   2.109   4.281   3.664
 9152SOL    HW228356   2.075   4.300   3.823
 9153SOL     OW28357   0.414   2.473   6.747
 9153SOL    HW128358   0.443   2.527   6.669
 9153SOL    HW228359   0.480   2.483   6.822
 9154SOL     OW28360   5.641   5.123   3.142
 9154SOL    HW128361   5.663   5.064   3.064
 9154SOL    HW228362   5.718   5.124   3.206
 9155SOL     OW28363   0.990   5.918   2.384
 9155SOL    HW128364   0.906   5.973   2.393
 9155SOL    HW228365   1.054   5.965   2.325
 9156SOL     OW28366   0.095   3.935   0.343
 9156SOL    HW128367   0.029   3.869   0.307
 9156SOL    HW228368   0.082   4.023   0.297
 9157SOL     OW28369   3.244   4.272   6.658
 9157SOL    HW128370   3.341   4.266   6.678
 9157SOL    HW228371   3.204   4.350   6.707
 9158SOL     OW28372   0.610   3.709   3.826
 9158SOL    HW128373   0.653   3.668   3.746
 9158SOL    HW228374   0.560   3.639   3.877
 9159SOL     OW28375   3.595   0.206   3.333
 9159SOL    HW128376   3.639   0.124   3.296
 9159SOL    HW228377   3.516   0.230   3.277
 9160SOL     OW28378   0.484   4.889   6.882
 9160SOL    HW128379   0.449   4.799   6.906
 9160SOL    HW228380   0.428   4.959   6.925
 9161SOL     OW28381   5.582   3.727   1.745
 9161SOL    HW128382   5.622   3.644   1.706
 9161SOL    HW228383   5.560   3.711   1.842
 9162SOL     OW28384   4.954   2.321   2.157
 9162SOL    HW128385   5.007   2.366   2.229
 9162SOL    HW228386   4.957   2.376   2.074
 9163SOL     OW28387   1.564   1.897   2.996
 9163SOL    HW128388   1.618   1.841   2.933
 9163SOL    HW228389   1.468   1.870   2.990
 9164SOL     OW28390   2.729   0.625   6.828
 9164SOL    HW128391   2.668   0.692   6.784
 9164SOL    HW228392   2.823   0.643   6.800
 9165SOL     OW28393   4.810   2.701   5.375
 9165SOL    HW128394   4.785   2.677   5.468
 9165SOL    HW228395   4.735   2.753   5.333
 9166SOL     OW28396   4.992   5.724   2.006
 9166SOL    HW128397   5.004   5.656   1.933
 9166SOL    HW228398   4.938   5.801   1.971
 9167SOL     OW28399   1.057   0.841   5.907
 9167SOL    HW128400   1.015   0.829   5.818
 9167SOL    HW228401   1.038   0.934   5.940
 9168SOL     OW28402   6.373   5.665   4.453
 9168SOL    HW128403   6.358   5.632   4.360
 9168SOL    HW228404   6.460   5.715   4.457
 9169SOL     OW28405   6.231   6.402   0.316
 9169SOL    HW128406   6.245   6.413   0.414
 9169SOL    HW228407   6.192   6.312   0.298
 9170SOL     OW28408   1.408   1.549   6.303
 9170SOL    HW128409   1.337   1.612   6.334
 9170SOL    HW228410   1.425   1.564   6.206
 9171SOL     OW28411   3.473   4.707   0.709
 9171SOL    HW128412   3.491   4.615   0.673
 9171SOL    HW228413   3.559   4.749   0.738
 9172SOL     OW28414   5.238   1.258   4.568
 9172SOL    HW128415   5.259   1.205   4.650
 9172SOL    HW228416   5.191   1.342   4.593
 9173SOL     OW28417   6.230   2.355   4.174
 9173SOL    HW128418   6.152   2.314   4.127
 9173SOL    HW228419   6.200   2.397   4.259
 9174SOL     OW28420   0.648   5.741   0.107
 9174SOL    HW128421   0.642   5.811   0.035
 9174SOL    HW228422   0.712   5.771   0.177
 9175SOL     OW28423   1.845   6.963   6.926
 9175SOL    HW128424   1.836   6.873   6.884
 9175SOL    HW228425   1.835   6.955   0.003
 9176SOL     OW28426   1.690   1.495   2.713
 9176SOL    HW128427   1.596   1.464   2.699
 9176SOL    HW228428   1.724   1.459   2.800
 9177SOL     OW28429   0.178   4.309   3.825
 9177SOL    HW128430   0.213   4.216   3.819
 9177SOL    HW228431   0.140   4.337   3.736
 9178SOL     OW28432   1.654   6.499   0.308
 9178SOL    HW128433   1.632   6.434   0.235
 9178SOL    HW228434   1.616   6.588   0.284
 9179SOL     OW28435   4.473   6.372   5.121
 9179SOL    HW128436   4.422   6.286   5.119
 9179SOL    HW228437   4.424   6.439   5.177
 9180SOL     OW28438   6.772   1.621   3.852
 9180SOL    HW128439   6.728   1.627   3.942
 9180SOL    HW228440   6.856   1.674   3.852
 9181SOL     OW28441   3.895   1.814   3.862
 9181SOL    HW128442   3.858   1.907   3.862
 9181SOL    HW228443   3.973   1.810   3.925
 9182SOL     OW28444   2.010   1.352   3.213
 9182SOL    HW128445   2.003   1.418   3.139
 9182SOL    HW228446   2.056   1.269   3.181
 9183SOL     OW28447   5.835   2.870   5.985
 9183SOL    HW128448   5.831   2.848   6.083
 9183SOL    HW228449   5.781   2.951   5.967
 9184SOL     OW28450   3.868   3.201   1.351
 9184SOL    HW128451   3.839   3.107   1.365
 9184SOL    HW228452   3.849   3.255   1.433
 9185SOL     OW28453   0.644   0.351   6.512
 9185SOL    HW128454   0.682   0.427   6.565
 9185SOL    HW228455   0.702   0.271   6.522
 9186SOL     OW28456   5.252   0.718   6.116
 9186SOL    HW128457   5.200   0.744   6.198
 9186SOL    HW228458   5.321   0.650   6.140
 9187SOL     OW28459   5.149   1.635   0.242
 9187SOL    HW128460   5.126   1.712   0.303
 9187SOL    HW228461   5.227   1.586   0.280
 9188SOL     OW28462   0.779   6.877   1.946
 9188SOL    HW128463   0.822   6.798   1.903
 9188SOL    HW228464   0.753   6.943   1.876
 9189SOL     OW28465   3.119   1.472   3.750
 9189SOL    HW128466   3.069   1.388   3.729
 9189SOL    HW228467   3.195   1.451   3.811
 9190SOL     OW28468   5.939   4.145   5.285
 9190SOL    HW128469   5.934   4.229   5.339
 9190SOL    HW228470   5.887   4.156   5.200
 9191SOL     OW28471   4.875   6.090   6.208
 9191SOL    HW128472   4.870   5.990   6.215
 9191SOL    HW228473   4.921   6.126   6.289
 9192SOL     OW28474   6.538   4.201   5.500
 9192SOL    HW128475   6.450   4.165   5.469
 9192SOL    HW228476   6.539   4.207   5.600
 9193SOL     OW28477   3.587   2.912   3.242
 9193SOL    HW128478   3.493   2.923   3.208
 9193SOL    HW228479   3.584   2.892   3.340
 9194SOL     OW28480   2.899   5.355   3.197
 9194SOL    HW128481   2.951   5.433   3.163
 9194SOL    HW228482   2.960   5.293   3.247
 9195SOL     OW28483   0.615   2.898   3.503
 9195SOL    HW128484   0.590   2.864   3.413
 9195SOL    HW228485   0.709   2.934   3.500
 9196SOL     OW28486   4.283   0.280   2.848
 9196SOL    HW128487   4.318   0.240   2.764
 9196SOL    HW228488   4.352   0.272   2.920
 9197SOL     OW28489   3.147   2.778   6.378
 9197SOL    HW128490   3.135   2.680   6.392
 9197SOL    HW228491   3.078   2.812   6.314
 9198SOL     OW28492   5.965   3.101   6.118
 9198SOL    HW128493   5.987   3.154   6.036
 9198SOL    HW228494   5.990   3.006   6.103
 9199SOL     OW28495   1.497   4.389   6.577
 9199SOL    HW128496   1.524   4.292   6.574
 9199SOL    HW228497   1.508   4.423   6.671
 9200SOL     OW28498   6.423   0.072   0.336
 9200SOL    HW128499   6.414   0.074   0.436
 9200SOL    HW228500   6.476   0.152   0.306
 9201SOL     OW28501   0.211   3.907   2.129
 9201SOL    HW128502   0.146   3.981   2.145
 9201SOL    HW228503   0.302   3.945   2.114
 9202SOL     OW28504   2.807   5.245   4.230
 9202SOL    HW128505   2.838   5.289   4.146
 9202SOL    HW228506   2.871   5.266   4.304
 9203SOL     OW28507   5.041   1.064   5.571
 9203SOL    HW128508   5.073   1.126   5.643
 9203SOL    HW228509   5.043   0.970   5.605
 9204SOL     OW28510   5.521   4.220   2.726
 9204SOL    HW128511   5.576   4.154   2.778
 9204SOL    HW228512   5.539   4.312   2.759
 9205SOL     OW28513   6.020   2.698   2.801
 9205SOL    HW128514   5.951   2.705   2.729
 9205SOL    HW228515   6.097   2.758   2.779
 9206SOL     OW28516   1.123   6.611   3.374
 9206SOL    HW128517   1.221   6.621   3.355
 9206SOL    HW228518   1.092   6.689   3.428
 9207SOL     OW28519   4.028   6.261   6.782
 9207SOL    HW128520   3.978   6.276   6.868
 9207SOL    HW228521   3.967   6.218   6.716
 9208SOL     OW28522   5.178   3.360   2.095
 9208SOL    HW128523   5.120   3.429   2.139
 9208SOL    HW228524   5.121   3.284   2.063
 9209SOL     OW28525   4.354   1.074   2.664
 9209SOL    HW128526   4.284   1.033   2.604
 9209SOL    HW228527   4.313   1.096   2.752
 9210SOL     OW28528   2.194   6.978   1.237
 9210SOL    HW128529   2.135   6.901   1.214
 9210SOL    HW228530   2.156   0.006   1.314
 9211SOL     OW28531   5.276   1.758   6.508
 9211SOL    HW128532   5.213   1.682   6.490
 9211SOL    HW228533   5.229   1.845   6.491
 9212SOL     OW28534   5.829   4.381   4.199
 9212SOL    HW128535   5.846   4.370   4.297
 9212SOL    HW228536   5.814   4.478   4.178
 9213SOL     OW28537   5.839   6.616   3.604
 9213SOL    HW128538   5.760   6.555   3.615
 9213SOL    HW228539   5.918   6.577   3.652
 9214SOL     OW28540   2.402   2.246   4.465
 9214SOL    HW128541   2.321   2.300   4.439
 9214SOL    HW228542   2.466   2.305   4.515
 9215SOL     OW28543   0.373   3.967   2.913
 9215SOL    HW128544   0.293   3.964   2.854
 9215SOL    HW228545   0.456   3.965   2.857
 9216SOL     OW28546   2.495   6.053   5.107
 9216SOL    HW128547   2.538   6.037   5.018
 9216SOL    HW228548   2.458   5.967   5.142
 9217SOL     OW28549   4.596   1.426   6.334
 9217SOL    HW128550   4.511   1.400   6.379
 9217SOL    HW228551   4.660   1.463   6.401
 9218SOL     OW28552   6.005   6.242   5.880
 9218SOL    HW128553   5.913   6.207   5.899
 9218SOL    HW228554   6.017   6.252   5.781
 9219SOL     OW28555   3.544   3.272   5.027
 9219SOL    HW128556   3.569   3.175   5.018
 9219SOL    HW228557   3.538   3.296   5.124
 9220SOL     OW28558   1.466   6.186   2.964
 9220SOL    HW128559   1.496   6.205   3.057
 9220SOL    HW228560   1.442   6.272   2.919
 9221SOL     OW28561   2.360   0.998   6.310
 9221SOL    HW128562   2.393   0.904   6.320
 9221SOL    HW228563   2.386   1.050   6.392
 9222SOL     OW28564   1.502   4.226   3.242
 9222SOL    HW128565   1.573   4.274   3.293
 9222SOL    HW228566   1.545   4.161   3.179
 9223SOL     OW28567   1.289   3.741   4.529
 9223SOL    HW128568   1.226   3.809   4.490
 9223SOL    HW228569   1.367   3.729   4.468
 9224SOL     OW28570   1.908   4.143   3.530
 9224SOL    HW128571   1.945   4.189   3.611
 9224SOL    HW228572   1.962   4.062   3.509
 9225SOL     OW28573   4.638   0.001   6.177
 9225SOL    HW128574   4.721   6.973   6.154
 9225SOL    HW228575   4.635   0.017   6.276
 9226SOL     OW28576   1.096   0.198   0.523
 9226SOL    HW128577   1.168   0.221   0.458
 9226SOL    HW228578   1.044   0.119   0.489
 9227SOL     OW28579   2.603   5.437   0.869
 9227SOL    HW128580   2.671   5.499   0.907
 9227SOL    HW228581   2.596   5.452   0.770
 9228SOL     OW28582   3.180   2.549   5.804
 9228SOL    HW128583   3.189   2.492   5.722
 9228SOL    HW228584   3.160   2.491   5.883
 9229SOL     OW28585   6.879   4.816   6.711
 9229SOL    HW128586   6.910   4.911   6.706
 9229SOL    HW228587   6.844   4.788   6.622
 9230SOL     OW28588   4.967   1.730   3.889
 9230SOL    HW128589   5.055   1.771   3.913
 9230SOL    HW228590   4.941   1.663   3.958
 9231SOL     OW28591   0.510   5.217   4.782
 9231SOL    HW128592   0.426   5.232   4.835
 9231SOL    HW228593   0.542   5.123   4.797
 9232SOL     OW28594   1.583   5.445   1.643
 9232SOL    HW128595   1.559   5.388   1.722
 9232SOL    HW228596   1.680   5.471   1.649
 9233SOL     OW28597   0.911   0.722   0.004
 9233SOL    HW128598   0.838   0.658   7.003
 9233SOL    HW228599   0.877   0.816   7.016
 9234SOL     OW28600   2.147   4.867   1.059
 9234SOL    HW128601   2.104   4.907   0.978
 9234SOL    HW228602   2.242   4.844   1.039
 9235SOL     OW28603   2.443   2.662   4.447
 9235SOL    HW128604   2.408   2.592   4.384
 9235SOL    HW228605   2.384   2.743   4.442
 9236SOL     OW28606   2.066   3.371   6.611
 9236SOL    HW128607   1.972   3.390   6.583
 9236SOL    HW228608   2.065   3.308   6.689
 9237SOL     OW28609   6.017   5.351   3.007
 9237SOL    HW128610   6.115   5.361   2.986
 9237SOL    HW228611   5.982   5.438   3.042
 9238SOL     OW28612   1.325   3.113   5.351
 9238SOL    HW128613   1.336   3.023   5.311
 9238SOL    HW228614   1.411   3.144   5.390
 9239SOL     OW28615   0.561   4.811   0.201
 9239SOL    HW128616   0.623   4.742   0.163
 9239SOL    HW228617   0.479   4.767   0.237
 9240SOL     OW28618   4.881   2.821   2.701
 9240SOL    HW128619   4.871   2.871   2.787
 9240SOL    HW228620   4.972   2.779   2.697
 9241SOL     OW28621   6.034   6.511   0.864
 9241SOL    HW128622   5.936   6.503   0.883
 9241SOL    HW228623   6.061   6.441   0.797
 9242SOL     OW28624   1.451   2.048   1.603
 9242SOL    HW128625   1.538   2.051   1.652
 9242SOL    HW228626   1.466   2.072   1.507
 9243SOL     OW28627   0.723   0.442   1.321
 9243SOL    HW128628   0.799   0.502   1.343
 9243SOL    HW228629   0.712   0.437   1.221
 9244SOL     OW28630   4.616   6.774   5.185
 9244SOL    HW128631   4.598   6.702   5.118
 9244SOL    HW228632   4.699   6.824   5.157
 9245SOL     OW28633   1.198   4.612   2.919
 9245SOL    HW128634   1.146   4.686   2.963
 9245SOL    HW228635   1.217   4.540   2.986
 9246SOL     OW28636   6.663   1.022   4.200
 9246SOL    HW128637   6.694   1.046   4.108
 9246SOL    HW228638   6.599   1.091   4.233
 9247SOL     OW28639   3.755   5.414   3.227
 9247SOL    HW128640   3.656   5.398   3.228
 9247SOL    HW228641   3.796   5.372   3.308
 9248SOL     OW28642   2.336   1.409   5.371
 9248SOL    HW128643   2.344   1.508   5.385
 9248SOL    HW228644   2.359   1.386   5.277
 9249SOL     OW28645   3.793   4.856   1.800
 9249SOL    HW128646   3.856   4.782   1.775
 9249SOL    HW228647   3.707   4.817   1.833
 9250SOL     OW28648   0.315   3.283   4.110
 9250SOL    HW128649   0.374   3.206   4.088
 9250SOL    HW228650   0.249   3.256   4.180
 9251SOL     OW28651   3.605   2.323   0.769
 9251SOL    HW128652   3.650   2.236   0.751
 9251SOL    HW228653   3.666   2.398   0.741
 9252SOL     OW28654   5.388   0.363   5.399
 9252SOL    HW128655   5.328   0.398   5.471
 9252SOL    HW228656   5.474   0.414   5.401
 9253SOL     OW28657   1.127   4.508   5.466
 9253SOL    HW128658   1.062   4.580   5.444
 9253SOL    HW228659   1.163   4.523   5.558
 9254SOL     OW28660   6.223   5.028   2.801
 9254SOL    HW128661   6.251   4.934   2.821
 9254SOL    HW228662   6.124   5.033   2.792
 9255SOL     OW28663   6.186   4.639   0.525
 9255SOL    HW128664   6.158   4.630   0.430
 9255SOL    HW228665   6.286   4.645   0.530
 9256SOL     OW28666   2.026   6.602   1.951
 9256SOL    HW128667   1.976   6.571   2.032
 9256SOL    HW228668   2.112   6.551   1.944
 9257SOL     OW28669   0.304   5.500   4.165
 9257SOL    HW128670   0.333   5.441   4.090
 9257SOL    HW228671   0.241   5.570   4.130
 9258SOL     OW28672   3.446   3.987   0.517
 9258SOL    HW128673   3.423   3.896   0.482
 9258SOL    HW228674   3.542   3.989   0.543
 9259SOL     OW28675   2.289   2.002   0.022
 9259SOL    HW128676   2.388   1.994   0.032
 9259SOL    HW228677   2.254   1.925   6.992
 9260SOL     OW28678   5.613   2.855   5.181
 9260SOL    HW128679   5.584   2.840   5.087
 9260SOL    HW228680   5.559   2.797   5.243
 9261SOL     OW28681   4.421   1.796   1.326
 9261SOL    HW128682   4.437   1.795   1.425
 9261SOL    HW228683   4.401   1.703   1.295
 9262SOL     OW28684   6.287   6.276   3.944
 9262SOL    HW128685   6.193   6.245   3.953
 9262SOL    HW228686   6.291   6.375   3.955
 9263SOL     OW28687   2.146   3.669   3.437
 9263SOL    HW128688   2.074   3.600   3.439
 9263SOL    HW228689   2.229   3.630   3.396
 9264SOL     OW28690   4.928   4.316   6.721
 9264SOL    HW128691   4.942   4.278   6.812
 9264SOL    HW228692   4.986   4.268   6.655
 9265SOL     OW28693   4.855   2.036   0.115
 9265SOL    HW128694   4.826   2.116   0.062
 9265SOL    HW228695   4.812   2.039   0.205
 9266SOL     OW28696   0.180   4.204   1.537
 9266SOL    HW128697   0.171   4.299   1.567
 9266SOL    HW228698   0.272   4.188   1.502
 9267SOL     OW28699   0.000   0.812   3.693
 9267SOL    HW128700   6.941   0.842   3.645
 9267SOL    HW228701   0.079   0.863   3.659
 9268SOL     OW28702   0.631   6.533   1.294
 9268SOL    HW128703   0.667   6.483   1.214
 9268SOL    HW228704   0.587   6.617   1.263
 9269SOL     OW28705   4.330   0.389   0.540
 9269SOL    HW128706   4.326   0.404   0.441
 9269SOL    HW228707   4.420   0.416   0.573
 9270SOL     OW28708   2.908   1.076   6.092
 9270SOL    HW128709   2.901   1.045   5.997
 9270SOL    HW228710   2.999   1.113   6.109
 9271SOL     OW28711   0.946   0.578   6.580
 9271SOL    HW128712   0.876   0.643   6.552
 9271SOL    HW228713   1.013   0.623   6.639
 9272SOL     OW28714   6.811   6.582   5.744
 9272SOL    HW128715   6.897   6.632   5.732
 9272SOL    HW228716   6.763   6.579   5.656
 9273SOL     OW28717   5.036   5.217   3.803
 9273SOL    HW128718   5.098   5.294   3.820
 9273SOL    HW228719   4.944   5.252   3.786
 9274SOL     OW28720   0.837   3.349   0.459
 9274SOL    HW128721   0.896   3.392   0.390
 9274SOL    HW228722   0.873   3.366   0.550
 9275SOL     OW28723   0.845   6.237   0.830
 9275SOL    HW128724   0.766   6.208   0.884
 9275SOL    HW228725   0.913   6.279   0.890
 9276SOL     OW28726   3.406   4.612   0.201
 9276SOL    HW128727   3.384   4.588   0.107
 9276SOL    HW228728   3.322   4.641   0.248
 9277SOL     OW28729   4.224   4.877   2.531
 9277SOL    HW128730   4.129   4.907   2.519
 9277SOL    HW228731   4.259   4.842   2.444
 9278SOL     OW28732   0.430   0.715   4.328
 9278SOL    HW128733   0.442   0.806   4.367
 9278SOL    HW228734   0.519   0.675   4.309
 9279SOL     OW28735   4.137   5.228   1.518
 9279SOL    HW128736   4.077   5.259   1.445
 9279SOL    HW228737   4.085   5.220   1.603
 9280SOL     OW28738   1.345   1.332   3.073
 9280SOL    HW128739   1.311   1.326   2.980
 9280SOL    HW228740   1.424   1.394   3.076
 9281SOL     OW28741   3.044   4.280   0.135
 9281SOL    HW128742   3.080   4.310   0.224
 9281SOL    HW228743   3.114   4.227   0.087
 9282SOL     OW28744   3.727   0.149   4.951
 9282SOL    HW128745   3.674   0.181   4.873
 9282SOL    HW228746   3.757   0.055   4.935
 9283SOL     OW28747   4.592   6.236   6.741
 9283SOL    HW128748   4.492   6.226   6.739
 9283SOL    HW228749   4.628   6.231   6.648
 9284SOL     OW28750   2.898   4.056   5.284
 9284SOL    HW128751   2.913   4.152   5.308
 9284SOL    HW228752   2.946   4.036   5.198
 9285SOL     OW28753   6.466   3.594   2.335
 9285SOL    HW128754   6.449   3.575   2.238
 9285SOL    HW228755   6.500   3.512   2.380
 9286SOL     OW28756   4.782   6.007   1.232
 9286SOL    HW128757   4.813   6.093   1.191
 9286SOL    HW228758   4.812   5.930   1.175
 9287SOL     OW28759   3.218   4.680   6.307
 9287SOL    HW128760   3.240   4.765   6.259
 9287SOL    HW228761   3.127   4.649   6.279
 9288SOL     OW28762   4.493   2.042   3.907
 9288SOL    HW128763   4.463   2.137   3.896
 9288SOL    HW228764   4.497   1.998   3.817
 9289SOL     OW28765   4.521   6.559   7.015
 9289SOL    HW128766   4.547   6.469   0.027
 9289SOL    HW228767   4.524   6.626   0.067
 9290SOL     OW28768   5.436   0.683   4.546
 9290SOL    HW128769   5.518   0.663   4.494
 9290SOL    HW228770   5.404   0.776   4.524
 9291SOL     OW28771   1.089   5.473   5.861
 9291SOL    HW128772   1.153   5.535   5.817
 9291SOL    HW228773   1.093   5.384   5.817
 9292SOL     OW28774   1.656   1.622   6.408
 9292SOL    HW128775   1.557   1.622   6.401
 9292SOL    HW228776   1.694   1.549   6.351
 9293SOL     OW28777   4.913   2.836   5.622
 9293SOL    HW128778   4.955   2.852   5.533
 9293SOL    HW228779   4.816   2.857   5.617
 9294SOL     OW28780   4.907   1.096   0.448
 9294SOL    HW128781   4.991   1.046   0.469
 9294SOL    HW228782   4.891   1.095   0.349
 9295SOL     OW28783   0.569   0.706   5.572
 9295SOL    HW128784   0.607   0.795   5.549
 9295SOL    HW228785   0.618   0.667   5.650
 9296SOL     OW28786   2.695   4.679   0.877
 9296SOL    HW128787   2.671   4.614   0.950
 9296SOL    HW228788   2.617   4.692   0.817
 9297SOL     OW28789   6.534   6.512   2.860
 9297SOL    HW128790   6.484   6.446   2.916
 9297SOL    HW228791   6.618   6.539   2.908
 9298SOL     OW28792   1.719   6.266   5.860
 9298SOL    HW128793   1.689   6.254   5.765
 9298SOL    HW228794   1.706   6.361   5.888
 9299SOL     OW28795   2.076   2.698   5.115
 9299SOL    HW128796   2.053   2.605   5.085
 9299SOL    HW228797   2.093   2.756   5.036
 9300SOL     OW28798   1.683   5.802   5.838
 9300SOL    HW128799   1.745   5.878   5.855
 9300SOL    HW228800   1.620   5.825   5.764
 9301SOL     OW28801   0.375   4.188   4.542
 9301SOL    HW128802   0.372   4.278   4.587
 9301SOL    HW228803   0.355   4.199   4.445
 9302SOL     OW28804   2.116   3.286   4.588
 9302SOL    HW128805   2.114   3.325   4.680
 9302SOL    HW228806   2.154   3.353   4.524
 9303SOL     OW28807   2.503   4.362   0.432
 9303SOL    HW128808   2.502   4.272   0.475
 9303SOL    HW228809   2.450   4.360   0.348
 9304SOL     OW28810   5.318   5.091   0.275
 9304SOL    HW128811   5.356   5.012   0.227
 9304SOL    HW228812   5.360   5.098   0.365
 9305SOL     OW28813   3.520   1.785   1.179
 9305SOL    HW128814   3.516   1.685   1.181
 9305SOL    HW228815   3.557   1.815   1.090
 9306SOL     OW28816   0.637   4.572   5.232
 9306SOL    HW128817   0.540   4.590   5.215
 9306SOL    HW228818   0.651   4.473   5.246
 9307SOL     OW28819   2.376   2.939   1.400
 9307SOL    HW128820   2.472   2.910   1.398
 9307SOL    HW228821   2.361   3.009   1.330
 9308SOL     OW28822   1.566   4.034   1.457
 9308SOL    HW128823   1.580   4.130   1.479
 9308SOL    HW228824   1.516   3.989   1.531
 9309SOL     OW28825   4.071   6.004   5.030
 9309SOL    HW128826   4.034   6.069   5.097
 9309SOL    HW228827   4.106   5.923   5.077
 9310SOL     OW28828   4.679   5.976   5.918
 9310SOL    HW128829   4.618   5.940   5.847
 9310SOL    HW228830   4.652   5.940   6.007
 9311SOL     OW28831   4.881   3.427   1.958
 9311SOL    HW128832   4.964   3.440   1.904
 9311SOL    HW228833   4.801   3.436   1.899
 9312SOL     OW28834   0.583   2.498   1.346
 9312SOL    HW128835   0.603   2.549   1.429
 9312SOL    HW228836   0.577   2.561   1.268
 9313SOL     OW28837   1.213   6.876   1.764
 9313SOL    HW128838   1.136   6.922   1.808
 9313SOL    HW228839   1.184   6.838   1.676
 9314SOL     OW28840   5.238   2.788   0.900
 9314SOL    HW128841   5.219   2.878   0.940
 9314SOL    HW228842   5.237   2.795   0.801
 9315SOL     OW28843   5.679   0.834   6.617
 9315SOL    HW128844   5.770   0.866   6.642
 9315SOL    HW228845   5.610   0.891   6.662
 9316SOL     OW28846   4.275   1.067   5.629
 9316SOL    HW128847   4.219   1.098   5.706
 9316SOL    HW228848   4.314   1.146   5.583
 9317SOL     OW28849   3.239   6.007   3.758
 9317SOL    HW128850   3.177   6.071   3.803
 9317SOL    HW228851   3.333   6.036   3.773
 9318SOL     OW28852   4.793   6.090   0.540
 9318SOL    HW128853   4.730   6.064   0.613
 9318SOL    HW228854   4.837   6.177   0.564
 9319SOL     OW28855   2.207   4.561   0.794
 9319SOL    HW128856   2.273   4.492   0.764
 9319SOL    HW228857   2.138   4.574   0.723
 9320SOL     OW28858   6.200   0.080   6.460
 9320SOL    HW128859   6.144   0.006   6.422
 9320SOL    HW228860   6.264   0.112   6.390
 9321SOL     OW28861   0.190   3.215   5.366
 9321SOL    HW128862   0.144   3.300   5.339
 9321SOL    HW228863   0.287   3.219   5.339
 9322SOL     OW28864   5.987   4.480   5.875
 9322SOL    HW128865   5.991   4.451   5.971
 9322SOL    HW228866   6.003   4.402   5.815
 9323SOL     OW28867   1.176   3.045   3.189
 9323SOL    HW128868   1.171   3.145   3.186
 9323SOL    HW228869   1.212   3.010   3.103
 9324SOL     OW28870   0.277   3.986   1.361
 9324SOL    HW128871   0.306   3.948   1.449
 9324SOL    HW228872   0.305   4.081   1.355
 9325SOL     OW28873   1.528   5.295   2.688
 9325SOL    HW128874   1.617   5.282   2.644
 9325SOL    HW228875   1.497   5.208   2.728
 9326SOL     OW28876   4.413   4.133   6.941
 9326SOL    HW128877   4.341   4.096   7.001
 9326SOL    HW228878   4.426   4.071   6.864
 9327SOL     OW28879   4.397   1.154   3.131
 9327SOL    HW128880   4.334   1.105   3.071
 9327SOL    HW228881   4.356   1.162   3.222
 9328SOL     OW28882   2.928   6.499   4.307
 9328SOL    HW128883   3.027   6.501   4.298
 9328SOL    HW228884   2.903   6.490   4.403
 9329SOL     OW28885   0.628   6.263   6.190
 9329SOL    HW128886   0.659   6.176   6.150
 9329SOL    HW228887   0.625   6.333   6.119
 9330SOL     OW28888   5.966   6.657   6.346
 9330SOL    HW128889   5.868   6.648   6.328
 9330SOL    HW228890   6.004   6.567   6.368
 9331SOL     OW28891   1.592   3.508   5.003
 9331SOL    HW128892   1.680   3.462   5.001
 9331SOL    HW228893   1.546   3.487   5.089
 9332SOL     OW28894   4.774   5.593   0.644
 9332SOL    HW128895   4.828   5.673   0.619
 9332SOL    HW228896   4.792   5.519   0.579
 9333SOL     OW28897   3.696   5.075   0.741
 9333SOL    HW128898   3.710   4.997   0.681
 9333SOL    HW228899   3.699   5.046   0.837
 9334SOL     OW28900   4.799   6.206   5.660
 9334SOL    HW128901   4.861   6.131   5.682
 9334SOL    HW228902   4.851   6.292   5.655
 9335SOL     OW28903   2.297   2.120   1.631
 9335SOL    HW128904   2.222   2.109   1.565
 9335SOL    HW228905   2.263   2.099   1.723
 9336SOL     OW28906   6.744   1.195   5.104
 9336SOL    HW128907   6.828   1.144   5.122
 9336SOL    HW228908   6.716   1.181   5.009
 9337SOL     OW28909   4.348   0.288   5.738
 9337SOL    HW128910   4.252   0.305   5.760
 9337SOL    HW228911   4.406   0.339   5.802
 9338SOL     OW28912   6.717   5.940   6.954
 9338SOL    HW128913   6.786   5.868   6.947
 9338SOL    HW228914   6.706   5.967   0.027
 9339SOL     OW28915   6.615   4.867   5.955
 9339SOL    HW128916   6.558   4.789   5.930
 9339SOL    HW228917   6.699   4.834   5.999
 9340SOL     OW28918   3.591   5.916   2.348
 9340SOL    HW128919   3.522   5.928   2.277
 9340SOL    HW228920   3.682   5.911   2.305
 9341SOL     OW28921   5.011   4.182   6.955
 9341SOL    HW128922   4.966   4.206   0.018
 9341SOL    HW228923   5.100   4.141   6.975
 9342SOL     OW28924   2.848   0.057   4.159
 9342SOL    HW128925   2.845   6.980   4.167
 9342SOL    HW228926   2.797   0.099   4.234
 9343SOL     OW28927   4.687   4.369   1.784
 9343SOL    HW128928   4.663   4.381   1.688
 9343SOL    HW228929   4.610   4.326   1.833
 9344SOL     OW28930   6.232   5.240   5.606
 9344SOL    HW128931   6.251   5.271   5.699
 9344SOL    HW228932   6.149   5.185   5.605
 9345SOL     OW28933   0.067   5.705   0.175
 9345SOL    HW128934   0.016   5.760   0.241
 9345SOL    HW228935   0.158   5.744   0.162
 9346SOL     OW28936   5.721   6.643   2.003
 9346SOL    HW128937   5.698   6.546   1.990
 9346SOL    HW228938   5.674   6.677   2.084
 9347SOL     OW28939   4.437   5.666   0.821
 9347SOL    HW128940   4.494   5.714   0.755
 9347SOL    HW228941   4.346   5.708   0.823
 9348SOL     OW28942   2.501   5.870   2.743
 9348SOL    HW128943   2.410   5.897   2.772
 9348SOL    HW228944   2.499   5.777   2.707
 9349SOL     OW28945   6.545   5.334   1.850
 9349SOL    HW128946   6.625   5.380   1.812
 9349SOL    HW228947   6.464   5.361   1.798
 9350SOL     OW28948   0.073   1.699   4.765
 9350SOL    HW128949   0.001   1.755   4.806
 9350SOL    HW228950   0.052   1.602   4.781
 9351SOL     OW28951   3.241   0.843   5.705
 9351SOL    HW128952   3.241   0.839   5.605
 9351SOL    HW228953   3.321   0.795   5.741
 9352SOL     OW28954   2.831   2.415   5.601
 9352SOL    HW128955   2.750   2.357   5.606
 9352SOL    HW228956   2.894   2.377   5.533
 9353SOL     OW28957   1.145   3.989   1.709
 9353SOL    HW128958   1.110   4.045   1.785
 9353SOL    HW228959   1.106   4.022   1.623
 9354SOL     OW28960   6.351   2.168   1.232
 9354SOL    HW128961   6.294   2.086   1.234
 9354SOL    HW228962   6.362   2.199   1.137
 9355SOL     OW28963   0.053   0.020   4.361
 9355SOL    HW128964   7.019   0.095   4.329
 9355SOL    HW228965   0.005   6.956   4.347
 9356SOL     OW28966   4.252   5.109   1.838
 9356SOL    HW128967   4.166   5.064   1.859
 9356SOL    HW228968   4.239   5.208   1.839
 9357SOL     OW28969   3.058   3.419   0.671
 9357SOL    HW128970   2.979   3.405   0.612
 9357SOL    HW228971   3.041   3.379   0.761
 9358SOL     OW28972   6.159   4.327   1.864
 9358SOL    HW128973   6.259   4.323   1.862
 9358SOL    HW228974   6.121   4.242   1.827
 9359SOL     OW28975   0.029   4.167   6.709
 9359SOL    HW128976   0.093   4.124   6.646
 9359SOL    HW228977   6.987   4.224   6.658
 9360SOL     OW28978   1.975   0.355   5.677
 9360SOL    HW128979   1.989   0.435   5.735
 9360SOL    HW228980   2.040   0.358   5.601
 9361SOL     OW28981   3.041   5.729   2.717
 9361SOL    HW128982   3.058   5.675   2.800
 9361SOL    HW228983   3.124   5.779   2.693
 9362SOL     OW28984   2.636   0.977   2.253
 9362SOL    HW128985   2.694   0.929   2.187
 9362SOL    HW228986   2.544   0.936   2.251
 9363SOL     OW28987   3.424   5.745   2.839
 9363SOL    HW128988   3.389   5.781   2.752
 9363SOL    HW228989   3.408   5.647   2.843
 9364SOL     OW28990   4.479   3.141   6.336
 9364SOL    HW128991   4.529   3.201   6.274
 9364SOL    HW228992   4.467   3.051   6.293
 9365SOL     OW28993   2.562   2.123   5.076
 9365SOL    HW128994   2.619   2.060   5.023
 9365SOL    HW228995   2.619   2.170   5.143
 9366SOL     OW28996   3.447   1.966   0.701
 9366SOL    HW128997   3.524   1.935   0.756
 9366SOL    HW228998   3.454   2.064   0.684
 9367SOL     OW28999   6.505   5.607   3.761
 9367SOL    HW129000   6.463   5.529   3.807
 9367SOL    HW229001   6.518   5.682   3.826
 9368SOL     OW29002   3.397   1.881   1.911
 9368SOL    HW129003   3.300   1.889   1.888
 9368SOL    HW229004   3.447   1.851   1.831
 9369SOL     OW29005   6.706   1.747   5.795
 9369SOL    HW129006   6.731   1.709   5.884
 9369SOL    HW229007   6.651   1.680   5.745
 9370SOL     OW29008   6.026   0.862   2.943
 9370SOL    HW129009   6.035   0.866   3.043
 9370SOL    HW229010   6.118   0.863   2.902
 9371SOL     OW29011   1.148   5.460   0.347
 9371SOL    HW129012   1.113   5.546   0.308
 9371SOL    HW229013   1.072   5.398   0.364
 9372SOL     OW29014   5.516   6.545   3.598
 9372SOL    HW129015   5.454   6.594   3.536
 9372SOL    HW229016   5.559   6.470   3.548
 9373SOL     OW29017   4.350   1.759   3.150
 9373SOL    HW129018   4.256   1.792   3.161
 9373SOL    HW229019   4.398   1.818   3.086
 9374SOL     OW29020   5.954   2.613   0.308
 9374SOL    HW129021   5.886   2.587   0.239
 9374SOL    HW229022   5.998   2.531   0.343
 9375SOL     OW29023   6.520   1.097   3.040
 9375SOL    HW129024   6.516   1.054   3.130
 9375SOL    HW229025   6.542   1.028   2.971
 9376SOL     OW29026   3.282   3.906   1.002
 9376SOL    HW129027   3.256   3.880   1.096
 9376SOL    HW229028   3.216   3.972   0.967
 9377SOL     OW29029   6.384   5.407   3.926
 9377SOL    HW129030   6.363   5.310   3.912
 9377SOL    HW229031   6.434   5.418   4.012
 9378SOL     OW29032   2.769   6.950   6.402
 9378SOL    HW129033   2.784   6.981   6.308
 9378SOL    HW229034   2.785   0.003   6.465
 9379SOL     OW29035   4.759   4.488   4.392
 9379SOL    HW129036   4.774   4.433   4.474
 9379SOL    HW229037   4.706   4.570   4.417
 9380SOL     OW29038   6.716   6.518   5.450
 9380SOL    HW129039   6.749   6.438   5.399
 9380SOL    HW229040   6.617   6.525   5.439
 9381SOL     OW29041   2.630   3.001   5.418
 9381SOL    HW129042   2.565   2.988   5.493
 9381SOL    HW229043   2.589   3.060   5.348
 9382SOL     OW29044   3.988   0.565   3.019
 9382SOL    HW129045   3.939   0.516   2.947
 9382SOL    HW229046   4.087   0.559   3.002
 9383SOL     OW29047   3.386   6.656   4.800
 9383SOL    HW129048   3.364   6.729   4.865
 9383SOL    HW229049   3.314   6.649   4.732
 9384SOL     OW29050   4.008   5.673   2.591
 9384SOL    HW129051   4.019   5.591   2.534
 9384SOL    HW229052   3.968   5.647   2.679
 9385SOL     OW29053   3.834   1.522   2.923
 9385SOL    HW129054   3.749   1.503   2.875
 9385SOL    HW229055   3.818   1.523   3.022
 9386SOL     OW29056   3.381   6.334   4.758
 9386SOL    HW129057   3.457   6.281   4.794
 9386SOL    HW229058   3.382   6.425   4.798
 9387SOL     OW29059   3.782   6.594   1.369
 9387SOL    HW129060   3.828   6.662   1.425
 9387SOL    HW229061   3.721   6.539   1.426
 9388SOL     OW29062   1.421   6.172   2.230
 9388SOL    HW129063   1.417   6.271   2.240
 9388SOL    HW229064   1.386   6.146   2.140
 9389SOL     OW29065   2.199   0.090   5.432
 9389SOL    HW129066   2.128   0.117   5.367
 9389SOL    HW229067   2.286   0.082   5.383
 9390SOL     OW29068   4.148   5.843   3.363
 9390SOL    HW129069   4.116   5.749   3.356
 9390SOL    HW229070   4.184   5.873   3.274
 9391SOL     OW29071   2.051   0.701   5.502
 9391SOL    HW129072   2.119   0.763   5.540
 9391SOL    HW229073   1.959   0.738   5.518
 9392SOL     OW29074   0.361   6.448   4.996
 9392SOL    HW129075   0.439   6.392   4.969
 9392SOL    HW229076   0.392   6.541   5.017
 9393SOL     OW29077   3.745   1.533   4.873
 9393SOL    HW129078   3.839   1.567   4.872
 9393SOL    HW229079   3.684   1.605   4.907
 9394SOL     OW29080   6.416   2.486   3.370
 9394SOL    HW129081   6.466   2.531   3.296
 9394SOL    HW229082   6.445   2.524   3.458
 9395SOL     OW29083   2.920   2.352   0.589
 9395SOL    HW129084   2.933   2.359   0.688
 9395SOL    HW229085   2.860   2.425   0.558
 9396SOL     OW29086   6.724   6.567   4.689
 9396SOL    HW129087   6.812   6.530   4.718
 9396SOL    HW229088   6.676   6.500   4.631
 9397SOL     OW29089   2.464   0.202   0.520
 9397SOL    HW129090   2.494   0.298   0.520
 9397SOL    HW229091   2.428   0.179   0.430
 9398SOL     OW29092   2.066   0.608   6.923
 9398SOL    HW129093   2.126   0.584   7.000
 9398SOL    HW229094   2.044   0.705   6.927
 9399SOL     OW29095   6.879   2.211   0.173
 9399SOL    HW129096   6.958   2.260   0.138
 9399SOL    HW229097   6.834   2.163   0.097
 9400SOL     OW29098   5.104   3.431   1.767
 9400SOL    HW129099   5.128   3.528   1.762
 9400SOL    HW229100   5.186   3.377   1.783
 9401SOL     OW29101   2.440   6.454   3.413
 9401SOL    HW129102   2.493   6.477   3.331
 9401SOL    HW229103   2.421   6.356   3.414
 9402SOL     OW29104   2.173   4.809   6.382
 9402SOL    HW129105   2.077   4.782   6.383
 9402SOL    HW229106   2.230   4.730   6.363
 9403SOL     OW29107   4.753   1.641   3.496
 9403SOL    HW129108   4.686   1.658   3.423
 9403SOL    HW229109   4.806   1.724   3.512
 9404SOL     OW29110   0.756   4.984   6.702
 9404SOL    HW129111   0.778   5.047   6.628
 9404SOL    HW229112   0.657   4.976   6.711
 9405SOL     OW29113   6.178   6.597   1.620
 9405SOL    HW129114   6.176   6.656   1.701
 9405SOL    HW229115   6.102   6.533   1.624
 9406SOL     OW29116   0.478   1.678   5.433
 9406SOL    HW129117   0.524   1.590   5.440
 9406SOL    HW229118   0.447   1.692   5.339
 9407SOL     OW29119   2.837   6.990   2.283
 9407SOL    HW129120   2.785   0.034   2.230
 9407SOL    HW229121   2.910   0.013   2.333
 9408SOL     OW29122   3.761   1.087   5.402
 9408SOL    HW129123   3.732   1.012   5.341
 9408SOL    HW229124   3.858   1.103   5.390
 9409SOL     OW29125   4.870   4.331   4.573
 9409SOL    HW129126   4.873   4.292   4.665
 9409SOL    HW229127   4.963   4.341   4.538
 9410SOL     OW29128   3.604   5.992   1.799
 9410SOL    HW129129   3.582   6.006   1.702
 9410SOL    HW229130   3.688   6.042   1.821
 9411SOL     OW29131   3.826   4.966   1.129
 9411SOL    HW129132   3.887   4.968   1.208
 9411SOL    HW229133   3.757   4.895   1.142
 9412SOL     OW29134   1.073   2.699   1.670
 9412SOL    HW129135   1.092   2.773   1.606
 9412SOL    HW229136   1.005   2.728   1.737
 9413SOL     OW29137   4.076   5.697   5.087
 9413SOL    HW129138   4.123   5.631   5.028
 9413SOL    HW229139   4.020   5.648   5.154
 9414SOL     OW29140   2.999   1.613   2.717
 9414SOL    HW129141   3.096   1.622   2.740
 9414SOL    HW229142   2.947   1.593   2.799
 9415SOL     OW29143   1.418   6.778   2.621
 9415SOL    HW129144   1.415   6.818   2.529
 9415SOL    HW229145   1.329   6.789   2.665
 9416SOL     OW29146   0.657   1.349   1.360
 9416SOL    HW129147   0.654   1.303   1.449
 9416SOL    HW229148   0.751   1.351   1.326
 9417SOL     OW29149   3.067   6.887   5.618
 9417SOL    HW129150   3.046   6.864   5.713
 9417SOL    HW229151   2.992   6.942   5.580
 9418SOL     OW29152   2.441   6.135   0.857
 9418SOL    HW129153   2.467   6.051   0.808
 9418SOL    HW229154   2.344   6.132   0.881
 9419SOL     OW29155   3.523   7.021   5.129
 9419SOL    HW129156   3.582   6.979   5.198
 9419SOL    HW229157   3.573   0.071   5.082
 9420SOL     OW29158   0.526   1.549   4.911
 9420SOL    HW129159   0.508   1.483   4.838
 9420SOL    HW229160   0.467   1.629   4.900
 9421SOL     OW29161   2.449   6.020   5.578
 9421SOL    HW129162   2.410   6.104   5.541
 9421SOL    HW229163   2.412   6.004   5.670
 9422SOL     OW29164   5.397   0.354   2.495
 9422SOL    HW129165   5.411   0.257   2.517
 9422SOL    HW229166   5.408   0.408   2.578
 9423SOL     OW29167   4.202   0.560   2.833
 9423SOL    HW129168   4.223   0.463   2.834
 9423SOL    HW229169   4.157   0.583   2.746
 9424SOL     OW29170   5.353   0.728   5.568
 9424SOL    HW129171   5.310   0.789   5.636
 9424SOL    HW229172   5.359   0.776   5.480
 9425SOL     OW29173   0.480   3.240   6.131
 9425SOL    HW129174   0.535   3.317   6.161
 9425SOL    HW229175   0.383   3.264   6.135
 9426SOL     OW29176   2.718   1.693   0.743
 9426SOL    HW129177   2.704   1.717   0.647
 9426SOL    HW229178   2.763   1.604   0.749
 9427SOL     OW29179   2.754   4.731   5.358
 9427SOL    HW129180   2.814   4.676   5.300
 9427SOL    HW229181   2.746   4.823   5.320
 9428SOL     OW29182   5.683   6.969   2.539
 9428SOL    HW129183   5.701   0.040   2.508
 9428SOL    HW229184   5.590   6.942   2.512
 9429SOL     OW29185   1.332   3.999   2.019
 9429SOL    HW129186   1.285   4.076   1.977
 9429SOL    HW229187   1.418   3.982   1.971
 9430SOL     OW29188   6.599   6.291   1.540
 9430SOL    HW129189   6.511   6.270   1.583
 9430SOL    HW229190   6.605   6.390   1.525
 9431SOL     OW29191   5.902   4.049   0.221
 9431SOL    HW129192   5.829   4.115   0.203
 9431SOL    HW229193   5.871   3.957   0.195
 9432SOL     OW29194   6.312   0.139   3.972
 9432SOL    HW129195   6.400   0.186   3.969
 9432SOL    HW229196   6.281   0.132   4.067
 9433SOL     OW29197   3.029   4.918   4.402
 9433SOL    HW129198   3.022   5.010   4.363
 9433SOL    HW229199   3.000   4.920   4.497
 9434SOL     OW29200   5.565   4.130   3.446
 9434SOL    HW129201   5.616   4.191   3.507
 9434SOL    HW229202   5.610   4.041   3.445
 9435SOL     OW29203   1.139   0.995   4.273
 9435SOL    HW129204   1.151   0.950   4.362
 9435SOL    HW229205   1.179   0.939   4.201
 9436SOL     OW29206   1.129   3.379   1.505
 9436SOL    HW129207   1.040   3.417   1.529
 9436SOL    HW229208   1.178   3.354   1.589
 9437SOL     OW29209   1.086   6.410   3.188
 9437SOL    HW129210   1.001   6.358   3.194
 9437SOL    HW229211   1.075   6.498   3.234
 9438SOL     OW29212   1.011   6.517   1.134
 9438SOL    HW129213   1.084   6.585   1.130
 9438SOL    HW229214   1.012   6.461   1.052
 9439SOL     OW29215   0.121   3.249   2.053
 9439SOL    HW129216   0.053   3.269   2.124
 9439SOL    HW229217   0.084   3.178   1.992
 9440SOL     OW29218   4.743   5.649   4.650
 9440SOL    HW129219   4.691   5.704   4.716
 9440SOL    HW229220   4.804   5.587   4.700
 9441SOL     OW29221   1.324   5.440   5.274
 9441SOL    HW129222   1.376   5.522   5.248
 9441SOL    HW229223   1.304   5.386   5.192
 9442SOL     OW29224   6.440   1.706   7.022
 9442SOL    HW129225   6.350   1.748   0.014
 9442SOL    HW229226   6.499   1.723   0.077
 9443SOL     OW29227   2.327   4.252   1.605
 9443SOL    HW129228   2.324   4.324   1.535
 9443SOL    HW229229   2.299   4.165   1.565
 9444SOL     OW29230   0.511   3.464   0.225
 9444SOL    HW129231   0.527   3.536   0.292
 9444SOL    HW229232   0.479   3.505   0.140
 9445SOL     OW29233   4.944   3.187   2.048
 9445SOL    HW129234   4.903   3.275   2.025
 9445SOL    HW229235   4.879   3.114   2.029
 9446SOL     OW29236   6.275   6.950   2.879
 9446SOL    HW129237   6.284   6.859   2.839
 9446SOL    HW229238   6.351   6.966   2.943
 9447SOL     OW29239   5.568   3.513   3.192
 9447SOL    HW129240   5.614   3.593   3.154
 9447SOL    HW229241   5.634   3.457   3.242
 9448SOL     OW29242   5.120   5.735   6.281
 9448SOL    HW129243   5.048   5.725   6.213
 9448SOL    HW229244   5.079   5.751   6.371
 9449SOL     OW29245   6.860   5.842   5.770
 9449SOL    HW129246   6.915   5.767   5.806
 9449SOL    HW229247   6.777   5.852   5.826
 9450SOL     OW29248   2.817   4.766   4.707
 9450SOL    HW129249   2.762   4.752   4.790
 9450SOL    HW229250   2.892   4.701   4.706
 9451SOL     OW29251   4.697   5.464   5.820
 9451SOL    HW129252   4.663   5.505   5.905
 9451SOL    HW229253   4.769   5.522   5.782
 9452SOL     OW29254   1.714   3.440   0.254
 9452SOL    HW129255   1.762   3.526   0.263
 9452SOL    HW229256   1.639   3.437   0.321
 9453SOL     OW29257   1.635   3.837   3.229
 9453SOL    HW129258   1.583   3.885   3.299
 9453SOL    HW229259   1.577   3.824   3.148
 9454SOL     OW29260   1.888   3.598   6.024
 9454SOL    HW129261   1.981   3.560   6.028
 9454SOL    HW229262   1.867   3.625   5.930
 9455SOL     OW29263   3.663   1.184   2.491
 9455SOL    HW129264   3.665   1.282   2.513
 9455SOL    HW229265   3.677   1.131   2.575
 9456SOL     OW29266   0.189   4.502   1.246
 9456SOL    HW129267   0.212   4.593   1.214
 9456SOL    HW229268   0.256   4.436   1.212
 9457SOL     OW29269   1.095   3.890   6.304
 9457SOL    HW129270   1.129   3.848   6.388
 9457SOL    HW229271   1.168   3.945   6.263
 9458SOL     OW29272   0.698   4.780   6.452
 9458SOL    HW129273   0.657   4.867   6.481
 9458SOL    HW229274   0.671   4.707   6.515
 9459SOL     OW29275   6.818   5.173   2.126
 9459SOL    HW129276   6.810   5.192   2.224
 9459SOL    HW229277   6.806   5.258   2.075
 9460SOL     OW29278   0.128   2.111   5.499
 9460SOL    HW129279   0.118   2.012   5.501
 9460SOL    HW229280   0.045   2.152   5.462
 9461SOL     OW29281   6.512   1.453   3.329
 9461SOL    HW129282   6.581   1.484   3.264
 9461SOL    HW229283   6.423   1.450   3.285
 9462SOL     OW29284   1.738   3.133   3.252
 9462SOL    HW129285   1.662   3.142   3.316
 9462SOL    HW229286   1.792   3.053   3.276
 9463SOL     OW29287   0.073   0.588   0.784
 9463SOL    HW129288   0.168   0.613   0.763
 9463SOL    HW229289   0.072   0.498   0.828
 9464SOL     OW29290   5.692   6.785   6.571
 9464SOL    HW129291   5.686   6.760   6.474
 9464SOL    HW229292   5.700   6.703   6.626
 9465SOL     OW29293   6.809   0.320   3.249
 9465SOL    HW129294   6.763   0.406   3.228
 9465SOL    HW229295   6.872   0.333   3.326
 9466SOL     OW29296   3.908   3.737   5.139
 9466SOL    HW129297   3.867   3.794   5.210
 9466SOL    HW229298   3.907   3.787   5.052
 9467SOL     OW29299   1.726   2.920   1.253
 9467SOL    HW129300   1.676   2.871   1.324
 9467SOL    HW229301   1.661   2.978   1.202
 9468SOL     OW29302   5.802   2.732   6.220
 9468SOL    HW129303   5.777   2.780   6.304
 9468SOL    HW229304   5.867   2.660   6.242
 9469SOL     OW29305   5.975   5.582   1.945
 9469SOL    HW129306   5.976   5.662   1.884
 9469SOL    HW229307   5.995   5.611   2.039
 9470SOL     OW29308   5.099   2.993   6.517
 9470SOL    HW129309   5.050   2.972   6.601
 9470SOL    HW229310   5.034   3.008   6.442
 9471SOL     OW29311   7.015   2.511   5.505
 9471SOL    HW129312   7.019   2.599   5.552
 9471SOL    HW229313   0.084   2.471   5.502
 9472SOL     OW29314   6.527   3.688   4.192
 9472SOL    HW129315   6.527   3.709   4.290
 9472SOL    HW229316   6.620   3.667   4.162
 9473SOL     OW29317   3.654   6.612   5.616
 9473SOL    HW129318   3.633   6.527   5.665
 9473SOL    HW229319   3.598   6.618   5.534
 9474SOL     OW29320   5.948   4.357   1.495
 9474SOL    HW129321   6.032   4.406   1.520
 9474SOL    HW229322   5.884   4.421   1.452
 9475SOL     OW29323   3.326   3.456   0.682
 9475SOL    HW129324   3.352   3.507   0.765
 9475SOL    HW229325   3.227   3.463   0.669
 9476SOL     OW29326   2.871   3.470   4.431
 9476SOL    HW129327   2.942   3.541   4.427
 9476SOL    HW229328   2.833   3.466   4.523
 9477SOL     OW29329   0.731   3.170   1.616
 9477SOL    HW129330   0.642   3.214   1.629
 9477SOL    HW229331   0.804   3.233   1.644
 9478SOL     OW29332   5.721   4.287   6.217
 9478SOL    HW129333   5.696   4.205   6.166
 9478SOL    HW229334   5.658   4.361   6.194
 9479SOL     OW29335   5.875   6.350   6.466
 9479SOL    HW129336   5.965   6.387   6.442
 9479SOL    HW229337   5.871   6.254   6.441
 9480SOL     OW29338   4.364   4.227   6.280
 9480SOL    HW129339   4.449   4.250   6.233
 9480SOL    HW229340   4.300   4.186   6.214
 9481SOL     OW29341   5.990   3.659   1.416
 9481SOL    HW129342   6.025   3.751   1.395
 9481SOL    HW229343   6.041   3.591   1.364
 9482SOL     OW29344   6.000   0.955   3.210
 9482SOL    HW129345   6.072   0.911   3.263
 9482SOL    HW229346   5.999   1.053   3.229
 9483SOL     OW29347   2.060   1.574   1.031
 9483SOL    HW129348   2.051   1.584   0.932
 9483SOL    HW229349   1.969   1.562   1.071
 9484SOL     OW29350   5.676   1.797   3.594
 9484SOL    HW129351   5.638   1.714   3.634
 9484SOL    HW229352   5.625   1.821   3.511
 9485SOL     OW29353   0.958   0.054   1.477
 9485SOL    HW129354   1.051   0.027   1.451
 9485SOL    HW229355   0.901   0.057   1.395
 9486SOL     OW29356   2.255   5.109   1.141
 9486SOL    HW129357   2.245   5.125   1.239
 9486SOL    HW229358   2.205   5.027   1.115
 9487SOL     OW29359   2.984   3.913   3.610
 9487SOL    HW129360   2.942   3.979   3.673
 9487SOL    HW229361   2.982   3.822   3.650
 9488SOL     OW29362   2.626   6.368   1.475
 9488SOL    HW129363   2.674   6.364   1.563
 9488SOL    HW229364   2.581   6.281   1.458
 9489SOL     OW29365   3.368   4.162   1.134
 9489SOL    HW129366   3.408   4.170   1.225
 9489SOL    HW229367   3.348   4.066   1.114
 9490SOL     OW29368   5.680   0.159   0.614
 9490SOL    HW129369   5.772   0.147   0.575
 9490SOL    HW229370   5.662   0.257   0.625
 9491SOL     OW29371   6.624   4.725   4.895
 9491SOL    HW129372   6.563   4.782   4.840
 9491SOL    HW229373   6.577   4.697   4.979
 9492SOL     OW29374   3.286   3.431   2.509
 9492SOL    HW129375   3.271   3.509   2.449
 9492SOL    HW229376   3.383   3.406   2.506
 9493SOL     OW29377   4.769   5.305   3.761
 9493SOL    HW129378   4.806   5.391   3.793
 9493SOL    HW229379   4.733   5.317   3.668
 9494SOL     OW29380   4.799   3.974   0.835
 9494SOL    HW129381   4.769   4.007   0.745
 9494SOL    HW229382   4.881   3.918   0.824
 9495SOL     OW29383   6.255   1.916   4.140
 9495SOL    HW129384   6.304   1.849   4.085
 9495SOL    HW229385   6.306   1.934   4.224
 9496SOL     OW29386   5.119   4.878   6.957
 9496SOL    HW129387   5.059   4.802   6.982
 9496SOL    HW229388   5.112   4.895   6.859
 9497SOL     OW29389   4.372   3.984   0.613
 9497SOL    HW129390   4.364   4.055   0.543
 9497SOL    HW229391   4.355   3.894   0.571
 9498SOL     OW29392   5.453   0.542   6.114
 9498SOL    HW129393   5.531   0.490   6.150
 9498SOL    HW229394   5.434   0.511   6.020
 9499SOL     OW29395   2.134   3.632   5.491
 9499SOL    HW129396   2.036   3.612   5.495
 9499SOL    HW229397   2.159   3.663   5.400
 9500SOL     OW29398   3.223   6.493   1.818
 9500SOL    HW129399   3.223   6.587   1.785
 9500SOL    HW229400   3.150   6.482   1.885
 9501SOL     OW29401   3.181   1.573   4.751
 9501SOL    HW129402   3.156   1.663   4.716
 9501SOL    HW229403   3.281   1.566   4.759
 9502SOL     OW29404   0.260   2.260   5.037
 9502SOL    HW129405   0.187   2.197   5.063
 9502SOL    HW229406   0.298   2.233   4.949
 9503SOL     OW29407   0.550   0.954   1.246
 9503SOL    HW129408   0.647   0.954   1.268
 9503SOL    HW229409   0.497   0.952   1.331
 9504SOL     OW29410   6.691   2.148   1.033
 9504SOL    HW129411   6.748   2.204   1.094
 9504SOL    HW229412   6.723   2.158   0.939
 9505SOL     OW29413   5.876   3.746   3.437
 9505SOL    HW129414   5.966   3.736   3.480
 9505SOL    HW229415   5.814   3.678   3.475
 9506SOL     OW29416   0.542   2.960   6.782
 9506SOL    HW129417   0.481   3.031   6.748
 9506SOL    HW229418   0.529   2.949   6.880
 9507SOL     OW29419   2.233   1.210   4.423
 9507SOL    HW129420   2.262   1.302   4.396
 9507SOL    HW229421   2.280   1.183   4.507
 9508SOL     OW29422   6.015   2.407   0.494
 9508SOL    HW129423   6.100   2.363   0.522
 9508SOL    HW229424   5.949   2.404   0.570
 9509SOL     OW29425   1.382   6.393   5.340
 9509SOL    HW129426   1.312   6.393   5.268
 9509SOL    HW229427   1.398   6.299   5.370
 9510SOL     OW29428   0.357   3.855   1.673
 9510SOL    HW129429   0.380   3.761   1.695
 9510SOL    HW229430   0.263   3.874   1.703
 9511SOL     OW29431   0.720   2.225   0.048
 9511SOL    HW129432   0.682   2.150   7.017
 9511SOL    HW229433   0.703   2.208   0.145
 9512SOL     OW29434   5.778   2.117   3.627
 9512SOL    HW129435   5.806   2.207   3.661
 9512SOL    HW229436   5.849   2.050   3.649
 9513SOL     OW29437   1.514   3.381   4.656
 9513SOL    HW129438   1.577   3.306   4.633
 9513SOL    HW229439   1.566   3.465   4.668
 9514SOL     OW29440   1.620   4.068   0.478
 9514SOL    HW129441   1.679   4.042   0.554
 9514SOL    HW229442   1.536   4.013   0.479
 9515SOL     OW29443   1.375   5.580   7.018
 9515SOL    HW129444   1.381   5.525   0.078
 9515SOL    HW229445   1.446   5.551   6.953
 9516SOL     OW29446   4.840   3.337   4.596
 9516SOL    HW129447   4.745   3.366   4.599
 9516SOL    HW229448   4.871   3.332   4.501
 9517SOL     OW29449   1.399   4.932   0.919
 9517SOL    HW129450   1.416   4.994   0.841
 9517SOL    HW229451   1.482   4.881   0.940
 9518SOL     OW29452   1.794   2.494   6.692
 9518SOL    HW129453   1.872   2.514   6.633
 9518SOL    HW229454   1.751   2.408   6.663
 9519SOL     OW29455   3.260   3.389   2.944
 9519SOL    HW129456   3.199   3.408   2.867
 9519SOL    HW229457   3.354   3.382   2.911
 9520SOL     OW29458   6.469   1.290   4.199
 9520SOL    HW129459   6.429   1.279   4.290
 9520SOL    HW229460   6.446   1.380   4.163
 9521SOL     OW29461   3.581   4.705   1.089
 9521SOL    HW129462   3.576   4.618   1.040
 9521SOL    HW229463   3.595   4.688   1.186
 9522SOL     OW29464   4.319   5.594   2.564
 9522SOL    HW129465   4.256   5.534   2.514
 9522SOL    HW229466   4.412   5.579   2.531
 9523SOL     OW29467   2.601   5.621   4.987
 9523SOL    HW129468   2.696   5.593   4.995
 9523SOL    HW229469   2.580   5.690   5.056
 9524SOL     OW29470   1.933   3.329   1.203
 9524SOL    HW129471   1.864   3.321   1.131
 9524SOL    HW229472   1.932   3.247   1.260
 9525SOL     OW29473   1.827   1.509   6.036
 9525SOL    HW129474   1.912   1.471   5.998
 9525SOL    HW229475   1.823   1.490   6.134
 9526SOL     OW29476   5.565   5.140   0.741
 9526SOL    HW129477   5.642   5.195   0.707
 9526SOL    HW229478   5.593   5.045   0.753
 9527SOL     OW29479   2.653   0.092   4.361
 9527SOL    HW129480   2.678   0.115   4.455
 9527SOL    HW229481   2.593   0.012   4.361
 9528SOL     OW29482   6.305   1.736   1.229
 9528SOL    HW129483   6.252   1.677   1.289
 9528SOL    HW229484   6.363   1.681   1.170
 9529SOL     OW29485   5.562   3.823   0.852
 9529SOL    HW129486   5.649   3.856   0.890
 9529SOL    HW229487   5.521   3.895   0.795
 9530SOL     OW29488   1.070   4.540   4.125
 9530SOL    HW129489   1.148   4.527   4.185
 9530SOL    HW229490   0.985   4.527   4.177
 9531SOL     OW29491   4.281   4.926   3.294
 9531SOL    HW129492   4.290   4.827   3.303
 9531SOL    HW229493   4.295   4.952   3.198
 9532SOL     OW29494   6.340   4.884   1.484
 9532SOL    HW129495   6.243   4.872   1.462
 9532SOL    HW229496   6.360   4.982   1.494
 9533SOL     OW29497   0.512   5.406   3.667
 9533SOL    HW129498   0.462   5.328   3.705
 9533SOL    HW229499   0.602   5.376   3.636
 9534SOL     OW29500   5.944   4.395   4.996
 9534SOL    HW129501   5.892   4.325   5.047
 9534SOL    HW229502   6.012   4.436   5.057
 9535SOL     OW29503   2.000   1.273   6.265
 9535SOL    HW129504   2.079   1.334   6.267
 9535SOL    HW229505   2.014   1.199   6.331
 9536SOL     OW29506   3.733   3.353   5.295
 9536SOL    HW129507   3.638   3.384   5.288
 9536SOL    HW229508   3.742   3.293   5.374
 9537SOL     OW29509   2.732   1.828   4.396
 9537SOL    HW129510   2.756   1.876   4.311
 9537SOL    HW229511   2.722   1.894   4.470
 9538SOL     OW29512   4.597   1.075   4.103
 9538SOL    HW129513   4.669   1.098   4.038
 9538SOL    HW229514   4.627   1.000   4.162
 9539SOL     OW29515   2.983   3.661   4.035
 9539SOL    HW129516   2.970   3.682   3.938
 9539SOL    HW229517   3.070   3.700   4.066
 9540SOL     OW29518   4.912   5.738   4.116
 9540SOL    HW129519   4.991   5.787   4.079
 9540SOL    HW229520   4.828   5.777   4.077
 9541SOL     OW29521   1.410   0.721   5.764
 9541SOL    HW129522   1.421   0.623   5.745
 9541SOL    HW229523   1.456   0.743   5.850
 9542SOL     OW29524   5.375   4.964   4.538
 9542SOL    HW129525   5.295   5.023   4.537
 9542SOL    HW229526   5.438   4.994   4.609
 9543SOL     OW29527   3.293   0.360   5.947
 9543SOL    HW129528   3.223   0.310   5.896
 9543SOL    HW229529   3.280   0.459   5.933
 9544SOL     OW29530   5.330   3.607   3.924
 9544SOL    HW129531   5.247   3.594   3.978
 9544SOL    HW229532   5.305   3.626   3.829
 9545SOL     OW29533   6.809   5.306   2.380
 9545SOL    HW129534   6.887   5.364   2.405
 9545SOL    HW229535   6.744   5.304   2.455
 9546SOL     OW29536   3.716   1.654   5.590
 9546SOL    HW129537   3.777   1.732   5.603
 9546SOL    HW229538   3.764   1.583   5.536
 9547SOL     OW29539   2.570   5.623   4.045
 9547SOL    HW129540   2.626   5.699   4.012
 9547SOL    HW229541   2.504   5.598   3.975
 9548SOL     OW29542   0.593   5.481   4.864
 9548SOL    HW129543   0.586   5.385   4.839
 9548SOL    HW229544   0.688   5.503   4.886
 9549SOL     OW29545   2.953   0.688   2.271
 9549SOL    HW129546   3.041   0.730   2.249
 9549SOL    HW229547   2.944   0.602   2.221
 9550SOL     OW29548   6.401   2.143   0.723
 9550SOL    HW129549   6.427   2.070   0.787
 9550SOL    HW229550   6.483   2.188   0.690
 9551SOL     OW29551   6.228   3.518   5.849
 9551SOL    HW129552   6.322   3.498   5.876
 9551SOL    HW229553   6.195   3.445   5.788
 9552SOL     OW29554   2.410   6.704   6.298
 9552SOL    HW129555   2.466   6.657   6.230
 9552SOL    HW229556   2.391   6.797   6.266
 9553SOL     OW29557   5.437   2.674   6.937
 9553SOL    HW129558   5.434   2.759   6.884
 9553SOL    HW229559   5.475   2.601   6.880
 9554SOL     OW29560   1.685   6.826   4.074
 9554SOL    HW129561   1.684   6.889   3.997
 9554SOL    HW229562   1.598   6.833   4.124
 9555SOL     OW29563   0.299   1.322   3.261
 9555SOL    HW129564   0.359   1.390   3.217
 9555SOL    HW229565   0.204   1.342   3.238
 9556SOL     OW29566   1.926   4.098   1.098
 9556SOL    HW129567   1.843   4.068   1.146
 9556SOL    HW229568   2.000   4.033   1.116
 9557SOL     OW29569   5.377   6.972   1.564
 9557SOL    HW129570   5.394   6.934   1.472
 9557SOL    HW229571   5.388   0.048   1.562
 9558SOL     OW29572   5.530   6.334   5.605
 9558SOL    HW129573   5.613   6.279   5.596
 9558SOL    HW229574   5.469   6.314   5.528
 9559SOL     OW29575   1.272   3.754   0.048
 9559SOL    HW129576   1.339   3.704   0.102
 9559SOL    HW229577   1.223   3.690   7.011
 9560SOL     OW29578   2.635   0.799   2.543
 9560SOL    HW129579   2.565   0.846   2.489
 9560SOL    HW229580   2.724   0.840   2.524
 9561SOL     OW29581   0.293   0.504   1.361
 9561SOL    HW129582   0.243   0.569   1.419
 9561SOL    HW229583   0.230   0.464   1.294
 9562SOL     OW29584   2.561   6.235   4.402
 9562SOL    HW129585   2.516   6.148   4.382
 9562SOL    HW229586   2.507   6.310   4.363
 9563SOL     OW29587   0.273   6.636   6.941
 9563SOL    HW129588   0.177   6.612   6.955
 9563SOL    HW229589   0.280   6.723   6.892
 9564SOL     OW29590   2.338   1.143   1.158
 9564SOL    HW129591   2.262   1.157   1.095
 9564SOL    HW229592   2.376   1.052   1.146
 9565SOL     OW29593   3.355   1.059   5.319
 9565SOL    HW129594   3.267   1.011   5.320
 9565SOL    HW229595   3.419   1.011   5.259
 9566SOL     OW29596   2.383   5.702   0.190
 9566SOL    HW129597   2.394   5.801   0.187
 9566SOL    HW229598   2.305   5.676   0.134
 9567SOL     OW29599   5.766   4.319   0.244
 9567SOL    HW129600   5.693   4.272   0.293
 9567SOL    HW229601   5.769   4.286   0.149
 9568SOL     OW29602   4.151   1.401   6.943
 9568SOL    HW129603   4.105   1.325   6.989
 9568SOL    HW229604   4.122   1.404   6.847
 9569SOL     OW29605   0.144   1.259   2.104
 9569SOL    HW129606   0.202   1.340   2.096
 9569SOL    HW229607   0.051   1.281   2.075
 9570SOL     OW29608   0.143   2.637   0.930
 9570SOL    HW129609   0.070   2.631   0.998
 9570SOL    HW229610   0.220   2.579   0.957
 9571SOL     OW29611   2.803   3.222   5.720
 9571SOL    HW129612   2.843   3.165   5.649
 9571SOL    HW229613   2.819   3.319   5.698
 9572SOL     OW29614   1.639   5.037   2.513
 9572SOL    HW129615   1.587   5.081   2.440
 9572SOL    HW229616   1.601   4.946   2.530
 9573SOL     OW29617   0.055   1.680   6.522
 9573SOL    HW129618   0.021   1.589   6.545
 9573SOL    HW229619   0.029   1.744   6.595
 9574SOL     OW29620   3.403   2.836   2.317
 9574SOL    HW129621   3.367   2.743   2.316
 9574SOL    HW229622   3.446   2.855   2.405
 9575SOL     OW29623   6.892   1.345   2.124
 9575SOL    HW129624   6.821   1.295   2.074
 9575SOL    HW229625   6.859   1.436   2.147
 9576SOL     OW29626   1.718   2.269   0.578
 9576SOL    HW129627   1.686   2.267   0.673
 9576SOL    HW229628   1.817   2.259   0.576
 9577SOL     OW29629   0.534   6.654   5.272
 9577SOL    HW129630   0.551   6.735   5.216
 9577SOL    HW229631   0.527   6.681   5.368
 9578SOL     OW29632   1.086   2.760   2.733
 9578SOL    HW129633   1.080   2.846   2.783
 9578SOL    HW229634   0.999   2.741   2.687
 9579SOL     OW29635   0.352   6.204   3.191
 9579SOL    HW129636   0.331   6.227   3.286
 9579SOL    HW229637   0.271   6.169   3.146
 9580SOL     OW29638   4.834   3.475   1.020
 9580SOL    HW129639   4.892   3.525   1.084
 9580SOL    HW229640   4.766   3.422   1.071
 9581SOL     OW29641   0.443   0.250   6.346
 9581SOL    HW129642   0.497   0.274   6.427
 9581SOL    HW229643   0.496   0.190   6.287
 9582SOL     OW29644   3.863   5.870   4.599
 9582SOL    HW129645   3.846   5.772   4.606
 9582SOL    HW229646   3.926   5.898   4.672
 9583SOL     OW29647   3.262   3.873   1.266
 9583SOL    HW129648   3.199   3.803   1.298
 9583SOL    HW229649   3.294   3.928   1.344
 9584SOL     OW29650   0.565   4.826   5.903
 9584SOL    HW129651   0.505   4.769   5.959
 9584SOL    HW229652   0.644   4.772   5.873
 9585SOL     OW29653   5.369   6.622   3.210
 9585SOL    HW129654   5.350   6.648   3.305
 9585SOL    HW229655   5.464   6.593   3.202
 9586SOL     OW29656   4.585   5.525   2.495
 9586SOL    HW129657   4.668   5.479   2.464
 9586SOL    HW229658   4.577   5.613   2.449
 9587SOL     OW29659   0.730   6.832   1.342
 9587SOL    HW129660   0.788   6.913   1.351
 9587SOL    HW229661   0.672   6.841   1.261
 9588SOL     OW29662   6.154   6.700   0.503
 9588SOL    HW129663   6.069   6.648   0.505
 9588SOL    HW229664   6.133   6.797   0.493
 9589SOL     OW29665   1.912   4.481   0.289
 9589SOL    HW129666   1.870   4.418   0.354
 9589SOL    HW229667   1.864   4.569   0.291
 9590SOL     OW29668   6.217   2.621   1.866
 9590SOL    HW129669   6.193   2.572   1.783
 9590SOL    HW229670   6.133   2.646   1.915
 9591SOL     OW29671   3.241   5.478   5.802
 9591SOL    HW129672   3.151   5.479   5.846
 9591SOL    HW229673   3.302   5.416   5.852
 9592SOL     OW29674   3.197   4.542   0.539
 9592SOL    HW129675   3.227   4.597   0.461
 9592SOL    HW229676   3.196   4.600   0.621
 9593SOL     OW29677   0.991   1.331   6.314
 9593SOL    HW129678   0.963   1.302   6.222
 9593SOL    HW229679   0.975   1.429   6.324
 9594SOL     OW29680   2.448   5.444   4.215
 9594SOL    HW129681   2.475   5.424   4.309
 9594SOL    HW229682   2.529   5.462   4.160
 9595SOL     OW29683   0.550   2.607   4.034
 9595SOL    HW129684   0.588   2.695   4.004
 9595SOL    HW229685   0.488   2.622   4.111
 9596SOL     OW29686   0.665   5.185   6.963
 9596SOL    HW129687   0.646   5.233   6.877
 9596SOL    HW229688   0.717   5.102   6.944
 9597SOL     OW29689   6.807   3.985   1.581
 9597SOL    HW129690   6.831   3.992   1.677
 9597SOL    HW229691   6.753   3.902   1.566
 9598SOL     OW29692   2.059   4.384   3.329
 9598SOL    HW129693   2.045   4.474   3.287
 9598SOL    HW229694   2.083   4.318   3.259
 9599SOL     OW29695   2.760   0.309   3.847
 9599SOL    HW129696   2.837   0.252   3.874
 9599SOL    HW229697   2.748   0.383   3.912
 9600SOL     OW29698   3.147   0.427   6.937
 9600SOL    HW129699   3.220   0.424   6.869
 9600SOL    HW229700   3.100   0.339   6.940
 9601SOL     OW29701   5.482   4.702   0.438
 9601SOL    HW129702   5.465   4.685   0.341
 9601SOL    HW229703   5.430   4.636   0.492
 9602SOL     OW29704   5.647   4.078   6.536
 9602SOL    HW129705   5.694   4.163   6.560
 9602SOL    HW229706   5.608   4.086   6.444
 9603SOL     OW29707   4.270   1.127   6.257
 9603SOL    HW129708   4.311   1.084   6.337
 9603SOL    HW229709   4.240   1.220   6.281
 9604SOL     OW29710   4.986   0.078   0.896
 9604SOL    HW129711   5.032   0.154   0.849
 9604SOL    HW229712   5.045   0.042   0.968
 9605SOL     OW29713   1.183   6.100   3.002
 9605SOL    HW129714   1.270   6.089   2.954
 9605SOL    HW229715   1.176   6.193   3.038
 9606SOL     OW29716   1.798   6.445   6.770
 9606SOL    HW129717   1.838   6.407   6.854
 9606SOL    HW229718   1.867   6.449   6.699
 9607SOL     OW29719   2.538   1.262   0.026
 9607SOL    HW129720   2.604   1.294   6.980
 9607SOL    HW229721   2.479   1.193   7.009
 9608SOL     OW29722   0.210   4.456   1.608
 9608SOL    HW129723   0.178   4.550   1.595
 9608SOL    HW229724   0.303   4.458   1.645
 9609SOL     OW29725   3.273   2.717   0.293
 9609SOL    HW129726   3.291   2.637   0.237
 9609SOL    HW229727   3.225   2.690   0.377
 9610SOL     OW29728   1.823   5.213   3.497
 9610SOL    HW129729   1.808   5.232   3.400
 9610SOL    HW229730   1.765   5.272   3.552
 9611SOL     OW29731   1.321   6.259   0.436
 9611SOL    HW129732   1.403   6.288   0.485
 9611SOL    HW229733   1.343   6.246   0.339
 9612SOL     OW29734   0.053   3.286   1.671
 9612SOL    HW129735   6.985   3.302   1.633
 9612SOL    HW229736   0.111   3.366   1.655
 9613SOL     OW29737   4.881   0.021   3.400
 9613SOL    HW129738   4.861   0.109   3.442
 9613SOL    HW229739   4.854   0.022   3.304
 9614SOL     OW29740   4.066   2.217   1.968
 9614SOL    HW129741   4.118   2.249   2.047
 9614SOL    HW229742   4.070   2.118   1.963
 9615SOL     OW29743   2.544   0.968   0.832
 9615SOL    HW129744   2.614   1.037   0.852
 9615SOL    HW229745   2.587   0.879   0.818
 9616SOL     OW29746   3.788   3.978   1.485
 9616SOL    HW129747   3.756   3.884   1.491
 9616SOL    HW229748   3.775   4.024   1.573
 9617SOL     OW29749   1.688   3.070   2.950
 9617SOL    HW129750   1.723   3.089   3.042
 9617SOL    HW229751   1.607   3.012   2.956
 9618SOL     OW29752   2.969   6.654   0.541
 9618SOL    HW129753   3.029   6.711   0.484
 9618SOL    HW229754   2.891   6.624   0.488
 9619SOL     OW29755   1.605   0.201   6.463
 9619SOL    HW129756   1.556   0.182   6.378
 9619SOL    HW229757   1.639   0.295   6.462
 9620SOL     OW29758   4.401   0.591   5.891
 9620SOL    HW129759   4.360   0.680   5.910
 9620SOL    HW229760   4.332   0.519   5.904
 9621SOL     OW29761   1.438   2.492   2.223
 9621SOL    HW129762   1.474   2.580   2.253
 9621SOL    HW229763   1.404   2.441   2.302
 9622SOL     OW29764   6.882   1.379   0.290
 9622SOL    HW129765   6.891   1.414   0.197
 9622SOL    HW229766   6.934   1.436   0.353
 9623SOL     OW29767   2.933   3.457   5.665
 9623SOL    HW129768   3.008   3.420   5.610
 9623SOL    HW229769   2.887   3.530   5.615
 9624SOL     OW29770   6.633   4.024   3.025
 9624SOL    HW129771   6.559   3.966   2.990
 9624SOL    HW229772   6.660   3.992   3.116
 9625SOL     OW29773   4.770   5.534   6.824
 9625SOL    HW129774   4.696   5.561   6.886
 9625SOL    HW229775   4.857   5.565   6.862
 9626SOL     OW29776   4.402   5.450   0.535
 9626SOL    HW129777   4.358   5.531   0.572
 9626SOL    HW229778   4.469   5.477   0.466
 9627SOL     OW29779   6.951   5.897   4.870
 9627SOL    HW129780   6.974   5.908   4.966
 9627SOL    HW229781   0.012   5.892   4.815
 9628SOL     OW29782   4.714   4.643   0.419
 9628SOL    HW129783   4.718   4.696   0.504
 9628SOL    HW229784   4.772   4.687   0.350
 9629SOL     OW29785   0.799   0.009   1.708
 9629SOL    HW129786   0.871   0.040   1.646
 9629SOL    HW229787   0.723   0.074   1.704
 9630SOL     OW29788   6.356   6.912   4.540
 9630SOL    HW129789   6.303   6.978   4.487
 9630SOL    HW229790   6.293   6.849   4.585
 9631SOL     OW29791   6.992   6.617   6.944
 9631SOL    HW129792   6.944   6.700   6.915
 9631SOL    HW229793   6.997   6.553   6.868
 9632SOL     OW29794   1.483   0.340   2.777
 9632SOL    HW129795   1.413   0.269   2.776
 9632SOL    HW229796   1.487   0.385   2.687
 9633SOL     OW29797   4.851   5.055   5.785
 9633SOL    HW129798   4.894   5.105   5.709
 9633SOL    HW229799   4.855   4.957   5.767
 9634SOL     OW29800   1.225   5.705   4.141
 9634SOL    HW129801   1.318   5.668   4.143
 9634SOL    HW229802   1.229   5.802   4.120
 9635SOL     OW29803   1.734   5.773   4.890
 9635SOL    HW129804   1.792   5.710   4.838
 9635SOL    HW229805   1.726   5.741   4.985
 9636SOL     OW29806   3.939   2.345   5.803
 9636SOL    HW129807   3.878   2.294   5.741
 9636SOL    HW229808   3.917   2.442   5.800
 9637SOL     OW29809   2.552   1.736   6.610
 9637SOL    HW129810   2.561   1.696   6.519
 9637SOL    HW229811   2.564   1.665   6.679
 9638SOL     OW29812   6.733   3.807   6.499
 9638SOL    HW129813   6.725   3.713   6.532
 9638SOL    HW229814   6.768   3.807   6.405
 9639SOL     OW29815   4.029   1.314   2.519
 9639SOL    HW129816   4.120   1.283   2.492
 9639SOL    HW229817   3.959   1.262   2.470
 9640SOL     OW29818   2.195   2.515   3.869
 9640SOL    HW129819   2.133   2.587   3.900
 9640SOL    HW229820   2.288   2.551   3.865
 9641SOL     OW29821   4.137   5.828   1.138
 9641SOL    HW129822   4.188   5.827   1.224
 9641SOL    HW229823   4.066   5.898   1.142
 9642SOL     OW29824   3.361   6.859   4.977
 9642SOL    HW129825   3.294   6.908   4.921
 9642SOL    HW229826   3.415   6.925   5.029
 9643SOL     OW29827   5.460   5.315   3.888
 9643SOL    HW129828   5.486   5.219   3.889
 9643SOL    HW229829   5.537   5.371   3.919
 9644SOL     OW29830   0.858   4.229   6.145
 9644SOL    HW129831   0.872   4.218   6.244
 9644SOL    HW229832   0.904   4.155   6.096
 9645SOL     OW29833   2.527   5.560   4.723
 9645SOL    HW129834   2.433   5.582   4.698
 9645SOL    HW229835   2.556   5.617   4.800
 9646SOL     OW29836   2.660   4.763   1.864
 9646SOL    HW129837   2.615   4.686   1.820
 9646SOL    HW229838   2.717   4.730   1.939
 9647SOL     OW29839   6.458   5.133   1.587
 9647SOL    HW129840   6.488   5.197   1.515
 9647SOL    HW229841   6.524   5.059   1.595
 9648SOL     OW29842   4.584   1.395   0.640
 9648SOL    HW129843   4.572   1.321   0.574
 9648SOL    HW229844   4.494   1.429   0.668
 9649SOL     OW29845   2.765   6.578   0.385
 9649SOL    HW129846   2.786   6.619   0.296
 9649SOL    HW229847   2.666   6.563   0.392
 9650SOL     OW29848   6.424   4.931   2.066
 9650SOL    HW129849   6.503   4.958   2.011
 9650SOL    HW229850   6.423   4.981   2.152
 9651SOL     OW29851   0.144   1.336   5.855
 9651SOL    HW129852   0.073   1.269   5.877
 9651SOL    HW229853   0.144   1.408   5.924
 9652SOL     OW29854   2.000   4.527   1.114
 9652SOL    HW129855   2.022   4.432   1.093
 9652SOL    HW229856   2.081   4.584   1.101
 9653SOL     OW29857   4.110   4.845   4.796
 9653SOL    HW129858   4.070   4.857   4.705
 9653SOL    HW229859   4.177   4.771   4.794
 9654SOL     OW29860   3.407   2.934   1.355
 9654SOL    HW129861   3.442   2.869   1.423
 9654SOL    HW229862   3.409   3.026   1.393
 9655SOL     OW29863   0.124   0.930   0.188
 9655SOL    HW129864   0.192   0.949   0.116
 9655SOL    HW229865   0.037   0.905   0.145
 9656SOL     OW29866   2.774   0.835   1.686
 9656SOL    HW129867   2.798   0.836   1.589
 9656SOL    HW229868   2.674   0.833   1.696
 9657SOL     OW29869   5.233   0.398   3.855
 9657SOL    HW129870   5.236   0.395   3.755
 9657SOL    HW229871   5.140   0.418   3.885
 9658SOL     OW29872   6.908   2.293   3.025
 9658SOL    HW129873   6.883   2.210   3.076
 9658SOL    HW229874   6.836   2.313   2.958
 9659SOL     OW29875   6.501   4.278   0.395
 9659SOL    HW129876   6.483   4.187   0.360
 9659SOL    HW229877   6.441   4.344   0.351
 9660SOL     OW29878   0.374   5.696   0.855
 9660SOL    HW129879   0.440   5.751   0.906
 9660SOL    HW229880   0.370   5.726   0.760
 9661SOL     OW29881   4.620   5.572   1.401
 9661SOL    HW129882   4.670   5.537   1.322
 9661SOL    HW229883   4.597   5.668   1.386
 9662SOL     OW29884   6.161   2.788   4.857
 9662SOL    HW129885   6.223   2.834   4.921
 9662SOL    HW229886   6.143   2.695   4.889
 9663SOL     OW29887   1.477   5.628   4.072
 9663SOL    HW129888   1.571   5.649   4.043
 9663SOL    HW229889   1.440   5.555   4.014
 9664SOL     OW29890   5.412   6.933   2.884
 9664SOL    HW129891   5.435   0.002   2.918
 9664SOL    HW229892   5.351   6.888   2.949
 9665SOL     OW29893   5.762   5.036   5.723
 9665SOL    HW129894   5.836   4.979   5.760
 9665SOL    HW229895   5.703   4.980   5.665
 9666SOL     OW29896   5.340   3.934   1.842
 9666SOL    HW129897   5.318   4.030   1.861
 9666SOL    HW229898   5.400   3.929   1.762
 9667SOL     OW29899   3.856   2.987   4.464
 9667SOL    HW129900   3.921   3.012   4.393
 9667SOL    HW229901   3.790   2.922   4.428
 9668SOL     OW29902   6.969   1.814   6.025
 9668SOL    HW129903   6.876   1.805   5.989
 9668SOL    HW229904   6.964   1.830   6.124
 9669SOL     OW29905   0.703   1.635   0.975
 9669SOL    HW129906   0.723   1.559   1.036
 9669SOL    HW229907   0.773   1.640   0.904
 9670SOL     OW29908   4.747   4.706   5.916
 9670SOL    HW129909   4.681   4.780   5.929
 9670SOL    HW229910   4.808   4.728   5.840
 9671SOL     OW29911   0.647   5.228   6.189
 9671SOL    HW129912   0.641   5.324   6.163
 9671SOL    HW229913   0.644   5.171   6.107
 9672SOL     OW29914   0.943   6.994   4.314
 9672SOL    HW129915   0.880   0.012   4.248
 9672SOL    HW229916   0.892   6.954   4.389
 9673SOL     OW29917   4.695   4.097   7.005
 9673SOL    HW129918   4.603   4.082   6.970
 9673SOL    HW229919   4.763   4.061   6.940
 9674SOL     OW29920   3.109   5.625   2.950
 9674SOL    HW129921   3.124   5.528   2.933
 9674SOL    HW229922   3.063   5.637   3.038
 9675SOL     OW29923   5.756   1.153   1.994
 9675SOL    HW129924   5.835   1.136   1.935
 9675SOL    HW229925   5.674   1.115   1.953
 9676SOL     OW29926   1.399   3.529   5.693
 9676SOL    HW129927   1.385   3.438   5.733
 9676SOL    HW229928   1.440   3.589   5.761
 9677SOL     OW29929   2.360   4.324   6.247
 9677SOL    HW129930   2.308   4.238   6.252
 9677SOL    HW229931   2.306   4.398   6.286
 9678SOL     OW29932   3.327   4.038   2.847
 9678SOL    HW129933   3.411   4.070   2.803
 9678SOL    HW229934   3.313   4.088   2.933
 9679SOL     OW29935   0.756   1.431   1.862
 9679SOL    HW129936   0.852   1.414   1.882
 9679SOL    HW229937   0.745   1.522   1.823
 9680SOL     OW29938   6.116   0.161   3.295
 9680SOL    HW129939   6.160   0.232   3.240
 9680SOL    HW229940   6.100   0.080   3.239
 9681SOL     OW29941   2.778   0.387   1.081
 9681SOL    HW129942   2.842   0.448   1.127
 9681SOL    HW229943   2.692   0.385   1.131
 9682SOL     OW29944   4.779   5.611   2.896
 9682SOL    HW129945   4.738   5.683   2.952
 9682SOL    HW229946   4.767   5.633   2.799
 9683SOL     OW29947   3.988   5.408   0.740
 9683SOL    HW129948   3.986   5.406   0.840
 9683SOL    HW229949   4.059   5.346   0.707
 9684SOL     OW29950   0.453   3.481   4.888
 9684SOL    HW129951   0.387   3.552   4.913
 9684SOL    HW229952   0.405   3.405   4.844
 9685SOL     OW29953   2.222   3.013   1.132
 9685SOL    HW129954   2.163   3.028   1.053
 9685SOL    HW229955   2.229   3.097   1.185
 9686SOL     OW29956   6.499   1.779   0.656
 9686SOL    HW129957   6.462   1.732   0.736
 9686SOL    HW229958   6.529   1.712   0.588
 9687SOL     OW29959   1.900   0.759   3.244
 9687SOL    HW129960   1.813   0.709   3.247
 9687SOL    HW229961   1.960   0.716   3.176
 9688SOL     OW29962   6.536   2.596   3.147
 9688SOL    HW129963   6.539   2.622   3.050
 9688SOL    HW229964   6.622   2.551   3.172
 9689SOL     OW29965   1.603   6.914   0.669
 9689SOL    HW129966   1.515   6.924   0.622
 9689SOL    HW229967   1.625   6.998   0.718
 9690SOL     OW29968   5.938   5.343   6.361
 9690SOL    HW129969   5.954   5.411   6.289
 9690SOL    HW229970   5.988   5.370   6.443
 9691SOL     OW29971   2.708   4.681   1.258
 9691SOL    HW129972   2.664   4.612   1.201
 9691SOL    HW229973   2.651   4.763   1.260
 9692SOL     OW29974   2.211   5.379   2.878
 9692SOL    HW129975   2.308   5.393   2.900
 9692SOL    HW229976   2.195   5.283   2.856
 9693SOL     OW29977   0.037   5.319   1.964
 9693SOL    HW129978   0.097   5.278   1.895
 9693SOL    HW229979   6.991   5.253   1.992
 9694SOL     OW29980   2.018   0.910   6.075
 9694SOL    HW129981   2.031   0.855   6.157
 9694SOL    HW229982   2.066   0.997   6.086
 9695SOL     OW29983   5.834   4.602   1.168
 9695SOL    HW129984   5.866   4.533   1.104
 9695SOL    HW229985   5.855   4.693   1.133
 9696SOL     OW29986   4.726   2.628   1.072
 9696SOL    HW129987   4.823   2.652   1.075
 9696SOL    HW229988   4.717   2.529   1.058
 9697SOL     OW29989   0.270   5.254   6.626
 9697SOL    HW129990   0.299   5.191   6.698
 9697SOL    HW229991   0.323   5.339   6.633
 9698SOL     OW29992   6.040   1.158   5.469
 9698SOL    HW129993   5.963   1.125   5.522
 9698SOL    HW229994   6.096   1.220   5.525
 9699SOL     OW29995   0.412   4.067   6.201
 9699SOL    HW129996   0.480   4.139   6.216
 9699SOL    HW229997   0.358   4.089   6.120
 9700SOL     OW29998   3.477   4.922   5.825
 9700SOL    HW129999   3.546   4.970   5.878
 9700SOL    HW230000   3.521   4.873   5.749
 9701SOL     OW30001   3.818   5.635   4.765
 9701SOL    HW130002   3.822   5.565   4.837
 9701SOL    HW230003   3.727   5.677   4.766
 9702SOL     OW30004   5.370   0.287   6.854
 9702SOL    HW130005   5.318   0.289   6.939
 9702SOL    HW230006   5.355   0.200   6.807
 9703SOL     OW30007   3.671   5.920   4.297
 9703SOL    HW130008   3.674   6.018   4.316
 9703SOL    HW230009   3.595   5.901   4.234
 9704SOL     OW30010   3.145   0.517   2.477
 9704SOL    HW130011   3.067   0.454   2.477
 9704SOL    HW230012   3.230   0.466   2.469
 9705SOL     OW30013   5.331   5.229   0.621
 9705SOL    HW130014   5.297   5.162   0.686
 9705SOL    HW230015   5.426   5.250   0.641
 9706SOL     OW30016   0.026   2.262   1.002
 9706SOL    HW130017   6.982   2.331   0.975
 9706SOL    HW230018   0.049   2.205   0.923
 9707SOL     OW30019   6.843   4.221   1.966
 9707SOL    HW130020   6.785   4.256   2.040
 9707SOL    HW230021   6.868   4.296   1.905
 9708SOL     OW30022   1.688   2.415   3.503
 9708SOL    HW130023   1.635   2.332   3.481
 9708SOL    HW230024   1.698   2.470   3.420
 9709SOL     OW30025   0.159   6.020   3.474
 9709SOL    HW130026   0.117   6.038   3.563
 9709SOL    HW230027   0.191   6.106   3.434
 9710SOL     OW30028   0.527   1.308   2.659
 9710SOL    HW130029   0.461   1.234   2.647
 9710SOL    HW230030   0.512   1.378   2.590
 9711SOL     OW30031   1.224   3.273   6.116
 9711SOL    HW130032   1.292   3.201   6.105
 9711SOL    HW230033   1.133   3.237   6.097
 9712SOL     OW30034   5.408   3.275   4.701
 9712SOL    HW130035   5.452   3.365   4.693
 9712SOL    HW230036   5.327   3.283   4.759
 9713SOL     OW30037   0.228   5.008   2.763
 9713SOL    HW130038   0.282   5.081   2.719
 9713SOL    HW230039   0.239   4.924   2.710
 9714SOL     OW30040   1.885   1.151   1.808
 9714SOL    HW130041   1.903   1.176   1.903
 9714SOL    HW230042   1.827   1.220   1.765
 9715SOL     OW30043   6.962   6.040   4.267
 9715SOL    HW130044   6.929   6.051   4.361
 9715SOL    HW230045   6.896   6.081   4.204
 9716SOL     OW30046   4.112   2.370   6.897
 9716SOL    HW130047   4.069   2.433   6.833
 9716SOL    HW230048   4.104   2.406   6.990
 9717SOL     OW30049   5.538   6.021   5.008
 9717SOL    HW130050   5.561   5.974   4.923
 9717SOL    HW230051   5.548   5.957   5.084
 9718SOL     OW30052   4.799   3.112   1.706
 9718SOL    HW130053   4.727   3.053   1.745
 9718SOL    HW230054   4.799   3.103   1.607
 9719SOL     OW30055   0.570   2.275   6.636
 9719SOL    HW130056   0.511   2.332   6.693
 9719SOL    HW230057   0.539   2.180   6.640
 9720SOL     OW30058   0.901   5.851   1.442
 9720SOL    HW130059   0.937   5.759   1.426
 9720SOL    HW230060   0.806   5.845   1.472
 9721SOL     OW30061   0.731   2.395   1.924
 9721SOL    HW130062   0.811   2.339   1.902
 9721SOL    HW230063   0.650   2.355   1.881
 9722SOL     OW30064   0.351   0.137   3.356
 9722SOL    HW130065   0.391   0.107   3.443
 9722SOL    HW230066   0.332   0.235   3.361
 9723SOL     OW30067   1.274   5.718   2.814
 9723SOL    HW130068   1.184   5.731   2.773
 9723SOL    HW230069   1.331   5.798   2.797
 9724SOL     OW30070   3.298   3.125   1.514
 9724SOL    HW130071   3.257   3.197   1.458
 9724SOL    HW230072   3.395   3.144   1.528
 9725SOL     OW30073   4.207   3.491   6.100
 9725SOL    HW130074   4.189   3.396   6.128
 9725SOL    HW230075   4.269   3.534   6.166
 9726SOL     OW30076   4.799   0.430   4.681
 9726SOL    HW130077   4.796   0.426   4.781
 9726SOL    HW230078   4.722   0.484   4.648
 9727SOL     OW30079   1.604   3.646   5.453
 9727SOL    HW130080   1.515   3.660   5.497
 9727SOL    HW230081   1.606   3.697   5.367
 9728SOL     OW30082   1.008   6.286   6.784
 9728SOL    HW130083   1.076   6.355   6.760
 9728SOL    HW230084   0.977   6.239   6.701
 9729SOL     OW30085   1.542   4.482   2.825
 9729SOL    HW130086   1.561   4.525   2.913
 9729SOL    HW230087   1.590   4.395   2.818
 9730SOL     OW30088   0.124   3.137   2.962
 9730SOL    HW130089   0.213   3.165   3.000
 9730SOL    HW230090   0.051   3.180   3.014
 9731SOL     OW30091   4.384   5.022   0.891
 9731SOL    HW130092   4.334   5.009   0.976
 9731SOL    HW230093   4.394   4.935   0.843
 9732SOL     OW30094   5.888   6.063   3.155
 9732SOL    HW130095   5.845   6.010   3.228
 9732SOL    HW230096   5.987   6.058   3.163
 9733SOL     OW30097   5.714   5.352   4.697
 9733SOL    HW130098   5.739   5.446   4.672
 9733SOL    HW230099   5.710   5.296   4.615
 9734SOL     OW30100   5.476   2.039   4.176
 9734SOL    HW130101   5.535   2.058   4.254
 9734SOL    HW230102   5.524   2.060   4.091
 9735SOL     OW30103   1.769   4.824   2.868
 9735SOL    HW130104   1.681   4.785   2.843
 9735SOL    HW230105   1.815   4.859   2.786
 9736SOL     OW30106   5.373   1.200   6.043
 9736SOL    HW130107   5.403   1.287   6.005
 9736SOL    HW230108   5.313   1.216   6.121
 9737SOL     OW30109   4.670   2.744   5.012
 9737SOL    HW130110   4.758   2.698   5.022
 9737SOL    HW230111   4.660   2.813   5.084
 9738SOL     OW30112   1.845   7.022   2.754
 9738SOL    HW130113   1.839   0.094   2.721
 9738SOL    HW230114   1.783   6.964   2.701
 9739SOL     OW30115   0.818   4.630   1.803
 9739SOL    HW130116   0.903   4.662   1.844
 9739SOL    HW230117   0.831   4.539   1.765
 9740SOL     OW30118   6.320   3.123   3.166
 9740SOL    HW130119   6.376   3.165   3.237
 9740SOL    HW230120   6.378   3.098   3.088
 9741SOL     OW30121   4.631   1.292   2.768
 9741SOL    HW130122   4.656   1.386   2.746
 9741SOL    HW230123   4.606   1.243   2.685
 9742SOL     OW30124   4.523   0.075   3.248
 9742SOL    HW130125   4.517   6.998   3.237
 9742SOL    HW230126   4.486   0.101   3.337
 9743SOL     OW30127   2.192   2.077   5.880
 9743SOL    HW130128   2.149   2.166   5.867
 9743SOL    HW230129   2.261   2.062   5.809
 9744SOL     OW30130   1.288   0.605   2.554
 9744SOL    HW130131   1.238   0.688   2.529
 9744SOL    HW230132   1.234   0.554   2.622
 9745SOL     OW30133   0.698   2.474   5.855
 9745SOL    HW130134   0.608   2.504   5.885
 9745SOL    HW230135   0.693   2.380   5.821
 9746SOL     OW30136   5.446   1.736   4.960
 9746SOL    HW130137   5.491   1.746   5.049
 9746SOL    HW230138   5.512   1.702   4.893
 9747SOL     OW30139   1.446   1.262   1.766
 9747SOL    HW130140   1.363   1.214   1.794
 9747SOL    HW230141   1.485   1.310   1.845
 9748SOL     OW30142   0.736   6.897   5.446
 9748SOL    HW130143   0.777   6.925   5.360
 9748SOL    HW230144   0.760   6.802   5.465
 9749SOL     OW30145   1.915   2.290   5.553
 9749SOL    HW130146   1.837   2.260   5.606
 9749SOL    HW230147   1.905   2.387   5.530
 9750SOL     OW30148   5.839   4.953   3.937
 9750SOL    HW130149   5.854   4.854   3.926
 9750SOL    HW230150   5.862   4.980   4.031
 9751SOL     OW30151   1.960   2.448   1.414
 9751SOL    HW130152   1.940   2.376   1.482
 9751SOL    HW230153   1.961   2.537   1.459
 9752SOL     OW30154   4.520   0.628   6.258
 9752SOL    HW130155   4.559   0.673   6.338
 9752SOL    HW230156   4.431   0.668   6.236
 9753SOL     OW30157   6.384   6.425   4.936
 9753SOL    HW130158   6.307   6.391   4.882
 9753SOL    HW230159   6.351   6.463   5.022
 9754SOL     OW30160   1.200   1.700   0.033
 9754SOL    HW130161   1.208   1.764   0.109
 9754SOL    HW230162   1.235   1.744   6.972
 9755SOL     OW30163   4.123   3.496   4.960
 9755SOL    HW130164   4.144   3.401   4.936
 9755SOL    HW230165   4.134   3.554   4.880
 9756SOL     OW30166   6.127   2.798   0.184
 9756SOL    HW130167   6.117   2.753   0.095
 9756SOL    HW230168   6.071   2.751   0.252
 9757SOL     OW30169   4.847   3.296   3.545
 9757SOL    HW130170   4.826   3.231   3.472
 9757SOL    HW230171   4.875   3.245   3.627
 9758SOL     OW30172   1.727   0.116   5.930
 9758SOL    HW130173   1.639   0.070   5.941
 9758SOL    HW230174   1.780   0.109   6.014
 9759SOL     OW30175   2.418   6.939   1.107
 9759SOL    HW130176   2.442   0.003   1.063
 9759SOL    HW230177   2.327   6.947   1.149
 9760SOL     OW30178   5.179   4.074   5.223
 9760SOL    HW130179   5.253   4.012   5.249
 9760SOL    HW230180   5.093   4.043   5.264
 9761SOL     OW30181   5.583   6.125   1.946
 9761SOL    HW130182   5.678   6.102   1.924
 9761SOL    HW230183   5.535   6.152   1.863
 9762SOL     OW30184   2.385   1.990   4.604
 9762SOL    HW130185   2.346   2.034   4.685
 9762SOL    HW230186   2.435   2.057   4.550
 9763SOL     OW30187   4.617   1.436   1.934
 9763SOL    HW130188   4.577   1.522   1.964
 9763SOL    HW230189   4.674   1.452   1.853
 9764SOL     OW30190   1.290   2.098   3.297
 9764SOL    HW130191   1.260   2.120   3.204
 9764SOL    HW230192   1.353   2.020   3.294
 9765SOL     OW30193   6.722   1.923   4.875
 9765SOL    HW130194   6.770   2.003   4.840
 9765SOL    HW230195   6.632   1.917   4.832
 9766SOL     OW30196   2.482   0.366   2.724
 9766SOL    HW130197   2.384   0.359   2.701
 9766SOL    HW230198   2.521   0.275   2.731
 9767SOL     OW30199   5.117   2.096   4.768
 9767SOL    HW130200   5.164   2.178   4.800
 9767SOL    HW230201   5.092   2.108   4.672
 9768SOL     OW30202   5.347   2.359   2.429
 9768SOL    HW130203   5.378   2.335   2.520
 9768SOL    HW230204   5.410   2.322   2.361
 9769SOL     OW30205   1.424   1.859   1.876
 9769SOL    HW130206   1.455   1.937   1.821
 9769SOL    HW230207   1.488   1.845   1.951
 9770SOL     OW30208   5.933   6.117   6.326
 9770SOL    HW130209   5.869   6.050   6.287
 9770SOL    HW230210   6.023   6.076   6.335
 9771SOL     OW30211   4.884   4.498   0.992
 9771SOL    HW130212   4.883   4.554   1.075
 9771SOL    HW230213   4.882   4.401   1.017
 9772SOL     OW30214   6.950   6.802   1.558
 9772SOL    HW130215   6.881   6.868   1.588
 9772SOL    HW230216   0.016   6.847   1.552
 9773SOL     OW30217   6.060   6.045   3.581
 9773SOL    HW130218   6.129   6.116   3.594
 9773SOL    HW230219   6.090   5.981   3.511
 9774SOL     OW30220   6.023   5.171   3.466
 9774SOL    HW130221   6.003   5.142   3.559
 9774SOL    HW230222   6.059   5.264   3.467
 9775SOL     OW30223   2.030   2.060   4.650
 9775SOL    HW130224   1.959   2.074   4.719
 9775SOL    HW230225   2.118   2.090   4.687
 9776SOL     OW30226   6.899   5.826   4.090
 9776SOL    HW130227   6.950   5.868   4.165
 9776SOL    HW230228   6.959   5.764   4.039
 9777SOL     OW30229   5.900   4.798   6.123
 9777SOL    HW130230   5.898   4.698   6.127
 9777SOL    HW230231   5.813   4.832   6.088
 9778SOL     OW30232   5.430   0.017   3.980
 9778SOL    HW130233   5.479   0.027   4.067
 9778SOL    HW230234   5.489   6.996   3.913
 9779SOL     OW30235   2.395   1.514   4.664
 9779SOL    HW130236   2.406   1.486   4.569
 9779SOL    HW230237   2.349   1.603   4.668
 9780SOL     OW30238   2.337   2.536   0.811
 9780SOL    HW130239   2.238   2.529   0.821
 9780SOL    HW230240   2.377   2.445   0.823
 9781SOL     OW30241   1.884   4.589   4.069
 9781SOL    HW130242   1.810   4.540   4.116
 9781SOL    HW230243   1.868   4.585   3.970
 9782SOL     OW30244   6.444   0.030   0.889
 9782SOL    HW130245   6.382   0.013   0.966
 9782SOL    HW230246   6.531   0.064   0.924
 9783SOL     OW30247   6.417   0.997   1.634
 9783SOL    HW130248   6.376   0.907   1.650
 9783SOL    HW230249   6.411   1.020   1.537
 9784SOL     OW30250   4.296   1.474   3.130
 9784SOL    HW130251   4.344   1.450   3.045
 9784SOL    HW230252   4.302   1.573   3.145
 9785SOL     OW30253   0.262   2.686   3.120
 9785SOL    HW130254   0.260   2.597   3.072
 9785SOL    HW230255   0.216   2.754   3.063
 9786SOL     OW30256   1.966   4.614   5.657
 9786SOL    HW130257   1.911   4.697   5.652
 9786SOL    HW230258   2.058   4.631   5.621
 9787SOL     OW30259   5.293   3.241   1.700
 9787SOL    HW130260   5.213   3.180   1.708
 9787SOL    HW230261   5.367   3.192   1.653
 9788SOL     OW30262   0.401   0.367   4.017
 9788SOL    HW130263   0.441   0.458   4.015
 9788SOL    HW230264   0.427   0.321   4.102
 9789SOL     OW30265   2.333   5.364   6.295
 9789SOL    HW130266   2.388   5.302   6.238
 9789SOL    HW230267   2.236   5.342   6.285
 9790SOL     OW30268   5.792   2.544   4.267
 9790SOL    HW130269   5.781   2.476   4.194
 9790SOL    HW230270   5.707   2.550   4.320
 9791SOL     OW30271   0.950   0.851   1.658
 9791SOL    HW130272   0.888   0.779   1.629
 9791SOL    HW230273   0.906   0.906   1.730
 9792SOL     OW30274   4.547   5.192   1.784
 9792SOL    HW130275   4.577   5.261   1.719
 9792SOL    HW230276   4.556   5.228   1.877
 9793SOL     OW30277   4.647   5.898   2.766
 9793SOL    HW130278   4.705   5.980   2.761
 9793SOL    HW230279   4.697   5.820   2.729
 9794SOL     OW30280   5.479   3.454   6.472
 9794SOL    HW130281   5.475   3.375   6.533
 9794SOL    HW230282   5.485   3.424   6.377
 9795SOL     OW30283   0.964   2.751   3.893
 9795SOL    HW130284   0.998   2.755   3.799
 9795SOL    HW230285   0.922   2.662   3.910
 9796SOL     OW30286   3.125   4.734   0.727
 9796SOL    HW130287   3.108   4.704   0.821
 9796SOL    HW230288   3.128   4.834   0.724
 9797SOL     OW30289   4.811   3.748   6.990
 9797SOL    HW130290   4.852   3.829   6.947
 9797SOL    HW230291   4.852   3.665   6.952
 9798SOL     OW30292   2.557   0.433   1.206
 9798SOL    HW130293   2.489   0.505   1.197
 9798SOL    HW230294   2.527   0.367   1.274
 9799SOL     OW30295   3.296   3.039   2.658
 9799SOL    HW130296   3.358   2.979   2.608
 9799SOL    HW230297   3.247   2.987   2.727
 9800SOL     OW30298   4.551   5.924   6.203
 9800SOL    HW130299   4.477   5.933   6.269
 9800SOL    HW230300   4.589   6.015   6.183
 9801SOL     OW30301   4.595   5.612   7.007
 9801SOL    HW130302   4.574   5.688   0.047
 9801SOL    HW230303   4.515   5.593   6.950
 9802SOL     OW30304   0.514   3.294   1.666
 9802SOL    HW130305   0.475   3.275   1.756
 9802SOL    HW230306   0.564   3.381   1.669
 9803SOL     OW30307   6.182   7.008   6.726
 9803SOL    HW130308   6.253   0.034   6.778
 9803SOL    HW230309   6.192   0.008   6.629
 9804SOL     OW30310   0.163   5.106   3.436
 9804SOL    HW130311   0.107   5.131   3.515
 9804SOL    HW230312   0.132   5.157   3.356
 9805SOL     OW30313   1.213   5.561   6.784
 9805SOL    HW130314   1.281   5.596   6.848
 9805SOL    HW230315   1.249   5.567   6.691
 9806SOL     OW30316   0.715   2.656   1.547
 9806SOL    HW130317   0.785   2.685   1.481
 9806SOL    HW230318   0.745   2.573   1.593
 9807SOL     OW30319   3.644   1.696   0.053
 9807SOL    HW130320   3.557   1.674   0.098
 9807SOL    HW230321   3.671   1.789   0.076
 9808SOL     OW30322   5.904   1.453   5.761
 9808SOL    HW130323   5.849   1.372   5.781
 9808SOL    HW230324   5.916   1.461   5.662
 9809SOL     OW30325   1.000   1.392   5.696
 9809SOL    HW130326   1.044   1.457   5.633
 9809SOL    HW230327   1.070   1.335   5.738
 9810SOL     OW30328   2.847   1.828   3.179
 9810SOL    HW130329   2.795   1.791   3.256
 9810SOL    HW230330   2.786   1.849   3.103
 9811SOL     OW30331   6.333   5.967   3.476
 9811SOL    HW130332   6.380   6.016   3.403
 9811SOL    HW230333   6.389   5.969   3.559
 9812SOL     OW30334   4.025   2.043   6.185
 9812SOL    HW130335   4.117   2.067   6.216
 9812SOL    HW230336   4.030   1.965   6.123
 9813SOL     OW30337   6.215   5.492   0.165
 9813SOL    HW130338   6.302   5.540   0.173
 9813SOL    HW230339   6.160   5.533   0.092
 9814SOL     OW30340   6.377   0.769   5.793
 9814SOL    HW130341   6.437   0.701   5.834
 9814SOL    HW230342   6.352   0.740   5.700
 9815SOL     OW30343   6.391   3.329   1.189
 9815SOL    HW130344   6.398   3.230   1.178
 9815SOL    HW230345   6.325   3.365   1.123
 9816SOL     OW30346   6.359   1.032   6.474
 9816SOL    HW130347   6.442   1.045   6.420
 9816SOL    HW230348   6.280   1.068   6.423
 9817SOL     OW30349   3.148   5.167   1.754
 9817SOL    HW130350   3.062   5.139   1.796
 9817SOL    HW230351   3.199   5.226   1.817
 9818SOL     OW30352   1.953   1.511   3.673
 9818SOL    HW130353   2.047   1.492   3.646
 9818SOL    HW230354   1.893   1.440   3.637
 9819SOL     OW30355   5.809   3.838   4.577
 9819SOL    HW130356   5.846   3.748   4.555
 9819SOL    HW230357   5.787   3.843   4.674
 9820SOL     OW30358   3.173   1.705   6.809
 9820SOL    HW130359   3.109   1.674   6.879
 9820SOL    HW230360   3.126   1.765   6.745
 9821SOL     OW30361   4.545   1.976   1.729
 9821SOL    HW130362   4.469   2.037   1.750
 9821SOL    HW230363   4.614   2.027   1.676
 9822SOL     OW30364   4.035   5.865   4.358
 9822SOL    HW130365   4.020   5.770   4.331
 9822SOL    HW230366   3.963   5.894   4.422
 9823SOL     OW30367   1.048   0.800   2.215
 9823SOL    HW130368   1.002   0.713   2.197
 9823SOL    HW230369   1.077   0.802   2.311
 9824SOL     OW30370   2.229   6.232   5.600
 9824SOL    HW130371   2.196   6.167   5.669
 9824SOL    HW230372   2.174   6.222   5.517
 9825SOL     OW30373   5.009   5.839   5.153
 9825SOL    HW130374   5.107   5.855   5.166
 9825SOL    HW230375   4.957   5.907   5.204
 9826SOL     OW30376   3.340   0.048   5.322
 9826SOL    HW130377   3.378   0.037   5.231
 9826SOL    HW230378   3.408   0.091   5.382
 9827SOL     OW30379   1.873   5.746   2.753
 9827SOL    HW130380   1.954   5.775   2.701
 9827SOL    HW230381   1.886   5.652   2.785
 9828SOL     OW30382   3.613   1.773   4.934
 9828SOL    HW130383   3.521   1.735   4.940
 9828SOL    HW230384   3.608   1.873   4.928
 9829SOL     OW30385   4.316   6.079   6.000
 9829SOL    HW130386   4.321   6.171   6.041
 9829SOL    HW230387   4.298   6.088   5.902
 9830SOL     OW30388   6.019   1.680   2.652
 9830SOL    HW130389   6.051   1.633   2.734
 9830SOL    HW230390   6.017   1.616   2.575
 9831SOL     OW30391   0.322   3.784   2.623
 9831SOL    HW130392   0.311   3.696   2.669
 9831SOL    HW230393   0.262   3.851   2.665
 9832SOL     OW30394   4.908   4.843   4.692
 9832SOL    HW130395   4.864   4.769   4.742
 9832SOL    HW230396   4.990   4.809   4.646
 9833SOL     OW30397   3.810   4.072   3.991
 9833SOL    HW130398   3.866   4.011   4.046
 9833SOL    HW230399   3.862   4.155   3.970
 9834SOL     OW30400   2.496   5.778   6.013
 9834SOL    HW130401   2.508   5.766   6.111
 9834SOL    HW230402   2.558   5.716   5.964
 9835SOL     OW30403   3.758   4.152   4.833
 9835SOL    HW130404   3.751   4.146   4.733
 9835SOL    HW230405   3.852   4.176   4.858
 9836SOL     OW30406   0.613   3.569   6.426
 9836SOL    HW130407   0.679   3.612   6.487
 9836SOL    HW230408   0.560   3.641   6.379
 9837SOL     OW30409   6.101   1.987   1.502
 9837SOL    HW130410   6.062   2.020   1.416
 9837SOL    HW230411   6.052   1.906   1.532
 9838SOL     OW30412   1.300   5.799   1.121
 9838SOL    HW130413   1.275   5.831   1.030
 9838SOL    HW230414   1.257   5.857   1.190
 9839SOL     OW30415   4.150   0.861   3.144
 9839SOL    HW130416   4.145   0.814   3.233
 9839SOL    HW230417   4.201   0.805   3.080
 9840SOL     OW30418   5.301   2.075   0.026
 9840SOL    HW130419   5.251   2.088   0.112
 9840SOL    HW230420   5.236   2.066   6.974
 9841SOL     OW30421   0.009   5.154   3.636
 9841SOL    HW130422   6.995   5.063   3.660
 9841SOL    HW230423   7.012   5.218   3.710
 9842SOL     OW30424   3.632   2.431   0.442
 9842SOL    HW130425   3.577   2.361   0.488
 9842SOL    HW230426   3.726   2.425   0.475
 9843SOL     OW30427   6.812   6.160   0.830
 9843SOL    HW130428   6.794   6.259   0.831
 9843SOL    HW230429   6.809   6.126   0.924
 9844SOL     OW30430   4.910   0.057   4.554
 9844SOL    HW130431   4.965   0.126   4.506
 9844SOL    HW230432   4.832   0.101   4.598
 9845SOL     OW30433   1.244   2.563   2.045
 9845SOL    HW130434   1.315   2.580   2.113
 9845SOL    HW230435   1.186   2.644   2.036
 9846SOL     OW30436   5.277   1.222   1.378
 9846SOL    HW130437   5.356   1.182   1.330
 9846SOL    HW230438   5.233   1.151   1.433
 9847SOL     OW30439   3.744   3.580   0.975
 9847SOL    HW130440   3.841   3.557   0.971
 9847SOL    HW230441   3.731   3.678   0.959
 9848SOL     OW30442   3.437   3.524   4.902
 9848SOL    HW130443   3.442   3.431   4.938
 9848SOL    HW230444   3.461   3.588   4.975
 9849SOL     OW30445   1.399   0.878   6.746
 9849SOL    HW130446   1.358   0.790   6.721
 9849SOL    HW230447   1.419   0.930   6.663
 9850SOL     OW30448   0.172   0.390   4.296
 9850SOL    HW130449   0.263   0.422   4.270
 9850SOL    HW230450   0.112   0.388   4.216
 9851SOL     OW30451   3.965   5.195   4.369
 9851SOL    HW130452   3.979   5.111   4.316
 9851SOL    HW230453   4.021   5.193   4.451
 9852SOL     OW30454   1.563   1.190   6.905
 9852SOL    HW130455   1.537   1.097   6.879
 9852SOL    HW230456   1.654   1.188   6.946
 9853SOL     OW30457   6.884   4.484   4.043
 9853SOL    HW130458   6.900   4.535   3.959
 9853SOL    HW230459   6.884   4.547   4.121
 9854SOL     OW30460   0.724   6.191   5.874
 9854SOL    HW130461   0.749   6.168   5.780
 9854SOL    HW230462   0.625   6.208   5.880
 9855SOL     OW30463   0.691   3.537   0.734
 9855SOL    HW130464   0.668   3.440   0.737
 9855SOL    HW230465   0.698   3.567   0.639
 9856SOL     OW30466   5.528   4.620   3.261
 9856SOL    HW130467   5.557   4.670   3.179
 9856SOL    HW230468   5.451   4.667   3.304
 9857SOL     OW30469   5.010   2.099   3.349
 9857SOL    HW130470   4.971   2.190   3.363
 9857SOL    HW230471   5.020   2.053   3.437
 9858SOL     OW30472   0.904   6.273   2.539
 9858SOL    HW130473   0.912   6.244   2.443
 9858SOL    HW230474   0.837   6.346   2.546
 9859SOL     OW30475   0.769   4.533   4.961
 9859SOL    HW130476   0.749   4.524   5.058
 9859SOL    HW230477   0.852   4.587   4.949
 9860SOL     OW30478   1.994   1.820   5.450
 9860SOL    HW130479   1.951   1.745   5.400
 9860SOL    HW230480   2.067   1.859   5.394
 9861SOL     OW30481   2.724   1.530   3.769
 9861SOL    HW130482   2.809   1.555   3.815
 9861SOL    HW230483   2.680   1.455   3.819
 9862SOL     OW30484   2.578   4.937   1.270
 9862SOL    HW130485   2.490   4.938   1.319
 9862SOL    HW230486   2.640   5.004   1.310
 9863SOL     OW30487   3.095   5.804   1.245
 9863SOL    HW130488   3.004   5.831   1.275
 9863SOL    HW230489   3.092   5.779   1.148
 9864SOL     OW30490   3.005   6.327   5.320
 9864SOL    HW130491   2.985   6.357   5.413
 9864SOL    HW230492   3.100   6.351   5.297
 9865SOL     OW30493   0.492   6.666   5.677
 9865SOL    HW130494   0.423   6.702   5.615
 9865SOL    HW230495   0.461   6.673   5.772
 9866SOL     OW30496   6.562   4.792   4.493
 9866SOL    HW130497   6.522   4.702   4.482
 9866SOL    HW230498   6.659   4.783   4.515
 9867SOL     OW30499   5.211   1.982   1.927
 9867SOL    HW130500   5.277   1.954   1.857
 9867SOL    HW230501   5.261   2.022   2.004
 9868SOL     OW30502   1.462   5.006   3.238
 9868SOL    HW130503   1.437   5.082   3.299
 9868SOL    HW230504   1.537   5.035   3.178
 9869SOL     OW30505   0.270   2.391   1.058
 9869SOL    HW130506   0.192   2.333   1.032
 9869SOL    HW230507   0.264   2.413   1.155
 9870SOL     OW30508   3.548   1.285   1.839
 9870SOL    HW130509   3.496   1.357   1.793
 9870SOL    HW230510   3.518   1.196   1.806
 9871SOL     OW30511   0.109   3.609   5.215
 9871SOL    HW130512   0.022   3.634   5.171
 9871SOL    HW230513   0.091   3.580   5.309
 9872SOL     OW30514   2.215   5.434   5.377
 9872SOL    HW130515   2.223   5.518   5.323
 9872SOL    HW230516   2.184   5.360   5.318
 9873SOL     OW30517   2.526   1.856   6.214
 9873SOL    HW130518   2.561   1.815   6.130
 9873SOL    HW230519   2.599   1.909   6.258
 9874SOL     OW30520   0.623   2.287   4.977
 9874SOL    HW130521   0.701   2.252   4.926
 9874SOL    HW230522   0.563   2.339   4.916
 9875SOL     OW30523   6.622   5.977   0.588
 9875SOL    HW130524   6.546   6.027   0.548
 9875SOL    HW230525   6.688   6.042   0.627
 9876SOL     OW30526   2.596   0.025   3.301
 9876SOL    HW130527   2.624   6.958   3.267
 9876SOL    HW230528   2.531   0.013   3.376
 9877SOL     OW30529   0.546   4.667   4.765
 9877SOL    HW130530   0.624   4.619   4.806
 9877SOL    HW230531   0.548   4.656   4.666
 9878SOL     OW30532   1.761   3.332   0.000
 9878SOL    HW130533   1.854   3.299   7.011
 9878SOL    HW230534   1.747   3.357   0.096
 9879SOL     OW30535   1.186   4.590   6.195
 9879SOL    HW130536   1.231   4.598   6.106
 9879SOL    HW230537   1.241   4.635   6.265
 9880SOL     OW30538   2.396   1.631   0.180
 9880SOL    HW130539   2.471   1.612   0.117
 9880SOL    HW230540   2.394   1.728   0.202
 9881SOL     OW30541   5.305   0.646   4.798
 9881SOL    HW130542   5.372   0.646   4.724
 9881SOL    HW230543   5.284   0.551   4.824
 9882SOL     OW30544   3.594   2.870   4.326
 9882SOL    HW130545   3.528   2.916   4.385
 9882SOL    HW230546   3.561   2.778   4.305
 9883SOL     OW30547   2.163   6.388   1.310
 9883SOL    HW130548   2.194   6.413   1.402
 9883SOL    HW230549   2.196   6.296   1.288
 9884SOL     OW30550   1.683   3.125   6.604
 9884SOL    HW130551   1.610   3.148   6.539
 9884SOL    HW230552   1.665   3.034   6.642
 9885SOL     OW30553   6.440   3.232   3.572
 9885SOL    HW130554   6.526   3.251   3.619
 9885SOL    HW230555   6.377   3.309   3.584
 9886SOL     OW30556   5.100   6.424   1.561
 9886SOL    HW130557   5.070   6.411   1.656
 9886SOL    HW230558   5.190   6.468   1.561
 9887SOL     OW30559   4.095   6.356   0.468
 9887SOL    HW130560   4.146   6.279   0.430
 9887SOL    HW230561   4.007   6.365   0.420
 9888SOL     OW30562   5.779   5.874   2.614
 9888SOL    HW130563   5.854   5.868   2.548
 9888SOL    HW230564   5.817   5.889   2.706
 9889SOL     OW30565   0.269   4.928   3.028
 9889SOL    HW130566   0.259   4.971   2.938
 9889SOL    HW230567   0.200   4.966   3.090
 9890SOL     OW30568   6.312   3.733   1.092
 9890SOL    HW130569   6.303   3.637   1.119
 9890SOL    HW230570   6.382   3.740   1.020
 9891SOL     OW30571   5.141   5.348   0.491
 9891SOL    HW130572   5.215   5.308   0.545
 9891SOL    HW230573   5.153   5.324   0.395
 9892SOL     OW30574   1.842   5.629   3.889
 9892SOL    HW130575   1.919   5.585   3.843
 9892SOL    HW230576   1.876   5.696   3.955
 9893SOL     OW30577   6.007   5.082   3.093
 9893SOL    HW130578   6.043   5.022   3.164
 9893SOL    HW230579   6.058   5.168   3.092
 9894SOL     OW30580   3.478   2.437   5.667
 9894SOL    HW130581   3.409   2.402   5.604
 9894SOL    HW230582   3.437   2.505   5.728
 9895SOL     OW30583   5.353   2.901   6.494
 9895SOL    HW130584   5.259   2.904   6.525
 9895SOL    HW230585   5.359   2.844   6.412
 9896SOL     OW30586   3.631   3.516   0.685
 9896SOL    HW130587   3.720   3.562   0.684
 9896SOL    HW230588   3.595   3.512   0.591
 9897SOL     OW30589   5.451   1.470   2.727
 9897SOL    HW130590   5.480   1.375   2.729
 9897SOL    HW230591   5.439   1.504   2.821
 9898SOL     OW30592   0.738   5.573   5.396
 9898SOL    HW130593   0.768   5.477   5.395
 9898SOL    HW230594   0.739   5.606   5.490
 9899SOL     OW30595   4.833   4.758   2.224
 9899SOL    HW130596   4.807   4.719   2.312
 9899SOL    HW230597   4.923   4.724   2.198
 9900SOL     OW30598   1.494   2.255   3.946
 9900SOL    HW130599   1.565   2.321   3.969
 9900SOL    HW230600   1.460   2.273   3.854
 9901SOL     OW30601   2.654   2.348   6.218
 9901SOL    HW130602   2.597   2.337   6.300
 9901SOL    HW230603   2.726   2.414   6.236
 9902SOL     OW30604   3.673   3.813   0.828
 9902SOL    HW130605   3.613   3.734   0.820
 9902SOL    HW230606   3.690   3.850   0.736
 9903SOL     OW30607   4.457   1.987   2.198
 9903SOL    HW130608   4.461   1.968   2.296
 9903SOL    HW230609   4.539   1.952   2.154
 9904SOL     OW30610   6.447   2.425   0.091
 9904SOL    HW130611   6.529   2.460   0.047
 9904SOL    HW230612   6.435   2.329   0.069
 9905SOL     OW30613   1.281   6.385   6.292
 9905SOL    HW130614   1.199   6.395   6.236
 9905SOL    HW230615   1.339   6.312   6.254
 9906SOL     OW30616   2.183   3.199   6.437
 9906SOL    HW130617   2.247   3.140   6.486
 9906SOL    HW230618   2.144   3.266   6.501
 9907SOL     OW30619   1.884   6.208   3.245
 9907SOL    HW130620   1.927   6.264   3.174
 9907SOL    HW230621   1.874   6.114   3.213
 9908SOL     OW30622   0.456   3.642   6.128
 9908SOL    HW130623   0.524   3.606   6.065
 9908SOL    HW230624   0.500   3.708   6.190
 9909SOL     OW30625   3.367   1.459   2.646
 9909SOL    HW130626   3.305   1.422   2.714
 9909SOL    HW230627   3.321   1.532   2.594
 9910SOL     OW30628   6.312   4.426   0.800
 9910SOL    HW130629   6.261   4.449   0.883
 9910SOL    HW230630   6.373   4.502   0.776
 9911SOL     OW30631   4.488   5.067   3.402
 9911SOL    HW130632   4.402   5.026   3.371
 9911SOL    HW230633   4.554   5.065   3.327
 9912SOL     OW30634   5.072   0.395   1.842
 9912SOL    HW130635   5.064   0.310   1.790
 9912SOL    HW230636   4.983   0.440   1.847
 9913SOL     OW30637   5.352   2.838   2.732
 9913SOL    HW130638   5.402   2.889   2.802
 9913SOL    HW230639   5.360   2.886   2.645
 9914SOL     OW30640   1.559   0.094   5.062
 9914SOL    HW130641   1.563   0.050   4.973
 9914SOL    HW230642   1.613   0.178   5.061
 9915SOL     OW30643   5.041   3.321   4.095
 9915SOL    HW130644   5.030   3.418   4.071
 9915SOL    HW230645   5.018   3.265   4.016
 9916SOL     OW30646   2.013   2.763   2.510
 9916SOL    HW130647   1.934   2.718   2.553
 9916SOL    HW230648   1.982   2.843   2.458
 9917SOL     OW30649   2.839   4.161   5.806
 9917SOL    HW130650   2.780   4.167   5.725
 9917SOL    HW230651   2.886   4.247   5.820
 9918SOL     OW30652   1.955   1.798   6.474
 9918SOL    HW130653   1.863   1.836   6.462
 9918SOL    HW230654   1.998   1.840   6.554
 9919SOL     OW30655   1.392   5.754   2.231
 9919SOL    HW130656   1.437   5.831   2.277
 9919SOL    HW230657   1.296   5.778   2.214
 9920SOL     OW30658   3.882   6.196   1.539
 9920SOL    HW130659   3.875   6.221   1.443
 9920SOL    HW230660   3.887   6.279   1.595
 9921SOL     OW30661   5.834   0.014   3.141
 9921SOL    HW130662   5.831   0.041   3.045
 9921SOL    HW230663   5.925   7.001   3.162
 9922SOL     OW30664   4.456   4.449   0.638
 9922SOL    HW130665   4.523   4.439   0.712
 9922SOL    HW230666   4.371   4.402   0.663
 9923SOL     OW30667   6.793   2.096   6.325
 9923SOL    HW130668   6.883   2.058   6.306
 9923SOL    HW230669   6.744   2.035   6.388
 9924SOL     OW30670   6.764   1.100   2.687
 9924SOL    HW130671   6.699   1.118   2.613
 9924SOL    HW230672   6.856   1.092   2.649
 9925SOL     OW30673   2.635   3.648   5.699
 9925SOL    HW130674   2.552   3.664   5.644
 9925SOL    HW230675   2.708   3.707   5.667
 9926SOL     OW30676   1.179   1.389   0.944
 9926SOL    HW130677   1.274   1.364   0.963
 9926SOL    HW230678   1.164   1.486   0.967
 9927SOL     OW30679   0.263   1.826   2.567
 9927SOL    HW130680   0.233   1.914   2.532
 9927SOL    HW230681   0.288   1.835   2.664
 9928SOL     OW30682   0.409   4.094   1.796
 9928SOL    HW130683   0.489   4.154   1.785
 9928SOL    HW230684   0.420   4.012   1.740
 9929SOL     OW30685   3.445   4.521   6.417
 9929SOL    HW130686   3.432   4.431   6.459
 9929SOL    HW230687   3.356   4.567   6.411
 9930SOL     OW30688   6.551   0.083   6.401
 9930SOL    HW130689   6.640   0.075   6.356
 9930SOL    HW230690   6.481   0.102   6.332
 9931SOL     OW30691   1.689   6.231   5.554
 9931SOL    HW130692   1.753   6.158   5.574
 9931SOL    HW230693   1.732   6.299   5.494
 9932SOL     OW30694   1.863   1.415   0.751
 9932SOL    HW130695   1.902   1.502   0.719
 9932SOL    HW230696   1.914   1.339   0.710
 9933SOL     OW30697   2.576   1.395   2.972
 9933SOL    HW130698   2.481   1.429   2.975
 9933SOL    HW230699   2.603   1.365   3.063
 9934SOL     OW30700   5.513   1.780   6.326
 9934SOL    HW130701   5.549   1.766   6.418
 9934SOL    HW230702   5.472   1.871   6.319
 9935SOL     OW30703   3.193   2.091   0.668
 9935SOL    HW130704   3.257   2.015   0.673
 9935SOL    HW230705   3.230   2.169   0.719
 9936SOL     OW30706   5.536   5.802   5.930
 9936SOL    HW130707   5.575   5.797   6.022
 9936SOL    HW230708   5.567   5.724   5.876
 9937SOL     OW30709   0.245   0.161   2.850
 9937SOL    HW130710   0.287   0.250   2.835
 9937SOL    HW230711   0.291   0.114   2.926
 9938SOL     OW30712   6.897   0.811   4.619
 9938SOL    HW130713   6.934   0.738   4.561
 9938SOL    HW230714   6.798   0.819   4.605
 9939SOL     OW30715   2.044   3.825   0.785
 9939SOL    HW130716   2.116   3.818   0.855
 9939SOL    HW230717   1.954   3.821   0.829
 9940SOL     OW30718   0.571   0.167   2.733
 9940SOL    HW130719   0.484   0.216   2.727
 9940SOL    HW230720   0.617   0.189   2.819
 9941SOL     OW30721   4.218   4.887   6.160
 9941SOL    HW130722   4.155   4.920   6.090
 9941SOL    HW230723   4.312   4.909   6.134
 9942SOL     OW30724   4.278   4.676   3.704
 9942SOL    HW130725   4.369   4.633   3.705
 9942SOL    HW230726   4.254   4.704   3.796
 9943SOL     OW30727   2.206   4.078   0.260
 9943SOL    HW130728   2.191   4.122   0.172
 9943SOL    HW230729   2.119   4.044   0.297
 9944SOL     OW30730   1.635   4.923   0.174
 9944SOL    HW130731   1.672   5.004   0.127
 9944SOL    HW230732   1.588   4.864   0.109
 9945SOL     OW30733   6.131   3.744   0.181
 9945SOL    HW130734   6.174   3.748   0.272
 9945SOL    HW230735   6.085   3.655   0.171
 9946SOL     OW30736   5.607   1.126   2.981
 9946SOL    HW130737   5.674   1.066   2.935
 9946SOL    HW230738   5.654   1.205   3.020
 9947SOL     OW30739   1.380   1.549   4.565
 9947SOL    HW130740   1.305   1.599   4.523
 9947SOL    HW230741   1.461   1.607   4.569
 9948SOL     OW30742   6.189   0.273   4.234
 9948SOL    HW130743   6.094   0.298   4.250
 9948SOL    HW230744   6.242   0.355   4.213
 9949SOL     OW30745   6.862   4.052   4.580
 9949SOL    HW130746   6.934   4.121   4.590
 9949SOL    HW230747   6.884   3.992   4.503
 9950SOL     OW30748   6.746   5.417   5.824
 9950SOL    HW130749   6.765   5.378   5.914
 9950SOL    HW230750   6.797   5.368   5.754
 9951SOL     OW30751   0.799   2.737   2.698
 9951SOL    HW130752   0.751   2.724   2.785
 9951SOL    HW230753   0.765   2.819   2.653
 9952SOL     OW30754   0.606   4.294   1.767
 9952SOL    HW130755   0.664   4.263   1.842
 9952SOL    HW230756   0.661   4.302   1.684
 9953SOL     OW30757   6.111   2.507   3.392
 9953SOL    HW130758   6.204   2.473   3.389
 9953SOL    HW230759   6.106   2.588   3.451
 9954SOL     OW30760   2.915   1.833   5.857
 9954SOL    HW130761   2.971   1.785   5.789
 9954SOL    HW230762   2.819   1.808   5.846
 9955SOL     OW30763   5.069   3.376   1.211
 9955SOL    HW130764   5.080   3.281   1.241
 9955SOL    HW230765   5.127   3.393   1.132
 9956SOL     OW30766   1.738   4.730   3.373
 9956SOL    HW130767   1.715   4.798   3.303
 9956SOL    HW230768   1.836   4.711   3.369
 9957SOL     OW30769   5.796   6.870   1.822
 9957SOL    HW130770   5.780   6.802   1.894
 9957SOL    HW230771   5.834   6.825   1.742
 9958SOL     OW30772   3.990   4.902   6.000
 9958SOL    HW130773   3.991   4.821   6.058
 9958SOL    HW230774   3.924   4.968   6.036
 9959SOL     OW30775   3.991   4.361   0.968
 9959SOL    HW130776   4.054   4.306   1.024
 9959SOL    HW230777   3.899   4.322   0.976
 9960SOL     OW30778   6.773   6.908   0.116
 9960SOL    HW130779   6.694   6.969   0.107
 9960SOL    HW230780   6.807   6.885   0.024
 9961SOL     OW30781   2.165   4.622   2.029
 9961SOL    HW130782   2.237   4.686   2.055
 9961SOL    HW230783   2.078   4.671   2.018
 9962SOL     OW30784   3.505   5.469   2.585
 9962SOL    HW130785   3.459   5.558   2.578
 9962SOL    HW230786   3.484   5.415   2.504
 9963SOL     OW30787   1.874   1.668   0.312
 9963SOL    HW130788   1.928   1.711   0.384
 9963SOL    HW230789   1.793   1.625   0.353
 9964SOL     OW30790   4.674   4.535   5.509
 9964SOL    HW130791   4.575   4.519   5.511
 9964SOL    HW230792   4.715   4.482   5.434
 9965SOL     OW30793   2.860   5.821   5.143
 9965SOL    HW130794   2.882   5.914   5.173
 9965SOL    HW230795   2.889   5.809   5.048
 9966SOL     OW30796   2.982   4.886   2.417
 9966SOL    HW130797   2.900   4.837   2.390
 9966SOL    HW230798   3.056   4.866   2.352
 9967SOL     OW30799   6.819   0.055   2.397
 9967SOL    HW130800   6.911   0.093   2.391
 9967SOL    HW230801   6.821   6.994   2.453
 9968SOL     OW30802   4.024   6.199   0.236
 9968SOL    HW130803   3.948   6.169   0.294
 9968SOL    HW230804   4.110   6.167   0.276
 9969SOL     OW30805   1.351   4.717   4.705
 9969SOL    HW130806   1.289   4.639   4.697
 9969SOL    HW230807   1.399   4.730   4.618
 9970SOL     OW30808   5.974   4.951   2.145
 9970SOL    HW130809   5.914   5.018   2.101
 9970SOL    HW230810   5.919   4.883   2.193
 9971SOL     OW30811   1.734   3.045   2.117
 9971SOL    HW130812   1.777   3.072   2.031
 9971SOL    HW230813   1.659   3.107   2.139
 9972SOL     OW30814   3.728   3.906   0.567
 9972SOL    HW130815   3.736   3.887   0.469
 9972SOL    HW230816   3.820   3.921   0.606
 9973SOL     OW30817   3.863   1.852   4.194
 9973SOL    HW130818   3.955   1.824   4.167
 9973SOL    HW230819   3.796   1.793   4.150
 9974SOL     OW30820   0.019   2.045   3.388
 9974SOL    HW130821   0.087   2.103   3.434
 9974SOL    HW230822   0.058   1.954   3.373
 9975SOL     OW30823   1.013   5.236   6.548
 9975SOL    HW130824   1.053   5.156   6.503
 9975SOL    HW230825   0.990   5.305   6.479
 9976SOL     OW30826   2.198   4.882   5.905
 9976SOL    HW130827   2.160   4.973   5.925
 9976SOL    HW230828   2.209   4.873   5.806
 9977SOL     OW30829   5.420   5.341   4.735
 9977SOL    HW130830   5.396   5.395   4.655
 9977SOL    HW230831   5.519   5.347   4.751
 9978SOL     OW30832   0.354   2.015   6.278
 9978SOL    HW130833   0.391   2.105   6.302
 9978SOL    HW230834   0.377   1.950   6.350
 9979SOL     OW30835   5.172   3.078   5.699
 9979SOL    HW130836   5.099   3.019   5.664
 9979SOL    HW230837   5.222   3.119   5.623
 9980SOL     OW30838   1.222   1.081   0.170
 9980SOL    HW130839   1.211   1.049   0.076
 9980SOL    HW230840   1.238   1.180   0.170
 9981SOL     OW30841   0.852   2.311   1.356
 9981SOL    HW130842   0.844   2.290   1.258
 9981SOL    HW230843   0.761   2.305   1.398
 9982SOL     OW30844   2.125   1.630   5.112
 9982SOL    HW130845   2.151   1.712   5.060
 9982SOL    HW230846   2.124   1.551   5.050
 9983SOL     OW30847   6.487   2.936   2.151
 9983SOL    HW130848   6.415   2.868   2.166
 9983SOL    HW230849   6.456   3.025   2.184
 9984SOL     OW30850   0.532   6.136   1.350
 9984SOL    HW130851   0.464   6.182   1.293
 9984SOL    HW230852   0.542   6.184   1.437
 9985SOL     OW30853   3.832   5.172   0.511
 9985SOL    HW130854   3.836   5.159   0.610
 9985SOL    HW230855   3.771   5.103   0.470
 9986SOL     OW30856   5.034   4.607   0.304
 9986SOL    HW130857   5.103   4.592   0.233
 9986SOL    HW230858   4.965   4.672   0.271
 9987SOL     OW30859   5.453   3.050   1.575
 9987SOL    HW130860   5.507   3.048   1.492
 9987SOL    HW230861   5.371   2.993   1.563
 9988SOL     OW30862   5.819   5.790   4.069
 9988SOL    HW130863   5.908   5.763   4.032
 9988SOL    HW230864   5.780   5.862   4.011
 9989SOL     OW30865   6.234   4.159   1.429
 9989SOL    HW130866   6.218   4.257   1.442
 9989SOL    HW230867   6.281   4.144   1.341
 9990SOL     OW30868   0.408   6.773   3.124
 9990SOL    HW130869   0.322   6.753   3.078
 9990SOL    HW230870   0.459   6.687   3.138
 9991SOL     OW30871   1.586   3.882   3.495
 9991SOL    HW130872   1.566   3.922   3.585
 9991SOL    HW230873   1.683   3.858   3.491
 9992SOL     OW30874   3.402   4.282   0.814
 9992SOL    HW130875   3.330   4.228   0.769
 9992SOL    HW230876   3.451   4.335   0.745
 9993SOL     OW30877   3.741   6.095   3.974
 9993SOL    HW130878   3.744   6.065   3.878
 9993SOL    HW230879   3.668   6.046   4.021
 9994SOL     OW30880   0.694   4.062   4.362
 9994SOL    HW130881   0.721   3.966   4.353
 9994SOL    HW230882   0.602   4.074   4.324
 9995SOL     OW30883   2.954   1.172   4.735
 9995SOL    HW130884   3.007   1.207   4.659
 9995SOL    HW230885   2.882   1.112   4.701
 9996SOL     OW30886   2.308   4.131   0.541
 9996SOL    HW130887   2.302   4.196   0.617
 9996SOL    HW230888   2.273   4.174   0.458
 9997SOL     OW30889   5.540   1.624   3.787
 9997SOL    HW130890   5.458   1.679   3.801
 9997SOL    HW230891   5.527   1.534   3.829
 9998SOL     OW30892   5.024   4.010   2.571
 9998SOL    HW130893   5.057   3.919   2.593
 9998SOL    HW230894   4.955   4.004   2.498
 9999SOL     OW30895   0.641   0.059   3.546
 9999SOL    HW130896   0.645   6.988   3.512
 9999SOL    HW230897   0.685   0.120   3.481
10000SOL     OW30898   5.383   1.912   1.705
10000SOL    HW130899   5.293   1.911   1.662
10000SOL    HW230900   5.427   1.823   1.692
10001SOL     OW30901   3.243   6.563   2.443
10001SOL    HW130902   3.175   6.632   2.416
10001SOL    HW230903   3.229   6.480   2.389
10002SOL     OW30904   2.164   0.979   0.693
10002SOL    HW130905   2.116   0.969   0.606
10002SOL    HW230906   2.182   0.889   0.731
10003SOL     OW30907   2.433   1.498   2.607
10003SOL    HW130908   2.400   1.427   2.545
10003SOL    HW230909   2.503   1.553   2.561
10004SOL     OW30910   5.198   4.656   4.868
10004SOL    HW130911   5.174   4.718   4.794
10004SOL    HW230912   5.145   4.572   4.860
10005SOL     OW30913   2.802   5.693   3.905
10005SOL    HW130914   2.891   5.733   3.925
10005SOL    HW230915   2.810   5.634   3.825
10006SOL     OW30916   5.806   0.094   5.623
10006SOL    HW130917   5.771   0.001   5.620
10006SOL    HW230918   5.856   0.108   5.709
10007SOL     OW30919   0.625   4.171   4.690
10007SOL    HW130920   0.682   4.091   4.669
10007SOL    HW230921   0.576   4.198   4.607
10008SOL     OW30922   3.396   1.700   4.081
10008SOL    HW130923   3.471   1.765   4.094
10008SOL    HW230924   3.355   1.680   4.170
10009SOL     OW30925   2.056   3.880   2.099
10009SOL    HW130926   2.097   3.859   2.188
10009SOL    HW230927   2.098   3.823   2.029
10010SOL     OW30928   2.913   4.911   6.566
10010SOL    HW130929   2.995   4.951   6.525
10010SOL    HW230930   2.918   4.812   6.563
10011SOL     OW30931   0.110   4.477   0.915
10011SOL    HW130932   0.198   4.436   0.893
10011SOL    HW230933   0.110   4.509   1.010
10012SOL     OW30934   4.964   0.625   2.240
10012SOL    HW130935   4.991   0.543   2.189
10012SOL    HW230936   5.040   0.655   2.297
10013SOL     OW30937   1.533   4.670   5.079
10013SOL    HW130938   1.605   4.740   5.080
10013SOL    HW230939   1.553   4.601   5.149
10014SOL     OW30940   0.879   6.643   2.386
10014SOL    HW130941   0.845   6.725   2.340
10014SOL    HW230942   0.974   6.657   2.413
10015SOL     OW30943   4.061   5.131   6.661
10015SOL    HW130944   3.976   5.160   6.705
10015SOL    HW230945   4.102   5.056   6.713
10016SOL     OW30946   1.466   1.307   4.591
10016SOL    HW130947   1.400   1.266   4.529
10016SOL    HW230948   1.457   1.407   4.589
10017SOL     OW30949   2.317   1.922   2.685
10017SOL    HW130950   2.371   1.843   2.712
10017SOL    HW230951   2.369   1.978   2.620
10018SOL     OW30952   6.807   4.341   5.487
10018SOL    HW130953   6.883   4.276   5.473
10018SOL    HW230954   6.725   4.290   5.513
10019SOL     OW30955   6.708   1.830   3.407
10019SOL    HW130956   6.690   1.756   3.471
10019SOL    HW230957   6.629   1.892   3.404
10020SOL     OW30958   0.360   0.938   1.442
10020SOL    HW130959   0.322   0.869   1.379
10020SOL    HW230960   0.332   1.029   1.411
10021SOL     OW30961   1.225   2.910   1.564
10021SOL    HW130962   1.162   2.982   1.533
10021SOL    HW230963   1.318   2.946   1.567
10022SOL     OW30964   2.057   6.071   6.800
10022SOL    HW130965   2.116   6.145   6.833
10022SOL    HW230966   1.965   6.082   6.839
10023SOL     OW30967   2.488   6.342   5.841
10023SOL    HW130968   2.412   6.296   5.888
10023SOL    HW230969   2.522   6.284   5.767
10024SOL     OW30970   1.647   5.047   3.047
10024SOL    HW130971   1.629   4.994   2.964
10024SOL    HW230972   1.720   5.113   3.030
10025SOL     OW30973   1.776   3.083   1.647
10025SOL    HW130974   1.843   3.020   1.685
10025SOL    HW230975   1.795   3.099   1.550
10026SOL     OW30976   5.002   1.132   2.794
10026SOL    HW130977   4.956   1.090   2.716
10026SOL    HW230978   4.933   1.165   2.859
10027SOL     OW30979   1.020   2.547   5.206
10027SOL    HW130980   0.991   2.632   5.160
10027SOL    HW230981   1.082   2.570   5.281
10028SOL     OW30982   3.672   0.610   1.086
10028SOL    HW130983   3.639   0.623   1.179
10028SOL    HW230984   3.770   0.627   1.082
10029SOL     OW30985   0.311   2.864   4.629
10029SOL    HW130986   0.217   2.855   4.664
10029SOL    HW230987   0.311   2.927   4.552
10030SOL     OW30988   3.177   6.984   4.809
10030SOL    HW130989   3.170   6.999   4.711
10030SOL    HW230990   3.086   6.990   4.850
10031SOL     OW30991   4.712   5.336   4.705
10031SOL    HW130992   4.789   5.398   4.715
10031SOL    HW230993   4.740   5.243   4.728
10032SOL     OW30994   3.692   0.214   6.199
10032SOL    HW130995   3.731   0.305   6.216
10032SOL    HW230996   3.632   0.219   6.119
10033SOL     OW30997   4.567   1.520   3.956
10033SOL    HW130998   4.474   1.500   3.924
10033SOL    HW230999   4.586   1.617   3.941
10034SOL     OW31000   2.122   0.958   3.703
10034SOL    HW131001   2.062   0.885   3.673
10034SOL    HW231002   2.192   0.921   3.765
10035SOL     OW31003   5.797   3.762   0.151
10035SOL    HW131004   5.803   3.754   0.052
10035SOL    HW231005   5.701   3.774   0.178
10036SOL     OW31006   6.504   1.121   0.273
10036SOL    HW131007   6.538   1.029   0.256
10036SOL    HW231008   6.495   1.171   0.187
10037SOL     OW31009   6.398   6.926   6.120
10037SOL    HW131010   6.320   6.945   6.061
10037SOL    HW231011   6.479   6.974   6.085
10038SOL     OW31012   4.667   6.592   6.057
10038SOL    HW131013   4.732   6.609   5.982
10038SOL    HW231014   4.695   6.643   6.138
10039SOL     OW31015   4.902   6.249   4.971
10039SOL    HW131016   4.827   6.186   4.948
10039SOL    HW231017   4.866   6.341   4.985
10040SOL     OW31018   4.143   6.012   6.981
10040SOL    HW131019   4.115   6.096   6.934
10040SOL    HW231020   4.062   5.965   7.016
10041SOL     OW31021   6.205   5.159   5.153
10041SOL    HW131022   6.190   5.162   5.054
10041SOL    HW231023   6.297   5.124   5.171
10042SOL     OW31024   0.690   0.977   5.062
10042SOL    HW131025   0.676   0.880   5.085
10042SOL    HW231026   0.788   0.996   5.055
10043SOL     OW31027   0.365   0.578   3.018
10043SOL    HW131028   0.303   0.504   3.044
10043SOL    HW231029   0.314   0.650   2.972
10044SOL     OW31030   2.460   1.788   4.263
10044SOL    HW131031   2.528   1.829   4.323
10044SOL    HW231032   2.388   1.855   4.243
10045SOL     OW31033   4.518   0.202   4.052
10045SOL    HW131034   4.513   0.280   3.990
10045SOL    HW231035   4.444   0.138   4.032
10046SOL     OW31036   0.446   1.243   1.641
10046SOL    HW131037   0.456   1.342   1.650
10046SOL    HW231038   0.398   1.207   1.722
10047SOL     OW31039   6.174   3.277   4.950
10047SOL    HW131040   6.189   3.188   4.906
10047SOL    HW231041   6.115   3.333   4.892
10048SOL     OW31042   3.711   1.709   1.876
10048SOL    HW131043   3.662   1.717   1.788
10048SOL    HW231044   3.651   1.665   1.943
10049SOL     OW31045   0.863   1.089   6.445
10049SOL    HW131046   0.920   1.157   6.399
10049SOL    HW231047   0.891   1.081   6.541
10050SOL     OW31048   5.995   2.727   5.132
10050SOL    HW131049   6.013   2.822   5.108
10050SOL    HW231050   5.897   2.707   5.120
10051SOL     OW31051   6.820   2.617   4.653
10051SOL    HW131052   6.733   2.667   4.647
10051SOL    HW231053   6.809   2.536   4.710
10052SOL     OW31054   2.178   2.514   1.866
10052SOL    HW131055   2.133   2.587   1.918
10052SOL    HW231056   2.273   2.538   1.849
10053SOL     OW31057   3.794   5.208   2.031
10053SOL    HW131058   3.746   5.125   2.003
10053SOL    HW231059   3.822   5.259   1.950
10054SOL     OW31060   4.047   6.080   6.107
10054SOL    HW131061   4.013   5.993   6.071
10054SOL    HW231062   4.141   6.095   6.077
10055SOL     OW31063   6.138   2.629   5.345
10055SOL    HW131064   6.080   2.682   5.282
10055SOL    HW231065   6.126   2.531   5.327
10056SOL     OW31066   5.987   5.069   1.146
10056SOL    HW131067   5.902   5.092   1.194
10056SOL    HW231068   6.044   5.151   1.140
10057SOL     OW31069   3.389   0.910   4.285
10057SOL    HW131070   3.351   1.002   4.295
10057SOL    HW231071   3.438   0.885   4.369
10058SOL     OW31072   0.316   4.015   4.721
10058SOL    HW131073   0.344   3.922   4.695
10058SOL    HW231074   0.352   4.080   4.654
10059SOL     OW31075   4.943   6.865   0.755
10059SOL    HW131076   4.983   6.819   0.834
10059SOL    HW231077   4.963   6.963   0.760
10060SOL     OW31078   2.396   1.314   2.357
10060SOL    HW131079   2.461   1.307   2.281
10060SOL    HW231080   2.316   1.367   2.328
10061SOL     OW31081   5.356   1.123   4.027
10061SOL    HW131082   5.410   1.123   3.943
10061SOL    HW231083   5.264   1.089   4.007
10062SOL     OW31084   6.204   0.077   4.971
10062SOL    HW131085   6.238   7.005   4.970
10062SOL    HW231086   6.250   0.129   4.900
10063SOL     OW31087   1.829   1.622   3.344
10063SOL    HW131088   1.865   1.528   3.350
10063SOL    HW231089   1.857   1.673   3.425
10064SOL     OW31090   5.598   5.534   5.812
10064SOL    HW131091   5.604   5.436   5.791
10064SOL    HW231092   5.518   5.573   5.766
10065SOL     OW31093   1.826   0.275   1.883
10065SOL    HW131094   1.759   0.302   1.952
10065SOL    HW231095   1.873   0.356   1.847
10066SOL     OW31096   1.515   1.545   4.226
10066SOL    HW131097   1.516   1.450   4.258
10066SOL    HW231098   1.437   1.592   4.265
10067SOL     OW31099   5.180   4.269   5.815
10067SOL    HW131100   5.192   4.179   5.773
10067SOL    HW231101   5.105   4.317   5.769
10068SOL     OW31102   5.450   2.963   3.927
10068SOL    HW131103   5.503   3.047   3.936
10068SOL    HW231104   5.383   2.973   3.853
10069SOL     OW31105   1.698   6.169   3.993
10069SOL    HW131106   1.680   6.262   4.024
10069SOL    HW231107   1.758   6.123   4.058
10070SOL     OW31108   0.218   0.197   4.863
10070SOL    HW131109   0.143   0.234   4.808
10070SOL    HW231110   0.279   0.272   4.890
10071SOL     OW31111   4.826   5.470   4.148
10071SOL    HW131112   4.876   5.553   4.121
10071SOL    HW231113   4.877   5.421   4.218
10072SOL     OW31114   1.412   6.493   4.497
10072SOL    HW131115   1.329   6.543   4.522
10072SOL    HW231116   1.481   6.504   4.569
10073SOL     OW31117   6.485   3.920   4.642
10073SOL    HW131118   6.534   4.006   4.657
10073SOL    HW231119   6.400   3.939   4.594
10074SOL     OW31120   0.531   0.570   5.365
10074SOL    HW131121   0.542   0.628   5.445
10074SOL    HW231122   0.614   0.518   5.349
10075SOL     OW31123   1.476   1.995   2.672
10075SOL    HW131124   1.474   1.973   2.770
10075SOL    HW231125   1.505   2.090   2.660
10076SOL     OW31126   5.877   0.157   3.611
10076SOL    HW131127   5.858   0.188   3.704
10076SOL    HW231128   5.953   0.093   3.612
10077SOL     OW31129   3.648   2.452   6.961
10077SOL    HW131130   3.576   2.383   6.950
10077SOL    HW231131   3.710   2.447   6.883
10078SOL     OW31132   6.819   6.470   4.229
10078SOL    HW131133   6.916   6.460   4.210
10078SOL    HW231134   6.767   6.456   4.144
10079SOL     OW31135   1.149   2.918   1.861
10079SOL    HW131136   1.239   2.950   1.890
10079SOL    HW231137   1.160   2.845   1.793
10080SOL     OW31138   3.325   2.038   6.384
10080SOL    HW131139   3.329   1.945   6.346
10080SOL    HW231140   3.413   2.059   6.426
10081SOL     OW31141   0.068   7.000   6.445
10081SOL    HW131142   0.088   6.995   6.543
10081SOL    HW231143   7.018   6.935   6.423
10082SOL     OW31144   6.865   3.296   2.546
10082SOL    HW131145   6.880   3.247   2.632
10082SOL    HW231146   6.874   3.232   2.470
10083SOL     OW31147   5.248   1.190   3.268
10083SOL    HW131148   5.317   1.240   3.216
10083SOL    HW231149   5.178   1.154   3.205
10084SOL     OW31150   4.009   1.063   6.305
10084SOL    HW131151   3.957   1.104   6.230
10084SOL    HW231152   4.107   1.064   6.282
10085SOL     OW31153   0.542   5.235   2.521
10085SOL    HW131154   0.506   5.327   2.508
10085SOL    HW231155   0.502   5.174   2.452
10086SOL     OW31156   6.175   5.191   2.112
10086SOL    HW131157   6.178   5.094   2.088
10086SOL    HW231158   6.266   5.230   2.103
10087SOL     OW31159   0.603   0.193   3.905
10087SOL    HW131160   0.601   0.094   3.892
10087SOL    HW231161   0.515   0.222   3.944
10088SOL     OW31162   6.858   6.840   6.379
10088SOL    HW131163   6.845   6.890   6.294
10088SOL    HW231164   6.775   6.848   6.436
10089SOL     OW31165   2.468   2.474   3.169
10089SOL    HW131166   2.458   2.528   3.085
10089SOL    HW231167   2.379   2.440   3.198
10090SOL     OW31168   0.837   4.722   1.227
10090SOL    HW131169   0.820   4.654   1.156
10090SOL    HW231170   0.922   4.771   1.206
10091SOL     OW31171   1.154   3.323   5.434
10091SOL    HW131172   1.061   3.290   5.444
10091SOL    HW231173   1.214   3.248   5.406
10092SOL     OW31174   1.936   3.597   5.215
10092SOL    HW131175   1.890   3.619   5.129
10092SOL    HW231176   1.870   3.602   5.290
10093SOL     OW31177   1.174   3.965   4.387
10093SOL    HW131178   1.121   4.024   4.448
10093SOL    HW231179   1.231   4.021   4.327
10094SOL     OW31180   2.602   6.413   1.951
10094SOL    HW131181   2.616   6.421   2.050
10094SOL    HW231182   2.599   6.504   1.910
10095SOL     OW31183   6.308   1.991   5.314
10095SOL    HW131184   6.227   1.931   5.316
10095SOL    HW231185   6.359   1.980   5.399
10096SOL     OW31186   6.440   5.254   2.385
10096SOL    HW131187   6.418   5.313   2.308
10096SOL    HW231188   6.383   5.278   2.463
10097SOL     OW31189   0.888   1.038   6.963
10097SOL    HW131190   0.948   1.113   6.935
10097SOL    HW231191   0.880   1.037   0.040
10098SOL     OW31192   2.083   6.889   5.752
10098SOL    HW131193   2.053   6.967   5.807
10098SOL    HW231194   2.129   6.823   5.811
10099SOL     OW31195   0.067   5.392   6.455
10099SOL    HW131196   7.018   5.431   6.511
10099SOL    HW231197   0.126   5.335   6.512
10100SOL     OW31198   5.269   6.972   4.519
10100SOL    HW131199   5.253   7.013   4.430
10100SOL    HW231200   5.222   0.002   4.590
10101SOL     OW31201   5.561   4.227   1.736
10101SOL    HW131202   5.646   4.180   1.711
10101SOL    HW231203   5.525   4.275   1.657
10102SOL     OW31204   2.161   0.786   3.057
10102SOL    HW131205   2.172   0.781   2.957
10102SOL    HW231206   2.231   0.847   3.095
10103SOL     OW31207   2.668   1.194   5.057
10103SOL    HW131208   2.741   1.246   5.012
10103SOL    HW231209   2.708   1.120   5.112
10104SOL     OW31210   1.305   3.439   4.832
10104SOL    HW131211   1.387   3.419   4.778
10104SOL    HW231212   1.327   3.435   4.929
10105SOL     OW31213   1.210   1.344   0.121
10105SOL    HW131214   1.134   1.387   0.072
10105SOL    HW231215   1.297   1.373   0.081
10106SOL     OW31216   4.921   5.216   0.634
10106SOL    HW131217   4.989   5.242   0.565
10106SOL    HW231218   4.936   5.270   0.717
10107SOL     OW31219   0.044   1.988   6.851
10107SOL    HW131220   6.983   2.040   6.835
10107SOL    HW231221   0.055   1.970   6.949
10108SOL     OW31222   6.723   5.974   0.206
10108SOL    HW131223   6.718   6.064   0.248
10108SOL    HW231224   6.632   5.933   0.205
10109SOL     OW31225   3.400   6.343   2.365
10109SOL    HW131226   3.465   6.274   2.399
10109SOL    HW231227   3.447   6.430   2.352
10110SOL     OW31228   4.209   6.350   4.831
10110SOL    HW131229   4.238   6.281   4.898
10110SOL    HW231230   4.289   6.392   4.790
10111SOL     OW31231   6.259   2.688   4.577
10111SOL    HW131232   6.226   2.594   4.584
10111SOL    HW231233   6.195   2.750   4.623
10112SOL     OW31234   5.561   4.549   4.743
10112SOL    HW131235   5.598   4.457   4.732
10112SOL    HW231236   5.620   4.601   4.805
10113SOL     OW31237   3.990   1.531   6.031
10113SOL    HW131238   3.973   1.576   6.118
10113SOL    HW231239   3.923   1.457   6.017
10114SOL     OW31240   5.422   0.058   1.103
10114SOL    HW131241   5.486   0.098   1.168
10114SOL    HW231242   5.472   0.007   1.033
10115SOL     OW31243   3.343   2.136   3.528
10115SOL    HW131244   3.251   2.169   3.509
10115SOL    HW231245   3.359   2.050   3.479
10116SOL     OW31246   0.773   6.516   6.910
10116SOL    HW131247   0.808   6.445   6.848
10116SOL    HW231248   0.673   6.513   6.911
10117SOL     OW31249   6.732   0.061   4.478
10117SOL    HW131250   6.745   6.990   4.510
10117SOL    HW231251   6.642   0.094   4.507
10118SOL     OW31252   0.119   5.425   3.364
10118SOL    HW131253   0.175   5.481   3.426
10118SOL    HW231254   0.177   5.386   3.293
10119SOL     OW31255   1.614   6.581   4.700
10119SOL    HW131256   1.631   6.654   4.633
10119SOL    HW231257   1.701   6.545   4.733
10120SOL     OW31258   1.085   3.570   4.084
10120SOL    HW131259   0.990   3.575   4.055
10120SOL    HW231260   1.094   3.609   4.176
10121SOL     OW31261   6.516   5.016   5.762
10121SOL    HW131262   6.560   4.951   5.824
10121SOL    HW231263   6.564   5.104   5.768
10122SOL     OW31264   5.305   2.771   0.645
10122SOL    HW131265   5.276   2.835   0.574
10122SOL    HW231266   5.405   2.765   0.645
10123SOL     OW31267   6.666   6.232   0.328
10123SOL    HW131268   6.678   6.294   0.251
10123SOL    HW231269   6.678   6.282   0.413
10124SOL     OW31270   1.637   3.698   6.541
10124SOL    HW131271   1.723   3.709   6.490
10124SOL    HW231272   1.580   3.630   6.496
10125SOL     OW31273   1.413   1.150   2.641
10125SOL    HW131274   1.370   1.226   2.689
10125SOL    HW231275   1.375   1.143   2.549
10126SOL     OW31276   0.632   0.012   6.441
10126SOL    HW131277   0.640   0.048   6.348
10126SOL    HW231278   0.547   6.982   6.450
10127SOL     OW31279   2.710   4.900   5.877
10127SOL    HW131280   2.615   4.907   5.909
10127SOL    HW231281   2.710   4.860   5.785
10128SOL     OW31282   1.167   1.633   1.062
10128SOL    HW131283   1.115   1.706   1.018
10128SOL    HW231284   1.234   1.673   1.125
10129SOL     OW31285   5.110   2.953   4.087
10129SOL    HW131286   5.201   2.923   4.056
10129SOL    HW231287   5.116   2.985   4.182
10130SOL     OW31288   2.140   4.184   2.352
10130SOL    HW131289   2.149   4.224   2.443
10130SOL    HW231290   2.134   4.085   2.360
10131SOL     OW31291   0.438   0.993   3.070
10131SOL    HW131292   0.516   0.949   3.025
10131SOL    HW231293   0.461   1.088   3.092
10132SOL     OW31294   2.455   6.641   3.740
10132SOL    HW131295   2.405   6.556   3.757
10132SOL    HW231296   2.494   6.639   3.648
10133SOL     OW31297   4.708   5.971   1.647
10133SOL    HW131298   4.709   5.909   1.726
10133SOL    HW231299   4.615   6.004   1.631
10134SOL     OW31300   6.584   6.963   3.656
10134SOL    HW131301   6.584   7.001   3.749
10134SOL    HW231302   6.556   0.012   3.592
10135SOL     OW31303   5.303   3.162   3.318
10135SOL    HW131304   5.238   3.105   3.268
10135SOL    HW231305   5.394   3.122   3.314
10136SOL     OW31306   5.696   0.249   2.736
10136SOL    HW131307   5.721   0.222   2.643
10136SOL    HW231308   5.694   0.349   2.742
10137SOL     OW31309   5.962   4.707   3.938
10137SOL    HW131310   6.044   4.761   3.957
10137SOL    HW231311   5.987   4.626   3.885
10138SOL     OW31312   5.290   2.340   0.669
10138SOL    HW131313   5.315   2.285   0.589
10138SOL    HW231314   5.191   2.336   0.682
10139SOL     OW31315   3.622   3.595   3.148
10139SOL    HW131316   3.571   3.647   3.080
10139SOL    HW231317   3.559   3.559   3.217
10140SOL     OW31318   6.896   5.892   5.341
10140SOL    HW131319   6.904   5.795   5.364
10140SOL    HW231320   6.800   5.918   5.333
10141SOL     OW31321   2.981   1.446   4.099
10141SOL    HW131322   2.891   1.445   4.142
10141SOL    HW231323   2.982   1.513   4.025
10142SOL     OW31324   6.217   6.721   4.662
10142SOL    HW131325   6.139   6.738   4.723
10142SOL    HW231326   6.295   6.691   4.717
10143SOL     OW31327   4.583   0.759   0.506
10143SOL    HW131328   4.525   0.715   0.575
10143SOL    HW231329   4.530   0.774   0.423
10144SOL     OW31330   4.249   0.086   6.191
10144SOL    HW131331   4.186   0.100   6.115
10144SOL    HW231332   4.305   0.168   6.204
10145SOL     OW31333   3.613   5.591   6.293
10145SOL    HW131334   3.632   5.680   6.251
10145SOL    HW231335   3.548   5.540   6.237
10146SOL     OW31336   3.964   5.036   5.209
10146SOL    HW131337   3.931   4.974   5.138
10146SOL    HW231338   4.052   5.074   5.182
10147SOL     OW31339   5.016   4.430   5.177
10147SOL    HW131340   5.088   4.366   5.150
10147SOL    HW231341   4.992   4.488   5.099
10148SOL     OW31342   6.043   5.475   6.601
10148SOL    HW131343   6.024   5.562   6.645
10148SOL    HW231344   6.123   5.484   6.542
10149SOL     OW31345   5.751   1.692   1.198
10149SOL    HW131346   5.654   1.684   1.222
10149SOL    HW231347   5.794   1.763   1.254
10150SOL     OW31348   4.319   3.745   0.478
10150SOL    HW131349   4.395   3.680   0.484
10150SOL    HW231350   4.256   3.716   0.406
10151SOL     OW31351   1.042   6.606   6.991
10151SOL    HW131352   0.957   6.585   6.944
10151SOL    HW231353   1.119   6.585   6.932
10152SOL     OW31354   0.952   6.597   4.701
10152SOL    HW131355   0.974   6.683   4.654
10152SOL    HW231356   0.916   6.617   4.792
10153SOL     OW31357   4.963   6.077   3.836
10153SOL    HW131358   5.011   6.164   3.848
10153SOL    HW231359   4.948   6.060   3.739
10154SOL     OW31360   5.963   0.113   4.813
10154SOL    HW131361   5.955   0.109   4.913
10154SOL    HW231362   6.049   0.072   4.785
10155SOL     OW31363   3.676   1.987   5.809
10155SOL    HW131364   3.604   1.980   5.739
10155SOL    HW231365   3.765   1.985   5.765
10156SOL     OW31366   6.508   0.587   2.249
10156SOL    HW131367   6.500   0.618   2.344
10156SOL    HW231368   6.531   0.664   2.191
10157SOL     OW31369   6.298   3.340   6.161
10157SOL    HW131370   6.375   3.284   6.128
10157SOL    HW231371   6.333   3.427   6.195
10158SOL     OW31372   5.468   3.458   0.512
10158SOL    HW131373   5.559   3.461   0.552
10158SOL    HW231374   5.460   3.376   0.455
10159SOL     OW31375   3.082   3.509   5.977
10159SOL    HW131376   3.061   3.435   6.040
10159SOL    HW231377   3.043   3.488   5.887
10160SOL     OW31378   2.180   3.058   2.404
10160SOL    HW131379   2.174   3.071   2.503
10160SOL    HW231380   2.254   3.116   2.368
10161SOL     OW31381   3.691   3.332   6.569
10161SOL    HW131382   3.661   3.426   6.585
10161SOL    HW231383   3.660   3.273   6.644
10162SOL     OW31384   3.387   4.919   0.543
10162SOL    HW131385   3.305   4.958   0.586
10162SOL    HW231386   3.431   4.857   0.607
10163SOL     OW31387   5.531   5.258   6.093
10163SOL    HW131388   5.452   5.317   6.081
10163SOL    HW231389   5.615   5.313   6.086
10164SOL     OW31390   5.640   3.180   4.868
10164SOL    HW131391   5.546   3.198   4.840
10164SOL    HW231392   5.645   3.174   4.968
10165SOL     OW31393   0.567   1.650   3.283
10165SOL    HW131394   0.523   1.636   3.194
10165SOL    HW231395   0.552   1.745   3.313
10166SOL     OW31396   3.861   1.103   1.838
10166SOL    HW131397   3.842   1.006   1.824
10166SOL    HW231398   3.823   1.156   1.762
10167SOL     OW31399   3.328   2.431   6.133
10167SOL    HW131400   3.405   2.437   6.070
10167SOL    HW231401   3.243   2.427   6.081
10168SOL     OW31402   6.191   4.032   5.392
10168SOL    HW131403   6.098   4.064   5.373
10168SOL    HW231404   6.247   4.039   5.309
10169SOL     OW31405   6.030   4.049   3.468
10169SOL    HW131406   6.065   3.998   3.546
10169SOL    HW231407   5.930   4.049   3.470
10170SOL     OW31408   1.563   4.733   5.759
10170SOL    HW131409   1.479   4.758   5.710
10170SOL    HW231410   1.567   4.785   5.845
10171SOL     OW31411   6.471   3.323   5.649
10171SOL    HW131412   6.501   3.297   5.557
10171SOL    HW231413   6.500   3.253   5.714
10172SOL     OW31414   6.458   6.646   4.798
10172SOL    HW131415   6.546   6.638   4.752
10172SOL    HW231416   6.426   6.555   4.824
10173SOL     OW31417   1.107   2.438   0.961
10173SOL    HW131418   1.055   2.462   1.043
10173SOL    HW231419   1.044   2.419   0.886
10174SOL     OW31420   5.465   5.165   2.214
10174SOL    HW131421   5.553   5.205   2.237
10174SOL    HW231422   5.394   5.207   2.270
10175SOL     OW31423   6.483   2.224   3.851
10175SOL    HW131424   6.471   2.320   3.825
10175SOL    HW231425   6.400   2.190   3.895
10176SOL     OW31426   1.593   3.022   5.606
10176SOL    HW131427   1.538   2.941   5.587
10176SOL    HW231428   1.683   2.995   5.637
10177SOL     OW31429   1.987   0.710   0.457
10177SOL    HW131430   2.056   0.641   0.435
10177SOL    HW231431   1.897   0.667   0.463
10178SOL     OW31432   0.113   1.765   5.180
10178SOL    HW131433   0.035   1.806   5.132
10178SOL    HW231434   0.123   1.669   5.153
10179SOL     OW31435   1.013   1.933   6.176
10179SOL    HW131436   0.944   1.965   6.242
10179SOL    HW231437   1.104   1.956   6.209
10180SOL     OW31438   3.967   0.575   0.018
10180SOL    HW131439   4.061   0.609   0.020
10180SOL    HW231440   3.927   0.582   0.109
10181SOL     OW31441   5.139   3.075   2.298
10181SOL    HW131442   5.171   3.169   2.290
10181SOL    HW231443   5.170   3.022   2.220
10182SOL     OW31444   5.356   1.109   1.908
10182SOL    HW131445   5.357   1.184   1.974
10182SOL    HW231446   5.266   1.104   1.864
10183SOL     OW31447   0.224   2.467   6.371
10183SOL    HW131448   0.313   2.422   6.372
10183SOL    HW231449   0.236   2.565   6.383
10184SOL     OW31450   3.650   1.189   6.846
10184SOL    HW131451   3.747   1.206   6.863
10184SOL    HW231452   3.624   1.101   6.885
10185SOL     OW31453   5.486   5.870   1.784
10185SOL    HW131454   5.437   5.788   1.755
10185SOL    HW231455   5.552   5.896   1.714
10186SOL     OW31456   6.134   3.705   3.519
10186SOL    HW131457   6.233   3.701   3.514
10186SOL    HW231458   6.107   3.748   3.606
10187SOL     OW31459   0.880   3.121   0.862
10187SOL    HW131460   0.849   3.194   0.923
10187SOL    HW231461   0.879   3.034   0.910
10188SOL     OW31462   3.369   5.782   0.652
10188SOL    HW131463   3.464   5.806   0.634
10188SOL    HW231464   3.356   5.770   0.751
10189SOL     OW31465   0.971   0.451   6.346
10189SOL    HW131466   0.977   0.476   6.443
10189SOL    HW231467   0.879   0.469   6.312
10190SOL     OW31468   5.078   3.096   1.784
10190SOL    HW131469   5.009   3.167   1.772
10190SOL    HW231470   5.041   3.023   1.841
10191SOL     OW31471   5.004   4.974   5.415
10191SOL    HW131472   5.081   4.965   5.352
10191SOL    HW231473   5.028   4.933   5.504
10192SOL     OW31474   4.432   1.861   5.981
10192SOL    HW131475   4.401   1.911   6.062
10192SOL    HW231476   4.517   1.813   6.002
10193SOL     OW31477   4.165   3.611   2.212
10193SOL    HW131478   4.264   3.622   2.217
10193SOL    HW231479   4.123   3.637   2.299
10194SOL     OW31480   5.887   5.213   4.923
10194SOL    HW131481   5.868   5.298   4.874
10194SOL    HW231482   5.981   5.183   4.904
10195SOL     OW31483   6.102   5.381   1.198
10195SOL    HW131484   6.151   5.390   1.111
10195SOL    HW231485   6.007   5.409   1.185
10196SOL     OW31486   4.094   1.752   4.080
10196SOL    HW131487   4.096   1.666   4.131
10196SOL    HW231488   4.150   1.742   3.997
10197SOL     OW31489   6.668   2.151   5.366
10197SOL    HW131490   6.633   2.132   5.275
10197SOL    HW231491   6.592   2.172   5.428
10198SOL     OW31492   3.257   0.707   1.583
10198SOL    HW131493   3.205   0.671   1.661
10198SOL    HW231494   3.205   0.692   1.499
10199SOL     OW31495   2.686   2.521   6.717
10199SOL    HW131496   2.661   2.579   6.795
10199SOL    HW231497   2.726   2.436   6.750
10200SOL     OW31498   5.253   1.475   0.460
10200SOL    HW131499   5.243   1.547   0.529
10200SOL    HW231500   5.172   1.416   0.462
10201SOL     OW31501   1.277   4.533   0.640
10201SOL    HW131502   1.367   4.525   0.683
10201SOL    HW231503   1.207   4.536   0.712
10202SOL     OW31504   3.867   3.157   0.272
10202SOL    HW131505   3.920   3.230   0.228
10202SOL    HW231506   3.801   3.198   0.335
10203SOL     OW31507   6.246   2.705   3.783
10203SOL    HW131508   6.150   2.684   3.800
10203SOL    HW231509   6.260   2.722   3.686
10204SOL     OW31510   4.933   6.631   6.787
10204SOL    HW131511   4.951   6.695   6.862
10204SOL    HW231512   4.835   6.614   6.781
10205SOL     OW31513   2.079   0.905   1.363
10205SOL    HW131514   2.173   0.909   1.328
10205SOL    HW231515   2.018   0.949   1.298
10206SOL     OW31516   0.501   0.944   0.066
10206SOL    HW131517   0.523   0.847   0.067
10206SOL    HW231518   0.467   0.970   6.998
10207SOL     OW31519   1.528   2.022   6.989
10207SOL    HW131520   1.602   1.961   6.960
10207SOL    HW231521   1.548   2.115   6.958
10208SOL     OW31522   5.567   4.562   3.898
10208SOL    HW131523   5.570   4.531   3.993
10208SOL    HW231524   5.548   4.660   3.895
10209SOL     OW31525   6.798   0.134   6.268
10209SOL    HW131526   6.869   0.196   6.235
10209SOL    HW231527   6.798   0.051   6.213
10210SOL     OW31528   4.894   6.803   2.223
10210SOL    HW131529   4.863   6.866   2.151
10210SOL    HW231530   4.833   6.811   2.302
10211SOL     OW31531   4.007   6.336   4.360
10211SOL    HW131532   4.104   6.352   4.339
10211SOL    HW231533   3.954   6.337   4.276
10212SOL     OW31534   1.162   0.233   5.682
10212SOL    HW131535   1.196   0.241   5.588
10212SOL    HW231536   1.223   0.172   5.734
10213SOL     OW31537   4.701   3.048   1.166
10213SOL    HW131538   4.616   3.094   1.140
10213SOL    HW231539   4.689   2.949   1.158
10214SOL     OW31540   1.210   1.196   1.911
10214SOL    HW131541   1.207   1.236   2.002
10214SOL    HW231542   1.142   1.123   1.904
10215SOL     OW31543   3.785   3.066   3.469
10215SOL    HW131544   3.728   2.984   3.474
10215SOL    HW231545   3.790   3.109   3.559
10216SOL     OW31546   6.844   0.670   0.823
10216SOL    HW131547   6.934   0.630   0.804
10216SOL    HW231548   6.847   0.769   0.807
10217SOL     OW31549   2.639   1.333   3.241
10217SOL    HW131550   2.729   1.289   3.240
10217SOL    HW231551   2.624   1.377   3.329
10218SOL     OW31552   1.107   1.724   1.974
10218SOL    HW131553   1.189   1.719   1.916
10218SOL    HW231554   1.062   1.812   1.962
10219SOL     OW31555   0.171   2.140   3.071
10219SOL    HW131556   0.141   2.051   3.038
10219SOL    HW231557   0.091   2.198   3.090
10220SOL     OW31558   4.273   2.406   1.360
10220SOL    HW131559   4.333   2.401   1.280
10220SOL    HW231560   4.319   2.456   1.433
10221SOL     OW31561   0.340   5.537   3.025
10221SOL    HW131562   0.389   5.498   2.947
10221SOL    HW231563   0.387   5.620   3.055
10222SOL     OW31564   3.020   3.059   5.626
10222SOL    HW131565   2.981   2.966   5.622
10222SOL    HW231566   2.970   3.118   5.563
10223SOL     OW31567   0.835   4.601   1.467
10223SOL    HW131568   0.871   4.664   1.537
10223SOL    HW231569   0.823   4.651   1.382
10224SOL     OW31570   6.584   2.837   3.744
10224SOL    HW131571   6.577   2.883   3.832
10224SOL    HW231572   6.635   2.896   3.680
10225SOL     OW31573   1.759   4.994   5.867
10225SOL    HW131574   1.786   5.091   5.863
10225SOL    HW231575   1.669   4.987   5.909
10226SOL     OW31576   3.077   0.922   6.906
10226SOL    HW131577   3.173   0.902   6.885
10226SOL    HW231578   3.073   0.994   6.975
10227SOL     OW31579   5.154   4.202   0.187
10227SOL    HW131580   5.056   4.189   0.201
10227SOL    HW231581   5.190   4.126   0.133
10228SOL     OW31582   6.679   0.090   1.007
10228SOL    HW131583   6.651   0.139   1.090
10228SOL    HW231584   6.729   0.007   1.033
10229SOL     OW31585   1.160   2.641   4.710
10229SOL    HW131586   1.109   2.711   4.660
10229SOL    HW231587   1.253   2.634   4.672
10230SOL     OW31588   6.223   5.772   2.903
10230SOL    HW131589   6.129   5.743   2.921
10230SOL    HW231590   6.247   5.847   2.964
10231SOL     OW31591   0.857   5.532   4.894
10231SOL    HW131592   0.888   5.602   4.830
10231SOL    HW231593   0.927   5.460   4.901
10232SOL     OW31594   2.758   1.126   3.805
10232SOL    HW131595   2.744   1.094   3.712
10232SOL    HW231596   2.687   1.192   3.829
10233SOL     OW31597   4.146   3.657   4.758
10233SOL    HW131598   4.051   3.683   4.738
10233SOL    HW231599   4.208   3.722   4.714
10234SOL     OW31600   6.278   0.715   1.264
10234SOL    HW131601   6.367   0.708   1.220
10234SOL    HW231602   6.207   0.679   1.203
10235SOL     OW31603   1.865   2.221   2.033
10235SOL    HW131604   1.769   2.232   2.059
10235SOL    HW231605   1.881   2.266   1.945
10236SOL     OW31606   2.199   6.554   0.666
10236SOL    HW131607   2.162   6.496   0.739
10236SOL    HW231608   2.234   6.639   0.706
10237SOL     OW31609   6.848   3.150   0.433
10237SOL    HW131610   6.871   3.052   0.435
10237SOL    HW231611   6.810   3.173   0.344
10238SOL     OW31612   4.295   4.334   1.479
10238SOL    HW131613   4.257   4.248   1.511
10238SOL    HW231614   4.352   4.375   1.551
10239SOL     OW31615   1.218   2.844   5.162
10239SOL    HW131616   1.171   2.888   5.085
10239SOL    HW231617   1.174   2.757   5.182
10240SOL     OW31618   2.734   5.752   2.622
10240SOL    HW131619   2.774   5.843   2.631
10240SOL    HW231620   2.804   5.683   2.640
10241SOL     OW31621   5.673   0.809   2.397
10241SOL    HW131622   5.690   0.882   2.332
10241SOL    HW231623   5.576   0.808   2.422
10242SOL     OW31624   6.520   1.366   0.689
10242SOL    HW131625   6.596   1.370   0.753
10242SOL    HW231626   6.462   1.288   0.711
10243SOL     OW31627   2.640   4.378   1.510
10243SOL    HW131628   2.721   4.349   1.561
10243SOL    HW231629   2.613   4.470   1.540
10244SOL     OW31630   2.394   4.372   0.750
10244SOL    HW131631   2.473   4.335   0.702
10244SOL    HW231632   2.405   4.360   0.849
10245SOL     OW31633   3.744   4.241   1.063
10245SOL    HW131634   3.729   4.162   1.002
10245SOL    HW231635   3.734   4.212   1.158
10246SOL     OW31636   3.205   3.999   4.440
10246SOL    HW131637   3.142   3.989   4.517
10246SOL    HW231638   3.278   4.063   4.465
10247SOL     OW31639   0.224   3.907   6.289
10247SOL    HW131640   0.291   3.963   6.239
10247SOL    HW231641   0.223   3.815   6.251
10248SOL     OW31642   0.892   0.484   2.973
10248SOL    HW131643   0.955   0.452   3.044
10248SOL    HW231644   0.819   0.538   3.016
10249SOL     OW31645   2.973   5.190   6.317
10249SOL    HW131646   3.067   5.157   6.319
10249SOL    HW231647   2.924   5.147   6.242
10250SOL     OW31648   6.706   3.828   0.973
10250SOL    HW131649   6.678   3.860   1.064
10250SOL    HW231650   6.774   3.891   0.936
10251SOL     OW31651   2.019   1.303   4.144
10251SOL    HW131652   2.050   1.330   4.053
10251SOL    HW231653   2.044   1.208   4.161
10252SOL     OW31654   4.500   3.410   5.988
10252SOL    HW131655   4.421   3.393   6.048
10252SOL    HW231656   4.488   3.363   5.901
10253SOL     OW31657   2.964   6.066   0.887
10253SOL    HW131658   2.892   6.009   0.848
10253SOL    HW231659   3.039   6.074   0.822
10254SOL     OW31660   4.437   1.596   5.653
10254SOL    HW131661   4.405   1.687   5.625
10254SOL    HW231662   4.532   1.602   5.685
10255SOL     OW31663   2.441   6.713   0.929
10255SOL    HW131664   2.433   6.781   1.001
10255SOL    HW231665   2.537   6.702   0.902
10256SOL     OW31666   4.329   0.707   2.353
10256SOL    HW131667   4.369   0.727   2.263
10256SOL    HW231668   4.395   0.655   2.408
10257SOL     OW31669   1.327   5.336   4.228
10257SOL    HW131670   1.330   5.430   4.262
10257SOL    HW231671   1.253   5.286   4.273
10258SOL     OW31672   3.956   1.849   3.600
10258SOL    HW131673   3.949   1.808   3.692
10258SOL    HW231674   4.031   1.916   3.600
10259SOL     OW31675   1.207   4.442   3.435
10259SOL    HW131676   1.299   4.469   3.463
10259SOL    HW231677   1.211   4.353   3.389
10260SOL     OW31678   0.367   1.297   3.641
10260SOL    HW131679   0.411   1.372   3.593
10260SOL    HW231680   0.391   1.210   3.597
10261SOL     OW31681   6.352   4.922   0.631
10261SOL    HW131682   6.407   5.002   0.606
10261SOL    HW231683   6.389   4.840   0.587
10262SOL     OW31684   3.278   6.673   6.502
10262SOL    HW131685   3.326   6.758   6.524
10262SOL    HW231686   3.305   6.642   6.410
10263SOL     OW31687   5.864   0.319   0.391
10263SOL    HW131688   5.838   0.401   0.443
10263SOL    HW231689   5.845   0.333   0.294
10264SOL     OW31690   6.474   5.366   6.958
10264SOL    HW131691   6.403   5.328   7.017
10264SOL    HW231692   6.543   5.295   6.939
10265SOL     OW31693   3.784   2.591   6.589
10265SOL    HW131694   3.749   2.510   6.637
10265SOL    HW231695   3.744   2.595   6.497
10266SOL     OW31696   3.829   2.954   2.785
10266SOL    HW131697   3.756   2.935   2.719
10266SOL    HW231698   3.802   2.920   2.875
10267SOL     OW31699   5.170   1.035   0.839
10267SOL    HW131700   5.249   0.988   0.877
10267SOL    HW231701   5.201   1.115   0.787
10268SOL     OW31702   5.713   6.490   2.308
10268SOL    HW131703   5.743   6.458   2.218
10268SOL    HW231704   5.696   6.588   2.304
10269SOL     OW31705   1.519   2.305   6.143
10269SOL    HW131706   1.582   2.383   6.144
10269SOL    HW231707   1.568   2.222   6.169
10270SOL     OW31708   3.363   5.618   3.151
10270SOL    HW131709   3.349   5.578   3.061
10270SOL    HW231710   3.321   5.560   3.221
10271SOL     OW31711   2.954   2.717   7.013
10271SOL    HW131712   2.959   2.646   0.061
10271SOL    HW231713   2.997   2.684   6.929
10272SOL     OW31714   1.286   0.738   4.270
10272SOL    HW131715   1.254   0.746   4.365
10272SOL    HW231716   1.353   0.809   4.252
10273SOL     OW31717   3.081   5.209   4.329
10273SOL    HW131718   3.151   5.196   4.399
10273SOL    HW231719   3.121   5.260   4.252
10274SOL     OW31720   1.625   4.496   5.865
10274SOL    HW131721   1.716   4.454   5.859
10274SOL    HW231722   1.623   4.577   5.808
10275SOL     OW31723   0.057   0.621   1.861
10275SOL    HW131724   0.089   0.534   1.898
10275SOL    HW231725   0.115   0.647   1.783
10276SOL     OW31726   4.404   5.777   5.913
10276SOL    HW131727   4.439   5.715   5.983
10276SOL    HW231728   4.353   5.851   5.956
10277SOL     OW31729   1.215   6.555   4.715
10277SOL    HW131730   1.248   6.592   4.802
10277SOL    HW231731   1.116   6.571   4.708
10278SOL     OW31732   0.925   1.059   3.761
10278SOL    HW131733   0.892   1.059   3.667
10278SOL    HW231734   0.865   1.116   3.818
10279SOL     OW31735   2.022   5.262   3.992
10279SOL    HW131736   1.998   5.218   3.905
10279SOL    HW231737   1.970   5.220   4.066
10280SOL     OW31738   6.119   3.072   0.137
10280SOL    HW131739   6.039   3.071   0.197
10280SOL    HW231740   6.141   2.978   0.110
10281SOL     OW31741   6.522   1.932   3.740
10281SOL    HW131742   6.621   1.942   3.755
10281SOL    HW231743   6.474   2.011   3.777
10282SOL     OW31744   5.322   3.217   3.618
10282SOL    HW131745   5.276   3.192   3.533
10282SOL    HW231746   5.334   3.316   3.622
10283SOL     OW31747   1.435   3.223   0.785
10283SOL    HW131748   1.500   3.286   0.827
10283SOL    HW231749   1.447   3.223   0.686
10284SOL     OW31750   6.315   1.834   4.955
10284SOL    HW131751   6.264   1.748   4.954
10284SOL    HW231752   6.388   1.830   5.022
10285SOL     OW31753   4.080   6.325   3.090
10285SOL    HW131754   4.109   6.395   3.025
10285SOL    HW231755   4.121   6.345   3.180
10286SOL     OW31756   3.246   0.696   4.213
10286SOL    HW131757   3.223   0.689   4.116
10286SOL    HW231758   3.298   0.779   4.230
10287SOL     OW31759   2.382   5.499   2.029
10287SOL    HW131760   2.336   5.497   2.117
10287SOL    HW231761   2.427   5.411   2.013
10288SOL     OW31762   3.882   0.025   4.030
10288SOL    HW131763   3.791   7.020   4.059
10288SOL    HW231764   3.925   6.974   3.978
10289SOL     OW31765   2.993   6.292   0.442
10289SOL    HW131766   2.898   6.300   0.473
10289SOL    HW231767   2.994   6.271   0.344
10290SOL     OW31768   2.951   3.203   2.766
10290SOL    HW131769   3.010   3.199   2.685
10290SOL    HW231770   2.856   3.189   2.738
10291SOL     OW31771   3.760   1.810   3.394
10291SOL    HW131772   3.672   1.858   3.397
10291SOL    HW231773   3.805   1.818   3.483
10292SOL     OW31774   1.104   2.130   5.796
10292SOL    HW131775   1.055   2.187   5.730
10292SOL    HW231776   1.090   2.168   5.888
10293SOL     OW31777   1.015   3.255   3.608
10293SOL    HW131778   0.935   3.266   3.549
10293SOL    HW231779   1.018   3.162   3.643
10294SOL     OW31780   4.348   1.600   2.811
10294SOL    HW131781   4.388   1.513   2.839
10294SOL    HW231782   4.261   1.614   2.857
10295SOL     OW31783   1.144   2.870   5.568
10295SOL    HW131784   1.071   2.864   5.500
10295SOL    HW231785   1.109   2.911   5.652
10296SOL     OW31786   5.420   2.122   5.984
10296SOL    HW131787   5.376   2.150   6.069
10296SOL    HW231788   5.406   2.193   5.914
10297SOL     OW31789   2.410   1.445   6.530
10297SOL    HW131790   2.471   1.489   6.463
10297SOL    HW231791   2.325   1.497   6.537
10298SOL     OW31792   1.756   4.654   1.062
10298SOL    HW131793   1.662   4.621   1.060
10298SOL    HW231794   1.819   4.578   1.045
10299SOL     OW31795   3.722   5.370   2.892
10299SOL    HW131796   3.749   5.408   2.981
10299SOL    HW231797   3.658   5.294   2.907
10300SOL     OW31798   1.621   4.232   2.038
10300SOL    HW131799   1.560   4.217   2.115
10300SOL    HW231800   1.710   4.191   2.058
10301SOL     OW31801   4.380   1.750   5.385
10301SOL    HW131802   4.293   1.766   5.338
10301SOL    HW231803   4.412   1.836   5.426
10302SOL     OW31804   2.354   5.820   4.902
10302SOL    HW131805   2.271   5.864   4.868
10302SOL    HW231806   2.431   5.884   4.898
10303SOL     OW31807   1.023   5.669   3.543
10303SOL    HW131808   0.958   5.694   3.472
10303SOL    HW231809   1.115   5.698   3.515
10304SOL     OW31810   5.638   0.171   1.235
10304SOL    HW131811   5.726   0.124   1.226
10304SOL    HW231812   5.638   0.227   1.317
10305SOL     OW31813   1.780   4.179   5.436
10305SOL    HW131814   1.749   4.086   5.457
10305SOL    HW231815   1.856   4.176   5.372
10306SOL     OW31816   5.548   6.043   0.210
10306SOL    HW131817   5.517   6.060   0.116
10306SOL    HW231818   5.546   5.945   0.228
10307SOL     OW31819   3.027   1.539   4.984
10307SOL    HW131820   3.057   1.596   5.060
10307SOL    HW231821   3.073   1.568   4.900
10308SOL     OW31822   1.874   4.076   2.064
10308SOL    HW131823   1.871   4.085   1.964
10308SOL    HW231824   1.946   4.011   2.089
10309SOL     OW31825   6.889   1.445   0.042
10309SOL    HW131826   6.819   1.435   6.995
10309SOL    HW231827   6.926   1.538   0.040
10310SOL     OW31828   2.761   4.008   0.570
10310SOL    HW131829   2.765   3.910   0.552
10310SOL    HW231830   2.851   4.048   0.558
10311SOL     OW31831   6.438   5.631   0.191
10311SOL    HW131832   6.536   5.618   0.180
10311SOL    HW231833   6.417   5.728   0.196
10312SOL     OW31834   4.817   6.387   2.416
10312SOL    HW131835   4.812   6.426   2.508
10312SOL    HW231836   4.742   6.423   2.361
10313SOL     OW31837   3.391   5.824   1.941
10313SOL    HW131838   3.389   5.875   2.027
10313SOL    HW231839   3.449   5.872   1.875
10314SOL     OW31840   6.903   0.426   0.161
10314SOL    HW131841   6.818   0.374   0.170
10314SOL    HW231842   6.927   0.467   0.249
10315SOL     OW31843   5.933   6.227   4.345
10315SOL    HW131844   6.009   6.162   4.343
10315SOL    HW231845   5.969   6.319   4.363
10316SOL     OW31846   6.767   3.023   6.130
10316SOL    HW131847   6.747   2.933   6.093
10316SOL    HW231848   6.860   3.024   6.167
10317SOL     OW31849   3.922   6.364   6.442
10317SOL    HW131850   3.918   6.275   6.488
10317SOL    HW231851   3.965   6.430   6.503
10318SOL     OW31852   4.940   0.909   6.217
10318SOL    HW131853   4.947   0.832   6.280
10318SOL    HW231854   4.864   0.967   6.243
10319SOL     OW31855   0.797   3.727   5.641
10319SOL    HW131856   0.704   3.761   5.631
10319SOL    HW231857   0.861   3.804   5.650
10320SOL     OW31858   0.719   6.491   2.549
10320SOL    HW131859   0.707   6.526   2.641
10320SOL    HW231860   0.788   6.546   2.501
10321SOL     OW31861   5.694   2.070   1.983
10321SOL    HW131862   5.681   1.989   2.040
10321SOL    HW231863   5.791   2.079   1.958
10322SOL     OW31864   4.626   5.069   4.713
10322SOL    HW131865   4.673   5.017   4.642
10322SOL    HW231866   4.536   5.099   4.679
10323SOL     OW31867   5.958   4.658   5.477
10323SOL    HW131868   5.988   4.648   5.383
10323SOL    HW231869   6.036   4.683   5.535
10324SOL     OW31870   3.758   3.156   1.794
10324SOL    HW131871   3.852   3.134   1.767
10324SOL    HW231872   3.733   3.245   1.757
10325SOL     OW31873   6.495   4.408   2.189
10325SOL    HW131874   6.416   4.369   2.236
10325SOL    HW231875   6.464   4.482   2.128
10326SOL     OW31876   5.276   4.514   6.391
10326SOL    HW131877   5.215   4.564   6.454
10326SOL    HW231878   5.353   4.572   6.367
10327SOL     OW31879   2.264   2.749   1.234
10327SOL    HW131880   2.219   2.825   1.188
10327SOL    HW231881   2.337   2.783   1.293
10328SOL     OW31882   6.346   2.898   0.335
10328SOL    HW131883   6.389   2.981   0.299
10328SOL    HW231884   6.281   2.862   0.268
10329SOL     OW31885   2.386   0.584   3.687
10329SOL    HW131886   2.397   0.653   3.615
10329SOL    HW231887   2.460   0.518   3.682
10330SOL     OW31888   4.153   1.030   2.104
10330SOL    HW131889   4.103   1.025   2.191
10330SOL    HW231890   4.204   0.946   2.090
10331SOL     OW31891   6.701   6.353   5.856
10331SOL    HW131892   6.730   6.445   5.832
10331SOL    HW231893   6.780   6.291   5.854
10332SOL     OW31894   0.065   0.258   0.052
10332SOL    HW131895   7.020   0.324   0.085
10332SOL    HW231896   0.095   0.201   0.129
10333SOL     OW31897   1.022   4.640   4.977
10333SOL    HW131898   1.106   4.655   5.030
10333SOL    HW231899   1.041   4.573   4.905
10334SOL     OW31900   3.523   0.906   4.534
10334SOL    HW131901   3.591   0.855   4.588
10334SOL    HW231902   3.441   0.919   4.589
10335SOL     OW31903   2.208   4.359   0.377
10335SOL    HW131904   2.131   4.332   0.436
10335SOL    HW231905   2.195   4.320   0.286
10336SOL     OW31906   6.081   0.047   1.458
10336SOL    HW131907   6.062   6.972   1.461
10336SOL    HW231908   6.180   0.062   1.448
10337SOL     OW31909   0.666   6.280   6.470
10337SOL    HW131910   0.628   6.259   6.379
10337SOL    HW231911   0.686   6.378   6.475
10338SOL     OW31912   1.437   6.484   2.559
10338SOL    HW131913   1.427   6.582   2.574
10338SOL    HW231914   1.465   6.468   2.464
10339SOL     OW31915   5.540   3.515   5.710
10339SOL    HW131916   5.544   3.595   5.651
10339SOL    HW231917   5.445   3.497   5.735
10340SOL     OW31918   1.422   3.554   0.168
10340SOL    HW131919   1.377   3.484   0.113
10340SOL    HW231920   1.445   3.516   0.258
10341SOL     OW31921   2.059   3.401   2.106
10341SOL    HW131922   2.132   3.436   2.047
10341SOL    HW231923   2.008   3.477   2.145
10342SOL     OW31924   1.975   6.890   4.476
10342SOL    HW131925   1.953   6.813   4.536
10342SOL    HW231926   2.075   6.899   4.470
10343SOL     OW31927   3.195   4.824   6.703
10343SOL    HW131928   3.163   4.855   6.614
10343SOL    HW231929   3.294   4.841   6.710
10344SOL     OW31930   4.335   3.097   0.648
10344SOL    HW131931   4.291   3.154   0.579
10344SOL    HW231932   4.420   3.140   0.678
10345SOL     OW31933   1.917   1.954   6.878
10345SOL    HW131934   1.833   1.943   6.825
10345SOL    HW231935   1.906   1.912   6.968
10346SOL     OW31936   0.325   5.401   1.452
10346SOL    HW131937   0.238   5.373   1.410
10346SOL    HW231938   0.318   5.394   1.551
10347SOL     OW31939   3.668   1.181   3.291
10347SOL    HW131940   3.761   1.200   3.321
10347SOL    HW231941   3.649   1.083   3.297
10348SOL     OW31942   6.821   2.633   0.253
10348SOL    HW131943   6.729   2.620   0.291
10348SOL    HW231944   6.889   2.611   0.323
10349SOL     OW31945   1.515   0.657   0.349
10349SOL    HW131946   1.468   0.640   0.262
10349SOL    HW231947   1.452   0.704   0.411
10350SOL     OW31948   2.662   5.486   5.391
10350SOL    HW131949   2.601   5.557   5.425
10350SOL    HW231950   2.608   5.407   5.362
10351SOL     OW31951   4.564   4.866   6.852
10351SOL    HW131952   4.514   4.860   6.766
10351SOL    HW231953   4.528   4.799   6.917
10352SOL     OW31954   3.528   1.063   6.313
10352SOL    HW131955   3.504   1.017   6.398
10352SOL    HW231956   3.491   1.012   6.236
10353SOL     OW31957   6.710   3.414   4.879
10353SOL    HW131958   6.622   3.425   4.832
10353SOL    HW231959   6.720   3.319   4.910
10354SOL     OW31960   5.701   2.197   2.368
10354SOL    HW131961   5.678   2.294   2.355
10354SOL    HW231962   5.625   2.140   2.338
10355SOL     OW31963   2.431   6.791   1.636
10355SOL    HW131964   2.509   6.795   1.699
10355SOL    HW231965   2.463   6.760   1.547
10356SOL     OW31966   0.316   5.018   5.163
10356SOL    HW131967   0.398   5.059   5.124
10356SOL    HW231968   0.343   4.951   5.233
10357SOL     OW31969   1.890   2.723   6.270
10357SOL    HW131970   1.805   2.750   6.224
10357SOL    HW231971   1.911   2.790   6.342
10358SOL     OW31972   0.154   2.662   3.915
10358SOL    HW131973   0.187   2.624   3.829
10358SOL    HW231974   0.134   2.587   3.979
10359SOL     OW31975   0.653   2.027   1.210
10359SOL    HW131976   0.615   2.119   1.218
10359SOL    HW231977   0.597   1.963   1.261
10360SOL     OW31978   4.464   4.728   3.083
10360SOL    HW131979   4.506   4.781   3.010
10360SOL    HW231980   4.366   4.720   3.066
10361SOL     OW31981   2.268   6.302   2.943
10361SOL    HW131982   2.279   6.276   2.847
10361SOL    HW231983   2.358   6.320   2.983
10362SOL     OW31984   1.789   4.853   5.110
10362SOL    HW131985   1.751   4.943   5.128
10362SOL    HW231986   1.832   4.852   5.019
10363SOL     OW31987   4.840   0.715   2.583
10363SOL    HW131988   4.858   0.635   2.526
10363SOL    HW231989   4.919   0.732   2.642
10364SOL     OW31990   3.187   3.279   1.724
10364SOL    HW131991   3.261   3.326   1.773
10364SOL    HW231992   3.227   3.219   1.654
10365SOL     OW31993   3.733   5.117   6.637
10365SOL    HW131994   3.736   5.063   6.721
10365SOL    HW231995   3.648   5.171   6.636
10366SOL     OW31996   2.491   0.247   4.228
10366SOL    HW131997   2.416   0.265   4.292
10366SOL    HW231998   2.555   0.182   4.269
10367SOL     OW31999   5.634   2.496   2.394
10367SOL    HW132000   5.693   2.506   2.474
10367SOL    HW232001   5.568   2.572   2.391
10368SOL     OW32002   2.241   1.688   1.189
10368SOL    HW132003   2.171   1.628   1.150
10368SOL    HW232004   2.281   1.745   1.118
10369SOL     OW32005   4.160   1.543   6.526
10369SOL    HW132006   4.121   1.558   6.435
10369SOL    HW232007   4.085   1.540   6.593
10370SOL     OW32008   4.835   1.391   4.811
10370SOL    HW132009   4.821   1.353   4.720
10370SOL    HW232010   4.758   1.451   4.835
10371SOL     OW32011   3.639   5.598   5.254
10371SOL    HW132012   3.698   5.545   5.315
10371SOL    HW232013   3.666   5.694   5.257
10372SOL     OW32014   1.859   1.475   5.570
10372SOL    HW132015   1.875   1.564   5.612
10372SOL    HW232016   1.763   1.450   5.579
10373SOL     OW32017   2.129   6.358   4.956
10373SOL    HW132018   2.049   6.400   4.999
10373SOL    HW232019   2.203   6.352   5.023
10374SOL     OW32020   3.258   1.589   3.039
10374SOL    HW132021   3.239   1.497   3.004
10374SOL    HW232022   3.262   1.654   2.963
10375SOL     OW32023   4.482   1.924   0.048
10375SOL    HW132024   4.440   2.011   0.074
10375SOL    HW232025   4.428   1.848   0.085
10376SOL     OW32026   1.278   6.536   3.698
10376SOL    HW132027   1.192   6.533   3.647
10376SOL    HW232028   1.353   6.512   3.637
10377SOL     OW32029   6.231   0.859   4.092
10377SOL    HW132030   6.155   0.897   4.040
10377SOL    HW232031   6.317   0.891   4.052
10378SOL     OW32032   6.705   0.996   5.653
10378SOL    HW132033   6.705   1.014   5.554
10378SOL    HW232034   6.736   0.902   5.669
10379SOL     OW32035   4.457   0.417   4.860
10379SOL    HW132036   4.487   0.327   4.892
10379SOL    HW232037   4.529   0.458   4.805
10380SOL     OW32038   5.796   0.693   3.180
10380SOL    HW132039   5.854   0.768   3.211
10380SOL    HW232040   5.712   0.730   3.140
10381SOL     OW32041   4.994   5.687   5.741
10381SOL    HW132042   4.969   5.754   5.811
10381SOL    HW232043   4.988   5.729   5.651
10382SOL     OW32044   2.278   4.572   6.325
10382SOL    HW132045   2.207   4.507   6.350
10382SOL    HW232046   2.261   4.607   6.233
10383SOL     OW32047   0.519   3.293   0.770
10383SOL    HW132048   0.427   3.269   0.738
10383SOL    HW232049   0.586   3.232   0.728
10384SOL     OW32050   0.233   0.004   0.566
10384SOL    HW132051   0.307   0.019   0.500
10384SOL    HW232052   0.150   7.002   0.516
10385SOL     OW32053   5.278   0.065   6.002
10385SOL    HW132054   5.251   7.015   5.938
10385SOL    HW232055   5.336   0.131   5.954
10386SOL     OW32056   6.874   3.736   5.178
10386SOL    HW132057   6.851   3.831   5.201
10386SOL    HW232058   6.796   3.693   5.132
10387SOL     OW32059   2.883   1.780   2.549
10387SOL    HW132060   2.904   1.870   2.587
10387SOL    HW232061   2.936   1.710   2.597
10388SOL     OW32062   1.005   5.620   3.990
10388SOL    HW132063   1.030   5.574   3.905
10388SOL    HW232064   1.089   5.648   4.038
10389SOL     OW32065   0.824   5.369   2.544
10389SOL    HW132066   0.769   5.295   2.505
10389SOL    HW232067   0.794   5.456   2.507
10390SOL     OW32068   1.272   3.790   2.196
10390SOL    HW132069   1.223   3.847   2.261
10390SOL    HW232070   1.323   3.848   2.132
10391SOL     OW32071   1.233   5.902   6.726
10391SOL    HW132072   1.307   5.835   6.718
10391SOL    HW232073   1.273   5.993   6.740
10392SOL     OW32074   6.814   3.905   0.460
10392SOL    HW132075   6.847   3.815   0.433
10392SOL    HW232076   6.880   3.948   0.521
10393SOL     OW32077   0.462   1.499   3.479
10393SOL    HW132078   0.513   1.549   3.409
10393SOL    HW232079   0.390   1.558   3.516
10394SOL     OW32080   2.346   6.752   6.589
10394SOL    HW132081   2.363   6.660   6.624
10394SOL    HW232082   2.349   6.752   6.489
10395SOL     OW32083   6.661   0.844   4.476
10395SOL    HW132084   6.564   0.868   4.467
10395SOL    HW232085   6.710   0.876   4.395
10396SOL     OW32086   0.992   0.666   3.653
10396SOL    HW132087   0.961   0.725   3.728
10396SOL    HW232088   0.913   0.636   3.600
10397SOL     OW32089   3.663   0.882   3.386
10397SOL    HW132090   3.609   0.882   3.302
10397SOL    HW232091   3.658   0.791   3.429
10398SOL     OW32092   6.355   2.638   0.590
10398SOL    HW132093   6.416   2.711   0.621
10398SOL    HW232094   6.284   2.623   0.660
10399SOL     OW32095   4.292   2.034   5.539
10399SOL    HW132096   4.245   2.115   5.573
10399SOL    HW232097   4.338   1.988   5.616
10400SOL     OW32098   3.097   5.896   3.023
10400SOL    HW132099   3.132   5.980   2.982
10400SOL    HW232100   3.123   5.818   2.964
10401SOL     OW32101   6.464   5.992   2.136
10401SOL    HW132102   6.391   5.927   2.116
10401SOL    HW232103   6.540   5.944   2.179
10402SOL     OW32104   0.038   2.775   5.640
10402SOL    HW132105   0.039   2.866   5.599
10402SOL    HW232106   7.015   2.780   5.729
10403SOL     OW32107   5.178   1.554   2.601
10403SOL    HW132108   5.261   1.512   2.637
10403SOL    HW232109   5.126   1.486   2.549
10404SOL     OW32110   1.057   6.846   4.109
10404SOL    HW132111   1.030   6.885   4.197
10404SOL    HW232112   1.143   6.795   4.121
10405SOL     OW32113   1.210   5.291   5.082
10405SOL    HW132114   1.266   5.335   5.012
10405SOL    HW232115   1.114   5.304   5.061
10406SOL     OW32116   1.859   4.646   5.295
10406SOL    HW132117   1.768   4.623   5.329
10406SOL    HW232118   1.855   4.733   5.246
10407SOL     OW32119   1.521   1.162   6.158
10407SOL    HW132120   1.422   1.159   6.166
10407SOL    HW232121   1.547   1.207   6.073
10408SOL     OW32122   4.426   5.262   3.141
10408SOL    HW132123   4.510   5.303   3.176
10408SOL    HW232124   4.394   5.313   3.062
10409SOL     OW32125   0.126   4.158   1.803
10409SOL    HW132126   0.224   4.168   1.820
10409SOL    HW232127   0.109   4.154   1.704
10410SOL     OW32128   4.933   0.970   1.306
10410SOL    HW132129   4.972   0.948   1.217
10410SOL    HW232130   5.006   0.976   1.374
10411SOL     OW32131   2.010   5.022   3.545
10411SOL    HW132132   2.038   5.026   3.641
10411SOL    HW232133   1.935   5.086   3.530
10412SOL     OW32134   0.879   2.196   6.585
10412SOL    HW132135   0.794   2.207   6.636
10412SOL    HW232136   0.955   2.184   6.649
10413SOL     OW32137   0.678   1.797   0.477
10413SOL    HW132138   0.645   1.769   0.567
10413SOL    HW232139   0.612   1.860   0.436
10414SOL     OW32140   5.254   6.322   6.622
10414SOL    HW132141   5.264   6.237   6.570
10414SOL    HW232142   5.157   6.335   6.647
10415SOL     OW32143   0.746   5.444   3.199
10415SOL    HW132144   0.722   5.347   3.192
10415SOL    HW232145   0.671   5.493   3.243
10416SOL     OW32146   6.371   2.551   5.547
10416SOL    HW132147   6.300   2.570   5.480
10416SOL    HW232148   6.436   2.627   5.550
10417SOL     OW32149   3.975   5.266   2.606
10417SOL    HW132150   4.062   5.284   2.651
10417SOL    HW232151   3.963   5.330   2.530
10418SOL     OW32152   6.733   3.909   5.630
10418SOL    HW132153   6.757   3.960   5.713
10418SOL    HW232154   6.645   3.940   5.596
10419SOL     OW32155   3.170   0.780   5.440
10419SOL    HW132156   3.135   0.858   5.389
10419SOL    HW232157   3.134   0.695   5.401
10420SOL     OW32158   6.493   3.046   2.974
10420SOL    HW132159   6.553   3.075   2.900
10420SOL    HW232160   6.439   2.967   2.945
10421SOL     OW32161   1.093   4.939   3.469
10421SOL    HW132162   1.110   4.845   3.440
10421SOL    HW232163   1.093   4.943   3.569
10422SOL     OW32164   6.912   3.961   4.836
10422SOL    HW132165   6.891   3.974   4.739
10422SOL    HW232166   6.918   4.051   4.881
10423SOL     OW32167   3.753   4.960   4.318
10423SOL    HW132168   3.692   4.893   4.274
10423SOL    HW232169   3.845   4.922   4.323
10424SOL     OW32170   3.991   1.260   6.684
10424SOL    HW132171   3.977   1.263   6.585
10424SOL    HW232172   4.065   1.196   6.705
10425SOL     OW32173   1.801   0.353   0.913
10425SOL    HW132174   1.856   0.394   0.840
10425SOL    HW232175   1.716   0.405   0.924
10426SOL     OW32176   5.154   2.820   5.453
10426SOL    HW132177   5.185   2.737   5.500
10426SOL    HW232178   5.231   2.864   5.407
10427SOL     OW32179   4.723   6.052   4.914
10427SOL    HW132180   4.698   5.962   4.948
10427SOL    HW232181   4.652   6.086   4.852
10428SOL     OW32182   1.526   1.516   3.364
10428SOL    HW132183   1.583   1.576   3.419
10428SOL    HW232184   1.430   1.537   3.381
10429SOL     OW32185   0.991   3.607   2.727
10429SOL    HW132186   0.968   3.607   2.824
10429SOL    HW232187   1.086   3.581   2.715
10430SOL     OW32188   3.922   6.560   3.671
10430SOL    HW132189   3.823   6.552   3.686
10430SOL    HW232190   3.950   6.493   3.602
10431SOL     OW32191   2.663   2.180   4.075
10431SOL    HW132192   2.604   2.127   4.136
10431SOL    HW232193   2.759   2.161   4.098
10432SOL     OW32194   6.864   6.936   5.824
10432SOL    HW132195   6.929   7.000   5.783
10432SOL    HW232196   6.914   6.862   5.868
10433SOL     OW32197   2.128   6.726   1.653
10433SOL    HW132198   2.120   6.720   1.753
10433SOL    HW232199   2.221   6.753   1.629
10434SOL     OW32200   4.868   0.460   6.016
10434SOL    HW132201   4.965   0.456   6.042
10434SOL    HW232202   4.852   0.397   5.940
10435SOL     OW32203   1.058   2.195   6.365
10435SOL    HW132204   1.007   2.168   6.446
10435SOL    HW232205   1.118   2.120   6.337
10436SOL     OW32206   0.611   4.282   5.189
10436SOL    HW132207   0.587   4.255   5.096
10436SOL    HW232208   0.692   4.232   5.219
10437SOL     OW32209   5.195   4.942   5.260
10437SOL    HW132210   5.155   4.877   5.196
10437SOL    HW232211   5.272   4.988   5.217
10438SOL     OW32212   6.843   6.277   6.471
10438SOL    HW132213   6.766   6.278   6.534
10438SOL    HW232214   6.894   6.363   6.479
10439SOL     OW32215   0.132   0.219   4.513
10439SOL    HW132216   0.072   0.141   4.497
10439SOL    HW232217   0.166   0.253   4.426
10440SOL     OW32218   0.323   1.891   6.886
10440SOL    HW132219   0.225   1.908   6.883
10440SOL    HW232220   0.346   1.816   6.824
10441SOL     OW32221   3.809   1.611   0.882
10441SOL    HW132222   3.811   1.710   0.868
10441SOL    HW232223   3.768   1.591   0.971
10442SOL     OW32224   2.788   1.306   5.294
10442SOL    HW132225   2.834   1.223   5.324
10442SOL    HW232226   2.715   1.283   5.230
10443SOL     OW32227   6.812   1.208   3.373
10443SOL    HW132228   6.773   1.225   3.282
10443SOL    HW232229   6.797   1.289   3.431
10444SOL     OW32230   3.663   5.576   3.538
10444SOL    HW132231   3.657   5.546   3.633
10444SOL    HW232232   3.718   5.511   3.486
10445SOL     OW32233   1.473   4.119   2.514
10445SOL    HW132234   1.374   4.118   2.524
10445SOL    HW232235   1.514   4.053   2.576
10446SOL     OW32236   1.964   4.172   5.152
10446SOL    HW132237   1.957   4.126   5.064
10446SOL    HW232238   1.935   4.267   5.142
10447SOL     OW32239   6.759   2.248   2.811
10447SOL    HW132240   6.820   2.289   2.743
10447SOL    HW232241   6.684   2.201   2.764
10448SOL     OW32242   2.156   0.174   3.228
10448SOL    HW132243   2.177   0.141   3.320
10448SOL    HW232244   2.065   0.217   3.229
10449SOL     OW32245   3.179   5.546   6.641
10449SOL    HW132246   3.214   5.640   6.637
10449SOL    HW232247   3.113   5.533   6.567
10450SOL     OW32248   6.236   0.398   5.815
10450SOL    HW132249   6.251   0.437   5.724
10450SOL    HW232250   6.176   0.459   5.868
10451SOL     OW32251   1.771   0.540   4.414
10451SOL    HW132252   1.788   0.623   4.467
10451SOL    HW232253   1.679   0.545   4.373
10452SOL     OW32254   6.974   3.748   3.683
10452SOL    HW132255   6.936   3.731   3.592
10452SOL    HW232256   0.025   3.682   3.701
10453SOL     OW32257   4.477   6.059   3.304
10453SOL    HW132258   4.485   6.146   3.354
10453SOL    HW232259   4.384   6.050   3.268
10454SOL     OW32260   6.223   1.780   6.536
10454SOL    HW132261   6.262   1.873   6.535
10454SOL    HW232262   6.252   1.733   6.620
10455SOL     OW32263   6.383   6.282   4.473
10455SOL    HW132264   6.326   6.241   4.402
10455SOL    HW232265   6.357   6.378   4.486
10456SOL     OW32266   0.050   5.200   6.913
10456SOL    HW132267   0.061   5.297   6.934
10456SOL    HW232268   0.014   5.152   6.993
10457SOL     OW32269   3.818   2.720   0.106
10457SOL    HW132270   3.879   2.642   0.117
10457SOL    HW232271   3.829   2.759   0.015
10458SOL     OW32272   6.791   6.926   6.120
10458SOL    HW132273   6.836   6.927   6.031
10458SOL    HW232274   6.759   6.834   6.140
10459SOL     OW32275   6.904   5.417   0.182
10459SOL    HW132276   6.836   5.476   0.139
10459SOL    HW232277   6.934   5.457   0.268
10460SOL     OW32278   6.989   3.922   1.280
10460SOL    HW132279   6.977   3.823   1.290
10460SOL    HW232280   0.057   3.948   1.311
10461SOL     OW32281   6.844   4.606   5.364
10461SOL    HW132282   6.804   4.558   5.442
10461SOL    HW232283   6.818   4.559   5.280
10462SOL     OW32284   4.971   1.647   1.372
10462SOL    HW132285   4.976   1.681   1.278
10462SOL    HW232286   4.879   1.665   1.409
10463SOL     OW32287   4.735   2.727   6.304
10463SOL    HW132288   4.703   2.684   6.389
10463SOL    HW232289   4.775   2.657   6.245
10464SOL     OW32290   5.273   5.365   2.972
10464SOL    HW132291   5.201   5.412   2.922
10464SOL    HW232292   5.360   5.413   2.958
10465SOL     OW32293   5.361   3.366   2.503
10465SOL    HW132294   5.299   3.289   2.519
10465SOL    HW232295   5.367   3.384   2.405
10466SOL     OW32296   5.477   4.705   6.333
10466SOL    HW132297   5.560   4.694   6.387
10466SOL    HW232298   5.440   4.797   6.347
10467SOL     OW32299   1.880   2.837   6.666
10467SOL    HW132300   1.929   2.900   6.605
10467SOL    HW232301   1.939   2.759   6.688
10468SOL     OW32302   2.578   4.803   4.024
10468SOL    HW132303   2.579   4.862   4.105
10468SOL    HW232304   2.654   4.829   3.963
10469SOL     OW32305   5.651   2.358   5.312
10469SOL    HW132306   5.722   2.289   5.302
10469SOL    HW232307   5.679   2.425   5.380
10470SOL     OW32308   2.439   2.106   4.198
10470SOL    HW132309   2.423   2.177   4.129
10470SOL    HW232310   2.449   2.149   4.288
10471SOL     OW32311   2.479   0.739   0.146
10471SOL    HW132312   2.490   0.727   0.244
10471SOL    HW232313   2.490   0.651   0.100
10472SOL     OW32314   3.836   4.859   0.614
10472SOL    HW132315   3.841   4.815   0.524
10472SOL    HW232316   3.918   4.915   0.628
10473SOL     OW32317   5.656   5.703   6.180
10473SOL    HW132318   5.665   5.782   6.242
10473SOL    HW232319   5.576   5.649   6.207
10474SOL     OW32320   5.362   0.882   3.669
10474SOL    HW132321   5.352   0.811   3.739
10474SOL    HW232322   5.400   0.843   3.586
10475SOL     OW32323   2.042   6.195   2.096
10475SOL    HW132324   2.114   6.263   2.081
10475SOL    HW232325   2.084   6.107   2.118
10476SOL     OW32326   3.895   6.249   7.017
10476SOL    HW132327   3.954   6.247   0.075
10476SOL    HW232328   3.821   6.182   0.005
10477SOL     OW32329   7.021   6.186   3.964
10477SOL    HW132330   6.929   6.170   4.000
10477SOL    HW232331   0.066   6.177   4.037
10478SOL     OW32332   5.999   6.888   0.294
10478SOL    HW132333   5.938   6.945   0.240
10478SOL    HW232334   5.945   6.832   0.357
10479SOL     OW32335   0.043   2.706   2.557
10479SOL    HW132336   0.137   2.683   2.582
10479SOL    HW232337   0.011   2.782   2.613
10480SOL     OW32338   1.699   0.078   2.296
10480SOL    HW132339   1.701   0.166   2.343
10480SOL    HW232340   1.632   0.081   2.222
10481SOL     OW32341   0.624   6.954   3.085
10481SOL    HW132342   0.708   6.916   3.048
10481SOL    HW232343   0.556   6.881   3.094
10482SOL     OW32344   6.103   4.356   4.144
10482SOL    HW132345   6.129   4.261   4.165
10482SOL    HW232346   6.004   4.366   4.154
10483SOL     OW32347   5.634   5.841   6.894
10483SOL    HW132348   5.661   5.823   6.800
10483SOL    HW232349   5.673   5.771   6.954
10484SOL     OW32350   5.592   1.457   1.026
10484SOL    HW132351   5.536   1.454   1.109
10484SOL    HW232352   5.682   1.495   1.048
10485SOL     OW32353   3.973   4.475   6.191
10485SOL    HW132354   4.007   4.464   6.285
10485SOL    HW232355   3.901   4.407   6.174
10486SOL     OW32356   6.502   2.869   0.561
10486SOL    HW132357   6.467   2.835   0.473
10486SOL    HW232358   6.456   2.954   0.584
10487SOL     OW32359   5.959   6.413   1.570
10487SOL    HW132360   5.866   6.449   1.564
10487SOL    HW232361   5.983   6.369   1.484
10488SOL     OW32362   2.893   3.152   6.314
10488SOL    HW132363   2.865   3.195   6.401
10488SOL    HW232364   2.968   3.205   6.274
10489SOL     OW32365   0.663   6.436   5.982
10489SOL    HW132366   0.720   6.516   6.000
10489SOL    HW232367   0.719   6.362   5.947
10490SOL     OW32368   6.121   1.271   3.119
10490SOL    HW132369   6.058   1.266   3.197
10490SOL    HW232370   6.071   1.253   3.034
10491SOL     OW32371   1.420   3.554   6.413
10491SOL    HW132372   1.400   3.486   6.484
10491SOL    HW232373   1.431   3.507   6.326
10492SOL     OW32374   4.893   3.679   5.338
10492SOL    HW132375   4.821   3.630   5.288
10492SOL    HW232376   4.938   3.617   5.401
10493SOL     OW32377   3.379   0.461   1.346
10493SOL    HW132378   3.329   0.486   1.263
10493SOL    HW232379   3.315   0.443   1.420
10494SOL     OW32380   5.610   2.275   4.872
10494SOL    HW132381   5.602   2.345   4.801
10494SOL    HW232382   5.686   2.298   4.933
10495SOL     OW32383   1.779   6.605   0.947
10495SOL    HW132384   1.799   6.510   0.971
10495SOL    HW232385   1.742   6.609   0.854
10496SOL     OW32386   0.297   6.830   0.326
10496SOL    HW132387   0.331   6.745   0.285
10496SOL    HW232388   0.246   6.809   0.409
10497SOL     OW32389   1.564   0.461   0.966
10497SOL    HW132390   1.557   0.526   1.041
10497SOL    HW232391   1.500   0.485   0.894
10498SOL     OW32392   2.663   6.816   0.116
10498SOL    HW132393   2.585   6.786   0.171
10498SOL    HW232394   2.747   6.778   0.154
10499SOL     OW32395   2.562   6.336   2.975
10499SOL    HW132396   2.549   6.393   2.894
10499SOL    HW232397   2.620   6.258   2.952
10500SOL     OW32398   0.229   1.448   5.628
10500SOL    HW132399   0.180   1.393   5.695
10500SOL    HW232400   0.300   1.502   5.674
10501SOL     OW32401   2.047   5.092   3.064
10501SOL    HW132402   2.067   5.141   3.149
10501SOL    HW232403   2.132   5.076   3.014
10502SOL     OW32404   3.481   6.754   1.140
10502SOL    HW132405   3.502   6.789   1.231
10502SOL    HW232406   3.464   6.656   1.144
10503SOL     OW32407   4.490   2.926   0.455
10503SOL    HW132408   4.509   3.003   0.394
10503SOL    HW232409   4.404   2.943   0.504
10504SOL     OW32410   1.682   2.693   0.298
10504SOL    HW132411   1.661   2.780   0.255
10504SOL    HW232412   1.738   2.638   0.236
10505SOL     OW32413   5.867   6.205   0.895
10505SOL    HW132414   5.883   6.164   0.805
10505SOL    HW232415   5.954   6.211   0.945
10506SOL     OW32416   0.550   4.568   6.630
10506SOL    HW132417   0.459   4.532   6.612
10506SOL    HW232418   0.590   4.519   6.708
10507SOL     OW32419   2.092   7.011   0.178
10507SOL    HW132420   2.113   6.969   0.090
10507SOL    HW232421   2.171   7.005   0.238
10508SOL     OW32422   5.577   5.582   3.667
10508SOL    HW132423   5.550   5.525   3.590
10508SOL    HW232424   5.670   5.560   3.694
10509SOL     OW32425   0.989   6.489   6.497
10509SOL    HW132426   1.076   6.487   6.546
10509SOL    HW232427   0.958   6.396   6.478
10510SOL     OW32428   6.145   4.883   6.243
10510SOL    HW132429   6.074   4.861   6.176
10510SOL    HW232430   6.207   4.805   6.253
10511SOL     OW32431   4.558   3.205   0.759
10511SOL    HW132432   4.542   3.288   0.813
10511SOL    HW232433   4.568   3.127   0.820
10512SOL     OW32434   3.895   1.278   6.422
10512SOL    HW132435   3.813   1.309   6.374
10512SOL    HW232436   3.928   1.194   6.379
10513SOL     OW32437   6.828   2.381   6.189
10513SOL    HW132438   6.871   2.350   6.104
10513SOL    HW232439   6.884   2.353   6.267
10514SOL     OW32440   6.584   4.020   0.532
10514SOL    HW132441   6.579   4.117   0.507
10514SOL    HW232442   6.675   3.986   0.513
10515SOL     OW32443   6.356   2.343   3.063
10515SOL    HW132444   6.415   2.264   3.055
10515SOL    HW232445   6.382   2.397   3.144
10516SOL     OW32446   4.904   0.692   6.407
10516SOL    HW132447   4.814   0.702   6.449
10516SOL    HW232448   4.971   0.670   6.477
10517SOL     OW32449   0.346   2.338   2.114
10517SOL    HW132450   0.319   2.427   2.150
10517SOL    HW232451   0.444   2.324   2.131
10518SOL     OW32452   0.940   4.881   0.108
10518SOL    HW132453   0.872   4.932   0.161
10518SOL    HW232454   0.903   4.858   0.018
10519SOL     OW32455   3.247   2.953   5.525
10519SOL    HW132456   3.213   2.875   5.474
10519SOL    HW232457   3.170   3.014   5.547
10520SOL     OW32458   2.756   2.926   6.981
10520SOL    HW132459   2.782   2.992   6.912
10520SOL    HW232460   2.834   2.867   7.004
10521SOL     OW32461   6.373   6.134   1.007
10521SOL    HW132462   6.469   6.159   1.011
10521SOL    HW232463   6.347   6.083   1.089
10522SOL     OW32464   6.538   0.330   0.340
10522SOL    HW132465   6.481   0.389   0.282
10522SOL    HW232466   6.579   0.385   0.413
10523SOL     OW32467   0.343   6.280   4.393
10523SOL    HW132468   0.407   6.345   4.352
10523SOL    HW232469   0.347   6.288   4.493
10524SOL     OW32470   2.056   0.390   5.138
10524SOL    HW132471   1.979   0.336   5.104
10524SOL    HW232472   2.022   0.466   5.193
10525SOL     OW32473   2.933   6.392   5.599
10525SOL    HW132474   2.865   6.463   5.582
10525SOL    HW232475   3.024   6.434   5.608
10526SOL     OW32476   0.342   0.351   2.686
10526SOL    HW132477   0.256   0.321   2.645
10526SOL    HW232478   0.338   0.449   2.704
10527SOL     OW32479   1.289   2.963   4.271
10527SOL    HW132480   1.388   2.969   4.280
10527SOL    HW232481   1.265   2.883   4.216
10528SOL     OW32482   1.425   4.082   5.045
10528SOL    HW132483   1.416   4.054   5.140
10528SOL    HW232484   1.497   4.029   5.001
10529SOL     OW32485   1.128   5.703   2.509
10529SOL    HW132486   1.092   5.705   2.603
10529SOL    HW232487   1.081   5.772   2.454
10530SOL     OW32488   2.177   1.619   6.451
10530SOL    HW132489   2.083   1.650   6.471
10530SOL    HW232490   2.226   1.692   6.403
10531SOL     OW32491   2.160   3.560   4.478
10531SOL    HW132492   2.243   3.614   4.493
10531SOL    HW232493   2.159   3.528   4.383
10532SOL     OW32494   2.432   3.192   0.457
10532SOL    HW132495   2.450   3.252   0.534
10532SOL    HW232496   2.359   3.128   0.480
10533SOL     OW32497   2.730   1.500   4.184
10533SOL    HW132498   2.643   1.529   4.144
10533SOL    HW232499   2.731   1.521   4.281
10534SOL     OW32500   0.087   5.710   0.828
10534SOL    HW132501   0.183   5.699   0.852
10534SOL    HW232502   0.078   5.784   0.760
10535SOL     OW32503   0.156   2.108   2.758
10535SOL    HW132504   0.229   2.086   2.822
10535SOL    HW232505   0.069   2.074   2.793
10536SOL     OW32506   3.822   0.346   2.457
10536SOL    HW132507   3.782   0.255   2.454
10536SOL    HW232508   3.782   0.398   2.533
10537SOL     OW32509   3.500   5.358   3.274
10537SOL    HW132510   3.480   5.264   3.302
10537SOL    HW232511   3.456   5.422   3.337
10538SOL     OW32512   4.465   3.083   6.603
10538SOL    HW132513   4.464   2.983   6.597
10538SOL    HW232514   4.452   3.123   6.512
10539SOL     OW32515   0.367   4.274   6.474
10539SOL    HW132516   0.390   4.243   6.382
10539SOL    HW232517   0.324   4.364   6.469
10540SOL     OW32518   1.342   0.845   6.083
10540SOL    HW132519   1.283   0.769   6.056
10540SOL    HW232520   1.434   0.830   6.047
10541SOL     OW32521   3.487   3.757   1.612
10541SOL    HW132522   3.509   3.793   1.522
10541SOL    HW232523   3.524   3.817   1.683
10542SOL     OW32524   6.939   1.460   0.656
10542SOL    HW132525   6.928   1.379   0.598
10542SOL    HW232526   6.978   1.534   0.602
10543SOL     OW32527   6.780   1.450   5.242
10543SOL    HW132528   6.761   1.363   5.195
10543SOL    HW232529   6.804   1.520   5.174
10544SOL     OW32530   2.294   1.415   2.969
10544SOL    HW132531   2.215   1.473   2.946
10544SOL    HW232532   2.281   1.325   2.929
10545SOL     OW32533   6.952   6.558   2.177
10545SOL    HW132534   6.953   6.503   2.260
10545SOL    HW232535   6.860   6.597   2.164
10546SOL     OW32536   1.444   0.510   5.335
10546SOL    HW132537   1.503   0.461   5.270
10546SOL    HW232538   1.397   0.585   5.287
10547SOL     OW32539   4.908   1.058   2.535
10547SOL    HW132540   4.811   1.074   2.555
10547SOL    HW232541   4.916   0.992   2.460
10548SOL     OW32542   5.344   3.901   4.702
10548SOL    HW132543   5.419   3.943   4.754
10548SOL    HW232544   5.256   3.928   4.741
10549SOL     OW32545   6.742   0.462   2.521
10549SOL    HW132546   6.761   0.525   2.446
10549SOL    HW232547   6.746   0.368   2.488
10550SOL     OW32548   4.397   6.622   4.287
10550SOL    HW132549   4.482   6.672   4.300
10550SOL    HW232550   4.326   6.686   4.255
10551SOL     OW32551   1.459   2.389   4.963
10551SOL    HW132552   1.374   2.355   4.924
10551SOL    HW232553   1.485   2.331   5.041
10552SOL     OW32554   3.684   1.779   5.197
10552SOL    HW132555   3.663   1.759   5.102
10552SOL    HW232556   3.599   1.786   5.249
10553SOL     OW32557   1.008   5.053   1.542
10553SOL    HW132558   0.929   4.999   1.513
10553SOL    HW232559   1.081   5.044   1.475
10554SOL     OW32560   5.772   4.811   7.018
10554SOL    HW132561   5.678   4.785   6.994
10554SOL    HW232562   5.769   4.890   0.057
10555SOL     OW32563   2.938   2.001   1.752
10555SOL    HW132564   2.939   2.065   1.676
10555SOL    HW232565   3.032   1.975   1.775
10556SOL     OW32566   1.971   3.132   4.825
10556SOL    HW132567   1.964   3.104   4.921
10556SOL    HW232568   2.005   3.226   4.820
10557SOL     OW32569   0.598   2.328   3.476
10557SOL    HW132570   0.599   2.228   3.480
10557SOL    HW232571   0.649   2.364   3.554
10558SOL     OW32572   4.120   0.375   4.783
10558SOL    HW132573   4.034   0.326   4.792
10558SOL    HW232574   4.163   0.384   4.873
10559SOL     OW32575   4.277   1.543   1.306
10559SOL    HW132576   4.276   1.451   1.347
10559SOL    HW232577   4.297   1.535   1.208
10560SOL     OW32578   2.079   5.781   5.117
10560SOL    HW132579   2.001   5.813   5.172
10560SOL    HW232580   2.047   5.757   5.025
10561SOL     OW32581   2.270   5.187   0.290
10561SOL    HW132582   2.360   5.166   0.252
10561SOL    HW232583   2.201   5.127   0.249
10562SOL     OW32584   5.035   0.557   0.534
10562SOL    HW132585   5.104   0.486   0.551
10562SOL    HW232586   5.060   0.608   0.452
10563SOL     OW32587   1.685   1.268   4.423
10563SOL    HW132588   1.742   1.350   4.424
10563SOL    HW232589   1.615   1.275   4.494
10564SOL     OW32590   5.892   6.874   1.539
10564SOL    HW132591   5.815   6.937   1.541
10564SOL    HW232592   5.877   6.805   1.468
10565SOL     OW32593   0.628   0.984   5.537
10565SOL    HW132594   0.601   1.028   5.623
10565SOL    HW232595   0.720   0.946   5.546
10566SOL     OW32596   4.023   3.561   6.688
10566SOL    HW132597   4.064   3.473   6.710
10566SOL    HW232598   3.998   3.564   6.591
10567SOL     OW32599   2.035   3.534   4.040
10567SOL    HW132600   1.982   3.470   3.984
10567SOL    HW232601   2.076   3.604   3.982
10568SOL     OW32602   5.688   1.053   2.255
10568SOL    HW132603   5.723   1.074   2.164
10568SOL    HW232604   5.720   1.123   2.319
10569SOL     OW32605   6.617   3.437   2.487
10569SOL    HW132606   6.661   3.463   2.401
10569SOL    HW232607   6.681   3.383   2.542
10570SOL     OW32608   1.332   4.559   2.679
10570SOL    HW132609   1.407   4.512   2.726
10570SOL    HW232610   1.258   4.575   2.744
10571SOL     OW32611   6.823   5.553   3.508
10571SOL    HW132612   6.842   5.530   3.603
10571SOL    HW232613   6.773   5.640   3.504
10572SOL     OW32614   5.994   4.052   3.125
10572SOL    HW132615   6.060   4.100   3.183
10572SOL    HW232616   5.913   4.029   3.180
10573SOL     OW32617   5.899   6.650   2.836
10573SOL    HW132618   5.865   6.556   2.837
10573SOL    HW232619   5.891   6.687   2.743
10574SOL     OW32620   1.423   1.941   3.617
10574SOL    HW132621   1.427   1.842   3.621
10574SOL    HW232622   1.509   1.980   3.651
10575SOL     OW32623   0.353   0.650   4.042
10575SOL    HW132624   0.264   0.695   4.052
10575SOL    HW232625   0.408   0.666   4.124
10576SOL     OW32626   0.785   6.850   4.526
10576SOL    HW132627   0.727   6.852   4.607
10576SOL    HW232628   0.760   6.773   4.468
10577SOL     OW32629   1.034   3.340   6.656
10577SOL    HW132630   1.077   3.290   6.731
10577SOL    HW232631   1.047   3.290   6.571
10578SOL     OW32632   6.368   1.013   4.858
10578SOL    HW132633   6.308   0.957   4.801
10578SOL    HW232634   6.441   1.052   4.801
10579SOL     OW32635   4.358   1.241   0.986
10579SOL    HW132636   4.440   1.184   0.994
10579SOL    HW232637   4.336   1.253   0.889
10580SOL     OW32638   6.891   6.723   6.657
10580SOL    HW132639   6.803   6.682   6.682
10580SOL    HW232640   6.914   6.698   6.563
10581SOL     OW32641   5.976   0.021   2.453
10581SOL    HW132642   5.904   6.985   2.416
10581SOL    HW232643   6.014   7.002   2.536
10582SOL     OW32644   3.993   4.740   6.363
10582SOL    HW132645   3.919   4.708   6.304
10582SOL    HW232646   3.955   4.798   6.435
10583SOL     OW32647   4.199   1.081   6.763
10583SOL    HW132648   4.171   1.075   6.858
10583SOL    HW232649   4.141   1.021   6.707
10584SOL     OW32650   5.295   6.413   1.205
10584SOL    HW132651   5.319   6.507   1.227
10584SOL    HW232652   5.200   6.409   1.174
10585SOL     OW32653   1.831   2.912   5.670
10585SOL    HW132654   1.886   2.942   5.748
10585SOL    HW232655   1.851   2.816   5.650
10586SOL     OW32656   2.129   5.972   5.724
10586SOL    HW132657   2.128   5.921   5.811
10586SOL    HW232658   2.174   5.917   5.654
10587SOL     OW32659   5.600   2.997   0.474
10587SOL    HW132660   5.545   3.035   0.548
10587SOL    HW232661   5.677   3.057   0.456
10588SOL     OW32662   1.156   4.177   1.908
10588SOL    HW132663   1.165   4.276   1.896
10588SOL    HW232664   1.101   4.159   1.990
10589SOL     OW32665   5.651   1.665   4.084
10589SOL    HW132666   5.664   1.694   3.990
10589SOL    HW232667   5.555   1.677   4.110
10590SOL     OW32668   1.182   6.866   2.163
10590SOL    HW132669   1.117   6.791   2.173
10590SOL    HW232670   1.160   6.918   2.080
10591SOL     OW32671   1.701   1.737   5.913
10591SOL    HW132672   1.749   1.651   5.931
10591SOL    HW232673   1.606   1.728   5.942
10592SOL     OW32674   5.106   2.142   0.216
10592SOL    HW132675   5.024   2.108   0.171
10592SOL    HW232676   5.116   2.240   0.198
10593SOL     OW32677   2.708   5.906   0.951
10593SOL    HW132678   2.702   5.807   0.940
10593SOL    HW232679   2.709   5.950   0.861
10594SOL     OW32680   5.993   1.958   3.654
10594SOL    HW132681   5.994   1.956   3.754
10594SOL    HW232682   6.060   2.025   3.622
10595SOL     OW32683   3.357   6.805   5.901
10595SOL    HW132684   3.341   6.714   5.865
10595SOL    HW232685   3.409   6.799   5.987
10596SOL     OW32686   4.104   6.907   1.736
10596SOL    HW132687   4.142   6.862   1.816
10596SOL    HW232688   4.030   6.968   1.764
10597SOL     OW32689   2.607   1.153   4.376
10597SOL    HW132690   2.601   1.217   4.452
10597SOL    HW232691   2.532   1.172   4.311
10598SOL     OW32692   2.818   2.176   6.744
10598SOL    HW132693   2.736   2.198   6.798
10598SOL    HW232694   2.806   2.086   6.702
10599SOL     OW32695   5.394   1.306   6.966
10599SOL    HW132696   5.433   1.353   6.888
10599SOL    HW232697   5.351   1.221   6.936
10600SOL     OW32698   2.023   3.137   6.789
10600SOL    HW132699   2.043   3.044   6.757
10600SOL    HW232700   1.938   3.137   6.841
10601SOL     OW32701   2.616   4.887   6.244
10601SOL    HW132702   2.548   4.919   6.177
10601SOL    HW232703   2.707   4.890   6.202
10602SOL     OW32704   5.177   1.530   2.124
10602SOL    HW132705   5.184   1.606   2.189
10602SOL    HW232706   5.178   1.566   2.031
10603SOL     OW32707   1.469   6.331   3.559
10603SOL    HW132708   1.388   6.273   3.555
10603SOL    HW232709   1.519   6.312   3.643
10604SOL     OW32710   5.884   4.363   4.477
10604SOL    HW132711   5.866   4.275   4.520
10604SOL    HW232712   5.978   4.392   4.497
10605SOL     OW32713   0.455   5.326   0.026
10605SOL    HW132714   0.520   5.259   7.013
10605SOL    HW232715   0.382   5.278   0.074
10606SOL     OW32716   6.600   0.726   1.544
10606SOL    HW132717   6.554   0.642   1.572
10606SOL    HW232718   6.559   0.804   1.591
10607SOL     OW32719   3.683   4.360   5.872
10607SOL    HW132720   3.587   4.362   5.900
10607SOL    HW232721   3.741   4.362   5.953
10608SOL     OW32722   6.084   2.005   4.934
10608SOL    HW132723   6.148   1.929   4.924
10608SOL    HW232724   6.023   2.008   4.855
10609SOL     OW32725   3.571   5.977   1.295
10609SOL    HW132726   3.638   5.903   1.295
10609SOL    HW232727   3.557   6.009   1.201
10610SOL     OW32728   0.897   3.900   6.764
10610SOL    HW132729   0.975   3.841   6.741
10610SOL    HW232730   0.927   3.969   6.830
10611SOL     OW32731   5.818   3.163   0.022
10611SOL    HW132732   5.802   3.253   0.063
10611SOL    HW232733   5.846   3.175   6.950
10612SOL     OW32734   2.350   6.957   6.258
10612SOL    HW132735   2.385   7.011   6.181
10612SOL    HW232736   2.351   7.013   6.341
10613SOL     OW32737   6.706   0.470   6.043
10613SOL    HW132738   6.748   0.488   6.132
10613SOL    HW232739   6.777   0.463   5.973
10614SOL     OW32740   6.675   0.687   4.069
10614SOL    HW132741   6.694   0.766   4.127
10614SOL    HW232742   6.649   0.718   3.977
10615SOL     OW32743   4.112   5.710   5.399
10615SOL    HW132744   4.092   5.613   5.383
10615SOL    HW232745   4.209   5.727   5.382
10616SOL     OW32746   3.238   6.509   0.400
10616SOL    HW132747   3.176   6.452   0.455
10616SOL    HW232748   3.240   6.475   0.306
10617SOL     OW32749   2.067   2.466   0.834
10617SOL    HW132750   2.083   2.419   0.747
10617SOL    HW232751   1.984   2.430   0.876
10618SOL     OW32752   6.578   2.552   0.348
10618SOL    HW132753   6.536   2.619   0.411
10618SOL    HW232754   6.515   2.476   0.335
10619SOL     OW32755   0.786   3.835   2.912
10619SOL    HW132756   0.843   3.761   2.950
10619SOL    HW232757   0.798   3.917   2.967
10620SOL     OW32758   1.089   5.741   5.571
10620SOL    HW132759   0.998   5.701   5.563
10620SOL    HW232760   1.134   5.706   5.653
10621SOL     OW32761   1.796   5.562   0.264
10621SOL    HW132762   1.738   5.634   0.226
10621SOL    HW232763   1.879   5.554   0.209
10622SOL     OW32764   4.617   0.975   2.000
10622SOL    HW132765   4.554   0.991   1.925
10622SOL    HW232766   4.620   1.057   2.059
10623SOL     OW32767   5.855   2.664   3.486
10623SOL    HW132768   5.806   2.580   3.462
10623SOL    HW232769   5.789   2.731   3.521
10624SOL     OW32770   1.020   1.419   5.365
10624SOL    HW132771   1.056   1.444   5.275
10624SOL    HW232772   1.057   1.480   5.434
10625SOL     OW32773   0.680   4.583   0.015
10625SOL    HW132774   0.688   4.521   6.960
10625SOL    HW232775   0.645   4.533   0.095
10626SOL     OW32776   1.643   2.333   1.771
10626SOL    HW132777   1.567   2.372   1.823
10626SOL    HW232778   1.721   2.396   1.775
10627SOL     OW32779   6.793   6.178   2.357
10627SOL    HW132780   6.711   6.127   2.331
10627SOL    HW232781   6.806   6.171   2.456
10628SOL     OW32782   5.970   5.188   5.588
10628SOL    HW132783   5.918   5.272   5.577
10628SOL    HW232784   5.909   5.114   5.616
10629SOL     OW32785   1.908   4.447   6.157
10629SOL    HW132786   1.957   4.429   6.072
10629SOL    HW232787   1.970   4.438   6.235
10630SOL     OW32788   6.226   0.284   3.773
10630SOL    HW132789   6.193   0.234   3.692
10630SOL    HW232790   6.273   0.220   3.834
10631SOL     OW32791   1.418   6.795   4.338
10631SOL    HW132792   1.435   6.871   4.276
10631SOL    HW232793   1.390   6.715   4.286
10632SOL     OW32794   5.896   2.145   4.478
10632SOL    HW132795   5.926   2.082   4.407
10632SOL    HW232796   5.930   2.115   4.567
10633SOL     OW32797   2.564   4.507   1.088
10633SOL    HW132798   2.599   4.416   1.067
10633SOL    HW232799   2.464   4.504   1.093
10634SOL     OW32800   2.754   5.691   0.411
10634SOL    HW132801   2.759   5.786   0.443
10634SOL    HW232802   2.842   5.646   0.426
10635SOL     OW32803   3.386   0.886   1.269
10635SOL    HW132804   3.367   0.964   1.330
10635SOL    HW232805   3.377   0.916   1.174
10636SOL     OW32806   0.515   1.864   1.383
10636SOL    HW132807   0.511   1.764   1.388
10636SOL    HW232808   0.428   1.903   1.411
10637SOL     OW32809   3.181   3.968   5.387
10637SOL    HW132810   3.083   3.986   5.384
10637SOL    HW232811   3.231   4.051   5.361
10638SOL     OW32812   0.533   6.501   3.816
10638SOL    HW132813   0.586   6.586   3.807
10638SOL    HW232814   0.587   6.424   3.784
10639SOL     OW32815   0.756   1.448   4.046
10639SOL    HW132816   0.753   1.544   4.016
10639SOL    HW232817   0.785   1.445   4.142
10640SOL     OW32818   4.311   0.234   6.946
10640SOL    HW132819   4.393   0.205   6.995
10640SOL    HW232820   4.305   0.186   6.858
10641SOL     OW32821   4.858   1.814   6.962
10641SOL    HW132822   4.766   1.795   6.927
10641SOL    HW232823   4.855   1.893   7.022
10642SOL     OW32824   0.274   2.212   1.328
10642SOL    HW132825   0.192   2.171   1.288
10642SOL    HW232826   0.269   2.311   1.320
10643SOL     OW32827   2.409   3.736   5.561
10643SOL    HW132828   2.321   3.690   5.555
10643SOL    HW232829   2.465   3.713   5.481
10644SOL     OW32830   4.580   1.793   4.014
10644SOL    HW132831   4.522   1.870   3.989
10644SOL    HW232832   4.674   1.824   4.025
10645SOL     OW32833   0.681   0.712   4.808
10645SOL    HW132834   0.636   0.624   4.820
10645SOL    HW232835   0.759   0.719   4.869
10646SOL     OW32836   0.767   2.686   6.169
10646SOL    HW132837   0.683   2.741   6.172
10646SOL    HW232838   0.843   2.743   6.136
10647SOL     OW32839   6.067   5.373   6.887
10647SOL    HW132840   6.079   5.460   6.935
10647SOL    HW232841   6.044   5.390   6.792
10648SOL     OW32842   5.106   3.659   6.854
10648SOL    HW132843   5.168   3.708   6.792
10648SOL    HW232844   5.019   3.643   6.808
10649SOL     OW32845   0.292   4.749   4.655
10649SOL    HW132846   0.369   4.806   4.624
10649SOL    HW232847   0.266   4.776   4.747
10650SOL     OW32848   1.831   6.504   3.850
10650SOL    HW132849   1.848   6.443   3.772
10650SOL    HW232850   1.918   6.528   3.893
10651SOL     OW32851   4.505   6.886   5.593
10651SOL    HW132852   4.474   6.833   5.514
10651SOL    HW232853   4.430   6.943   5.627
10652SOL     OW32854   3.486   0.141   6.018
10652SOL    HW132855   3.406   0.197   5.997
10652SOL    HW232856   3.459   0.065   6.078
10653SOL     OW32857   4.948   4.543   4.940
10653SOL    HW132858   4.902   4.454   4.935
10653SOL    HW232859   4.883   4.616   4.918
10654SOL     OW32860   2.962   0.271   1.640
10654SOL    HW132861   2.914   0.248   1.724
10654SOL    HW232862   2.992   0.187   1.595
10655SOL     OW32863   2.875   5.391   2.155
10655SOL    HW132864   2.784   5.349   2.163
10655SOL    HW232865   2.873   5.463   2.086
10656SOL     OW32866   6.190   2.386   6.792
10656SOL    HW132867   6.126   2.462   6.786
10656SOL    HW232868   6.282   2.417   6.767
10657SOL     OW32869   5.977   6.796   0.831
10657SOL    HW132870   6.052   6.862   0.822
10657SOL    HW232871   6.013   6.707   0.858
10658SOL     OW32872   1.067   4.348   4.888
10658SOL    HW132873   1.130   4.270   4.883
10658SOL    HW232874   0.977   4.320   4.854
10659SOL     OW32875   5.704   0.045   0.861
10659SOL    HW132876   5.687   0.096   0.777
10659SOL    HW232877   5.617   0.009   0.896
10660SOL     OW32878   5.007   3.705   5.782
10660SOL    HW132879   5.057   3.787   5.808
10660SOL    HW232880   4.945   3.726   5.706
10661SOL     OW32881   0.137   6.596   1.843
10661SOL    HW132882   0.134   6.550   1.932
10661SOL    HW232883   0.044   6.603   1.807
10662SOL     OW32884   6.781   1.151   0.596
10662SOL    HW132885   6.683   1.137   0.611
10662SOL    HW232886   6.801   1.143   0.498
10663SOL     OW32887   0.593   0.387   1.792
10663SOL    HW132888   0.503   0.408   1.754
10663SOL    HW232889   0.662   0.443   1.746
10664SOL     OW32890   2.145   4.140   0.002
10664SOL    HW132891   2.053   4.179   0.012
10664SOL    HW232892   2.174   4.148   6.929
10665SOL     OW32893   0.492   1.967   0.390
10665SOL    HW132894   0.420   1.950   0.457
10665SOL    HW232895   0.460   1.939   0.299
10666SOL     OW32896   3.426   5.453   6.968
10666SOL    HW132897   3.441   5.429   0.042
10666SOL    HW232898   3.332   5.483   6.956
10667SOL     OW32899   3.742   1.958   5.400
10667SOL    HW132900   3.731   1.885   5.333
10667SOL    HW232901   3.654   2.004   5.413
10668SOL     OW32902   1.686   1.869   6.485
10668SOL    HW132903   1.684   1.772   6.458
10668SOL    HW232904   1.593   1.905   6.486
10669SOL     OW32905   0.757   0.048   0.669
10669SOL    HW132906   0.806   6.989   0.698
10669SOL    HW232907   0.775   0.065   0.572
10670SOL     OW32908   5.580   4.853   5.827
10670SOL    HW132909   5.663   4.798   5.822
10670SOL    HW232910   5.604   4.947   5.851
10671SOL     OW32911   2.430   2.580   2.865
10671SOL    HW132912   2.459   2.641   2.791
10671SOL    HW232913   2.360   2.517   2.830
10672SOL     OW32914   0.329   2.448   0.439
10672SOL    HW132915   0.319   2.461   0.537
10672SOL    HW232916   0.425   2.465   0.413
10673SOL     OW32917   2.830   2.864   5.546
10673SOL    HW132918   2.792   2.782   5.589
10673SOL    HW232919   2.755   2.917   5.504
10674SOL     OW32920   3.958   3.864   0.685
10674SOL    HW132921   4.016   3.880   0.765
10674SOL    HW232922   4.004   3.897   0.603
10675SOL     OW32923   0.136   0.609   5.829
10675SOL    HW132924   0.062   0.548   5.857
10675SOL    HW232925   0.181   0.645   5.910
10676SOL     OW32926   6.118   0.579   6.351
10676SOL    HW132927   6.058   0.659   6.352
10676SOL    HW232928   6.080   0.509   6.290
10677SOL     OW32929   0.381   0.810   2.668
10677SOL    HW132930   0.349   0.775   2.756
10677SOL    HW232931   0.434   0.739   2.621
10678SOL     OW32932   3.170   5.370   2.905
10678SOL    HW132933   3.269   5.362   2.899
10678SOL    HW232934   3.128   5.285   2.871
10679SOL     OW32935   6.017   5.405   4.536
10679SOL    HW132936   5.963   5.455   4.469
10679SOL    HW232937   6.031   5.462   4.617
10680SOL     OW32938   1.515   3.213   2.245
10680SOL    HW132939   1.575   3.256   2.313
10680SOL    HW232940   1.430   3.185   2.289
10681SOL     OW32941   6.320   4.150   6.399
10681SOL    HW132942   6.228   4.123   6.372
10681SOL    HW232943   6.360   4.079   6.457
10682SOL     OW32944   1.063   1.553   2.914
10682SOL    HW132945   1.021   1.465   2.889
10682SOL    HW232946   1.076   1.608   2.831
10683SOL     OW32947   1.717   2.286   4.329
10683SOL    HW132948   1.754   2.246   4.245
10683SOL    HW232949   1.725   2.386   4.324
10684SOL     OW32950   5.965   3.928   0.469
10684SOL    HW132951   5.945   3.831   0.460
10684SOL    HW232952   5.952   3.974   0.381
10685SOL     OW32953   1.054   4.008   3.296
10685SOL    HW132954   1.108   4.074   3.348
10685SOL    HW232955   1.115   3.937   3.259
10686SOL     OW32956   3.266   6.123   7.019
10686SOL    HW132957   3.268   6.028   6.987
10686SOL    HW232958   3.241   6.183   6.944
10687SOL     OW32959   6.998   4.933   2.474
10687SOL    HW132960   6.995   4.915   2.375
10687SOL    HW232961   6.976   4.848   2.523
10688SOL     OW32962   6.941   4.436   2.404
10688SOL    HW132963   6.946   4.341   2.372
10688SOL    HW232964   6.850   4.472   2.387
10689SOL     OW32965   6.906   0.549   2.762
10689SOL    HW132966   6.821   0.599   2.773
10689SOL    HW232967   6.886   0.452   2.745
10690SOL     OW32968   3.997   5.458   2.420
10690SOL    HW132969   3.915   5.454   2.363
10690SOL    HW232970   4.078   5.464   2.361
10691SOL     OW32971   7.022   1.093   1.413
10691SOL    HW132972   0.078   1.150   1.390
10691SOL    HW232973   6.968   1.138   1.484
10692SOL     OW32974   3.531   6.268   3.730
10692SOL    HW132975   3.558   6.209   3.654
10692SOL    HW232976   3.607   6.328   3.755
10693SOL     OW32977   0.244   1.563   1.202
10693SOL    HW132978   0.231   1.657   1.170
10693SOL    HW232979   0.341   1.550   1.226
10694SOL     OW32980   3.749   5.778   1.254
10694SOL    HW132981   3.778   5.683   1.243
10694SOL    HW232982   3.805   5.837   1.195
10695SOL     OW32983   0.536   2.671   4.506
10695SOL    HW132984   0.463   2.703   4.566
10695SOL    HW232985   0.498   2.651   4.416
10696SOL     OW32986   0.179   6.057   1.212
10696SOL    HW132987   0.221   6.093   1.295
10696SOL    HW232988   0.250   6.021   1.152
10697SOL     OW32989   0.705   6.295   3.618
10697SOL    HW132990   0.799   6.326   3.628
10697SOL    HW232991   0.690   6.214   3.675
10698SOL     OW32992   2.839   0.187   3.162
10698SOL    HW132993   2.901   0.255   3.123
10698SOL    HW232994   2.798   0.133   3.089
10699SOL     OW32995   4.084   1.681   2.905
10699SOL    HW132996   4.052   1.763   2.857
10699SOL    HW232997   4.007   1.618   2.918
10700SOL     OW32998   6.798   6.440   0.875
10700SOL    HW132999   6.888   6.428   0.918
10700SOL    HW233000   6.796   6.526   0.825
10701SOL     OW33001   3.654   6.097   0.067
10701SOL    HW133002   3.659   6.170   0.136
10701SOL    HW233003   3.573   6.041   0.084
10702SOL     OW33004   5.755   2.667   6.943
10702SOL    HW133005   5.705   2.603   7.000
10702SOL    HW233006   5.770   2.752   6.994
10703SOL     OW33007   3.999   3.921   3.313
10703SOL    HW133008   3.982   3.890   3.220
10703SOL    HW233009   4.009   3.841   3.373
10704SOL     OW33010   4.985   0.256   2.303
10704SOL    HW133011   5.016   0.169   2.264
10704SOL    HW233012   5.019   0.332   2.247
10705SOL     OW33013   1.139   3.451   6.350
10705SOL    HW133014   1.085   3.535   6.345
10705SOL    HW233015   1.236   3.474   6.349
10706SOL     OW33016   3.996   0.748   1.787
10706SOL    HW133017   4.045   0.810   1.726
10706SOL    HW233018   3.918   0.796   1.828
10707SOL     OW33019   6.209   0.084   6.000
10707SOL    HW133020   6.232   0.113   6.092
10707SOL    HW233021   6.251   0.145   5.933
10708SOL     OW33022   5.001   0.923   1.053
10708SOL    HW133023   4.919   0.965   1.015
10708SOL    HW233024   5.077   0.936   0.991
10709SOL     OW33025   5.988   0.096   5.385
10709SOL    HW133026   5.916   0.121   5.449
10709SOL    HW233027   6.033   0.013   5.416
10710SOL     OW33028   6.121   5.567   3.801
10710SOL    HW133029   6.189   5.512   3.849
10710SOL    HW233030   6.168   5.634   3.743
10711SOL     OW33031   1.680   0.100   4.295
10711SOL    HW133032   1.609   0.156   4.337
10711SOL    HW233033   1.640   0.044   4.222
10712SOL     OW33034   3.725   1.248   4.884
10712SOL    HW133035   3.754   1.221   4.792
10712SOL    HW233036   3.709   1.346   4.887
10713SOL     OW33037   2.169   6.049   1.736
10713SOL    HW133038   2.130   6.134   1.772
10713SOL    HW233039   2.253   6.027   1.786
10714SOL     OW33040   0.623   4.970   4.810
10714SOL    HW133041   0.716   4.999   4.833
10714SOL    HW233042   0.618   4.870   4.812
10715SOL     OW33043   4.841   1.905   4.064
10715SOL    HW133044   4.881   1.828   4.014
10715SOL    HW233045   4.888   1.989   4.038
10716SOL     OW33046   6.371   0.954   4.343
10716SOL    HW133047   6.364   1.053   4.354
10716SOL    HW233048   6.337   0.929   4.252
10717SOL     OW33049   6.871   0.726   1.643
10717SOL    HW133050   6.783   0.702   1.602
10717SOL    HW233051   6.913   0.644   1.682
10718SOL     OW33052   6.246   4.912   6.660
10718SOL    HW133053   6.246   4.857   6.576
10718SOL    HW233054   6.325   4.973   6.660
10719SOL     OW33055   5.486   0.961   1.623
10719SOL    HW133056   5.447   1.031   1.683
10719SOL    HW233057   5.539   1.005   1.551
10720SOL     OW33058   0.244   3.828   6.687
10720SOL    HW133059   0.247   3.916   6.639
10720SOL    HW233060   0.337   3.794   6.700
10721SOL     OW33061   5.950   2.180   4.050
10721SOL    HW133062   5.857   2.206   4.076
10721SOL    HW233063   5.989   2.121   4.121
10722SOL     OW33064   6.756   3.609   0.419
10722SOL    HW133065   6.693   3.547   0.465
10722SOL    HW233066   6.723   3.625   0.325
10723SOL     OW33067   5.291   4.086   6.960
10723SOL    HW133068   5.263   4.081   6.864
10723SOL    HW233069   5.365   4.153   6.969
10724SOL     OW33070   4.193   6.493   6.213
10724SOL    HW133071   4.154   6.492   6.121
10724SOL    HW233072   4.292   6.474   6.208
10725SOL     OW33073   0.597   6.294   4.291
10725SOL    HW133074   0.667   6.225   4.312
10725SOL    HW233075   0.624   6.345   4.209
10726SOL     OW33076   5.662   0.543   4.660
10726SOL    HW133077   5.651   0.569   4.564
10726SOL    HW233078   5.688   0.447   4.665
10727SOL     OW33079   2.210   5.802   5.922
10727SOL    HW133080   2.124   5.751   5.923
10727SOL    HW233081   2.227   5.841   6.013
10728SOL     OW33082   4.691   6.625   2.979
10728SOL    HW133083   4.736   6.563   3.044
10728SOL    HW233084   4.759   6.659   2.914
10729SOL     OW33085   6.231   2.378   2.823
10729SOL    HW133086   6.149   2.430   2.848
10729SOL    HW233087   6.281   2.353   2.906
10730SOL     OW33088   1.674   6.841   2.634
10730SOL    HW133089   1.698   6.868   2.540
10730SOL    HW233090   1.579   6.808   2.635
10731SOL     OW33091   3.563   6.347   0.201
10731SOL    HW133092   3.477   6.372   0.158
10731SOL    HW233093   3.555   6.355   0.301
10732SOL     OW33094   5.869   5.959   2.879
10732SOL    HW133095   5.804   5.894   2.919
10732SOL    HW233096   5.873   6.041   2.936
10733SOL     OW33097   6.353   1.657   5.959
10733SOL    HW133098   6.369   1.574   5.906
10733SOL    HW233099   6.411   1.730   5.925
10734SOL     OW33100   1.633   0.987   6.342
10734SOL    HW133101   1.601   1.048   6.270
10734SOL    HW233102   1.651   0.896   6.304
10735SOL     OW33103   1.067   4.698   1.906
10735SOL    HW133104   1.048   4.661   1.997
10735SOL    HW233105   1.090   4.795   1.914
10736SOL     OW33106   6.982   0.398   3.447
10736SOL    HW133107   0.008   0.475   3.490
10736SOL    HW233108   0.021   0.320   3.440
10737SOL     OW33109   0.047   1.371   1.196
10737SOL    HW133110   0.067   1.306   1.123
10737SOL    HW233111   0.125   1.432   1.208
10738SOL     OW33112   2.479   0.570   2.913
10738SOL    HW133113   2.472   0.483   2.863
10738SOL    HW233114   2.517   0.640   2.853
10739SOL     OW33115   6.024   1.499   2.433
10739SOL    HW133116   6.084   1.462   2.362
10739SOL    HW233117   5.933   1.515   2.395
10740SOL     OW33118   1.649   6.726   5.714
10740SOL    HW133119   1.737   6.683   5.730
10740SOL    HW233120   1.633   6.796   5.784
10741SOL     OW33121   1.739   2.529   3.216
10741SOL    HW133122   1.835   2.543   3.190
10741SOL    HW233123   1.684   2.608   3.187
10742SOL     OW33124   6.159   5.503   2.412
10742SOL    HW133125   6.193   5.420   2.455
10742SOL    HW233126   6.126   5.567   2.482
10743SOL     OW33127   3.343   1.251   5.544
10743SOL    HW133128   3.441   1.237   5.553
10743SOL    HW233129   3.304   1.179   5.487
10744SOL     OW33130   2.962   0.285   0.904
10744SOL    HW133131   2.885   0.321   0.957
10744SOL    HW233132   2.937   0.280   0.807
10745SOL     OW33133   2.248   4.365   1.298
10745SOL    HW133134   2.301   4.439   1.256
10745SOL    HW233135   2.184   4.328   1.231
10746SOL     OW33136   1.923   6.376   7.007
10746SOL    HW133137   1.925   6.374   0.084
10746SOL    HW233138   2.006   6.421   6.973
10747SOL     OW33139   6.749   1.886   4.257
10747SOL    HW133140   6.740   1.907   4.355
10747SOL    HW233141   6.844   1.902   4.229
10748SOL     OW33142   4.261   5.182   1.191
10748SOL    HW133143   4.227   5.096   1.153
10748SOL    HW233144   4.263   5.176   1.291
10749SOL     OW33145   6.338   5.041   3.062
10749SOL    HW133146   6.285   5.060   2.979
10749SOL    HW233147   6.434   5.062   3.046
10750SOL     OW33148   4.892   2.948   3.909
10750SOL    HW133149   4.828   2.879   3.943
10750SOL    HW233150   4.964   2.963   3.976
10751SOL     OW33151   1.291   3.719   4.952
10751SOL    HW133152   1.259   3.626   4.935
10751SOL    HW233153   1.288   3.738   5.050
10752SOL     OW33154   5.916   6.202   0.434
10752SOL    HW133155   5.864   6.155   0.363
10752SOL    HW233156   5.942   6.293   0.403
10753SOL     OW33157   5.101   6.314   3.918
10753SOL    HW133158   5.177   6.373   3.888
10753SOL    HW233159   5.112   6.293   4.015
10754SOL     OW33160   1.468   3.084   1.661
10754SOL    HW133161   1.568   3.088   1.668
10754SOL    HW233162   1.431   3.049   1.747
10755SOL     OW33163   6.454   2.751   1.115
10755SOL    HW133164   6.491   2.661   1.089
10755SOL    HW233165   6.411   2.793   1.035
10756SOL     OW33166   6.987   2.744   0.697
10756SOL    HW133167   6.915   2.675   0.683
10756SOL    HW233168   6.997   2.762   0.795
10757SOL     OW33169   6.176   4.221   0.665
10757SOL    HW133170   6.215   4.309   0.692
10757SOL    HW233171   6.245   4.149   0.675
10758SOL     OW33172   0.502   6.630   6.600
10758SOL    HW133173   0.542   6.681   6.676
10758SOL    HW233174   0.574   6.606   6.535
10759SOL     OW33175   2.154   1.814   6.791
10759SOL    HW133176   2.074   1.866   6.820
10759SOL    HW233177   2.146   1.720   6.823
10760SOL     OW33178   0.351   5.836   0.180
10760SOL    HW133179   0.410   5.893   0.236
10760SOL    HW233180   0.384   5.741   0.183
10761SOL     OW33181   0.738   1.700   6.588
10761SOL    HW133182   0.670   1.633   6.559
10761SOL    HW233183   0.780   1.670   6.674
10762SOL     OW33184   4.081   0.369   5.747
10762SOL    HW133185   4.032   0.320   5.675
10762SOL    HW233186   4.022   0.379   5.827
10763SOL     OW33187   5.732   0.268   3.196
10763SOL    HW133188   5.758   0.173   3.176
10763SOL    HW233189   5.811   0.316   3.235
10764SOL     OW33190   4.291   1.237   4.953
10764SOL    HW133191   4.365   1.254   4.888
10764SOL    HW233192   4.329   1.228   5.045
10765SOL     OW33193   6.274   2.306   2.356
10765SOL    HW133194   6.203   2.355   2.305
10765SOL    HW233195   6.351   2.286   2.296
10766SOL     OW33196   1.170   4.544   6.765
10766SOL    HW133197   1.129   4.543   6.673
10766SOL    HW233198   1.100   4.569   6.832
10767SOL     OW33199   1.621   5.682   0.704
10767SOL    HW133200   1.580   5.744   0.772
10767SOL    HW233201   1.707   5.646   0.740
10768SOL     OW33202   5.815   6.056   0.240
10768SOL    HW133203   5.716   6.055   0.224
10768SOL    HW233204   5.855   6.132   0.188
10769SOL     OW33205   2.966   3.624   5.184
10769SOL    HW133206   2.963   3.526   5.166
10769SOL    HW233207   3.047   3.664   5.140
10770SOL     OW33208   5.533   6.918   4.556
10770SOL    HW133209   5.513   6.849   4.627
10770SOL    HW233210   5.447   6.961   4.528
10771SOL     OW33211   5.503   6.698   5.624
10771SOL    HW133212   5.461   6.693   5.715
10771SOL    HW233213   5.539   6.608   5.599
10772SOL     OW33214   5.562   5.637   3.283
10772SOL    HW133215   5.551   5.539   3.267
10772SOL    HW233216   5.473   5.677   3.306
10773SOL     OW33217   6.798   4.569   1.180
10773SOL    HW133218   6.831   4.579   1.086
10773SOL    HW233219   6.864   4.516   1.234
10774SOL     OW33220   1.330   2.285   1.004
10774SOL    HW133221   1.254   2.348   0.985
10774SOL    HW233222   1.298   2.191   0.994
10775SOL     OW33223   1.519   4.589   0.770
10775SOL    HW133224   1.496   4.583   0.867
10775SOL    HW233225   1.589   4.521   0.748
10776SOL     OW33226   6.955   0.988   3.122
10776SOL    HW133227   0.031   0.987   3.106
10776SOL    HW233228   6.937   1.029   3.211
10777SOL     OW33229   2.933   1.066   3.366
10777SOL    HW133230   3.016   1.075   3.421
10777SOL    HW233231   2.945   0.994   3.298
10778SOL     OW33232   6.331   6.510   4.128
10778SOL    HW133233   6.324   6.501   4.227
10778SOL    HW233234   6.346   6.607   4.105
10779SOL     OW33235   6.027   3.907   4.134
10779SOL    HW133236   5.930   3.931   4.128
10779SOL    HW233237   6.053   3.899   4.231
10780SOL     OW33238   0.723   5.573   4.550
10780SOL    HW133239   0.690   5.579   4.643
10780SOL    HW233240   0.646   5.567   4.487
10781SOL     OW33241   5.935   2.442   4.836
10781SOL    HW133242   5.927   2.391   4.922
10781SOL    HW233243   6.031   2.462   4.817
10782SOL     OW33244   0.932   3.167   5.493
10782SOL    HW133245   0.925   3.093   5.426
10782SOL    HW233246   0.892   3.136   5.580
10783SOL     OW33247   1.011   2.359   2.763
10783SOL    HW133248   1.099   2.331   2.803
10783SOL    HW233249   1.018   2.361   2.664
10784SOL     OW33250   2.941   5.944   2.552
10784SOL    HW133251   2.990   5.887   2.618
10784SOL    HW233252   2.937   6.038   2.586
10785SOL     OW33253   1.849   5.643   2.191
10785SOL    HW133254   1.843   5.690   2.279
10785SOL    HW233255   1.761   5.601   2.169
10786SOL     OW33256   4.991   1.852   2.266
10786SOL    HW133257   5.080   1.843   2.310
10786SOL    HW233258   4.953   1.762   2.246
10787SOL     OW33259   3.308   0.832   3.725
10787SOL    HW133260   3.315   0.926   3.757
10787SOL    HW233261   3.334   0.828   3.628
10788SOL     OW33262   0.544   4.465   0.216
10788SOL    HW133263   0.507   4.527   0.285
10788SOL    HW233264   0.528   4.370   0.245
10789SOL     OW33265   6.015   1.514   0.145
10789SOL    HW133266   5.948   1.462   0.197
10789SOL    HW233267   5.969   1.570   0.076
10790SOL     OW33268   0.362   2.311   4.688
10790SOL    HW133269   0.398   2.223   4.719
10790SOL    HW233270   0.438   2.377   4.683
10791SOL     OW33271   1.975   1.356   2.826
10791SOL    HW133272   2.015   1.447   2.836
10791SOL    HW233273   1.936   1.327   2.913
10792SOL     OW33274   3.843   2.422   1.336
10792SOL    HW133275   3.930   2.437   1.289
10792SOL    HW233276   3.848   2.338   1.391
10793SOL     OW33277   4.685   1.709   5.034
10793SOL    HW133278   4.745   1.789   5.041
10793SOL    HW233279   4.594   1.738   5.005
10794SOL     OW33280   4.444   3.157   1.696
10794SOL    HW133281   4.497   3.103   1.761
10794SOL    HW233282   4.413   3.241   1.740
10795SOL     OW33283   0.067   3.754   3.200
10795SOL    HW133284   6.998   3.731   3.168
10795SOL    HW233285   0.135   3.706   3.144
10796SOL     OW33286   6.609   6.311   6.620
10796SOL    HW133287   6.597   6.409   6.637
10796SOL    HW233288   6.553   6.259   6.685
10797SOL     OW33289   4.137   3.579   0.746
10797SOL    HW133290   4.218   3.521   0.759
10797SOL    HW233291   4.164   3.675   0.749
10798SOL     OW33292   3.040   6.895   6.509
10798SOL    HW133293   2.940   6.902   6.517
10798SOL    HW233294   3.063   6.843   6.427
10799SOL     OW33295   3.183   1.377   2.849
10799SOL    HW133296   3.182   1.304   2.917
10799SOL    HW233297   3.103   1.370   2.790
10800SOL     OW33298   1.278   0.625   6.396
10800SOL    HW133299   1.281   0.722   6.418
10800SOL    HW233300   1.185   0.598   6.373
10801SOL     OW33301   2.143   5.766   6.431
10801SOL    HW133302   2.112   5.853   6.468
10801SOL    HW233303   2.235   5.746   6.465
10802SOL     OW33304   0.913   3.342   4.248
10802SOL    HW133305   0.859   3.400   4.309
10802SOL    HW233306   1.004   3.329   4.287
10803SOL     OW33307   6.162   4.825   5.605
10803SOL    HW133308   6.197   4.734   5.581
10803SOL    HW233309   6.239   4.884   5.629
10804SOL     OW33310   5.798   4.636   1.988
10804SOL    HW133311   5.699   4.640   1.978
10804SOL    HW233312   5.830   4.543   1.968
10805SOL     OW33313   4.498   6.964   0.656
10805SOL    HW133314   4.509   6.969   0.756
10805SOL    HW233315   4.404   6.990   0.632
10806SOL     OW33316   5.530   3.695   0.345
10806SOL    HW133317   5.493   3.614   0.391
10806SOL    HW233318   5.553   3.764   0.414
10807SOL     OW33319   3.746   6.246   3.274
10807SOL    HW133320   3.663   6.240   3.329
10807SOL    HW233321   3.787   6.337   3.284
10808SOL     OW33322   0.554   2.994   6.070
10808SOL    HW133323   0.654   2.989   6.075
10808SOL    HW233324   0.524   3.085   6.097
10809SOL     OW33325   2.728   0.348   3.367
10809SOL    HW133326   2.773   0.314   3.285
10809SOL    HW233327   2.638   0.385   3.343
10810SOL     OW33328   0.192   1.499   5.168
10810SOL    HW133329   0.177   1.415   5.117
10810SOL    HW233330   0.254   1.481   5.244
10811SOL     OW33331   4.751   4.699   5.181
10811SOL    HW133332   4.695   4.765   5.231
10811SOL    HW233333   4.701   4.614   5.171
10812SOL     OW33334   6.341   2.545   2.635
10812SOL    HW133335   6.330   2.492   2.719
10812SOL    HW233336   6.251   2.559   2.593
10813SOL     OW33337   2.740   5.806   2.153
10813SOL    HW133338   2.772   5.898   2.128
10813SOL    HW233339   2.685   5.769   2.078
10814SOL     OW33340   2.091   6.968   5.068
10814SOL    HW133341   2.042   6.970   5.155
10814SOL    HW233342   2.178   7.015   5.077
10815SOL     OW33343   5.343   3.928   2.694
10815SOL    HW133344   5.377   4.023   2.695
10815SOL    HW233345   5.243   3.929   2.688
10816SOL     OW33346   1.538   0.810   2.149
10816SOL    HW133347   1.445   0.772   2.144
10816SOL    HW233348   1.547   0.885   2.083
10817SOL     OW33349   4.941   0.074   2.546
10817SOL    HW133350   4.957   0.149   2.482
10817SOL    HW233351   4.861   0.095   2.603
10818SOL     OW33352   4.814   2.939   6.811
10818SOL    HW133353   4.778   2.972   6.723
10818SOL    HW233354   4.852   3.017   6.861
10819SOL     OW33355   0.166   4.783   6.683
10819SOL    HW133356   0.225   4.863   6.670
10819SOL    HW233357   0.072   4.812   6.698
10820SOL     OW33358   0.249   6.454   3.862
10820SOL    HW133359   0.291   6.545   3.863
10820SOL    HW233360   0.280   6.402   3.942
10821SOL     OW33361   6.999   0.608   1.062
10821SOL    HW133362   6.967   0.653   1.145
10821SOL    HW233363   6.933   0.622   0.988
10822SOL     OW33364   0.835   3.974   2.438
10822SOL    HW133365   0.735   3.971   2.434
10822SOL    HW233366   0.870   3.888   2.476
10823SOL     OW33367   2.294   6.139   1.223
10823SOL    HW133368   2.382   6.169   1.261
10823SOL    HW233369   2.247   6.081   1.289
10824SOL     OW33370   5.086   0.375   2.697
10824SOL    HW133371   5.133   0.437   2.634
10824SOL    HW233372   5.144   0.359   2.777
10825SOL     OW33373   3.494   0.917   0.842
10825SOL    HW133374   3.527   0.960   0.926
10825SOL    HW233375   3.394   0.913   0.843
10826SOL     OW33376   0.263   3.541   2.703
10826SOL    HW133377   0.335   3.506   2.763
10826SOL    HW233378   0.273   3.498   2.613
10827SOL     OW33379   0.120   3.240   4.281
10827SOL    HW133380   0.141   3.254   4.378
10827SOL    HW233381   0.025   3.208   4.272
10828SOL     OW33382   1.452   5.477   0.551
10828SOL    HW133383   1.457   5.381   0.523
10828SOL    HW233384   1.518   5.495   0.624
10829SOL     OW33385   3.205   3.832   2.049
10829SOL    HW133386   3.142   3.835   1.972
10829SOL    HW233387   3.176   3.896   2.120
10830SOL     OW33388   5.310   2.945   4.764
10830SOL    HW133389   5.385   2.992   4.718
10830SOL    HW233390   5.238   3.010   4.786
10831SOL     OW33391   5.389   1.264   3.054
10831SOL    HW133392   5.466   1.205   3.026
10831SOL    HW233393   5.415   1.360   3.043
10832SOL     OW33394   0.830   2.079   0.647
10832SOL    HW133395   0.815   2.166   0.601
10832SOL    HW233396   0.879   2.017   0.585
10833SOL     OW33397   2.524   0.598   4.435
10833SOL    HW133398   2.618   0.577   4.462
10833SOL    HW233399   2.517   0.693   4.407
10834SOL     OW33400   0.654   1.989   5.749
10834SOL    HW133401   0.558   2.015   5.740
10834SOL    HW233402   0.672   1.909   5.692
10835SOL     OW33403   5.575   1.571   2.507
10835SOL    HW133404   5.563   1.670   2.510
10835SOL    HW233405   5.533   1.529   2.587
10836SOL     OW33406   1.671   1.908   6.760
10836SOL    HW133407   1.714   1.891   6.672
10836SOL    HW233408   1.614   1.829   6.785
10837SOL     OW33409   6.668   4.698   0.911
10837SOL    HW133410   6.588   4.716   0.968
10837SOL    HW233411   6.642   4.638   0.835
10838SOL     OW33412   6.001   6.716   6.647
10838SOL    HW133413   6.040   6.725   6.556
10838SOL    HW233414   5.957   6.627   6.656
10839SOL     OW33415   1.702   2.312   0.288
10839SOL    HW133416   1.749   2.232   0.325
10839SOL    HW233417   1.670   2.370   0.363
10840SOL     OW33418   3.517   5.182   1.975
10840SOL    HW133419   3.443   5.249   1.961
10840SOL    HW233420   3.480   5.090   1.965
10841SOL     OW33421   3.936   5.440   5.831
10841SOL    HW133422   3.877   5.424   5.910
10841SOL    HW233423   4.032   5.430   5.860
10842SOL     OW33424   5.980   3.370   1.078
10842SOL    HW133425   5.898   3.406   1.122
10842SOL    HW233426   6.062   3.402   1.127
10843SOL     OW33427   0.638   1.686   2.217
10843SOL    HW133428   0.546   1.698   2.254
10843SOL    HW233429   0.652   1.591   2.191
10844SOL     OW33430   5.122   0.490   3.316
10844SOL    HW133431   5.052   0.466   3.248
10844SOL    HW233432   5.212   0.464   3.281
10845SOL     OW33433   1.220   0.892   1.601
10845SOL    HW133434   1.129   0.885   1.642
10845SOL    HW233435   1.228   0.977   1.550
10846SOL     OW33436   4.168   1.953   1.278
10846SOL    HW133437   4.249   1.901   1.304
10846SOL    HW233438   4.171   2.043   1.323
10847SOL     OW33439   4.025   2.524   6.210
10847SOL    HW133440   4.083   2.503   6.131
10847SOL    HW233441   3.929   2.517   6.184
10848SOL     OW33442   1.113   0.881   0.348
10848SOL    HW133443   1.048   0.903   0.421
10848SOL    HW233444   1.145   0.966   0.305
10849SOL     OW33445   3.161   5.215   4.791
10849SOL    HW133446   3.103   5.271   4.731
10849SOL    HW233447   3.245   5.264   4.811
10850SOL     OW33448   4.992   6.793   0.392
10850SOL    HW133449   5.071   6.797   0.331
10850SOL    HW233450   5.007   6.721   0.460
10851SOL     OW33451   3.427   2.322   6.861
10851SOL    HW133452   3.341   2.372   6.851
10851SOL    HW233453   3.410   2.224   6.855
10852SOL     OW33454   0.292   0.990   6.532
10852SOL    HW133455   0.340   0.929   6.594
10852SOL    HW233456   0.201   1.010   6.567
10853SOL     OW33457   2.640   1.319   4.591
10853SOL    HW133458   2.691   1.323   4.677
10853SOL    HW233459   2.649   1.405   4.542
10854SOL     OW33460   6.556   6.560   6.673
10854SOL    HW133461   6.576   6.645   6.625
10854SOL    HW233462   6.471   6.570   6.725
10855SOL     OW33463   1.516   6.389   1.595
10855SOL    HW133464   1.450   6.321   1.628
10855SOL    HW233465   1.580   6.346   1.532
10856SOL     OW33466   6.186   6.817   6.942
10856SOL    HW133467   6.124   6.779   7.011
10856SOL    HW233468   6.137   6.827   6.855
10857SOL     OW33469   5.888   1.392   3.632
10857SOL    HW133470   5.864   1.486   3.656
10857SOL    HW233471   5.829   1.362   3.556
10858SOL     OW33472   1.484   3.288   0.006
10858SOL    HW133473   1.576   3.322   0.019
10858SOL    HW233474   1.435   3.348   6.966
10859SOL     OW33475   1.003   4.421   3.149
10859SOL    HW133476   0.990   4.427   3.248
10859SOL    HW233477   0.919   4.448   3.102
10860SOL     OW33478   6.202   1.805   0.039
10860SOL    HW133479   6.186   1.763   0.128
10860SOL    HW233480   6.128   1.780   6.999
10861SOL     OW33481   3.089   2.940   1.554
10861SOL    HW133482   3.094   2.983   1.644
10861SOL    HW233483   3.156   2.981   1.493
10862SOL     OW33484   3.634   2.748   5.473
10862SOL    HW133485   3.724   2.786   5.451
10862SOL    HW233486   3.637   2.704   5.563
10863SOL     OW33487   2.394   1.185   3.237
10863SOL    HW133488   2.474   1.237   3.208
10863SOL    HW233489   2.411   1.143   3.326
10864SOL     OW33490   2.530   4.545   2.151
10864SOL    HW133491   2.617   4.579   2.114
10864SOL    HW233492   2.544   4.456   2.194
10865SOL     OW33493   4.494   1.998   3.282
10865SOL    HW133494   4.479   2.081   3.227
10865SOL    HW233495   4.591   1.973   3.279
10866SOL     OW33496   0.124   3.935   2.792
10866SOL    HW133497   0.045   3.882   2.823
10866SOL    HW233498   0.096   4.030   2.776
10867SOL     OW33499   3.775   2.714   0.514
10867SOL    HW133500   3.836   2.793   0.524
10867SOL    HW233501   3.718   2.726   0.433
10868SOL     OW33502   1.228   1.968   4.018
10868SOL    HW133503   1.236   1.885   4.073
10868SOL    HW233504   1.315   1.984   3.970
10869NA      NA33505   0.294   2.070   6.054
10870NA      NA33506   4.381   4.676   5.196
10871NA      NA33507   1.306   5.306   2.583
10872NA      NA33508   5.357   4.130   3.552
10873NA      NA33509   4.385   2.379   5.148
10874NA      NA33510   2.461   5.260   0.993
10875NA      NA33511   1.074   5.281   6.782
10876NA      NA33512   3.323   4.366   1.037
10877NA      NA33513   4.576   5.174   0.887
10878NA      NA33514   3.497   1.285   6.406
10879NA      NA33515   5.447   5.951   2.032
10880NA      NA33516   1.552   6.577   5.383
10881NA      NA33517   4.434   5.001   1.695
10882NA      NA33518   3.239   3.060   6.837
   7.02269   7.02269   7.02269
