Generated by trjconv : CNT in water t= 364.00000
33518
    1C        C    1   2.836   2.762   4.743
    1C        C    2   2.893   2.715   4.864
    1C        C    3   2.838   2.767   4.982
    1C        C    4   2.845   2.774   4.256
    1C        C    5   2.899   2.731   4.379
    1C        C    6   2.840   2.770   4.502
    1C        C    7   3.007   2.635   4.623
    1C        C    8   2.893   2.718   4.622
    1C        C    9   3.072   2.603   4.744
    1C        C   10   3.009   2.636   4.867
    1C        C   11   3.182   2.493   4.974
    1C        C   12   3.061   2.563   4.975
    1C        C   13   2.852   2.772   3.771
    1C        C   14   2.901   2.726   3.896
    1C        C   15   2.852   2.782   4.016
    1C        C   16   3.019   2.649   4.139
    1C        C   17   2.901   2.726   4.136
    1C        C   18   3.078   2.613   4.262
    1C        C   19   3.014   2.648   4.383
    1C        C   20   3.209   2.560   4.504
    1C        C   21   3.075   2.605   4.503
    1C        C   22   3.277   2.538   4.626
    1C        C   23   3.206   2.556   4.747
    1C        C   24   3.412   2.483   4.865
    1C        C   25   3.270   2.501   4.862
    1C        C   26   3.489   2.486   4.981
    1C        C   27   2.845   2.769   3.280
    1C        C   28   2.898   2.719   3.402
    1C        C   29   2.847   2.768   3.524
    1C        C   30   3.015   2.640   3.649
    1C        C   31   2.902   2.725   3.647
    1C        C   32   3.077   2.606   3.771
    1C        C   33   3.015   2.642   3.893
    1C        C   34   3.204   2.551   4.015
    1C        C   35   3.075   2.608   4.016
    1C        C   36   3.272   2.534   4.138
    1C        C   37   3.209   2.560   4.261
    1C        C   38   3.414   2.502   4.380
    1C        C   39   3.277   2.535   4.383
    1C        C   40   3.483   2.501   4.503
    1C        C   41   3.414   2.502   4.626
    1C        C   42   3.629   2.489   4.744
    1C        C   43   3.487   2.480   4.744
    1C        C   44   3.703   2.489   4.865
    1C        C   45   3.628   2.480   4.983
    1C        C   46   2.837   2.752   2.792
    1C        C   47   2.894   2.712   2.915
    1C        C   48   2.843   2.762   3.037
    1C        C   49   3.017   2.641   3.163
    1C        C   50   2.901   2.722   3.159
    1C        C   51   3.078   2.603   3.285
    1C        C   52   3.013   2.638   3.406
    1C        C   53   3.207   2.550   3.529
    1C        C   54   3.076   2.604   3.527
    1C        C   55   3.275   2.529   3.650
    1C        C   56   3.205   2.547   3.772
    1C        C   57   3.414   2.511   3.895
    1C        C   58   3.274   2.532   3.894
    1C        C   59   3.486   2.505   4.017
    1C        C   60   3.411   2.506   4.136
    1C        C   61   3.624   2.498   4.257
    1C        C   62   3.483   2.492   4.257
    1C        C   63   3.696   2.510   4.378
    1C        C   64   3.625   2.502   4.500
    1C        C   65   3.833   2.541   4.621
    1C        C   66   3.697   2.504   4.621
    1C        C   67   3.905   2.562   4.740
    1C        C   68   3.838   2.529   4.860
    1C        C   69   4.051   2.588   4.977
    1C        C   70   3.923   2.529   4.971
    1C        C   71   2.818   2.728   2.309
    1C        C   72   2.881   2.692   2.430
    1C        C   73   2.823   2.741   2.550
    1C        C   74   3.008   2.630   2.674
    1C        C   75   2.888   2.703   2.670
    1C        C   76   3.073   2.594   2.794
    1C        C   77   3.010   2.631   2.916
    1C        C   78   3.203   2.548   3.038
    1C        C   79   3.073   2.602   3.039
    1C        C   80   3.273   2.527   3.160
    1C        C   81   3.207   2.547   3.284
    1C        C   82   3.411   2.495   3.402
    1C        C   83   3.274   2.525   3.406
    1C        C   84   3.482   2.495   3.525
    1C        C   85   3.415   2.505   3.648
    1C        C   86   3.624   2.512   3.768
    1C        C   87   3.483   2.502   3.772
    1C        C   88   3.695   2.512   3.890
    1C        C   89   3.628   2.506   4.015
    1C        C   90   3.834   2.544   4.137
    1C        C   91   3.698   2.505   4.137
    1C        C   92   3.899   2.574   4.259
    1C        C   93   3.833   2.545   4.381
    1C        C   94   4.027   2.635   4.497
    1C        C   95   3.904   2.566   4.501
    1C        C   96   4.096   2.664   4.617
    1C        C   97   4.034   2.623   4.736
    1C        C   98   4.187   2.767   4.859
    1C        C   99   4.096   2.657   4.860
    1C        C  100   4.219   2.838   4.975
    1C        C  101   2.819   2.729   2.070
    1C        C  102   2.986   2.591   2.188
    1C        C  103   2.869   2.672   2.188
    1C        C  104   3.059   2.574   2.309
    1C        C  105   3.000   2.616   2.430
    1C        C  106   3.198   2.537   2.552
    1C        C  107   3.068   2.591   2.552
    1C        C  108   3.272   2.521   2.671
    1C        C  109   3.204   2.541   2.794
    1C        C  110   3.409   2.497   2.914
    1C        C  111   3.269   2.519   2.917
    1C        C  112   3.482   2.497   3.035
    1C        C  113   3.412   2.507   3.158
    1C        C  114   3.623   2.500   3.281
    1C        C  115   3.482   2.490   3.280
    1C        C  116   3.695   2.507   3.401
    1C        C  117   3.623   2.501   3.523
    1C        C  118   3.831   2.543   3.646
    1C        C  119   3.693   2.517   3.645
    1C        C  120   3.899   2.565   3.769
    1C        C  121   3.832   2.546   3.892
    1C        C  122   4.021   2.640   4.013
    1C        C  123   3.897   2.573   4.014
    1C        C  124   4.083   2.679   4.134
    1C        C  125   4.020   2.646   4.256
    1C        C  126   4.198   2.764   4.377
    1C        C  127   4.086   2.678   4.376
    1C        C  128   4.250   2.815   4.498
    1C        C  129   4.199   2.762   4.618
    1C        C  130   4.327   2.934   4.741
    1C        C  131   4.245   2.818   4.739
    1C        C  132   4.349   3.007   4.859
    1C        C  133   4.287   2.959   4.975
    1C        C  134   3.169   2.465   2.082
    1C        C  135   3.036   2.508   2.082
    1C        C  136   3.257   2.481   2.190
    1C        C  137   3.194   2.527   2.308
    1C        C  138   3.401   2.481   2.429
    1C        C  139   3.262   2.506   2.430
    1C        C  140   3.480   2.481   2.546
    1C        C  141   3.410   2.492   2.669
    1C        C  142   3.621   2.494   2.792
    1C        C  143   3.479   2.493   2.792
    1C        C  144   3.693   2.502   2.913
    1C        C  145   3.623   2.498   3.035
    1C        C  146   3.831   2.534   3.156
    1C        C  147   3.692   2.510   3.158
    1C        C  148   3.899   2.558   3.278
    1C        C  149   3.834   2.534   3.401
    1C        C  150   4.025   2.626   3.523
    1C        C  151   3.899   2.562   3.524
    1C        C  152   4.080   2.672   3.645
    1C        C  153   4.021   2.636   3.768
    1C        C  154   4.191   2.763   3.890
    1C        C  155   4.077   2.680   3.890
    1C        C  156   4.247   2.811   4.010
    1C        C  157   4.196   2.764   4.134
    1C        C  158   4.339   2.921   4.249
    1C        C  159   4.250   2.812   4.255
    1C        C  160   4.374   2.984   4.371
    1C        C  161   4.332   2.931   4.495
    1C        C  162   4.440   3.111   4.616
    1C        C  163   4.372   2.987   4.618
    1C        C  164   4.465   3.182   4.735
    1C        C  165   4.433   3.121   4.859
    1C        C  166   4.513   3.320   4.973
    1C        C  167   4.478   3.186   4.974
    1C        C  168   3.477   2.437   2.075
    1C        C  169   3.397   2.463   2.187
    1C        C  170   3.614   2.466   2.306
    1C        C  171   3.472   2.468   2.307
    1C        C  172   3.689   2.485   2.424
    1C        C  173   3.621   2.483   2.548
    1C        C  174   3.828   2.528   2.665
    1C        C  175   3.691   2.498   2.670
    1C        C  176   3.897   2.549   2.787
    1C        C  177   3.831   2.532   2.911
    1C        C  178   4.024   2.619   3.030
    1C        C  179   3.897   2.557   3.033
    1C        C  180   4.086   2.656   3.152
    1C        C  181   4.023   2.624   3.274
    1C        C  182   4.190   2.750   3.396
    1C        C  183   4.081   2.661   3.398
    1C        C  184   4.244   2.798   3.518
    1C        C  185   4.194   2.756   3.643
    1C        C  186   4.334   2.914   3.760
    1C        C  187   4.245   2.804   3.765
    1C        C  188   4.378   2.973   3.880
    1C        C  189   4.333   2.923   4.004
    1C        C  190   4.439   3.106   4.129
    1C        C  191   4.373   2.982   4.126
    1C        C  192   4.470   3.172   4.250
    1C        C  193   4.438   3.110   4.373
    1C        C  194   4.502   3.314   4.491
    1C        C  195   4.465   3.178   4.494
    1C        C  196   4.519   3.385   4.612
    1C        C  197   4.508   3.318   4.735
    1C        C  198   4.552   3.533   4.852
    1C        C  199   4.535   3.391   4.854
    1C        C  200   4.581   3.621   4.961
    1C        C  201   3.615   2.415   2.076
    1C        C  202   3.828   2.504   2.182
    1C        C  203   3.694   2.455   2.189
    1C        C  204   3.897   2.537   2.302
    1C        C  205   3.827   2.515   2.423
    1C        C  206   4.020   2.614   2.543
    1C        C  207   3.896   2.546   2.543
    1C        C  208   4.079   2.658   2.664
    1C        C  209   4.022   2.616   2.786
    1C        C  210   4.194   2.744   2.907
    1C        C  211   4.082   2.657   2.907
    1C        C  212   4.245   2.795   3.028
    1C        C  213   4.194   2.747   3.151
    1C        C  214   4.329   2.910   3.274
    1C        C  215   4.242   2.799   3.274
    1C        C  216   4.367   2.971   3.395
    1C        C  217   4.332   2.908   3.517
    1C        C  218   4.440   3.095   3.638
    1C        C  219   4.377   2.968   3.637
    1C        C  220   4.463   3.165   3.759
    1C        C  221   4.442   3.100   3.882
    1C        C  222   4.495   3.306   4.002
    1C        C  223   4.461   3.169   4.004
    1C        C  224   4.516   3.377   4.123
    1C        C  225   4.506   3.308   4.246
    1C        C  226   4.512   3.522   4.364
    1C        C  227   4.509   3.381   4.367
    1C        C  228   4.516   3.594   4.485
    1C        C  229   4.523   3.527   4.609
    1C        C  230   4.493   3.738   4.724
    1C        C  231   4.534   3.602   4.728
    1C        C  232   4.489   3.817   4.841
    1C        C  233   4.552   3.757   4.951
    1C        C  234   4.017   2.608   2.065
    1C        C  235   3.897   2.538   2.065
    1C        C  236   4.087   2.642   2.182
    1C        C  237   4.024   2.600   2.302
    1C        C  238   4.192   2.739   2.420
    1C        C  239   4.082   2.648   2.421
    1C        C  240   4.246   2.787   2.541
    1C        C  241   4.193   2.742   2.664
    1C        C  242   4.340   2.896   2.784
    1C        C  243   4.249   2.788   2.784
    1C        C  244   4.374   2.960   2.905
    1C        C  245   4.333   2.905   3.029
    1C        C  246   4.436   3.091   3.148
    1C        C  247   4.373   2.964   3.151
    1C        C  248   4.460   3.157   3.270
    1C        C  249   4.430   3.097   3.395
    1C        C  250   4.494   3.300   3.514
    1C        C  251   4.458   3.164   3.516
    1C        C  252   4.507   3.370   3.637
    1C        C  253   4.493   3.303   3.761
    1C        C  254   4.520   3.517   3.875
    1C        C  255   4.507   3.377   3.881
    1C        C  256   4.513   3.587   3.997
    1C        C  257   4.518   3.518   4.120
    1C        C  258   4.481   3.729   4.241
    1C        C  259   4.513   3.591   4.241
    1C        C  260   4.467   3.801   4.362
    1C        C  261   4.486   3.732   4.485
    1C        C  262   4.425   3.941   4.601
    1C        C  263   4.475   3.809   4.603
    1C        C  264   4.395   4.010   4.720
    1C        C  265   4.432   3.946   4.841
    1C        C  266   4.320   4.132   4.959
    1C        C  267   4.393   4.014   4.957
    1C        C  268   4.260   2.776   2.063
    1C        C  269   4.196   2.731   2.179
    1C        C  270   4.344   2.888   2.298
    1C        C  271   4.253   2.779   2.299
    1C        C  272   4.378   2.955   2.417
    1C        C  273   4.337   2.896   2.539
    1C        C  274   4.437   3.083   2.660
    1C        C  275   4.377   2.955   2.661
    1C        C  276   4.469   3.149   2.781
    1C        C  277   4.440   3.084   2.904
    1C        C  278   4.497   3.291   3.024
    1C        C  279   4.467   3.153   3.024
    1C        C  280   4.507   3.362   3.145
    1C        C  281   4.491   3.295   3.268
    1C        C  282   4.506   3.508   3.390
    1C        C  283   4.504   3.366   3.390
    1C        C  284   4.507   3.581   3.511
    1C        C  285   4.510   3.511   3.634
    1C        C  286   4.489   3.727   3.751
    1C        C  287   4.514   3.588   3.752
    1C        C  288   4.473   3.794   3.875
    1C        C  289   4.489   3.726   3.998
    1C        C  290   4.423   3.930   4.115
    1C        C  291   4.472   3.798   4.118
    1C        C  292   4.396   3.999   4.236
    1C        C  293   4.425   3.935   4.359
    1C        C  294   4.325   4.128   4.476
    1C        C  295   4.393   4.004   4.479
    1C        C  296   4.288   4.190   4.598
    1C        C  297   4.330   4.136   4.722
    1C        C  298   4.196   4.312   4.836
    1C        C  299   4.281   4.196   4.841
    1C        C  300   4.166   4.400   4.945
    1C        C  301   4.349   2.883   2.061
    1C        C  302   4.475   3.063   2.177
    1C        C  303   4.396   2.944   2.178
    1C        C  304   4.483   3.141   2.296
    1C        C  305   4.444   3.080   2.417
    1C        C  306   4.502   3.285   2.535
    1C        C  307   4.470   3.147   2.538
    1C        C  308   4.504   3.354   2.658
    1C        C  309   4.498   3.287   2.782
    1C        C  310   4.517   3.502   2.898
    1C        C  311   4.512   3.361   2.902
    1C        C  312   4.514   3.572   3.020
    1C        C  313   4.515   3.503   3.144
    1C        C  314   4.480   3.714   3.264
    1C        C  315   4.503   3.575   3.266
    1C        C  316   4.467   3.787   3.385
    1C        C  317   4.492   3.721   3.508
    1C        C  318   4.428   3.927   3.626
    1C        C  319   4.475   3.794   3.628
    1C        C  320   4.397   3.990   3.749
    1C        C  321   4.425   3.927   3.872
    1C        C  322   4.326   4.117   3.990
    1C        C  323   4.394   3.993   3.992
    1C        C  324   4.281   4.175   4.111
    1C        C  325   4.325   4.121   4.234
    1C        C  326   4.185   4.285   4.352
    1C        C  327   4.285   4.185   4.353
    1C        C  328   4.136   4.338   4.473
    1C        C  329   4.193   4.294   4.595
    1C        C  330   4.024   4.436   4.709
    1C        C  331   4.138   4.350   4.713
    1C        C  332   3.969   4.491   4.827
    1C        C  333   4.049   4.478   4.941
    1C        C  334   4.543   3.264   2.059
    1C        C  335   4.538   3.124   2.063
    1C        C  336   4.534   3.349   2.170
    1C        C  337   4.512   3.280   2.292
    1C        C  338   4.523   3.494   2.409
    1C        C  339   4.520   3.353   2.413
    1C        C  340   4.521   3.566   2.531
    1C        C  341   4.511   3.495   2.652
    1C        C  342   4.491   3.708   2.771
    1C        C  343   4.511   3.568   2.773
    1C        C  344   4.481   3.779   2.893
    1C        C  345   4.495   3.712   3.017
    1C        C  346   4.423   3.911   3.136
    1C        C  347   4.469   3.778   3.139
    1C        C  348   4.394   3.981   3.255
    1C        C  349   4.426   3.922   3.380
    1C        C  350   4.317   4.103   3.502
    1C        C  351   4.398   3.988   3.502
    1C        C  352   4.274   4.163   3.622
    1C        C  353   4.322   4.110   3.744
    1C        C  354   4.185   4.271   3.862
    1C        C  355   4.283   4.169   3.866
    1C        C  356   4.125   4.315   3.982
    1C        C  357   4.181   4.274   4.106
    1C        C  358   4.014   4.404   4.227
    1C        C  359   4.131   4.325   4.228
    1C        C  360   3.953   4.444   4.348
    1C        C  361   4.017   4.413   4.471
    1C        C  362   3.824   4.511   4.589
    1C        C  363   3.955   4.461   4.589
    1C        C  364   3.757   4.542   4.710
    1C        C  365   3.836   4.538   4.827
    1C        C  366   3.627   4.586   4.948
    1C        C  367   3.765   4.570   4.943
    1C        C  368   4.511   3.565   2.051
    1C        C  369   4.526   3.490   2.168
    1C        C  370   4.503   3.705   2.288
    1C        C  371   4.522   3.565   2.288
    1C        C  372   4.484   3.780   2.407
    1C        C  373   4.499   3.706   2.526
    1C        C  374   4.427   3.906   2.647
    1C        C  375   4.481   3.775   2.647
    1C        C  376   4.395   3.971   2.768
    1C        C  377   4.425   3.909   2.892
    1C        C  378   4.320   4.095   3.009
    1C        C  379   4.394   3.975   3.013
    1C        C  380   4.280   4.154   3.131
    1C        C  381   4.319   4.100   3.256
    1C        C  382   4.178   4.258   3.374
    1C        C  383   4.279   4.159   3.378
    1C        C  384   4.124   4.309   3.494
    1C        C  385   4.176   4.265   3.618
    1C        C  386   4.008   4.389   3.740
    1C        C  387   4.126   4.312   3.741
    1C        C  388   3.945   4.426   3.861
    1C        C  389   4.005   4.390   3.984
    1C        C  390   3.814   4.479   4.108
    1C        C  391   3.947   4.431   4.106
    1C        C  392   3.749   4.508   4.230
    1C        C  393   3.824   4.502   4.349
    1C        C  394   3.613   4.552   4.471
    1C        C  395   3.752   4.526   4.468
    1C        C  396   3.542   4.564   4.592
    1C        C  397   3.617   4.562   4.712
    1C        C  398   3.406   4.554   4.838
    1C        C  399   3.547   4.567   4.834
    1C        C  400   3.338   4.517   4.955
    1C        C  401   4.504   3.704   2.048
    1C        C  402   4.452   3.913   2.163
    1C        C  403   4.488   3.777   2.167
    1C        C  404   4.413   3.976   2.283
    1C        C  405   4.439   3.914   2.407
    1C        C  406   4.326   4.095   2.524
    1C        C  407   4.399   3.975   2.528
    1C        C  408   4.284   4.153   2.646
    1C        C  409   4.319   4.090   2.767
    1C        C  410   4.179   4.253   2.886
    1C        C  411   4.276   4.151   2.887
    1C        C  412   4.127   4.301   3.009
    1C        C  413   4.181   4.255   3.131
    1C        C  414   4.002   4.375   3.249
    1C        C  415   4.121   4.299   3.251
    1C        C  416   3.942   4.412   3.372
    1C        C  417   4.005   4.385   3.495
    1C        C  418   3.814   4.476   3.618
    1C        C  419   3.945   4.423   3.618
    1C        C  420   3.746   4.495   3.740
    1C        C  421   3.811   4.472   3.863
    1C        C  422   3.608   4.527   3.985
    1C        C  423   3.745   4.494   3.986
    1C        C  424   3.540   4.532   4.108
    1C        C  425   3.609   4.529   4.232
    1C        C  426   3.396   4.543   4.357
    1C        C  427   3.537   4.546   4.352
    1C        C  428   3.327   4.539   4.480
    1C        C  429   3.402   4.552   4.599
    1C        C  430   3.190   4.520   4.720
    1C        C  431   3.329   4.550   4.720
    1C        C  432   3.121   4.493   4.842
    1C        C  433   3.202   4.490   4.956
    1C        C  434   4.385   4.122   2.048
    1C        C  435   4.446   3.997   2.050
    1C        C  436   4.305   4.161   2.160
    1C        C  437   4.333   4.094   2.282
    1C        C  438   4.182   4.250   2.399
    1C        C  439   4.283   4.151   2.401
    1C        C  440   4.127   4.297   2.520
    1C        C  441   4.182   4.251   2.641
    1C        C  442   4.005   4.370   2.762
    1C        C  443   4.124   4.294   2.762
    1C        C  444   3.941   4.403   2.883
    1C        C  445   4.002   4.367   3.006
    1C        C  446   3.808   4.458   3.129
    1C        C  447   3.937   4.401   3.126
    1C        C  448   3.744   4.486   3.252
    1C        C  449   3.812   4.467   3.374
    1C        C  450   3.605   4.516   3.497
    1C        C  451   3.744   4.492   3.496
    1C        C  452   3.536   4.529   3.619
    1C        C  453   3.608   4.525   3.741
    1C        C  454   3.396   4.538   3.865
    1C        C  455   3.537   4.537   3.863
    1C        C  456   3.328   4.530   3.989
    1C        C  457   3.399   4.534   4.111
    1C        C  458   3.191   4.500   4.235
    1C        C  459   3.329   4.529   4.233
    1C        C  460   3.121   4.486   4.356
    1C        C  461   3.188   4.512   4.478
    1C        C  462   2.989   4.442   4.603
    1C        C  463   3.119   4.495   4.600
    1C        C  464   2.925   4.402   4.722
    1C        C  465   2.988   4.439   4.844
    1C        C  466   2.798   4.338   4.959
    1C        C  467   2.905   4.428   4.960
    1C        C  468   4.122   4.281   2.041
    1C        C  469   4.190   4.247   2.159
    1C        C  470   4.007   4.371   2.278
    1C        C  471   4.129   4.297   2.277
    1C        C  472   3.941   4.401   2.399
    1C        C  473   4.005   4.368   2.520
    1C        C  474   3.808   4.455   2.639
    1C        C  475   3.939   4.400   2.641
    1C        C  476   3.745   4.482   2.762
    1C        C  477   3.811   4.458   2.884
    1C        C  478   3.604   4.512   3.006
    1C        C  479   3.741   4.477   3.006
    1C        C  480   3.537   4.523   3.129
    1C        C  481   3.606   4.514   3.253
    1C        C  482   3.393   4.529   3.378
    1C        C  483   3.534   4.521   3.374
    1C        C  484   3.322   4.532   3.500
    1C        C  485   3.395   4.534   3.620
    1C        C  486   3.186   4.503   3.744
    1C        C  487   3.325   4.530   3.743
    1C        C  488   3.123   4.476   3.867
    1C        C  489   3.191   4.496   3.989
    1C        C  490   2.996   4.420   4.114
    1C        C  491   3.124   4.478   4.112
    1C        C  492   2.934   4.386   4.237
    1C        C  493   2.992   4.428   4.358
    1C        C  494   2.828   4.300   4.484
    1C        C  495   2.933   4.395   4.482
    1C        C  496   2.774   4.251   4.605
    1C        C  497   2.812   4.315   4.725
    1C        C  498   2.662   4.163   4.847
    1C        C  499   2.748   4.275   4.844
    1C        C  500   2.599   4.116   4.963
    1C        C  501   4.001   4.350   2.040
    1C        C  502   3.812   4.458   2.155
    1C        C  503   3.940   4.398   2.156
    1C        C  504   3.741   4.477   2.275
    1C        C  505   3.809   4.453   2.397
    1C        C  506   3.602   4.507   2.519
    1C        C  507   3.740   4.478   2.517
    1C        C  508   3.531   4.514   2.641
    1C        C  509   3.606   4.509   2.761
    1C        C  510   3.394   4.521   2.886
    1C        C  511   3.535   4.521   2.883
    1C        C  512   3.325   4.513   3.009
    1C        C  513   3.396   4.524   3.130
    1C        C  514   3.188   4.496   3.256
    1C        C  515   3.326   4.523   3.253
    1C        C  516   3.117   4.480   3.377
    1C        C  517   3.183   4.506   3.499
    1C        C  518   2.995   4.414   3.625
    1C        C  519   3.118   4.483   3.622
    1C        C  520   2.934   4.376   3.747
    1C        C  521   2.996   4.413   3.869
    1C        C  522   2.832   4.284   3.993
    1C        C  523   2.937   4.379   3.992
    1C        C  524   2.784   4.238   4.117
    1C        C  525   2.826   4.295   4.239
    1C        C  526   2.687   4.138   4.364
    1C        C  527   2.777   4.247   4.363
    1C        C  528   2.653   4.075   4.486
    1C        C  529   2.688   4.139   4.607
    1C        C  530   2.585   3.957   4.731
    1C        C  531   2.639   4.089   4.729
    1C        C  532   2.539   3.899   4.853
    1C        C  533   2.532   3.992   4.962
    1C        C  534   3.616   4.553   2.038
    1C        C  535   3.750   4.511   2.041
    1C        C  536   3.534   4.537   2.154
    1C        C  537   3.603   4.509   2.275
    1C        C  538   3.390   4.513   2.400
    1C        C  539   3.532   4.517   2.397
    1C        C  540   3.321   4.505   2.522
    1C        C  541   3.390   4.515   2.645
    1C        C  542   3.181   4.482   2.766
    1C        C  543   3.318   4.516   2.766
    1C        C  544   3.118   4.461   2.891
    1C        C  545   3.187   4.482   3.012
    1C        C  546   2.994   4.404   3.135
    1C        C  547   3.119   4.471   3.135
    1C        C  548   2.933   4.370   3.258
    1C        C  549   2.993   4.411   3.379
    1C        C  550   2.828   4.282   3.503
    1C        C  551   2.938   4.371   3.503
    1C        C  552   2.776   4.236   3.626
    1C        C  553   2.828   4.283   3.748
    1C        C  554   2.697   4.120   3.876
    1C        C  555   2.780   4.233   3.871
    1C        C  556   2.658   4.062   3.999
    1C        C  557   2.697   4.126   4.119
    1C        C  558   2.600   3.944   4.242
    1C        C  559   2.653   4.075   4.243
    1C        C  560   2.572   3.879   4.365
    1C        C  561   2.590   3.949   4.487
    1C        C  562   2.532   3.749   4.614
    1C        C  563   2.562   3.888   4.611
    1C        C  564   2.516   3.679   4.735
    1C        C  565   2.516   3.758   4.853
    1C        C  566   2.523   3.543   4.976
    1C        C  567   2.519   3.682   4.971
    1C        C  568   3.328   4.479   2.038
    1C        C  569   3.393   4.516   2.157
    1C        C  570   3.181   4.479   2.279
    1C        C  571   3.319   4.512   2.278
    1C        C  572   3.114   4.453   2.400
    1C        C  573   3.182   4.480   2.521
    1C        C  574   2.985   4.405   2.648
    1C        C  575   3.113   4.464   2.644
    1C        C  576   2.924   4.369   2.770
    1C        C  577   2.990   4.401   2.891
    1C        C  578   2.820   4.280   3.016
    1C        C  579   2.930   4.368   3.015
    1C        C  580   2.773   4.226   3.138
    1C        C  581   2.826   4.278   3.258
    1C        C  582   2.698   4.112   3.386
    1C        C  583   2.780   4.228   3.382
    1C        C  584   2.656   4.057   3.509
    1C        C  585   2.690   4.123   3.629
    1C        C  586   2.603   3.932   3.754
    1C        C  587   2.663   4.060   3.752
    1C        C  588   2.576   3.867   3.877
    1C        C  589   2.602   3.933   4.000
    1C        C  590   2.537   3.735   4.126
    1C        C  591   2.575   3.871   4.124
    1C        C  592   2.525   3.669   4.250
    1C        C  593   2.538   3.742   4.370
    1C        C  594   2.513   3.534   4.495
    1C        C  595   2.526   3.675   4.494
    1C        C  596   2.518   3.463   4.617
    1C        C  597   2.516   3.537   4.737
    1C        C  598   2.533   3.325   4.860
    1C        C  599   2.523   3.466   4.859
    1C        C  600   2.529   3.249   4.977
    1C        C  601   3.195   4.442   2.043
    1C        C  602   2.980   4.394   2.160
    1C        C  603   3.114   4.444   2.158
    1C        C  604   2.921   4.357   2.284
    1C        C  605   2.986   4.395   2.404
    1C        C  606   2.817   4.271   2.529
    1C        C  607   2.926   4.361   2.527
    1C        C  608   2.768   4.222   2.652
    1C        C  609   2.816   4.278   2.773
    1C        C  610   2.681   4.115   2.896
    1C        C  611   2.769   4.226   2.895
    1C        C  612   2.645   4.055   3.019
    1C        C  613   2.688   4.113   3.140
    1C        C  614   2.591   3.929   3.263
    1C        C  615   2.655   4.055   3.264
    1C        C  616   2.571   3.864   3.387
    1C        C  617   2.600   3.928   3.510
    1C        C  618   2.528   3.730   3.637
    1C        C  619   2.574   3.864   3.634
    1C        C  620   2.512   3.664   3.761
    1C        C  621   2.531   3.734   3.883
    1C        C  622   2.505   3.523   4.007
    1C        C  623   2.519   3.664   4.005
    1C        C  624   2.515   3.454   4.129
    1C        C  625   2.518   3.527   4.250
    1C        C  626   2.535   3.321   4.377
    1C        C  627   2.514   3.460   4.374
    1C        C  628   2.552   3.251   4.498
    1C        C  629   2.540   3.323   4.619
    1C        C  630   2.598   3.117   4.742
    1C        C  631   2.553   3.252   4.741
    1C        C  632   2.612   3.046   4.864
    1C        C  633   2.557   3.112   4.979
    1C        C  634   2.780   4.302   2.051
    1C        C  635   2.892   4.387   2.048
    1C        C  636   2.746   4.230   2.166
    1C        C  637   2.805   4.276   2.286
    1C        C  638   2.676   4.110   2.409
    1C        C  639   2.758   4.224   2.409
    1C        C  640   2.640   4.050   2.531
    1C        C  641   2.682   4.110   2.652
    1C        C  642   2.585   3.924   2.776
    1C        C  643   2.646   4.051   2.775
    1C        C  644   2.565   3.858   2.900
    1C        C  645   2.590   3.926   3.021
    1C        C  646   2.529   3.722   3.149
    1C        C  647   2.565   3.859   3.143
    1C        C  648   2.515   3.656   3.273
    1C        C  649   2.533   3.728   3.393
    1C        C  650   2.514   3.518   3.517
    1C        C  651   2.520   3.659   3.516
    1C        C  652   2.510   3.450   3.641
    1C        C  653   2.505   3.523   3.762
    1C        C  654   2.522   3.313   3.888
    1C        C  655   2.501   3.453   3.884
    1C        C  656   2.538   3.243   4.010
    1C        C  657   2.527   3.313   4.133
    1C        C  658   2.584   3.111   4.259
    1C        C  659   2.547   3.247   4.256
    1C        C  660   2.626   3.052   4.380
    1C        C  661   2.599   3.117   4.502
    1C        C  662   2.707   2.932   4.624
    1C        C  663   2.628   3.048   4.622
    1C        C  664   2.751   2.877   4.746
    1C        C  665   2.695   2.930   4.866
    1C        C  666   2.740   2.865   4.982
    1C        C  667   2.688   4.021   2.055
    1C        C  668   2.679   4.106   2.166
    1C        C  669   2.593   3.911   2.292
    1C        C  670   2.645   4.044   2.288
    1C        C  671   2.564   3.847   2.415
    1C        C  672   2.582   3.921   2.533
    1C        C  673   2.518   3.719   2.656
    1C        C  674   2.557   3.855   2.656
    1C        C  675   2.513   3.650   2.779
    1C        C  676   2.532   3.720   2.900
    1C        C  677   2.515   3.513   3.029
    1C        C  678   2.523   3.654   3.025
    1C        C  679   2.508   3.442   3.151
    1C        C  680   2.503   3.515   3.272
    1C        C  681   2.531   3.306   3.399
    1C        C  682   2.511   3.446   3.395
    1C        C  683   2.549   3.241   3.522
    1C        C  684   2.528   3.310   3.644
    1C        C  685   2.605   3.115   3.770
    1C        C  686   2.547   3.244   3.767
    1C        C  687   2.633   3.051   3.893
    1C        C  688   2.589   3.112   4.013
    1C        C  689   2.704   2.936   4.136
    1C        C  690   2.618   3.049   4.136
    1C        C  691   2.751   2.880   4.257
    1C        C  692   2.707   2.936   4.379
    1C        C  693   2.751   2.879   4.501
    1C        C  694   2.625   3.896   2.058
    1C        C  695   2.531   3.702   2.173
    1C        C  696   2.578   3.835   2.175
    1C        C  697   2.509   3.635   2.295
    1C        C  698   2.523   3.712   2.413
    1C        C  699   2.490   3.506   2.540
    1C        C  700   2.500   3.647   2.536
    1C        C  701   2.506   3.436   2.662
    1C        C  702   2.504   3.509   2.783
    1C        C  703   2.528   3.301   2.909
    1C        C  704   2.515   3.441   2.907
    1C        C  705   2.541   3.232   3.032
    1C        C  706   2.535   3.304   3.154
    1C        C  707   2.592   3.102   3.276
    1C        C  708   2.547   3.236   3.277
    1C        C  709   2.626   3.045   3.400
    1C        C  710   2.601   3.109   3.523
    1C        C  711   2.710   2.931   3.648
    1C        C  712   2.636   3.051   3.647
    1C        C  713   2.754   2.873   3.769
    1C        C  714   2.712   2.934   3.890
    1C        C  715   2.753   2.883   4.015
    1C        C  716   2.445   3.499   2.062
    1C        C  717   2.494   3.630   2.058
    1C        C  718   2.462   3.422   2.181
    1C        C  719   2.476   3.497   2.301
    1C        C  720   2.519   3.289   2.425
    1C        C  721   2.488   3.427   2.423
    1C        C  722   2.538   3.221   2.548
    1C        C  723   2.530   3.297   2.666
    1C        C  724   2.595   3.097   2.789
    1C        C  725   2.544   3.228   2.789
    1C        C  726   2.626   3.035   2.913
    1C        C  727   2.591   3.100   3.033
    1C        C  728   2.696   2.915   3.159
    1C        C  729   2.619   3.033   3.155
    1C        C  730   2.746   2.869   3.282
    1C        C  731   2.705   2.927   3.404
    1C        C  732   2.753   2.873   3.526
    1C        C  733   2.488   3.196   2.071
    1C        C  734   2.484   3.280   2.183
    1C        C  735   2.580   3.086   2.305
    1C        C  736   2.525   3.217   2.304
    1C        C  737   2.610   3.021   2.426
    1C        C  738   2.583   3.087   2.548
    1C        C  739   2.693   2.905   2.669
    1C        C  740   2.617   3.024   2.670
    1C        C  741   2.739   2.854   2.792
    1C        C  742   2.697   2.913   2.914
    1C        C  743   2.742   2.861   3.037
    1C        C  744   2.550   3.072   2.072
    1C        C  745   2.684   2.896   2.185
    1C        C  746   2.614   3.019   2.185
    1C        C  747   2.724   2.835   2.306
    1C        C  748   2.685   2.901   2.425
    1C        C  749   2.726   2.843   2.547
    1C        C  750   2.724   2.831   2.068
    1C        C  751   3.665   2.326   1.968
    1C        O  752   3.713   2.213   1.997
    1C        O  753   3.670   2.348   1.830
    1C        C  754   4.645   3.053   1.990
    1C        O  755   4.623   3.027   1.868
    1C        O  756   4.779   3.088   2.011
    1C        C  757   4.448   4.223   1.959
    1C        O  758   4.531   4.309   1.999
    1C        O  759   4.440   4.217   1.820
    1C        C  760   3.604   4.676   1.956
    1C        O  761   3.658   4.783   1.996
    1C        O  762   3.579   4.670   1.819
    1C        C  763   2.893   4.474   1.928
    1C        O  764   2.920   4.432   1.812
    1C        O  765   2.827   4.597   1.936
    1C        C  766   2.326   3.468   1.978
    1C        O  767   2.322   3.412   1.866
    1C        O  768   2.200   3.525   1.998
    1C        C  769   4.672   3.586   5.073
    1C        O  770   4.638   3.528   5.180
    1C        O  771   4.811   3.583   5.061
    1C        C  772   4.266   4.444   5.045
    1C        O  773   4.265   4.403   5.164
    1C        O  774   4.383   4.511   5.009
    1C        C  775   4.143   2.520   5.070
    1C        O  776   4.229   2.438   5.029
    1C        O  777   4.100   2.494   5.201
    1C        C  778   2.890   4.540   5.056
    1C        O  779   2.843   4.654   5.031
    1C        O  780   2.921   4.512   5.190
    1C        C  781   2.472   3.040   5.077
    1C        O  782   2.398   2.945   5.042
    1C        O  783   2.507   3.043   5.212
    1C        C  784   2.430   3.979   5.068
    1C        O  785   2.311   4.012   5.045
    1C        O  786   2.457   3.944   5.201
    1C        C  787   2.942   2.418   2.012
    1C        O  788   2.888   2.456   1.904
    1C        O  789   2.927   2.282   2.033
    1C        C  790   3.168   2.365   5.048
    1C        O  791   3.202   2.251   5.007
    1C        O  792   3.156   2.359   5.188
    1C        H  793   4.272   3.019   5.063
    1C        H  794   4.225   2.783   5.067
    1C        H  795   4.489   3.134   5.068
    1C        H  796   4.580   3.340   5.054
    1C        H  797   4.560   3.818   5.039
    1C        H  798   4.446   3.987   5.046
    1C        H  799   4.344   4.193   5.044
    1C        H  800   4.034   4.554   5.016
    1C        H  801   3.819   4.597   5.031
    1C        H  802   3.591   4.673   4.999
    1C        H  803   3.375   4.564   5.044
    1C        H  804   3.155   4.473   5.051
    1C        H  805   3.905   2.463   5.053
    1C        H  806   3.678   2.465   5.076
    1C        H  807   2.984   2.526   5.039
    1C        H  808   3.442   2.527   5.068
    1C        H  809   2.880   2.743   5.077
    1C        H  810   2.721   2.916   5.074
    1C        H  811   2.484   3.283   5.068
    1C        H  812   2.520   3.492   5.071
    1C        H  813   2.552   3.730   5.060
    1C        H  814   2.586   4.175   5.051
    1C        H  815   2.775   4.285   5.049
    1C        H  816   2.678   2.852   1.974
    1C        H  817   2.889   2.740   1.991
    1C        H  818   3.211   2.440   1.986
    1C        H  819   3.433   2.464   1.982
    1C        H  820   3.864   2.512   1.967
    1C        H  821   4.057   2.644   1.972
    1C        H  822   4.271   2.721   1.972
    1C        H  823   4.387   2.908   1.964
    1C        H  824   4.529   3.307   1.962
    1C        H  825   4.484   3.516   1.960
    1C        H  826   4.478   3.746   1.953
    1C        H  827   3.778   4.476   1.944
    1C        H  828   3.961   4.370   1.942
    1C        H  829   4.146   4.229   1.951
    1C        H  830   4.461   3.954   1.953
    1C        H  831   2.635   3.842   1.966
    1C        H  832   2.728   4.059   1.962
    1C        H  833   2.701   4.329   1.984
    1C        H  834   3.372   4.507   1.945
    1C        H  835   3.162   4.390   1.956
    1C        H  836   2.531   3.005   1.991
    1C        H  837   2.427   3.222   1.987
    1C        H  838   2.515   3.673   1.962
    2V3OU   H29  839   2.810   3.544   3.737
    2V3OU   C27  840   2.795   3.500   3.839
    2V3OU   H27  841   2.738   3.569   3.907
    2V3OU   H28  842   2.738   3.405   3.829
    2V3OU   O11  843   2.917   3.484   3.912
    2V3OU   C15  844   2.932   3.393   4.015
    2V3OU   C13  845   3.055   3.376   4.083
    2V3OU   C14  846   3.077   3.272   4.174
    2V3OU   C16  847   2.977   3.184   4.216
    2V3OU    H6  848   2.990   3.104   4.290
    2V3OU   C12  849   3.213   3.233   4.218
    2V3OU    O2  850   3.241   3.126   4.275
    2V3OU   C10  851   3.325   3.305   4.155
    2V3OU    C8  852   3.456   3.265   4.180
    2V3OU   O10  853   3.491   3.157   4.254
    2V3OU   H26  854   3.409   3.120   4.291
    2V3OU    C6  855   3.564   3.345   4.131
    2V3OU    C5  856   3.538   3.463   4.062
    2V3OU    C4  857   3.703   3.292   4.121
    2V3OU    H4  858   3.719   3.225   4.211
    2V3OU    H5  859   3.708   3.229   4.027
    2V3OU    C2  860   3.816   3.395   4.116
    2V3OU    O6  861   3.810   3.472   4.237
    2V3OU   H21  862   3.762   3.555   4.220
    2V3OU    C3  863   3.781   3.494   4.005
    2V3OU    H2  864   3.861   3.570   3.991
    2V3OU    H3  865   3.774   3.440   3.907
    2V3OU   C25  866   3.951   3.325   4.098
    2V3OU    O7  867   4.005   3.294   3.992
    2V3OU   C26  868   4.027   3.289   4.225
    2V3OU   H22  869   4.065   3.384   4.269
    2V3OU   H23  870   4.116   3.225   4.200
    2V3OU    O8  871   3.957   3.210   4.319
    2V3OU   H24  872   3.924   3.275   4.383
    2V3OU    C1  873   3.647   3.561   4.031
    2V3OU    H1  874   3.620   3.623   3.940
    2V3OU    O3  875   3.658   3.651   4.141
    2V3OU   C19  876   3.617   3.788   4.126
    2V3OU    H9  877   3.518   3.792   4.073
    2V3OU    O4  878   3.710   3.847   4.039
    2V3OU   C20  879   3.840   3.875   4.092
    2V3OU   H10  880   3.881   3.770   4.103
    2V3OU   C24  881   3.610   3.855   4.264
    2V3OU   H16  882   3.542   3.790   4.326
    2V3OU   H17  883   3.555   3.951   4.244
    2V3OU   C23  884   3.750   3.874   4.323
    2V3OU   H15  885   3.796   3.773   4.347
    2V3OU    N1  886   3.734   3.958   4.440
    2V3OU   H19  887   3.811   3.933   4.499
    2V3OU   H20  888   3.650   3.925   4.482
    2V3OU   C21  889   3.850   3.946   4.227
    2V3OU   H11  890   3.953   3.928   4.270
    2V3OU    O5  891   3.822   4.085   4.224
    2V3OU   H18  892   3.772   4.100   4.305
    2V3OU   C22  893   3.911   3.950   3.981
    2V3OU   H12  894   3.859   4.046   3.958
    2V3OU   H13  895   3.907   3.896   3.884
    2V3OU   H14  896   4.021   3.958   4.006
    2V3OU   C11  897   3.162   3.472   4.054
    2V3OU    O1  898   3.134   3.593   4.040
    2V3OU    C9  899   3.299   3.422   4.079
    2V3OU    C7  900   3.403   3.501   4.033
    2V3OU    O9  901   3.394   3.616   3.957
    2V3OU   H25  902   3.299   3.627   3.936
    2V3OU   C17  903   2.830   3.312   4.067
    2V3OU    H7  904   2.736   3.349   4.026
    2V3OU   C18  905   2.852   3.214   4.163
    2V3OU    H8  906   2.789   3.168   4.241
    3SOL     OW  907   2.864   4.472   5.441
    3SOL    HW1  908   2.882   4.499   5.346
    3SOL    HW2  909   2.922   4.395   5.465
    4SOL     OW  910   6.976   7.004   0.121
    4SOL    HW1  911   7.005   0.061   0.066
    4SOL    HW2  912   6.884   7.020   0.156
    5SOL     OW  913   5.256   1.561   2.505
    5SOL    HW1  914   5.334   1.585   2.562
    5SOL    HW2  915   5.191   1.506   2.559
    6SOL     OW  916   5.299   1.958   2.815
    6SOL    HW1  917   5.294   2.042   2.761
    6SOL    HW2  918   5.259   1.974   2.905
    7SOL     OW  919   1.211   4.357   4.896
    7SOL    HW1  920   1.237   4.399   4.809
    7SOL    HW2  921   1.278   4.381   4.967
    8SOL     OW  922   2.394   2.491   5.229
    8SOL    HW1  923   2.395   2.550   5.147
    8SOL    HW2  924   2.488   2.461   5.248
    9SOL     OW  925   6.484   1.664   5.898
    9SOL    HW1  926   6.489   1.667   5.798
    9SOL    HW2  927   6.553   1.726   5.936
   10SOL     OW  928   3.846   5.120   3.901
   10SOL    HW1  929   3.838   5.148   3.997
   10SOL    HW2  930   3.886   5.195   3.848
   11SOL     OW  931   2.181   0.592   0.107
   11SOL    HW1  932   2.250   0.607   0.178
   11SOL    HW2  933   2.096   0.639   0.133
   12SOL     OW  934   2.630   4.646   3.680
   12SOL    HW1  935   2.611   4.725   3.621
   12SOL    HW2  936   2.721   4.657   3.721
   13SOL     OW  937   3.664   6.535   2.907
   13SOL    HW1  938   3.648   6.507   3.001
   13SOL    HW2  939   3.576   6.545   2.860
   14SOL     OW  940   4.471   5.118   5.787
   14SOL    HW1  941   4.402   5.061   5.742
   14SOL    HW2  942   4.503   5.073   5.870
   15SOL     OW  943   0.134   6.308   6.730
   15SOL    HW1  944   0.082   6.233   6.771
   15SOL    HW2  945   0.077   6.390   6.724
   16SOL     OW  946   5.215   2.646   6.242
   16SOL    HW1  947   5.181   2.623   6.151
   16SOL    HW2  948   5.287   2.582   6.268
   17SOL     OW  949   6.097   0.438   6.100
   17SOL    HW1  950   6.156   0.517   6.114
   17SOL    HW2  951   6.144   0.355   6.129
   18SOL     OW  952   3.454   1.625   5.102
   18SOL    HW1  953   3.489   1.703   5.050
   18SOL    HW2  954   3.497   1.623   5.192
   19SOL     OW  955   0.565   2.102   2.625
   19SOL    HW1  956   0.485   2.050   2.653
   19SOL    HW2  957   0.579   2.093   2.527
   20SOL     OW  958   5.840   1.695   5.490
   20SOL    HW1  959   5.807   1.763   5.555
   20SOL    HW2  960   5.766   1.632   5.468
   21SOL     OW  961   3.140   6.673   2.575
   21SOL    HW1  962   3.063   6.632   2.624
   21SOL    HW2  963   3.199   6.721   2.640
   22SOL     OW  964   1.063   5.984   5.756
   22SOL    HW1  965   1.068   5.953   5.661
   22SOL    HW2  966   1.156   5.995   5.793
   23SOL     OW  967   4.524   4.928   2.252
   23SOL    HW1  968   4.478   4.962   2.334
   23SOL    HW2  969   4.581   5.001   2.213
   24SOL     OW  970   3.857   0.142   2.013
   24SOL    HW1  971   3.780   0.206   2.025
   24SOL    HW2  972   3.896   0.121   2.102
   25SOL     OW  973   3.182   6.960   3.927
   25SOL    HW1  974   3.119   6.952   3.850
   25SOL    HW2  975   3.201   0.035   3.945
   26SOL     OW  976   1.411   2.043   0.237
   26SOL    HW1  977   1.429   1.958   0.287
   26SOL    HW2  978   1.319   2.076   0.260
   27SOL     OW  979   0.932   1.318   2.333
   27SOL    HW1  980   0.954   1.296   2.238
   27SOL    HW2  981   0.897   1.237   2.379
   28SOL     OW  982   1.027   0.615   4.567
   28SOL    HW1  983   0.948   0.633   4.508
   28SOL    HW2  984   1.009   0.653   4.658
   29SOL     OW  985   5.981   1.074   1.106
   29SOL    HW1  986   6.053   1.138   1.131
   29SOL    HW2  987   5.908   1.076   1.174
   30SOL     OW  988   3.806   0.601   4.956
   30SOL    HW1  989   3.735   0.530   4.964
   30SOL    HW2  990   3.828   0.616   4.860
   31SOL     OW  991   0.099   2.016   5.034
   31SOL    HW1  992   0.182   2.058   5.071
   31SOL    HW2  993   0.102   2.018   4.934
   32SOL     OW  994   1.394   1.618   2.074
   32SOL    HW1  995   1.358   1.618   2.167
   32SOL    HW2  996   1.318   1.614   2.009
   33SOL     OW  997   0.226   3.751   5.454
   33SOL    HW1  998   0.154   3.813   5.486
   33SOL    HW2  999   0.294   3.802   5.403
   34SOL     OW 1000   2.339   5.216   5.073
   34SOL    HW1 1001   2.272   5.211   4.999
   34SOL    HW2 1002   2.360   5.312   5.092
   35SOL     OW 1003   3.963   2.014   5.762
   35SOL    HW1 1004   3.891   2.050   5.822
   35SOL    HW2 1005   3.966   1.914   5.770
   36SOL     OW 1006   5.108   1.566   4.083
   36SOL    HW1 1007   5.071   1.501   4.016
   36SOL    HW2 1008   5.142   1.647   4.035
   37SOL     OW 1009   1.900   1.349   3.811
   37SOL    HW1 1010   1.941   1.434   3.845
   37SOL    HW2 1011   1.860   1.299   3.888
   38SOL     OW 1012   2.385   4.646   1.553
   38SOL    HW1 1013   2.386   4.587   1.633
   38SOL    HW2 1014   2.358   4.739   1.580
   39SOL     OW 1015   6.315   4.489   6.540
   39SOL    HW1 1016   6.361   4.415   6.589
   39SOL    HW2 1017   6.274   4.453   6.456
   40SOL     OW 1018   3.361   0.152   6.124
   40SOL    HW1 1019   3.342   0.195   6.212
   40SOL    HW2 1020   3.275   0.141   6.074
   41SOL     OW 1021   6.282   3.930   2.742
   41SOL    HW1 1022   6.248   3.985   2.666
   41SOL    HW2 1023   6.205   3.904   2.802
   42SOL     OW 1024   2.845   6.932   4.618
   42SOL    HW1 1025   2.944   6.941   4.608
   42SOL    HW2 1026   2.813   6.852   4.568
   43SOL     OW 1027   3.715   6.673   4.726
   43SOL    HW1 1028   3.791   6.662   4.662
   43SOL    HW2 1029   3.740   6.740   4.795
   44SOL     OW 1030   5.775   2.905   5.100
   44SOL    HW1 1031   5.728   2.865   5.022
   44SOL    HW2 1032   5.762   2.847   5.181
   45SOL     OW 1033   4.451   5.828   1.981
   45SOL    HW1 1034   4.416   5.865   2.067
   45SOL    HW2 1035   4.442   5.728   1.981
   46SOL     OW 1036   0.698   2.677   4.381
   46SOL    HW1 1037   0.690   2.634   4.291
   46SOL    HW2 1038   0.784   2.728   4.386
   47SOL     OW 1039   5.375   4.242   1.403
   47SOL    HW1 1040   5.354   4.173   1.334
   47SOL    HW2 1041   5.335   4.330   1.376
   48SOL     OW 1042   0.415   2.792   6.649
   48SOL    HW1 1043   0.391   2.890   6.648
   48SOL    HW2 1044   0.358   2.745   6.716
   49SOL     OW 1045   5.043   2.902   0.862
   49SOL    HW1 1046   5.011   2.821   0.812
   49SOL    HW2 1047   5.074   2.875   0.953
   50SOL     OW 1048   6.011   1.614   5.930
   50SOL    HW1 1049   5.958   1.584   5.851
   50SOL    HW2 1050   6.081   1.679   5.901
   51SOL     OW 1051   2.483   5.269   2.640
   51SOL    HW1 1052   2.462   5.231   2.550
   51SOL    HW2 1053   2.537   5.203   2.692
   52SOL     OW 1054   5.678   2.610   1.277
   52SOL    HW1 1055   5.606   2.571   1.333
   52SOL    HW2 1056   5.701   2.547   1.203
   53SOL     OW 1057   4.974   0.255   3.201
   53SOL    HW1 1058   5.040   0.290   3.135
   53SOL    HW2 1059   4.891   0.227   3.152
   54SOL     OW 1060   5.894   6.648   0.493
   54SOL    HW1 1061   5.916   6.581   0.422
   54SOL    HW2 1062   5.825   6.711   0.459
   55SOL     OW 1063   1.658   2.519   6.062
   55SOL    HW1 1064   1.659   2.605   6.011
   55SOL    HW2 1065   1.570   2.509   6.107
   56SOL     OW 1066   1.631   1.388   0.916
   56SOL    HW1 1067   1.641   1.311   0.853
   56SOL    HW2 1068   1.720   1.428   0.934
   57SOL     OW 1069   3.538   0.504   6.723
   57SOL    HW1 1070   3.588   0.528   6.641
   57SOL    HW2 1071   3.451   0.553   6.725
   58SOL     OW 1072   0.663   1.281   6.419
   58SOL    HW1 1073   0.598   1.255   6.490
   58SOL    HW2 1074   0.619   1.343   6.354
   59SOL     OW 1075   6.309   3.354   6.024
   59SOL    HW1 1076   6.293   3.452   6.015
   59SOL    HW2 1077   6.227   3.310   6.063
   60SOL     OW 1078   5.801   1.433   3.447
   60SOL    HW1 1079   5.725   1.497   3.433
   60SOL    HW2 1080   5.769   1.355   3.500
   61SOL     OW 1081   0.612   1.160   4.357
   61SOL    HW1 1082   0.684   1.229   4.350
   61SOL    HW2 1083   0.617   1.099   4.278
   62SOL     OW 1084   1.051   1.330   1.870
   62SOL    HW1 1085   0.958   1.344   1.837
   62SOL    HW2 1086   1.102   1.273   1.806
   63SOL     OW 1087   4.006   6.948   4.214
   63SOL    HW1 1088   3.929   6.927   4.153
   63SOL    HW2 1089   4.079   6.881   4.198
   64SOL     OW 1090   1.402   3.570   6.402
   64SOL    HW1 1091   1.404   3.605   6.309
   64SOL    HW2 1092   1.463   3.492   6.410
   65SOL     OW 1093   0.008   6.920   5.847
   65SOL    HW1 1094   6.984   6.905   5.759
   65SOL    HW2 1095   0.071   6.997   5.839
   66SOL     OW 1096   3.107   0.600   2.894
   66SOL    HW1 1097   3.137   0.512   2.858
   66SOL    HW2 1098   3.014   0.590   2.932
   67SOL     OW 1099   0.390   2.533   6.535
   67SOL    HW1 1100   0.367   2.623   6.573
   67SOL    HW2 1101   0.477   2.502   6.572
   68SOL     OW 1102   6.861   1.636   5.902
   68SOL    HW1 1103   6.932   1.670   5.840
   68SOL    HW2 1104   6.837   1.707   5.968
   69SOL     OW 1105   1.639   4.486   6.180
   69SOL    HW1 1106   1.596   4.496   6.090
   69SOL    HW2 1107   1.735   4.461   6.169
   70SOL     OW 1108   5.402   3.933   4.864
   70SOL    HW1 1109   5.419   3.924   4.765
   70SOL    HW2 1110   5.488   3.916   4.913
   71SOL     OW 1111   4.946   2.038   4.486
   71SOL    HW1 1112   4.874   2.104   4.507
   71SOL    HW2 1113   4.957   2.032   4.387
   72SOL     OW 1114   0.172   0.972   2.948
   72SOL    HW1 1115   0.161   0.875   2.970
   72SOL    HW2 1116   0.084   1.018   2.958
   73SOL     OW 1117   3.259   0.344   0.165
   73SOL    HW1 1118   3.162   0.323   0.150
   73SOL    HW2 1119   3.313   0.301   0.092
   74SOL     OW 1120   2.177   1.635   6.252
   74SOL    HW1 1121   2.150   1.557   6.308
   74SOL    HW2 1122   2.111   1.709   6.264
   75SOL     OW 1123   4.669   1.890   1.476
   75SOL    HW1 1124   4.614   1.815   1.514
   75SOL    HW2 1125   4.734   1.921   1.545
   76SOL     OW 1126   2.836   4.510   6.116
   76SOL    HW1 1127   2.811   4.458   6.034
   76SOL    HW2 1128   2.811   4.606   6.103
   77SOL     OW 1129   2.115   5.353   4.245
   77SOL    HW1 1130   2.139   5.263   4.206
   77SOL    HW2 1131   2.046   5.341   4.316
   78SOL     OW 1132   4.017   1.059   0.875
   78SOL    HW1 1133   4.021   1.141   0.817
   78SOL    HW2 1134   4.065   1.077   0.961
   79SOL     OW 1135   2.289   5.953   2.150
   79SOL    HW1 1136   2.387   5.964   2.135
   79SOL    HW2 1137   2.244   5.932   2.063
   80SOL     OW 1138   4.953   1.995   4.935
   80SOL    HW1 1139   5.001   2.066   4.985
   80SOL    HW2 1140   4.998   1.979   4.847
   81SOL     OW 1141   1.839   0.638   0.361
   81SOL    HW1 1142   1.755   0.595   0.395
   81SOL    HW2 1143   1.847   0.729   0.401
   82SOL     OW 1144   0.370   6.227   2.470
   82SOL    HW1 1145   0.456   6.175   2.470
   82SOL    HW2 1146   0.293   6.163   2.461
   83SOL     OW 1147   6.828   1.919   5.781
   83SOL    HW1 1148   6.815   1.991   5.713
   83SOL    HW2 1149   6.855   1.834   5.735
   84SOL     OW 1150   5.825   3.282   3.567
   84SOL    HW1 1151   5.814   3.183   3.570
   84SOL    HW2 1152   5.906   3.309   3.619
   85SOL     OW 1153   1.772   6.861   3.751
   85SOL    HW1 1154   1.771   6.954   3.716
   85SOL    HW2 1155   1.683   6.838   3.789
   86SOL     OW 1156   6.262   1.077   6.716
   86SOL    HW1 1157   6.358   1.069   6.688
   86SOL    HW2 1158   6.208   1.112   6.639
   87SOL     OW 1159   4.279   4.457   0.065
   87SOL    HW1 1160   4.264   4.511   0.148
   87SOL    HW2 1161   4.241   4.505   7.007
   88SOL     OW 1162   2.921   2.216   5.766
   88SOL    HW1 1163   2.917   2.311   5.797
   88SOL    HW2 1164   2.862   2.160   5.824
   89SOL     OW 1165   2.948   3.881   1.865
   89SOL    HW1 1166   3.020   3.887   1.796
   89SOL    HW2 1167   2.858   3.880   1.821
   90SOL     OW 1168   4.631   4.420   2.780
   90SOL    HW1 1169   4.614   4.518   2.775
   90SOL    HW2 1170   4.639   4.383   2.687
   91SOL     OW 1171   6.136   6.096   5.954
   91SOL    HW1 1172   6.188   6.179   5.975
   91SOL    HW2 1173   6.043   6.104   5.991
   92SOL     OW 1174   5.046   3.690   0.440
   92SOL    HW1 1175   5.107   3.628   0.390
   92SOL    HW2 1176   5.014   3.645   0.523
   93SOL     OW 1177   3.149   3.406   0.970
   93SOL    HW1 1178   3.116   3.477   0.908
   93SOL    HW2 1179   3.081   3.333   0.976
   94SOL     OW 1180   2.554   6.871   6.798
   94SOL    HW1 1181   2.647   6.840   6.819
   94SOL    HW2 1182   2.488   6.814   6.848
   95SOL     OW 1183   0.834   0.296   4.194
   95SOL    HW1 1184   0.760   0.315   4.259
   95SOL    HW2 1185   0.910   0.253   4.242
   96SOL     OW 1186   5.050   5.053   6.845
   96SOL    HW1 1187   5.081   5.142   6.881
   96SOL    HW2 1188   5.127   5.005   6.803
   97SOL     OW 1189   2.220   4.795   5.238
   97SOL    HW1 1190   2.168   4.709   5.240
   97SOL    HW2 1191   2.165   4.865   5.192
   98SOL     OW 1192   0.930   2.911   1.598
   98SOL    HW1 1193   0.909   2.928   1.502
   98SOL    HW2 1194   0.979   2.824   1.607
   99SOL     OW 1195   3.348   3.819   3.087
   99SOL    HW1 1196   3.264   3.872   3.098
   99SOL    HW2 1197   3.385   3.834   2.995
  100SOL     OW 1198   6.793   0.321   3.949
  100SOL    HW1 1199   6.821   0.415   3.930
  100SOL    HW2 1200   6.861   0.258   3.911
  101SOL     OW 1201   1.134   4.850   2.503
  101SOL    HW1 1202   1.052   4.893   2.465
  101SOL    HW2 1203   1.154   4.889   2.593
  102SOL     OW 1204   2.425   6.393   2.269
  102SOL    HW1 1205   2.427   6.492   2.249
  102SOL    HW2 1206   2.349   6.374   2.331
  103SOL     OW 1207   1.539   1.156   2.080
  103SOL    HW1 1208   1.577   1.162   1.988
  103SOL    HW2 1209   1.462   1.219   2.088
  104SOL     OW 1210   1.347   4.907   2.085
  104SOL    HW1 1211   1.371   4.884   2.179
  104SOL    HW2 1212   1.397   4.847   2.022
  105SOL     OW 1213   5.350   1.011   6.462
  105SOL    HW1 1214   5.347   0.914   6.439
  105SOL    HW2 1215   5.274   1.033   6.524
  106SOL     OW 1216   5.094   5.282   1.814
  106SOL    HW1 1217   5.119   5.222   1.738
  106SOL    HW2 1218   5.064   5.226   1.891
  107SOL     OW 1219   6.328   0.798   0.324
  107SOL    HW1 1220   6.327   0.885   0.373
  107SOL    HW2 1221   6.275   0.807   0.239
  108SOL     OW 1222   2.757   0.185   4.542
  108SOL    HW1 1223   2.725   0.206   4.634
  108SOL    HW2 1224   2.760   0.085   4.530
  109SOL     OW 1225   3.175   0.778   2.692
  109SOL    HW1 1226   3.167   0.712   2.766
  109SOL    HW2 1227   3.175   0.730   2.604
  110SOL     OW 1228   2.437   4.460   5.131
  110SOL    HW1 1229   2.501   4.533   5.156
  110SOL    HW2 1230   2.346   4.483   5.166
  111SOL     OW 1231   6.696   1.357   2.651
  111SOL    HW1 1232   6.661   1.407   2.730
  111SOL    HW2 1233   6.787   1.322   2.671
  112SOL     OW 1234   4.204   6.223   6.733
  112SOL    HW1 1235   4.181   6.219   6.830
  112SOL    HW2 1236   4.207   6.131   6.695
  113SOL     OW 1237   6.685   4.996   2.714
  113SOL    HW1 1238   6.630   4.940   2.652
  113SOL    HW2 1239   6.720   5.076   2.665
  114SOL     OW 1240   0.830   5.056   3.115
  114SOL    HW1 1241   0.904   4.989   3.111
  114SOL    HW2 1242   0.862   5.139   3.162
  115SOL     OW 1243   5.730   1.680   3.308
  115SOL    HW1 1244   5.716   1.614   3.235
  115SOL    HW2 1245   5.643   1.723   3.332
  116SOL     OW 1246   0.172   6.194   1.159
  116SOL    HW1 1247   0.150   6.123   1.226
  116SOL    HW2 1248   0.186   6.152   1.069
  117SOL     OW 1249   2.698   1.500   0.131
  117SOL    HW1 1250   2.701   1.553   0.046
  117SOL    HW2 1251   2.758   1.542   0.199
  118SOL     OW 1252   1.514   1.379   3.426
  118SOL    HW1 1253   1.570   1.311   3.474
  118SOL    HW2 1254   1.527   1.469   3.469
  119SOL     OW 1255   0.358   6.929   6.995
  119SOL    HW1 1256   0.414   6.847   7.010
  119SOL    HW2 1257   0.414   7.010   7.008
  120SOL     OW 1258   4.605   0.291   4.890
  120SOL    HW1 1259   4.521   0.239   4.901
  120SOL    HW2 1260   4.671   0.264   4.961
  121SOL     OW 1261   1.192   3.829   0.153
  121SOL    HW1 1262   1.129   3.843   0.077
  121SOL    HW2 1263   1.281   3.798   0.118
  122SOL     OW 1264   0.925   4.311   0.297
  122SOL    HW1 1265   0.968   4.285   0.211
  122SOL    HW2 1266   0.985   4.376   0.345
  123SOL     OW 1267   1.447   0.647   1.365
  123SOL    HW1 1268   1.531   0.605   1.399
  123SOL    HW2 1269   1.437   0.627   1.267
  124SOL     OW 1270   3.175   2.557   0.331
  124SOL    HW1 1271   3.122   2.501   0.267
  124SOL    HW2 1272   3.193   2.646   0.290
  125SOL     OW 1273   3.075   2.516   6.730
  125SOL    HW1 1274   3.059   2.479   6.821
  125SOL    HW2 1275   3.093   2.615   6.737
  126SOL     OW 1276   2.998   3.243   3.279
  126SOL    HW1 1277   2.978   3.292   3.194
  126SOL    HW2 1278   3.067   3.173   3.262
  127SOL     OW 1279   6.786   6.012   5.380
  127SOL    HW1 1280   6.728   6.062   5.316
  127SOL    HW2 1281   6.774   6.049   5.472
  128SOL     OW 1282   4.871   3.977   2.292
  128SOL    HW1 1283   4.838   4.020   2.208
  128SOL    HW2 1284   4.954   4.023   2.323
  129SOL     OW 1285   2.034   5.303   1.187
  129SOL    HW1 1286   1.966   5.298   1.259
  129SOL    HW2 1287   2.121   5.336   1.225
  130SOL     OW 1288   6.087   1.629   4.152
  130SOL    HW1 1289   6.134   1.705   4.108
  130SOL    HW2 1290   5.988   1.641   4.142
  131SOL     OW 1291   6.420   0.935   4.086
  131SOL    HW1 1292   6.326   0.932   4.051
  131SOL    HW2 1293   6.436   0.855   4.144
  132SOL     OW 1294   3.440   3.946   1.462
  132SOL    HW1 1295   3.495   3.868   1.432
  132SOL    HW2 1296   3.349   3.941   1.420
  133SOL     OW 1297   5.078   1.203   3.399
  133SOL    HW1 1298   4.995   1.258   3.391
  133SOL    HW2 1299   5.158   1.262   3.389
  134SOL     OW 1300   6.920   0.764   2.528
  134SOL    HW1 1301   7.018   0.761   2.509
  134SOL    HW2 1302   6.893   0.681   2.575
  135SOL     OW 1303   4.897   3.552   4.589
  135SOL    HW1 1304   4.910   3.536   4.687
  135SOL    HW2 1305   4.853   3.472   4.548
  136SOL     OW 1306   2.458   5.920   4.867
  136SOL    HW1 1307   2.395   5.909   4.945
  136SOL    HW2 1308   2.538   5.862   4.880
  137SOL     OW 1309   4.249   1.335   4.331
  137SOL    HW1 1310   4.327   1.331   4.393
  137SOL    HW2 1311   4.280   1.364   4.241
  138SOL     OW 1312   0.662   5.971   3.441
  138SOL    HW1 1313   0.629   5.879   3.419
  138SOL    HW2 1314   0.744   5.964   3.497
  139SOL     OW 1315   2.104   5.504   6.803
  139SOL    HW1 1316   2.033   5.543   6.743
  139SOL    HW2 1317   2.186   5.486   6.749
  140SOL     OW 1318   1.507   0.159   3.043
  140SOL    HW1 1319   1.539   0.140   2.950
  140SOL    HW2 1320   1.526   0.080   3.101
  141SOL     OW 1321   6.568   3.434   0.331
  141SOL    HW1 1322   6.637   3.436   0.259
  141SOL    HW2 1323   6.550   3.527   0.363
  142SOL     OW 1324   2.127   4.448   1.471
  142SOL    HW1 1325   2.057   4.476   1.537
  142SOL    HW2 1326   2.218   4.464   1.510
  143SOL     OW 1327   5.631   6.669   1.320
  143SOL    HW1 1328   5.719   6.710   1.296
  143SOL    HW2 1329   5.632   6.645   1.417
  144SOL     OW 1330   3.136   4.951   3.823
  144SOL    HW1 1331   3.105   5.039   3.858
  144SOL    HW2 1332   3.145   4.886   3.899
  145SOL     OW 1333   0.890   4.481   2.431
  145SOL    HW1 1334   0.885   4.404   2.493
  145SOL    HW2 1335   0.919   4.450   2.341
  146SOL     OW 1336   5.779   1.210   5.693
  146SOL    HW1 1337   5.822   1.215   5.603
  146SOL    HW2 1338   5.680   1.209   5.683
  147SOL     OW 1339   5.196   1.376   4.641
  147SOL    HW1 1340   5.119   1.440   4.638
  147SOL    HW2 1341   5.167   1.287   4.606
  148SOL     OW 1342   1.454   4.800   1.471
  148SOL    HW1 1343   1.525   4.756   1.417
  148SOL    HW2 1344   1.462   4.771   1.567
  149SOL     OW 1345   2.612   2.433   4.901
  149SOL    HW1 1346   2.648   2.342   4.923
  149SOL    HW2 1347   2.673   2.503   4.939
  150SOL     OW 1348   3.963   1.514   5.593
  150SOL    HW1 1349   3.931   1.420   5.591
  150SOL    HW2 1350   4.044   1.523   5.535
  151SOL     OW 1351   4.491   1.662   1.252
  151SOL    HW1 1352   4.424   1.605   1.204
  151SOL    HW2 1353   4.579   1.656   1.206
  152SOL     OW 1354   0.347   1.624   6.661
  152SOL    HW1 1355   0.404   1.612   6.580
  152SOL    HW2 1356   0.341   1.721   6.684
  153SOL     OW 1357   3.065   1.185   3.312
  153SOL    HW1 1358   3.148   1.205   3.365
  153SOL    HW2 1359   3.047   1.261   3.250
  154SOL     OW 1360   6.589   2.319   0.766
  154SOL    HW1 1361   6.573   2.408   0.808
  154SOL    HW2 1362   6.635   2.259   0.832
  155SOL     OW 1363   0.113   0.320   1.899
  155SOL    HW1 1364   0.040   0.376   1.862
  155SOL    HW2 1365   0.098   0.304   1.997
  156SOL     OW 1366   5.953   1.401   0.574
  156SOL    HW1 1367   5.987   1.348   0.652
  156SOL    HW2 1368   5.853   1.398   0.573
  157SOL     OW 1369   5.752   3.101   0.209
  157SOL    HW1 1370   5.828   3.063   0.157
  157SOL    HW2 1371   5.752   3.062   0.301
  158SOL     OW 1372   1.313   2.506   2.265
  158SOL    HW1 1373   1.352   2.585   2.313
  158SOL    HW2 1374   1.320   2.425   2.324
  159SOL     OW 1375   5.019   4.896   0.719
  159SOL    HW1 1376   4.979   4.895   0.811
  159SOL    HW2 1377   4.955   4.940   0.655
  160SOL     OW 1378   6.635   0.115   0.886
  160SOL    HW1 1379   6.656   0.021   0.855
  160SOL    HW2 1380   6.694   0.138   0.964
  161SOL     OW 1381   1.157   6.777   1.098
  161SOL    HW1 1382   1.092   6.819   1.160
  161SOL    HW2 1383   1.134   6.801   1.004
  162SOL     OW 1384   2.463   6.127   0.295
  162SOL    HW1 1385   2.369   6.135   0.263
  162SOL    HW2 1386   2.463   6.096   0.390
  163SOL     OW 1387   6.883   4.980   2.912
  163SOL    HW1 1388   6.795   5.018   2.883
  163SOL    HW2 1389   6.867   4.894   2.961
  164SOL     OW 1390   1.527   1.949   3.222
  164SOL    HW1 1391   1.498   2.042   3.245
  164SOL    HW2 1392   1.450   1.886   3.235
  165SOL     OW 1393   6.930   5.235   2.462
  165SOL    HW1 1394   6.944   5.254   2.365
  165SOL    HW2 1395   6.976   5.305   2.517
  166SOL     OW 1396   6.252   4.020   1.162
  166SOL    HW1 1397   6.299   4.092   1.213
  166SOL    HW2 1398   6.314   3.943   1.149
  167SOL     OW 1399   5.361   1.910   6.872
  167SOL    HW1 1400   5.310   1.825   6.862
  167SOL    HW2 1401   5.376   1.951   6.782
  168SOL     OW 1402   4.110   3.234   1.772
  168SOL    HW1 1403   4.137   3.288   1.851
  168SOL    HW2 1404   4.144   3.140   1.783
  169SOL     OW 1405   6.210   2.760   0.588
  169SOL    HW1 1406   6.249   2.801   0.506
  169SOL    HW2 1407   6.225   2.661   0.586
  170SOL     OW 1408   0.993   6.208   3.286
  170SOL    HW1 1409   1.048   6.147   3.229
  170SOL    HW2 1410   0.896   6.196   3.264
  171SOL     OW 1411   1.660   3.082   0.170
  171SOL    HW1 1412   1.698   3.156   0.116
  171SOL    HW2 1413   1.686   3.093   0.266
  172SOL     OW 1414   5.580   2.471   1.878
  172SOL    HW1 1415   5.523   2.549   1.905
  172SOL    HW2 1416   5.652   2.458   1.946
  173SOL     OW 1417   5.668   1.046   5.076
  173SOL    HW1 1418   5.665   1.053   4.976
  173SOL    HW2 1419   5.600   0.978   5.106
  174SOL     OW 1420   4.949   4.931   5.342
  174SOL    HW1 1421   5.043   4.906   5.321
  174SOL    HW2 1422   4.945   4.978   5.430
  175SOL     OW 1423   2.439   0.869   0.778
  175SOL    HW1 1424   2.371   0.857   0.706
  175SOL    HW2 1425   2.500   0.789   0.779
  176SOL     OW 1426   5.047   5.048   3.111
  176SOL    HW1 1427   4.986   4.993   3.053
  176SOL    HW2 1428   5.007   5.055   3.203
  177SOL     OW 1429   5.009   1.961   5.387
  177SOL    HW1 1430   4.969   1.931   5.300
  177SOL    HW2 1431   4.986   1.896   5.459
  178SOL     OW 1432   2.525   5.537   4.863
  178SOL    HW1 1433   2.580   5.619   4.845
  178SOL    HW2 1434   2.430   5.563   4.880
  179SOL     OW 1435   4.197   5.968   0.351
  179SOL    HW1 1436   4.145   5.902   0.406
  179SOL    HW2 1437   4.293   5.942   0.351
  180SOL     OW 1438   3.323   6.989   0.988
  180SOL    HW1 1439   3.342   6.894   1.012
  180SOL    HW2 1440   3.263   0.009   1.056
  181SOL     OW 1441   2.882   2.386   5.222
  181SOL    HW1 1442   2.831   2.317   5.171
  181SOL    HW2 1443   2.980   2.366   5.217
  182SOL     OW 1444   5.344   3.227   0.994
  182SOL    HW1 1445   5.283   3.272   1.060
  182SOL    HW2 1446   5.361   3.290   0.917
  183SOL     OW 1447   4.236   2.280   4.363
  183SOL    HW1 1448   4.291   2.202   4.394
  183SOL    HW2 1449   4.146   2.247   4.334
  184SOL     OW 1450   0.918   6.486   3.124
  184SOL    HW1 1451   0.944   6.582   3.113
  184SOL    HW2 1452   0.971   6.430   3.061
  185SOL     OW 1453   1.112   1.835   4.484
  185SOL    HW1 1454   1.063   1.846   4.398
  185SOL    HW2 1455   1.203   1.799   4.466
  186SOL     OW 1456   5.513   6.058   4.150
  186SOL    HW1 1457   5.498   5.959   4.152
  186SOL    HW2 1458   5.587   6.082   4.213
  187SOL     OW 1459   4.540   5.343   2.672
  187SOL    HW1 1460   4.587   5.395   2.743
  187SOL    HW2 1461   4.443   5.334   2.695
  188SOL     OW 1462   1.502   2.227   3.282
  188SOL    HW1 1463   1.463   2.259   3.368
  188SOL    HW2 1464   1.504   2.303   3.216
  189SOL     OW 1465   6.412   5.252   6.695
  189SOL    HW1 1466   6.505   5.277   6.720
  189SOL    HW2 1467   6.393   5.283   6.602
  190SOL     OW 1468   5.945   5.173   6.600
  190SOL    HW1 1469   5.890   5.219   6.670
  190SOL    HW2 1470   5.945   5.074   6.618
  191SOL     OW 1471   6.781   1.377   5.835
  191SOL    HW1 1472   6.827   1.355   5.749
  191SOL    HW2 1473   6.790   1.475   5.854
  192SOL     OW 1474   0.513   4.117   1.720
  192SOL    HW1 1475   0.529   4.215   1.707
  192SOL    HW2 1476   0.542   4.067   1.638
  193SOL     OW 1477   3.668   4.485   6.070
  193SOL    HW1 1478   3.593   4.459   6.010
  193SOL    HW2 1479   3.662   4.434   6.156
  194SOL     OW 1480   4.056   6.897   1.722
  194SOL    HW1 1481   4.060   6.886   1.623
  194SOL    HW2 1482   4.147   6.917   1.757
  195SOL     OW 1483   2.949   0.930   2.780
  195SOL    HW1 1484   3.020   0.860   2.767
  195SOL    HW2 1485   2.970   0.983   2.862
  196SOL     OW 1486   2.490   1.143   6.572
  196SOL    HW1 1487   2.429   1.156   6.494
  196SOL    HW2 1488   2.491   1.047   6.598
  197SOL     OW 1489   2.104   5.883   6.362
  197SOL    HW1 1490   2.099   5.927   6.272
  197SOL    HW2 1491   2.016   5.895   6.409
  198SOL     OW 1492   4.729   5.720   0.966
  198SOL    HW1 1493   4.640   5.710   1.011
  198SOL    HW2 1494   4.757   5.815   0.969
  199SOL     OW 1495   6.767   1.464   2.116
  199SOL    HW1 1496   6.712   1.381   2.108
  199SOL    HW2 1497   6.715   1.542   2.082
  200SOL     OW 1498   1.337   3.334   2.352
  200SOL    HW1 1499   1.261   3.390   2.319
  200SOL    HW2 1500   1.324   3.239   2.324
  201SOL     OW 1501   2.555   0.517   6.445
  201SOL    HW1 1502   2.651   0.540   6.458
  201SOL    HW2 1503   2.531   0.437   6.500
  202SOL     OW 1504   5.086   0.061   4.942
  202SOL    HW1 1505   5.014   0.127   4.920
  202SOL    HW2 1506   5.102   0.001   4.864
  203SOL     OW 1507   5.089   2.556   6.025
  203SOL    HW1 1508   5.039   2.502   6.092
  203SOL    HW2 1509   5.118   2.497   5.950
  204SOL     OW 1510   1.329   0.051   0.287
  204SOL    HW1 1511   1.419   0.043   0.330
  204SOL    HW2 1512   1.282   6.984   0.292
  205SOL     OW 1513   0.860   1.563   1.094
  205SOL    HW1 1514   0.811   1.588   1.177
  205SOL    HW2 1515   0.958   1.564   1.112
  206SOL     OW 1516   0.477   4.723   1.339
  206SOL    HW1 1517   0.514   4.738   1.247
  206SOL    HW2 1518   0.440   4.631   1.345
  207SOL     OW 1519   4.022   0.325   5.262
  207SOL    HW1 1520   4.025   0.354   5.166
  207SOL    HW2 1521   3.929   0.337   5.297
  208SOL     OW 1522   5.134   4.657   5.791
  208SOL    HW1 1523   5.077   4.692   5.866
  208SOL    HW2 1524   5.076   4.610   5.724
  209SOL     OW 1525   0.563   5.763   5.850
  209SOL    HW1 1526   0.627   5.826   5.892
  209SOL    HW2 1527   0.476   5.764   5.900
  210SOL     OW 1528   4.325   2.403   2.163
  210SOL    HW1 1529   4.315   2.492   2.118
  210SOL    HW2 1530   4.307   2.331   2.096
  211SOL     OW 1531   0.799   0.658   2.786
  211SOL    HW1 1532   0.850   0.712   2.853
  211SOL    HW2 1533   0.863   0.605   2.730
  212SOL     OW 1534   1.740   4.896   2.642
  212SOL    HW1 1535   1.749   4.853   2.732
  212SOL    HW2 1536   1.830   4.917   2.605
  213SOL     OW 1537   4.924   0.976   6.327
  213SOL    HW1 1538   4.876   1.055   6.290
  213SOL    HW2 1539   5.023   0.992   6.322
  214SOL     OW 1540   1.967   6.093   3.051
  214SOL    HW1 1541   1.982   6.155   3.129
  214SOL    HW2 1542   2.055   6.074   3.008
  215SOL     OW 1543   3.884   3.811   1.671
  215SOL    HW1 1544   3.792   3.813   1.631
  215SOL    HW2 1545   3.945   3.758   1.612
  216SOL     OW 1546   1.311   0.100   5.411
  216SOL    HW1 1547   1.353   0.014   5.439
  216SOL    HW2 1548   1.267   0.088   5.322
  217SOL     OW 1549   1.496   3.030   4.212
  217SOL    HW1 1550   1.578   3.082   4.234
  217SOL    HW2 1551   1.446   3.078   4.139
  218SOL     OW 1552   1.764   2.650   4.834
  218SOL    HW1 1553   1.774   2.749   4.847
  218SOL    HW2 1554   1.819   2.620   4.756
  219SOL     OW 1555   3.260   4.019   6.341
  219SOL    HW1 1556   3.318   4.052   6.267
  219SOL    HW2 1557   3.244   4.092   6.406
  220SOL     OW 1558   2.843   5.736   0.073
  220SOL    HW1 1559   2.784   5.815   0.090
  220SOL    HW2 1560   2.793   5.651   0.091
  221SOL     OW 1561   5.379   3.967   3.363
  221SOL    HW1 1562   5.410   3.921   3.446
  221SOL    HW2 1563   5.379   4.066   3.378
  222SOL     OW 1564   1.656   5.473   5.444
  222SOL    HW1 1565   1.582   5.528   5.407
  222SOL    HW2 1566   1.735   5.477   5.382
  223SOL     OW 1567   0.687   3.339   1.388
  223SOL    HW1 1568   0.757   3.403   1.419
  223SOL    HW2 1569   0.716   3.298   1.302
  224SOL     OW 1570   2.915   2.206   2.968
  224SOL    HW1 1571   2.913   2.190   3.066
  224SOL    HW2 1572   3.010   2.211   2.937
  225SOL     OW 1573   5.827   0.930   6.723
  225SOL    HW1 1574   5.757   0.971   6.665
  225SOL    HW2 1575   5.850   0.993   6.797
  226SOL     OW 1576   0.445   0.168   0.375
  226SOL    HW1 1577   0.375   0.150   0.306
  226SOL    HW2 1578   0.424   0.117   0.459
  227SOL     OW 1579   0.981   4.281   3.613
  227SOL    HW1 1580   0.918   4.256   3.540
  227SOL    HW2 1581   0.932   4.280   3.701
  228SOL     OW 1582   3.725   0.238   4.694
  228SOL    HW1 1583   3.628   0.245   4.673
  228SOL    HW2 1584   3.770   0.181   4.625
  229SOL     OW 1585   6.069   6.130   1.639
  229SOL    HW1 1586   6.120   6.178   1.711
  229SOL    HW2 1587   5.977   6.168   1.632
  230SOL     OW 1588   2.061   4.631   3.878
  230SOL    HW1 1589   2.143   4.654   3.931
  230SOL    HW2 1590   2.039   4.706   3.816
  231SOL     OW 1591   6.060   2.751   5.982
  231SOL    HW1 1592   5.982   2.806   6.013
  231SOL    HW2 1593   6.048   2.656   6.012
  232SOL     OW 1594   0.937   3.849   5.909
  232SOL    HW1 1595   1.027   3.879   5.875
  232SOL    HW2 1596   0.938   3.846   6.009
  233SOL     OW 1597   1.831   0.518   5.077
  233SOL    HW1 1598   1.876   0.506   4.988
  233SOL    HW2 1599   1.894   0.565   5.139
  234SOL     OW 1600   2.738   5.314   6.492
  234SOL    HW1 1601   2.694   5.357   6.571
  234SOL    HW2 1602   2.668   5.275   6.433
  235SOL     OW 1603   3.614   3.297   2.633
  235SOL    HW1 1604   3.655   3.218   2.678
  235SOL    HW2 1605   3.675   3.328   2.559
  236SOL     OW 1606   6.520   2.986   6.670
  236SOL    HW1 1607   6.540   2.914   6.604
  236SOL    HW2 1608   6.421   3.000   6.677
  237SOL     OW 1609   0.513   6.890   0.821
  237SOL    HW1 1610   0.518   6.791   0.824
  237SOL    HW2 1611   0.482   6.925   0.910
  238SOL     OW 1612   5.982   3.080   1.661
  238SOL    HW1 1613   5.981   3.061   1.563
  238SOL    HW2 1614   6.073   3.061   1.698
  239SOL     OW 1615   6.289   5.362   6.926
  239SOL    HW1 1616   6.191   5.368   6.909
  239SOL    HW2 1617   6.337   5.340   6.841
  240SOL     OW 1618   0.651   3.424   5.867
  240SOL    HW1 1619   0.632   3.478   5.785
  240SOL    HW2 1620   0.638   3.482   5.948
  241SOL     OW 1621   0.881   0.780   3.509
  241SOL    HW1 1622   0.942   0.851   3.475
  241SOL    HW2 1623   0.789   0.818   3.519
  242SOL     OW 1624   1.411   3.010   5.349
  242SOL    HW1 1625   1.357   3.041   5.270
  242SOL    HW2 1626   1.438   3.090   5.403
  243SOL     OW 1627   4.647   0.097   6.216
  243SOL    HW1 1628   4.727   0.133   6.263
  243SOL    HW2 1629   4.578   0.069   6.283
  244SOL     OW 1630   4.663   2.522   4.227
  244SOL    HW1 1631   4.569   2.488   4.231
  244SOL    HW2 1632   4.704   2.499   4.139
  245SOL     OW 1633   6.732   2.645   4.580
  245SOL    HW1 1634   6.774   2.634   4.490
  245SOL    HW2 1635   6.754   2.736   4.616
  246SOL     OW 1636   5.070   3.963   3.678
  246SOL    HW1 1637   5.140   3.892   3.685
  246SOL    HW2 1638   4.986   3.924   3.639
  247SOL     OW 1639   2.902   1.591   2.957
  247SOL    HW1 1640   2.836   1.522   2.988
  247SOL    HW2 1641   2.915   1.583   2.858
  248SOL     OW 1642   4.497   2.189   4.587
  248SOL    HW1 1643   4.459   2.102   4.557
  248SOL    HW2 1644   4.581   2.173   4.638
  249SOL     OW 1645   3.026   6.819   4.896
  249SOL    HW1 1646   3.017   6.792   4.800
  249SOL    HW2 1647   2.938   6.809   4.942
  250SOL     OW 1648   5.321   1.768   5.588
  250SOL    HW1 1649   5.328   1.755   5.490
  250SOL    HW2 1650   5.376   1.847   5.616
  251SOL     OW 1651   4.333   3.293   6.317
  251SOL    HW1 1652   4.427   3.315   6.292
  251SOL    HW2 1653   4.333   3.235   6.398
  252SOL     OW 1654   0.140   1.242   5.470
  252SOL    HW1 1655   0.184   1.243   5.560
  252SOL    HW2 1656   0.122   1.147   5.443
  253SOL     OW 1657   1.786   4.104   0.915
  253SOL    HW1 1658   1.877   4.130   0.945
  253SOL    HW2 1659   1.741   4.182   0.872
  254SOL     OW 1660   6.293   2.907   4.241
  254SOL    HW1 1661   6.342   2.960   4.172
  254SOL    HW2 1662   6.355   2.837   4.279
  255SOL     OW 1663   3.294   2.089   3.651
  255SOL    HW1 1664   3.351   2.171   3.661
  255SOL    HW2 1665   3.351   2.008   3.660
  256SOL     OW 1666   6.631   5.008   0.041
  256SOL    HW1 1667   6.591   5.081   0.096
  256SOL    HW2 1668   6.719   5.040   0.003
  257SOL     OW 1669   3.282   5.671   6.017
  257SOL    HW1 1670   3.369   5.630   6.046
  257SOL    HW2 1671   3.289   5.698   5.921
  258SOL     OW 1672   4.778   4.073   5.124
  258SOL    HW1 1673   4.761   4.069   5.026
  258SOL    HW2 1674   4.865   4.119   5.142
  259SOL     OW 1675   1.499   3.008   2.610
  259SOL    HW1 1676   1.540   3.098   2.624
  259SOL    HW2 1677   1.563   2.949   2.560
  260SOL     OW 1678   4.887   0.555   0.090
  260SOL    HW1 1679   4.969   0.550   0.148
  260SOL    HW2 1680   4.915   0.556   7.015
  261SOL     OW 1681   0.892   3.472   1.539
  261SOL    HW1 1682   0.927   3.384   1.569
  261SOL    HW2 1683   0.856   3.523   1.617
  262SOL     OW 1684   1.103   3.408   2.195
  262SOL    HW1 1685   1.066   3.429   2.285
  262SOL    HW2 1686   1.048   3.452   2.124
  263SOL     OW 1687   0.573   2.159   4.493
  263SOL    HW1 1688   0.558   2.223   4.417
  263SOL    HW2 1689   0.494   2.162   4.555
  264SOL     OW 1690   0.508   3.405   5.279
  264SOL    HW1 1691   0.530   3.497   5.249
  264SOL    HW2 1692   0.414   3.383   5.254
  265SOL     OW 1693   4.668   4.184   4.082
  265SOL    HW1 1694   4.718   4.216   4.163
  265SOL    HW2 1695   4.570   4.204   4.093
  266SOL     OW 1696   3.378   2.003   6.924
  266SOL    HW1 1697   3.380   2.099   6.898
  266SOL    HW2 1698   3.413   1.993   7.018
  267SOL     OW 1699   1.793   2.507   0.571
  267SOL    HW1 1700   1.859   2.433   0.585
  267SOL    HW2 1701   1.715   2.473   0.518
  268SOL     OW 1702   4.634   4.627   4.477
  268SOL    HW1 1703   4.724   4.667   4.459
  268SOL    HW2 1704   4.579   4.691   4.530
  269SOL     OW 1705   1.436   1.841   6.533
  269SOL    HW1 1706   1.400   1.758   6.490
  269SOL    HW2 1707   1.523   1.866   6.491
  270SOL     OW 1708   5.248   0.961   2.310
  270SOL    HW1 1709   5.320   1.022   2.277
  270SOL    HW2 1710   5.198   0.924   2.232
  271SOL     OW 1711   2.219   0.996   1.016
  271SOL    HW1 1712   2.298   1.019   0.960
  271SOL    HW2 1713   2.249   0.945   1.097
  272SOL     OW 1714   3.748   5.488   4.248
  272SOL    HW1 1715   3.838   5.446   4.258
  272SOL    HW2 1716   3.677   5.418   4.260
  273SOL     OW 1717   1.299   5.492   5.185
  273SOL    HW1 1718   1.309   5.529   5.093
  273SOL    HW2 1719   1.207   5.509   5.219
  274SOL     OW 1720   5.196   2.849   3.522
  274SOL    HW1 1721   5.284   2.867   3.567
  274SOL    HW2 1722   5.212   2.801   3.436
  275SOL     OW 1723   0.369   5.998   6.243
  275SOL    HW1 1724   0.366   5.939   6.324
  275SOL    HW2 1725   0.456   6.048   6.241
  276SOL     OW 1726   6.989   5.295   3.850
  276SOL    HW1 1727   7.007   5.232   3.925
  276SOL    HW2 1728   0.046   5.357   3.839
  277SOL     OW 1729   2.920   0.896   5.356
  277SOL    HW1 1730   2.862   0.936   5.285
  277SOL    HW2 1731   3.006   0.945   5.361
  278SOL     OW 1732   5.131   4.716   2.782
  278SOL    HW1 1733   5.066   4.664   2.727
  278SOL    HW2 1734   5.094   4.730   2.874
  279SOL     OW 1735   6.899   3.325   3.904
  279SOL    HW1 1736   6.958   3.325   3.985
  279SOL    HW2 1737   6.850   3.238   3.898
  280SOL     OW 1738   4.773   6.566   3.846
  280SOL    HW1 1739   4.710   6.641   3.867
  280SOL    HW2 1740   4.756   6.534   3.752
  281SOL     OW 1741   4.075   5.703   3.746
  281SOL    HW1 1742   4.015   5.767   3.794
  281SOL    HW2 1743   4.170   5.720   3.773
  282SOL     OW 1744   4.211   1.285   5.873
  282SOL    HW1 1745   4.289   1.348   5.884
  282SOL    HW2 1746   4.195   1.238   5.960
  283SOL     OW 1747   6.021   0.422   5.107
  283SOL    HW1 1748   6.070   0.344   5.068
  283SOL    HW2 1749   6.085   0.496   5.125
  284SOL     OW 1750   0.518   4.700   4.603
  284SOL    HW1 1751   0.561   4.610   4.596
  284SOL    HW2 1752   0.422   4.694   4.575
  285SOL     OW 1753   5.762   6.832   0.320
  285SOL    HW1 1754   5.707   6.915   0.308
  285SOL    HW2 1755   5.716   6.755   0.276
  286SOL     OW 1756   3.217   5.262   4.922
  286SOL    HW1 1757   3.229   5.225   5.015
  286SOL    HW2 1758   3.247   5.194   4.855
  287SOL     OW 1759   1.651   5.927   6.260
  287SOL    HW1 1760   1.570   5.983   6.277
  287SOL    HW2 1761   1.720   5.981   6.213
  288SOL     OW 1762   4.428   0.679   1.214
  288SOL    HW1 1763   4.434   0.580   1.204
  288SOL    HW2 1764   4.332   0.706   1.220
  289SOL     OW 1765   1.257   5.609   5.607
  289SOL    HW1 1766   1.174   5.660   5.587
  289SOL    HW2 1767   1.326   5.627   5.537
  290SOL     OW 1768   4.280   0.627   3.117
  290SOL    HW1 1769   4.334   0.599   3.038
  290SOL    HW2 1770   4.227   0.709   3.094
  291SOL     OW 1771   4.080   0.837   3.913
  291SOL    HW1 1772   3.990   0.808   3.945
  291SOL    HW2 1773   4.144   0.838   3.990
  292SOL     OW 1774   3.906   0.452   3.895
  292SOL    HW1 1775   3.835   0.407   3.842
  292SOL    HW2 1776   3.991   0.400   3.890
  293SOL     OW 1777   4.509   6.558   2.550
  293SOL    HW1 1778   4.447   6.532   2.624
  293SOL    HW2 1779   4.470   6.634   2.499
  294SOL     OW 1780   5.588   6.574   5.590
  294SOL    HW1 1781   5.674   6.523   5.596
  294SOL    HW2 1782   5.594   6.656   5.648
  295SOL     OW 1783   1.201   2.426   5.206
  295SOL    HW1 1784   1.172   2.360   5.275
  295SOL    HW2 1785   1.199   2.383   5.115
  296SOL     OW 1786   6.081   1.791   1.355
  296SOL    HW1 1787   6.167   1.796   1.303
  296SOL    HW2 1788   6.102   1.777   1.452
  297SOL     OW 1789   5.281   5.500   3.866
  297SOL    HW1 1790   5.218   5.576   3.882
  297SOL    HW2 1791   5.242   5.416   3.904
  298SOL     OW 1792   4.434   0.748   0.912
  298SOL    HW1 1793   4.412   0.729   1.008
  298SOL    HW2 1794   4.533   0.739   0.898
  299SOL     OW 1795   3.231   1.915   0.389
  299SOL    HW1 1796   3.159   1.882   0.450
  299SOL    HW2 1797   3.220   1.872   0.299
  300SOL     OW 1798   3.127   1.105   2.303
  300SOL    HW1 1799   3.132   1.063   2.213
  300SOL    HW2 1800   3.084   1.042   2.368
  301SOL     OW 1801   5.149   6.524   1.558
  301SOL    HW1 1802   5.127   6.495   1.464
  301SOL    HW2 1803   5.163   6.623   1.560
  302SOL     OW 1804   6.992   6.713   1.581
  302SOL    HW1 1805   6.920   6.646   1.598
  302SOL    HW2 1806   6.960   6.804   1.606
  303SOL     OW 1807   5.822   5.740   2.280
  303SOL    HW1 1808   5.780   5.696   2.200
  303SOL    HW2 1809   5.774   5.826   2.300
  304SOL     OW 1810   1.504   6.851   6.024
  304SOL    HW1 1811   1.590   6.891   6.056
  304SOL    HW2 1812   1.510   6.834   5.926
  305SOL     OW 1813   1.367   3.216   1.399
  305SOL    HW1 1814   1.467   3.214   1.396
  305SOL    HW2 1815   1.336   3.210   1.494
  306SOL     OW 1816   0.400   1.015   2.086
  306SOL    HW1 1817   0.362   0.991   2.176
  306SOL    HW2 1818   0.466   1.089   2.096
  307SOL     OW 1819   3.351   3.577   0.704
  307SOL    HW1 1820   3.413   3.652   0.679
  307SOL    HW2 1821   3.405   3.494   0.720
  308SOL     OW 1822   5.570   1.968   4.518
  308SOL    HW1 1823   5.574   1.999   4.423
  308SOL    HW2 1824   5.652   1.996   4.566
  309SOL     OW 1825   0.874   6.925   0.088
  309SOL    HW1 1826   0.904   6.969   0.004
  309SOL    HW2 1827   0.906   6.830   0.089
  310SOL     OW 1828   5.900   6.520   4.372
  310SOL    HW1 1829   5.981   6.567   4.339
  310SOL    HW2 1830   5.916   6.421   4.374
  311SOL     OW 1831   2.373   4.769   2.457
  311SOL    HW1 1832   2.379   4.858   2.411
  311SOL    HW2 1833   2.391   4.781   2.554
  312SOL     OW 1834   4.700   2.513   3.742
  312SOL    HW1 1835   4.621   2.500   3.682
  312SOL    HW2 1836   4.781   2.475   3.698
  313SOL     OW 1837   3.415   3.522   2.317
  313SOL    HW1 1838   3.340   3.587   2.309
  313SOL    HW2 1839   3.466   3.519   2.231
  314SOL     OW 1840   1.715   5.860   5.400
  314SOL    HW1 1841   1.813   5.843   5.394
  314SOL    HW2 1842   1.678   5.818   5.482
  315SOL     OW 1843   7.010   1.204   3.099
  315SOL    HW1 1844   0.016   1.297   3.075
  315SOL    HW2 1845   7.007   1.195   3.198
  316SOL     OW 1846   4.502   1.887   5.147
  316SOL    HW1 1847   4.542   1.916   5.234
  316SOL    HW2 1848   4.513   1.959   5.079
  317SOL     OW 1849   1.543   1.461   1.879
  317SOL    HW1 1850   1.468   1.472   1.813
  317SOL    HW2 1851   1.512   1.488   1.970
  318SOL     OW 1852   6.734   6.853   6.409
  318SOL    HW1 1853   6.721   6.804   6.323
  318SOL    HW2 1854   6.646   6.892   6.438
  319SOL     OW 1855   0.037   2.533   3.126
  319SOL    HW1 1856   6.971   2.510   3.082
  319SOL    HW2 1857   0.105   2.463   3.104
  320SOL     OW 1858   6.046   2.199   6.938
  320SOL    HW1 1859   5.988   2.261   6.990
  320SOL    HW2 1860   6.110   2.153   6.999
  321SOL     OW 1861   3.642   3.208   0.191
  321SOL    HW1 1862   3.733   3.182   0.223
  321SOL    HW2 1863   3.637   3.308   0.183
  322SOL     OW 1864   3.655   2.859   4.995
  322SOL    HW1 1865   3.566   2.906   4.993
  322SOL    HW2 1866   3.690   2.851   4.902
  323SOL     OW 1867   0.719   2.385   3.910
  323SOL    HW1 1868   0.728   2.323   3.832
  323SOL    HW2 1869   0.775   2.467   3.895
  324SOL     OW 1870   2.395   6.977   3.620
  324SOL    HW1 1871   2.400   0.013   3.701
  324SOL    HW2 1872   2.303   6.981   3.582
  325SOL     OW 1873   1.534   3.584   2.692
  325SOL    HW1 1874   1.486   3.652   2.748
  325SOL    HW2 1875   1.602   3.537   2.747
  326SOL     OW 1876   2.102   4.064   6.201
  326SOL    HW1 1877   2.012   4.096   6.173
  326SOL    HW2 1878   2.157   4.042   6.120
  327SOL     OW 1879   2.699   4.647   2.400
  327SOL    HW1 1880   2.669   4.662   2.305
  327SOL    HW2 1881   2.782   4.591   2.400
  328SOL     OW 1882   2.548   4.640   1.286
  328SOL    HW1 1883   2.476   4.608   1.347
  328SOL    HW2 1884   2.614   4.695   1.337
  329SOL     OW 1885   2.733   4.047   6.834
  329SOL    HW1 1886   2.826   4.077   6.854
  329SOL    HW2 1887   2.677   4.125   6.807
  330SOL     OW 1888   4.259   5.977   7.005
  330SOL    HW1 1889   4.182   5.994   0.045
  330SOL    HW2 1890   4.226   5.953   6.914
  331SOL     OW 1891   5.341   4.769   1.035
  331SOL    HW1 1892   5.335   4.697   0.965
  331SOL    HW2 1893   5.332   4.858   0.992
  332SOL     OW 1894   5.836   2.018   3.717
  332SOL    HW1 1895   5.931   2.036   3.693
  332SOL    HW2 1896   5.776   2.060   3.649
  333SOL     OW 1897   4.034   0.970   5.199
  333SOL    HW1 1898   4.064   1.039   5.265
  333SOL    HW2 1899   4.016   0.884   5.246
  334SOL     OW 1900   3.651   2.959   1.418
  334SOL    HW1 1901   3.689   2.869   1.442
  334SOL    HW2 1902   3.606   2.954   1.330
  335SOL     OW 1903   4.633   0.038   6.505
  335SOL    HW1 1904   4.590   0.112   6.557
  335SOL    HW2 1905   4.562   7.008   6.455
  336SOL     OW 1906   3.149   1.757   2.468
  336SOL    HW1 1907   3.169   1.854   2.453
  336SOL    HW2 1908   3.074   1.748   2.533
  337SOL     OW 1909   1.721   2.357   5.812
  337SOL    HW1 1910   1.692   2.262   5.823
  337SOL    HW2 1911   1.697   2.408   5.895
  338SOL     OW 1912   3.764   3.650   0.732
  338SOL    HW1 1913   3.729   3.562   0.764
  338SOL    HW2 1914   3.815   3.637   0.647
  339SOL     OW 1915   4.563   4.915   4.267
  339SOL    HW1 1916   4.641   4.853   4.258
  339SOL    HW2 1917   4.483   4.863   4.296
  340SOL     OW 1918   5.063   3.584   5.194
  340SOL    HW1 1919   5.107   3.587   5.105
  340SOL    HW2 1920   4.963   3.583   5.182
  341SOL     OW 1921   5.832   5.741   4.668
  341SOL    HW1 1922   5.832   5.667   4.736
  341SOL    HW2 1923   5.764   5.721   4.598
  342SOL     OW 1924   4.732   3.234   0.957
  342SOL    HW1 1925   4.813   3.205   0.906
  342SOL    HW2 1926   4.749   3.224   1.055
  343SOL     OW 1927   6.907   6.061   2.304
  343SOL    HW1 1928   6.929   6.131   2.236
  343SOL    HW2 1929   6.857   6.103   2.381
  344SOL     OW 1930   0.907   2.154   2.131
  344SOL    HW1 1931   0.905   2.097   2.049
  344SOL    HW2 1932   0.973   2.228   2.119
  345SOL     OW 1933   6.884   2.047   3.732
  345SOL    HW1 1934   6.795   2.076   3.767
  345SOL    HW2 1935   6.880   2.039   3.633
  346SOL     OW 1936   1.689   0.378   2.368
  346SOL    HW1 1937   1.624   0.312   2.404
  346SOL    HW2 1938   1.681   0.464   2.418
  347SOL     OW 1939   2.635   5.548   6.767
  347SOL    HW1 1940   2.605   5.581   6.678
  347SOL    HW2 1941   2.718   5.598   6.794
  348SOL     OW 1942   4.510   5.248   3.107
  348SOL    HW1 1943   4.512   5.256   3.206
  348SOL    HW2 1944   4.563   5.323   3.067
  349SOL     OW 1945   6.858   4.013   2.351
  349SOL    HW1 1946   6.809   4.094   2.382
  349SOL    HW2 1947   6.855   3.943   2.422
  350SOL     OW 1948   3.044   2.951   0.254
  350SOL    HW1 1949   3.081   3.042   0.232
  350SOL    HW2 1950   2.944   2.957   0.263
  351SOL     OW 1951   2.948   3.326   0.520
  351SOL    HW1 1952   3.020   3.292   0.460
  351SOL    HW2 1953   2.983   3.404   0.573
  352SOL     OW 1954   3.956   6.381   3.844
  352SOL    HW1 1955   3.861   6.389   3.814
  352SOL    HW2 1956   4.013   6.350   3.768
  353SOL     OW 1957   3.043   0.299   6.338
  353SOL    HW1 1958   3.137   0.270   6.356
  353SOL    HW2 1959   2.981   0.223   6.352
  354SOL     OW 1960   4.855   2.804   0.514
  354SOL    HW1 1961   4.919   2.777   0.585
  354SOL    HW2 1962   4.901   2.803   0.425
  355SOL     OW 1963   1.881   3.224   2.449
  355SOL    HW1 1964   1.898   3.164   2.527
  355SOL    HW2 1965   1.783   3.231   2.433
  356SOL     OW 1966   1.693   0.565   4.586
  356SOL    HW1 1967   1.669   0.635   4.653
  356SOL    HW2 1968   1.726   0.484   4.635
  357SOL     OW 1969   0.662   5.870   4.613
  357SOL    HW1 1970   0.717   5.787   4.620
  357SOL    HW2 1971   0.639   5.902   4.705
  358SOL     OW 1972   4.630   6.421   0.575
  358SOL    HW1 1973   4.662   6.496   0.633
  358SOL    HW2 1974   4.532   6.433   0.556
  359SOL     OW 1975   3.341   0.694   1.705
  359SOL    HW1 1976   3.440   0.694   1.714
  359SOL    HW2 1977   3.313   0.619   1.645
  360SOL     OW 1978   1.361   4.074   4.480
  360SOL    HW1 1979   1.369   4.100   4.576
  360SOL    HW2 1980   1.428   4.002   4.459
  361SOL     OW 1981   6.934   6.280   2.772
  361SOL    HW1 1982   6.850   6.254   2.818
  361SOL    HW2 1983   6.988   6.340   2.832
  362SOL     OW 1984   3.503   3.775   1.073
  362SOL    HW1 1985   3.565   3.851   1.093
  362SOL    HW2 1986   3.412   3.811   1.052
  363SOL     OW 1987   6.286   4.695   2.982
  363SOL    HW1 1988   6.281   4.605   2.939
  363SOL    HW2 1989   6.216   4.755   2.942
  364SOL     OW 1990   0.541   4.924   6.465
  364SOL    HW1 1991   0.635   4.951   6.485
  364SOL    HW2 1992   0.505   4.871   6.541
  365SOL     OW 1993   4.308   1.175   1.399
  365SOL    HW1 1994   4.349   1.232   1.470
  365SOL    HW2 1995   4.332   1.079   1.415
  366SOL     OW 1996   5.489   2.621   0.002
  366SOL    HW1 1997   5.462   2.568   0.083
  366SOL    HW2 1998   5.419   2.611   6.952
  367SOL     OW 1999   5.922   2.408   6.294
  367SOL    HW1 2000   5.901   2.324   6.243
  367SOL    HW2 2001   5.854   2.421   6.366
  368SOL     OW 2002   6.829   2.323   5.411
  368SOL    HW1 2003   6.817   2.249   5.476
  368SOL    HW2 2004   6.844   2.285   5.319
  369SOL     OW 2005   5.865   4.477   2.907
  369SOL    HW1 2006   5.835   4.547   2.973
  369SOL    HW2 2007   5.952   4.505   2.866
  370SOL     OW 2008   1.080   1.842   3.989
  370SOL    HW1 2009   1.000   1.893   4.020
  370SOL    HW2 2010   1.064   1.744   4.003
  371SOL     OW 2011   2.117   4.115   6.750
  371SOL    HW1 2012   2.212   4.085   6.751
  371SOL    HW2 2013   2.106   4.194   6.811
  372SOL     OW 2014   1.656   6.925   5.280
  372SOL    HW1 2015   1.688   6.836   5.248
  372SOL    HW2 2016   1.731   6.976   5.321
  373SOL     OW 2017   5.054   6.315   5.060
  373SOL    HW1 2018   5.143   6.360   5.050
  373SOL    HW2 2019   5.017   6.332   5.151
  374SOL     OW 2020   2.503   2.143   2.908
  374SOL    HW1 2021   2.569   2.069   2.898
  374SOL    HW2 2022   2.545   2.219   2.959
  375SOL     OW 2023   0.736   4.681   4.402
  375SOL    HW1 2024   0.774   4.722   4.484
  375SOL    HW2 2025   0.636   4.683   4.407
  376SOL     OW 2026   1.525   2.131   5.372
  376SOL    HW1 2027   1.593   2.205   5.366
  376SOL    HW2 2028   1.476   2.125   5.285
  377SOL     OW 2029   1.978   2.489   0.064
  377SOL    HW1 2030   1.959   2.556   0.135
  377SOL    HW2 2031   1.909   2.416   0.069
  378SOL     OW 2032   3.774   1.568   6.758
  378SOL    HW1 2033   3.722   1.574   6.672
  378SOL    HW2 2034   3.736   1.633   6.824
  379SOL     OW 2035   5.321   2.640   6.798
  379SOL    HW1 2036   5.284   2.547   6.787
  379SOL    HW2 2037   5.362   2.670   6.712
  380SOL     OW 2038   3.541   1.093   0.840
  380SOL    HW1 2039   3.584   1.183   0.846
  380SOL    HW2 2040   3.514   1.076   0.745
  381SOL     OW 2041   1.437   3.905   4.202
  381SOL    HW1 2042   1.495   3.842   4.254
  381SOL    HW2 2043   1.342   3.873   4.205
  382SOL     OW 2044   5.602   0.764   0.072
  382SOL    HW1 2045   5.602   0.682   0.129
  382SOL    HW2 2046   5.631   0.740   7.000
  383SOL     OW 2047   4.234   3.297   0.610
  383SOL    HW1 2048   4.323   3.303   0.565
  383SOL    HW2 2049   4.247   3.279   0.707
  384SOL     OW 2050   6.956   5.146   4.400
  384SOL    HW1 2051   6.956   5.239   4.437
  384SOL    HW2 2052   6.949   5.081   4.475
  385SOL     OW 2053   3.288   5.994   5.911
  385SOL    HW1 2054   3.372   5.952   5.947
  385SOL    HW2 2055   3.229   6.020   5.988
  386SOL     OW 2056   3.598   0.335   4.216
  386SOL    HW1 2057   3.622   0.403   4.285
  386SOL    HW2 2058   3.681   0.303   4.170
  387SOL     OW 2059   0.997   5.543   1.868
  387SOL    HW1 2060   0.975   5.453   1.831
  387SOL    HW2 2061   1.040   5.532   1.958
  388SOL     OW 2062   1.991   2.210   6.547
  388SOL    HW1 2063   1.928   2.260   6.605
  388SOL    HW2 2064   1.961   2.115   6.539
  389SOL     OW 2065   3.350   3.294   1.980
  389SOL    HW1 2066   3.407   3.376   1.977
  389SOL    HW2 2067   3.394   3.225   2.037
  390SOL     OW 2068   3.182   0.863   3.593
  390SOL    HW1 2069   3.142   0.864   3.501
  390SOL    HW2 2070   3.257   0.929   3.597
  391SOL     OW 2071   2.083   2.625   6.265
  391SOL    HW1 2072   2.127   2.569   6.335
  391SOL    HW2 2073   2.043   2.566   6.195
  392SOL     OW 2074   1.490   3.739   0.219
  392SOL    HW1 2075   1.553   3.683   0.273
  392SOL    HW2 2076   1.506   3.836   0.237
  393SOL     OW 2077   0.246   4.552   5.478
  393SOL    HW1 2078   0.241   4.645   5.440
  393SOL    HW2 2079   0.155   4.522   5.505
  394SOL     OW 2080   0.253   0.912   6.901
  394SOL    HW1 2081   0.196   0.993   6.884
  394SOL    HW2 2082   0.213   0.834   6.853
  395SOL     OW 2083   4.873   4.079   3.292
  395SOL    HW1 2084   4.844   3.998   3.240
  395SOL    HW2 2085   4.967   4.102   3.267
  396SOL     OW 2086   4.064   3.943   1.844
  396SOL    HW1 2087   4.152   3.978   1.812
  396SOL    HW2 2088   4.008   3.915   1.766
  397SOL     OW 2089   3.955   2.241   5.604
  397SOL    HW1 2090   3.964   2.146   5.632
  397SOL    HW2 2091   3.929   2.297   5.682
  398SOL     OW 2092   0.453   6.459   2.383
  398SOL    HW1 2093   0.541   6.439   2.342
  398SOL    HW2 2094   0.410   6.374   2.414
  399SOL     OW 2095   4.977   6.675   2.977
  399SOL    HW1 2096   5.022   6.734   2.911
  399SOL    HW2 2097   4.954   6.728   3.059
  400SOL     OW 2098   6.253   6.349   5.222
  400SOL    HW1 2099   6.342   6.310   5.197
  400SOL    HW2 2100   6.266   6.436   5.269
  401SOL     OW 2101   4.877   0.799   5.234
  401SOL    HW1 2102   4.926   0.813   5.319
  401SOL    HW2 2103   4.909   0.715   5.190
  402SOL     OW 2104   6.121   0.097   3.042
  402SOL    HW1 2105   6.114   0.161   3.119
  402SOL    HW2 2106   6.162   0.011   3.073
  403SOL     OW 2107   4.257   2.149   5.123
  403SOL    HW1 2108   4.197   2.075   5.153
  403SOL    HW2 2109   4.202   2.232   5.109
  404SOL     OW 2110   1.697   6.215   4.262
  404SOL    HW1 2111   1.635   6.138   4.272
  404SOL    HW2 2112   1.763   6.196   4.190
  405SOL     OW 2113   1.658   3.815   1.853
  405SOL    HW1 2114   1.588   3.752   1.818
  405SOL    HW2 2115   1.686   3.878   1.780
  406SOL     OW 2116   0.484   3.989   4.088
  406SOL    HW1 2117   0.537   4.033   4.161
  406SOL    HW2 2118   0.538   3.915   4.048
  407SOL     OW 2119   1.837   0.340   3.566
  407SOL    HW1 2120   1.797   0.417   3.516
  407SOL    HW2 2121   1.895   0.375   3.640
  408SOL     OW 2122   0.905   1.469   3.264
  408SOL    HW1 2123   0.873   1.418   3.184
  408SOL    HW2 2124   0.842   1.455   3.340
  409SOL     OW 2125   6.224   2.807   1.092
  409SOL    HW1 2126   6.293   2.752   1.138
  409SOL    HW2 2127   6.245   2.813   0.995
  410SOL     OW 2128   1.969   0.344   6.904
  410SOL    HW1 2129   1.909   0.270   6.876
  410SOL    HW2 2130   1.914   0.420   6.940
  411SOL     OW 2131   5.742   6.716   6.525
  411SOL    HW1 2132   5.758   6.626   6.485
  411SOL    HW2 2133   5.717   6.706   6.622
  412SOL     OW 2134   5.038   6.807   3.812
  412SOL    HW1 2135   5.123   6.837   3.857
  412SOL    HW2 2136   4.968   6.791   3.881
  413SOL     OW 2137   5.375   5.266   1.823
  413SOL    HW1 2138   5.282   5.292   1.846
  413SOL    HW2 2139   5.393   5.173   1.857
  414SOL     OW 2140   3.746   5.028   3.654
  414SOL    HW1 2141   3.647   5.030   3.642
  414SOL    HW2 2142   3.771   5.075   3.738
  415SOL     OW 2143   1.065   6.178   6.427
  415SOL    HW1 2144   1.156   6.216   6.414
  415SOL    HW2 2145   1.072   6.083   6.459
  416SOL     OW 2146   5.179   5.409   4.350
  416SOL    HW1 2147   5.257   5.470   4.332
  416SOL    HW2 2148   5.195   5.321   4.306
  417SOL     OW 2149   2.410   5.419   0.816
  417SOL    HW1 2150   2.384   5.390   0.724
  417SOL    HW2 2151   2.433   5.339   0.871
  418SOL     OW 2152   4.241   5.881   1.791
  418SOL    HW1 2153   4.150   5.915   1.814
  418SOL    HW2 2154   4.302   5.894   1.869
  419SOL     OW 2155   1.739   0.144   1.031
  419SOL    HW1 2156   1.830   0.107   1.045
  419SOL    HW2 2157   1.675   0.070   1.010
  420SOL     OW 2158   5.950   2.131   0.717
  420SOL    HW1 2159   5.963   2.123   0.816
  420SOL    HW2 2160   5.859   2.169   0.699
  421SOL     OW 2161   6.988   4.751   6.077
  421SOL    HW1 2162   0.054   4.800   6.076
  421SOL    HW2 2163   6.981   4.696   6.160
  422SOL     OW 2164   5.256   4.525   0.610
  422SOL    HW1 2165   5.267   4.542   0.512
  422SOL    HW2 2166   5.168   4.561   0.641
  423SOL     OW 2167   0.757   2.917   6.895
  423SOL    HW1 2168   0.818   2.956   6.964
  423SOL    HW2 2169   0.676   2.976   6.885
  424SOL     OW 2170   2.825   3.458   1.453
  424SOL    HW1 2171   2.913   3.420   1.482
  424SOL    HW2 2172   2.841   3.525   1.380
  425SOL     OW 2173   6.216   1.187   1.956
  425SOL    HW1 2174   6.127   1.191   2.000
  425SOL    HW2 2175   6.236   1.093   1.928
  426SOL     OW 2176   4.688   2.739   3.954
  426SOL    HW1 2177   4.700   2.691   3.868
  426SOL    HW2 2178   4.725   2.832   3.946
  427SOL     OW 2179   5.242   5.347   2.841
  427SOL    HW1 2180   5.143   5.346   2.823
  427SOL    HW2 2181   5.266   5.270   2.899
  428SOL     OW 2182   4.333   0.614   4.592
  428SOL    HW1 2183   4.415   0.563   4.619
  428SOL    HW2 2184   4.314   0.686   4.658
  429SOL     OW 2185   2.949   3.629   1.174
  429SOL    HW1 2186   3.043   3.644   1.142
  429SOL    HW2 2187   2.941   3.661   1.269
  430SOL     OW 2188   6.949   0.097   3.881
  430SOL    HW1 2189   6.888   0.019   3.865
  430SOL    HW2 2190   7.021   0.071   3.946
  431SOL     OW 2191   3.913   6.712   0.763
  431SOL    HW1 2192   3.976   6.638   0.738
  431SOL    HW2 2193   3.936   6.794   0.710
  432SOL     OW 2194   6.575   1.727   1.583
  432SOL    HW1 2195   6.605   1.734   1.678
  432SOL    HW2 2196   6.613   1.643   1.543
  433SOL     OW 2197   3.453   6.241   4.454
  433SOL    HW1 2198   3.448   6.302   4.375
  433SOL    HW2 2199   3.417   6.151   4.430
  434SOL     OW 2200   3.774   5.841   1.945
  434SOL    HW1 2201   3.725   5.895   2.013
  434SOL    HW2 2202   3.792   5.750   1.982
  435SOL     OW 2203   4.962   2.207   5.524
  435SOL    HW1 2204   4.972   2.229   5.621
  435SOL    HW2 2205   4.945   2.108   5.514
  436SOL     OW 2206   3.303   6.081   0.970
  436SOL    HW1 2207   3.213   6.114   0.994
  436SOL    HW2 2208   3.344   6.142   0.902
  437SOL     OW 2209   0.875   0.120   6.588
  437SOL    HW1 2210   0.793   0.150   6.541
  437SOL    HW2 2211   0.954   0.171   6.555
  438SOL     OW 2212   2.089   3.026   2.132
  438SOL    HW1 2213   2.070   3.104   2.072
  438SOL    HW2 2214   2.083   2.941   2.079
  439SOL     OW 2215   5.711   4.491   3.459
  439SOL    HW1 2216   5.724   4.578   3.507
  439SOL    HW2 2217   5.792   4.471   3.403
  440SOL     OW 2218   1.359   1.298   5.164
  440SOL    HW1 2219   1.400   1.366   5.225
  440SOL    HW2 2220   1.287   1.248   5.212
  441SOL     OW 2221   1.342   2.741   3.982
  441SOL    HW1 2222   1.264   2.736   3.919
  441SOL    HW2 2223   1.313   2.711   4.073
  442SOL     OW 2224   2.503   5.012   6.688
  442SOL    HW1 2225   2.483   4.934   6.748
  442SOL    HW2 2226   2.542   5.086   6.742
  443SOL     OW 2227   6.793   4.529   3.950
  443SOL    HW1 2228   6.796   4.578   4.037
  443SOL    HW2 2229   6.833   4.439   3.961
  444SOL     OW 2230   5.437   2.134   5.904
  444SOL    HW1 2231   5.338   2.128   5.887
  444SOL    HW2 2232   5.465   2.061   5.965
  445SOL     OW 2233   1.341   5.250   3.013
  445SOL    HW1 2234   1.264   5.242   2.949
  445SOL    HW2 2235   1.380   5.342   3.007
  446SOL     OW 2236   4.129   4.823   3.572
  446SOL    HW1 2237   4.200   4.861   3.513
  446SOL    HW2 2238   4.173   4.777   3.650
  447SOL     OW 2239   0.626   2.841   6.471
  447SOL    HW1 2240   0.605   2.874   6.379
  447SOL    HW2 2241   0.542   2.820   6.520
  448SOL     OW 2242   3.123   0.971   4.497
  448SOL    HW1 2243   3.068   0.888   4.489
  448SOL    HW2 2244   3.219   0.946   4.510
  449SOL     OW 2245   4.417   0.996   4.466
  449SOL    HW1 2246   4.399   0.912   4.414
  449SOL    HW2 2247   4.336   1.054   4.464
  450SOL     OW 2248   1.194   5.768   3.819
  450SOL    HW1 2249   1.196   5.864   3.793
  450SOL    HW2 2250   1.285   5.739   3.849
  451SOL     OW 2251   2.134   1.925   3.487
  451SOL    HW1 2252   2.056   1.879   3.530
  451SOL    HW2 2253   2.109   2.020   3.467
  452SOL     OW 2254   6.257   6.635   1.308
  452SOL    HW1 2255   6.332   6.617   1.245
  452SOL    HW2 2256   6.290   6.692   1.383
  453SOL     OW 2257   3.812   0.956   5.052
  453SOL    HW1 2258   3.908   0.955   5.079
  453SOL    HW2 2259   3.770   1.042   5.081
  454SOL     OW 2260   6.806   4.936   6.181
  454SOL    HW1 2261   6.712   4.918   6.152
  454SOL    HW2 2262   6.868   4.870   6.139
  455SOL     OW 2263   5.868   2.805   3.319
  455SOL    HW1 2264   5.967   2.810   3.306
  455SOL    HW2 2265   5.832   2.897   3.335
  456SOL     OW 2266   5.491   6.569   4.223
  456SOL    HW1 2267   5.435   6.624   4.161
  456SOL    HW2 2268   5.437   6.491   4.256
  457SOL     OW 2269   1.853   3.761   3.667
  457SOL    HW1 2270   1.811   3.840   3.622
  457SOL    HW2 2271   1.939   3.789   3.709
  458SOL     OW 2272   4.117   5.554   3.493
  458SOL    HW1 2273   4.092   5.462   3.523
  458SOL    HW2 2274   4.088   5.620   3.562
  459SOL     OW 2275   1.870   0.077   5.404
  459SOL    HW1 2276   1.891   0.113   5.313
  459SOL    HW2 2277   1.897   0.144   5.474
  460SOL     OW 2278   1.775   0.106   3.743
  460SOL    HW1 2279   1.778   0.192   3.691
  460SOL    HW2 2280   1.709   0.115   3.818
  461SOL     OW 2281   5.893   6.953   5.656
  461SOL    HW1 2282   5.923   0.027   5.644
  461SOL    HW2 2283   5.907   6.925   5.751
  462SOL     OW 2284   3.396   2.759   6.260
  462SOL    HW1 2285   3.297   2.749   6.253
  462SOL    HW2 2286   3.438   2.739   6.171
  463SOL     OW 2287   6.638   5.654   3.193
  463SOL    HW1 2288   6.581   5.713   3.252
  463SOL    HW2 2289   6.646   5.696   3.103
  464SOL     OW 2290   2.050   2.652   5.755
  464SOL    HW1 2291   2.003   2.656   5.667
  464SOL    HW2 2292   2.051   2.743   5.796
  465SOL     OW 2293   0.886   2.664   5.406
  465SOL    HW1 2294   0.894   2.567   5.430
  465SOL    HW2 2295   0.793   2.695   5.423
  466SOL     OW 2296   1.351   5.819   3.064
  466SOL    HW1 2297   1.291   5.740   3.067
  466SOL    HW2 2298   1.445   5.790   3.082
  467SOL     OW 2299   1.762   1.387   0.307
  467SOL    HW1 2300   1.812   1.472   0.286
  467SOL    HW2 2301   1.678   1.384   0.253
  468SOL     OW 2302   3.712   6.441   0.204
  468SOL    HW1 2303   3.700   6.494   0.288
  468SOL    HW2 2304   3.800   6.393   0.208
  469SOL     OW 2305   3.025   4.039   0.282
  469SOL    HW1 2306   3.051   4.017   0.188
  469SOL    HW2 2307   2.993   4.134   0.287
  470SOL     OW 2308   4.356   0.225   2.238
  470SOL    HW1 2309   4.332   0.308   2.188
  470SOL    HW2 2310   4.352   0.146   2.177
  471SOL     OW 2311   2.020   2.213   3.828
  471SOL    HW1 2312   2.012   2.286   3.896
  471SOL    HW2 2313   1.995   2.126   3.869
  472SOL     OW 2314   5.472   3.610   6.602
  472SOL    HW1 2315   5.561   3.630   6.560
  472SOL    HW2 2316   5.434   3.527   6.562
  473SOL     OW 2317   1.120   3.213   2.575
  473SOL    HW1 2318   1.041   3.265   2.542
  473SOL    HW2 2319   1.203   3.267   2.561
  474SOL     OW 2320   5.422   5.519   4.222
  474SOL    HW1 2321   5.442   5.566   4.135
  474SOL    HW2 2322   5.482   5.440   4.232
  475SOL     OW 2323   5.739   0.520   6.598
  475SOL    HW1 2324   5.834   0.514   6.567
  475SOL    HW2 2325   5.693   0.594   6.549
  476SOL     OW 2326   6.842   3.764   3.220
  476SOL    HW1 2327   6.879   3.753   3.313
  476SOL    HW2 2328   6.777   3.840   3.219
  477SOL     OW 2329   1.724   4.745   4.136
  477SOL    HW1 2330   1.809   4.751   4.187
  477SOL    HW2 2331   1.650   4.718   4.197
  478SOL     OW 2332   3.276   0.198   1.739
  478SOL    HW1 2333   3.259   0.289   1.701
  478SOL    HW2 2334   3.188   0.150   1.748
  479SOL     OW 2335   4.253   2.193   6.092
  479SOL    HW1 2336   4.235   2.291   6.096
  479SOL    HW2 2337   4.351   2.177   6.090
  480SOL     OW 2338   2.436   1.336   0.062
  480SOL    HW1 2339   2.354   1.384   0.030
  480SOL    HW2 2340   2.505   1.402   0.089
  481SOL     OW 2341   1.889   0.452   0.185
  481SOL    HW1 2342   1.959   0.383   0.206
  481SOL    HW2 2343   1.882   0.515   0.262
  482SOL     OW 2344   4.420   4.857   3.294
  482SOL    HW1 2345   4.410   4.910   3.378
  482SOL    HW2 2346   4.510   4.874   3.254
  483SOL     OW 2347   6.608   1.205   2.129
  483SOL    HW1 2348   6.598   1.212   2.228
  483SOL    HW2 2349   6.571   1.117   2.098
  484SOL     OW 2350   1.409   3.316   5.034
  484SOL    HW1 2351   1.389   3.405   4.992
  484SOL    HW2 2352   1.453   3.330   5.123
  485SOL     OW 2353   3.985   5.012   2.621
  485SOL    HW1 2354   4.041   5.031   2.540
  485SOL    HW2 2355   4.009   4.923   2.658
  486SOL     OW 2356   6.687   1.823   0.279
  486SOL    HW1 2357   6.592   1.846   0.260
  486SOL    HW2 2358   6.723   1.884   0.350
  487SOL     OW 2359   1.418   0.635   1.083
  487SOL    HW1 2360   1.417   0.542   1.046
  487SOL    HW2 2361   1.397   0.700   1.010
  488SOL     OW 2362   0.469   1.393   2.502
  488SOL    HW1 2363   0.445   1.434   2.591
  488SOL    HW2 2364   0.559   1.425   2.474
  489SOL     OW 2365   3.082   6.358   6.366
  489SOL    HW1 2366   3.169   6.309   6.369
  489SOL    HW2 2367   3.043   6.352   6.274
  490SOL     OW 2368   6.517   5.826   3.379
  490SOL    HW1 2369   6.498   5.922   3.358
  490SOL    HW2 2370   6.592   5.821   3.445
  491SOL     OW 2371   0.508   3.260   2.765
  491SOL    HW1 2372   0.411   3.252   2.788
  491SOL    HW2 2373   0.527   3.209   2.680
  492SOL     OW 2374   2.202   0.743   5.815
  492SOL    HW1 2375   2.193   0.676   5.742
  492SOL    HW2 2376   2.158   0.829   5.787
  493SOL     OW 2377   4.747   5.977   5.354
  493SOL    HW1 2378   4.668   5.971   5.415
  493SOL    HW2 2379   4.830   5.954   5.404
  494SOL     OW 2380   6.990   0.730   6.934
  494SOL    HW1 2381   0.015   0.641   6.929
  494SOL    HW2 2382   6.899   0.718   6.974
  495SOL     OW 2383   4.956   6.054   3.662
  495SOL    HW1 2384   4.974   6.095   3.572
  495SOL    HW2 2385   5.042   6.023   3.702
  496SOL     OW 2386   5.171   3.926   1.719
  496SOL    HW1 2387   5.226   3.981   1.782
  496SOL    HW2 2388   5.187   3.829   1.737
  497SOL     OW 2389   3.398   1.140   4.330
  497SOL    HW1 2390   3.418   1.216   4.391
  497SOL    HW2 2391   3.349   1.068   4.380
  498SOL     OW 2392   2.019   3.877   1.572
  498SOL    HW1 2393   2.087   3.828   1.517
  498SOL    HW2 2394   2.005   3.829   1.659
  499SOL     OW 2395   2.559   0.110   4.160
  499SOL    HW1 2396   2.644   0.075   4.120
  499SOL    HW2 2397   2.551   0.208   4.139
  500SOL     OW 2398   0.267   3.548   4.533
  500SOL    HW1 2399   0.250   3.501   4.447
  500SOL    HW2 2400   0.366   3.554   4.550
  501SOL     OW 2401   2.871   5.560   0.522
  501SOL    HW1 2402   2.831   5.642   0.480
  501SOL    HW2 2403   2.807   5.523   0.589
  502SOL     OW 2404   6.959   3.776   0.203
  502SOL    HW1 2405   6.984   3.867   0.169
  502SOL    HW2 2406   6.866   3.754   0.172
  503SOL     OW 2407   6.220   5.622   6.490
  503SOL    HW1 2408   6.177   5.699   6.539
  503SOL    HW2 2409   6.174   5.537   6.515
  504SOL     OW 2410   1.678   5.622   2.806
  504SOL    HW1 2411   1.720   5.712   2.795
  504SOL    HW2 2412   1.624   5.601   2.724
  505SOL     OW 2413   2.799   6.379   5.146
  505SOL    HW1 2414   2.735   6.456   5.149
  505SOL    HW2 2415   2.864   6.394   5.071
  506SOL     OW 2416   1.774   5.193   4.955
  506SOL    HW1 2417   1.859   5.193   5.007
  506SOL    HW2 2418   1.706   5.249   5.001
  507SOL     OW 2419   3.499   6.669   3.238
  507SOL    HW1 2420   3.511   6.767   3.222
  507SOL    HW2 2421   3.522   6.646   3.332
  508SOL     OW 2422   7.008   3.838   2.219
  508SOL    HW1 2423   0.013   3.770   2.288
  508SOL    HW2 2424   6.981   3.923   2.265
  509SOL     OW 2425   3.178   0.939   1.694
  509SOL    HW1 2426   3.237   0.859   1.683
  509SOL    HW2 2427   3.108   0.920   1.763
  510SOL     OW 2428   6.091   4.678   0.103
  510SOL    HW1 2429   6.158   4.614   0.065
  510SOL    HW2 2430   6.046   4.728   0.029
  511SOL     OW 2431   0.696   1.138   5.747
  511SOL    HW1 2432   0.611   1.178   5.713
  511SOL    HW2 2433   0.676   1.051   5.792
  512SOL     OW 2434   6.429   2.521   6.954
  512SOL    HW1 2435   6.341   2.556   6.922
  512SOL    HW2 2436   6.476   2.590   7.008
  513SOL     OW 2437   6.242   6.288   3.395
  513SOL    HW1 2438   6.263   6.384   3.381
  513SOL    HW2 2439   6.152   6.267   3.355
  514SOL     OW 2440   6.461   2.475   3.955
  514SOL    HW1 2441   6.426   2.558   3.998
  514SOL    HW2 2442   6.407   2.396   3.985
  515SOL     OW 2443   1.500   0.960   6.970
  515SOL    HW1 2444   1.530   0.895   0.019
  515SOL    HW2 2445   1.551   1.046   6.980
  516SOL     OW 2446   2.581   4.859   1.697
  516SOL    HW1 2447   2.616   4.765   1.689
  516SOL    HW2 2448   2.556   4.877   1.792
  517SOL     OW 2449   4.720   5.402   2.459
  517SOL    HW1 2450   4.757   5.318   2.418
  517SOL    HW2 2451   4.688   5.382   2.551
  518SOL     OW 2452   2.466   2.608   2.864
  518SOL    HW1 2453   2.404   2.547   2.815
  518SOL    HW2 2454   2.552   2.560   2.883
  519SOL     OW 2455   0.773   0.917   4.677
  519SOL    HW1 2456   0.834   0.889   4.603
  519SOL    HW2 2457   0.821   0.981   4.737
  520SOL     OW 2458   6.341   4.508   7.005
  520SOL    HW1 2459   6.277   4.552   6.943
  520SOL    HW2 2460   6.367   4.419   6.969
  521SOL     OW 2461   6.713   3.866   5.406
  521SOL    HW1 2462   6.670   3.908   5.486
  521SOL    HW2 2463   6.776   3.795   5.435
  522SOL     OW 2464   3.430   3.022   5.041
  522SOL    HW1 2465   3.422   3.032   4.942
  522SOL    HW2 2466   3.358   2.960   5.074
  523SOL     OW 2467   0.447   5.252   1.580
  523SOL    HW1 2468   0.437   5.351   1.587
  523SOL    HW2 2469   0.384   5.207   1.644
  524SOL     OW 2470   0.133   1.353   1.160
  524SOL    HW1 2471   0.200   1.278   1.169
  524SOL    HW2 2472   0.041   1.315   1.157
  525SOL     OW 2473   1.735   3.408   6.372
  525SOL    HW1 2474   1.815   3.370   6.324
  525SOL    HW2 2475   1.658   3.345   6.363
  526SOL     OW 2476   4.504   5.923   4.433
  526SOL    HW1 2477   4.505   5.957   4.527
  526SOL    HW2 2478   4.442   5.845   4.426
  527SOL     OW 2479   6.507   2.752   0.062
  527SOL    HW1 2480   6.574   2.752   0.135
  527SOL    HW2 2481   6.546   2.796   7.002
  528SOL     OW 2482   1.025   1.279   3.458
  528SOL    HW1 2483   1.101   1.302   3.518
  528SOL    HW2 2484   1.014   1.350   3.389
  529SOL     OW 2485   1.303   6.654   3.719
  529SOL    HW1 2486   1.332   6.643   3.624
  529SOL    HW2 2487   1.239   6.581   3.743
  530SOL     OW 2488   3.468   3.020   4.768
  530SOL    HW1 2489   3.557   2.985   4.739
  530SOL    HW2 2490   3.471   3.120   4.767
  531SOL     OW 2491   0.473   0.754   2.777
  531SOL    HW1 2492   0.564   0.714   2.770
  531SOL    HW2 2493   0.414   0.718   2.705
  532SOL     OW 2494   1.463   2.401   0.104
  532SOL    HW1 2495   1.419   2.389   0.192
  532SOL    HW2 2496   1.410   2.464   0.048
  533SOL     OW 2497   4.690   0.177   3.663
  533SOL    HW1 2498   4.786   0.153   3.651
  533SOL    HW2 2499   4.651   0.205   3.575
  534SOL     OW 2500   5.032   6.017   2.660
  534SOL    HW1 2501   5.126   6.046   2.643
  534SOL    HW2 2502   4.972   6.097   2.662
  535SOL     OW 2503   0.938   3.858   4.686
  535SOL    HW1 2504   0.872   3.905   4.744
  535SOL    HW2 2505   0.929   3.759   4.697
  536SOL     OW 2506   6.776   5.251   1.714
  536SOL    HW1 2507   6.685   5.226   1.679
  536SOL    HW2 2508   6.803   5.186   1.785
  537SOL     OW 2509   2.054   6.511   3.953
  537SOL    HW1 2510   1.997   6.589   3.930
  537SOL    HW2 2511   1.997   6.429   3.959
  538SOL     OW 2512   1.124   4.204   2.416
  538SOL    HW1 2513   1.218   4.224   2.441
  538SOL    HW2 2514   1.086   4.280   2.364
  539SOL     OW 2515   0.938   6.628   0.871
  539SOL    HW1 2516   0.881   6.654   0.948
  539SOL    HW2 2517   0.996   6.705   0.843
  540SOL     OW 2518   0.986   0.465   2.650
  540SOL    HW1 2519   1.069   0.484   2.596
  540SOL    HW2 2520   0.925   0.406   2.598
  541SOL     OW 2521   4.197   6.192   4.086
  541SOL    HW1 2522   4.282   6.244   4.088
  541SOL    HW2 2523   4.120   6.253   4.073
  542SOL     OW 2524   6.591   0.290   0.115
  542SOL    HW1 2525   6.618   0.327   0.203
  542SOL    HW2 2526   6.639   0.203   0.099
  543SOL     OW 2527   1.718   4.447   5.698
  543SOL    HW1 2528   1.800   4.493   5.663
  543SOL    HW2 2529   1.701   4.364   5.645
  544SOL     OW 2530   2.675   4.033   0.406
  544SOL    HW1 2531   2.767   3.995   0.393
  544SOL    HW2 2532   2.607   3.966   0.378
  545SOL     OW 2533   2.596   0.315   2.690
  545SOL    HW1 2534   2.525   0.385   2.677
  545SOL    HW2 2535   2.565   0.249   2.758
  546SOL     OW 2536   1.864   3.442   0.863
  546SOL    HW1 2537   1.951   3.440   0.813
  546SOL    HW2 2538   1.789   3.423   0.800
  547SOL     OW 2539   3.089   1.519   6.971
  547SOL    HW1 2540   3.177   1.482   6.941
  547SOL    HW2 2541   3.061   1.474   0.035
  548SOL     OW 2542   3.743   3.024   2.684
  548SOL    HW1 2543   3.668   3.004   2.621
  548SOL    HW2 2544   3.775   2.940   2.727
  549SOL     OW 2545   4.651   3.489   1.339
  549SOL    HW1 2546   4.701   3.455   1.419
  549SOL    HW2 2547   4.715   3.504   1.264
  550SOL     OW 2548   6.046   4.300   3.628
  550SOL    HW1 2549   6.023   4.274   3.534
  550SOL    HW2 2550   6.053   4.400   3.634
  551SOL     OW 2551   1.002   0.567   1.394
  551SOL    HW1 2552   1.053   0.489   1.356
  551SOL    HW2 2553   1.053   0.607   1.470
  552SOL     OW 2554   4.804   4.725   6.964
  552SOL    HW1 2555   4.726   4.763   6.914
  552SOL    HW2 2556   4.868   4.684   6.899
  553SOL     OW 2557   1.866   6.402   2.013
  553SOL    HW1 2558   1.822   6.340   2.078
  553SOL    HW2 2559   1.831   6.495   2.027
  554SOL     OW 2560   5.462   6.878   5.444
  554SOL    HW1 2561   5.535   6.846   5.384
  554SOL    HW2 2562   5.477   6.843   5.537
  555SOL     OW 2563   2.233   5.381   2.731
  555SOL    HW1 2564   2.164   5.341   2.670
  555SOL    HW2 2565   2.324   5.368   2.692
  556SOL     OW 2566   5.362   2.580   3.531
  556SOL    HW1 2567   5.309   2.618   3.607
  556SOL    HW2 2568   5.381   2.653   3.464
  557SOL     OW 2569   0.534   4.828   0.308
  557SOL    HW1 2570   0.532   4.731   0.331
  557SOL    HW2 2571   0.628   4.861   0.307
  558SOL     OW 2572   3.082   3.437   4.447
  558SOL    HW1 2573   3.043   3.377   4.518
  558SOL    HW2 2574   3.150   3.498   4.489
  559SOL     OW 2575   6.604   5.628   6.674
  559SOL    HW1 2576   6.698   5.607   6.649
  559SOL    HW2 2577   6.603   5.708   6.734
  560SOL     OW 2578   4.429   5.612   0.531
  560SOL    HW1 2579   4.344   5.583   0.487
  560SOL    HW2 2580   4.506   5.569   0.485
  561SOL     OW 2581   6.015   1.032   0.422
  561SOL    HW1 2582   6.033   1.008   0.327
  561SOL    HW2 2583   6.099   1.023   0.475
  562SOL     OW 2584   5.043   0.510   5.981
  562SOL    HW1 2585   5.032   0.411   5.989
  562SOL    HW2 2586   5.106   0.543   6.051
  563SOL     OW 2587   2.149   0.224   2.854
  563SOL    HW1 2588   2.184   0.211   2.761
  563SOL    HW2 2589   2.109   0.138   2.886
  564SOL     OW 2590   2.978   1.954   6.663
  564SOL    HW1 2591   3.043   2.004   6.720
  564SOL    HW2 2592   2.893   2.006   6.657
  565SOL     OW 2593   3.872   3.121   5.835
  565SOL    HW1 2594   3.808   3.080   5.901
  565SOL    HW2 2595   3.920   3.050   5.785
  566SOL     OW 2596   5.968   4.273   4.493
  566SOL    HW1 2597   5.906   4.337   4.447
  566SOL    HW2 2598   6.051   4.321   4.521
  567SOL     OW 2599   3.756   4.018   2.475
  567SOL    HW1 2600   3.832   4.029   2.410
  567SOL    HW2 2601   3.683   3.965   2.431
  568SOL     OW 2602   3.660   2.331   0.344
  568SOL    HW1 2603   3.710   2.402   0.294
  568SOL    HW2 2604   3.572   2.367   0.373
  569SOL     OW 2605   1.522   3.382   6.916
  569SOL    HW1 2606   1.608   3.376   6.865
  569SOL    HW2 2607   1.542   3.383   7.014
  570SOL     OW 2608   2.185   6.195   6.438
  570SOL    HW1 2609   2.224   6.121   6.493
  570SOL    HW2 2610   2.144   6.264   6.497
  571SOL     OW 2611   2.857   0.070   2.851
  571SOL    HW1 2612   2.776   0.101   2.800
  571SOL    HW2 2613   2.938   0.117   2.816
  572SOL     OW 2614   2.384   4.943   6.076
  572SOL    HW1 2615   2.360   4.851   6.045
  572SOL    HW2 2616   2.451   4.983   6.013
  573SOL     OW 2617   4.858   1.228   5.356
  573SOL    HW1 2618   4.917   1.147   5.356
  573SOL    HW2 2619   4.765   1.201   5.382
  574SOL     OW 2620   2.795   2.191   3.792
  574SOL    HW1 2621   2.871   2.138   3.754
  574SOL    HW2 2622   2.715   2.132   3.801
  575SOL     OW 2623   6.118   2.974   0.414
  575SOL    HW1 2624   6.110   3.020   0.502
  575SOL    HW2 2625   6.182   3.025   0.356
  576SOL     OW 2626   1.171   2.121   2.709
  576SOL    HW1 2627   1.268   2.105   2.729
  576SOL    HW2 2628   1.161   2.214   2.672
  577SOL     OW 2629   1.963   1.155   3.388
  577SOL    HW1 2630   1.945   1.067   3.344
  577SOL    HW2 2631   1.994   1.220   3.319
  578SOL     OW 2632   6.586   4.308   3.140
  578SOL    HW1 2633   6.606   4.223   3.188
  578SOL    HW2 2634   6.641   4.313   3.056
  579SOL     OW 2635   2.134   3.477   1.573
  579SOL    HW1 2636   2.207   3.509   1.512
  579SOL    HW2 2637   2.046   3.484   1.526
  580SOL     OW 2638   0.417   4.820   6.723
  580SOL    HW1 2639   0.459   4.731   6.705
  580SOL    HW2 2640   0.413   4.836   6.821
  581SOL     OW 2641   3.217   3.574   2.050
  581SOL    HW1 2642   3.260   3.486   2.027
  581SOL    HW2 2643   3.133   3.585   1.997
  582SOL     OW 2644   5.926   4.973   2.354
  582SOL    HW1 2645   5.968   5.061   2.373
  582SOL    HW2 2646   5.984   4.900   2.390
  583SOL     OW 2647   2.495   5.653   6.180
  583SOL    HW1 2648   2.412   5.701   6.151
  583SOL    HW2 2649   2.542   5.617   6.099
  584SOL     OW 2650   1.477   4.339   6.355
  584SOL    HW1 2651   1.529   4.255   6.368
  584SOL    HW2 2652   1.515   4.390   6.278
  585SOL     OW 2653   5.741   2.756   6.039
  585SOL    HW1 2654   5.754   2.692   5.963
  585SOL    HW2 2655   5.774   2.847   6.011
  586SOL     OW 2656   3.382   0.694   6.226
  586SOL    HW1 2657   3.300   0.641   6.249
  586SOL    HW2 2658   3.360   0.791   6.230
  587SOL     OW 2659   2.487   2.509   4.655
  587SOL    HW1 2660   2.553   2.490   4.728
  587SOL    HW2 2661   2.400   2.535   4.695
  588SOL     OW 2662   2.251   5.056   0.611
  588SOL    HW1 2663   2.155   5.073   0.631
  588SOL    HW2 2664   2.296   5.017   0.691
  589SOL     OW 2665   3.679   5.423   1.634
  589SOL    HW1 2666   3.626   5.475   1.702
  589SOL    HW2 2667   3.636   5.333   1.621
  590SOL     OW 2668   5.766   2.862   1.342
  590SOL    HW1 2669   5.742   2.767   1.320
  590SOL    HW2 2670   5.719   2.889   1.426
  591SOL     OW 2671   4.168   5.915   3.916
  591SOL    HW1 2672   4.254   5.909   3.965
  591SOL    HW2 2673   4.184   5.948   3.823
  592SOL     OW 2674   3.966   0.419   1.408
  592SOL    HW1 2675   3.960   0.394   1.311
  592SOL    HW2 2676   3.923   0.347   1.463
  593SOL     OW 2677   4.975   2.433   3.645
  593SOL    HW1 2678   5.060   2.474   3.680
  593SOL    HW2 2679   4.969   2.339   3.677
  594SOL     OW 2680   4.712   2.024   6.527
  594SOL    HW1 2681   4.657   1.970   6.463
  594SOL    HW2 2682   4.664   2.109   6.549
  595SOL     OW 2683   5.400   0.257   3.600
  595SOL    HW1 2684   5.492   0.277   3.633
  595SOL    HW2 2685   5.382   0.309   3.517
  596SOL     OW 2686   1.564   4.031   2.078
  596SOL    HW1 2687   1.502   4.096   2.035
  596SOL    HW2 2688   1.620   3.987   2.009
  597SOL     OW 2689   4.308   6.858   5.782
  597SOL    HW1 2690   4.347   6.767   5.792
  597SOL    HW2 2691   4.252   6.880   5.862
  598SOL     OW 2692   3.421   3.802   6.848
  598SOL    HW1 2693   3.327   3.791   6.815
  598SOL    HW2 2694   3.422   3.792   6.948
  599SOL     OW 2695   2.080   6.603   2.942
  599SOL    HW1 2696   2.118   6.595   2.850
  599SOL    HW2 2697   2.154   6.611   3.008
  600SOL     OW 2698   1.030   0.870   1.058
  600SOL    HW1 2699   0.970   0.937   1.015
  600SOL    HW2 2700   0.976   0.792   1.088
  601SOL     OW 2701   3.423   6.630   4.336
  601SOL    HW1 2702   3.441   6.567   4.260
  601SOL    HW2 2703   3.468   6.595   4.418
  602SOL     OW 2704   1.267   2.682   0.289
  602SOL    HW1 2705   1.211   2.765   0.298
  602SOL    HW2 2706   1.358   2.699   0.327
  603SOL     OW 2707   4.221   1.782   3.526
  603SOL    HW1 2708   4.311   1.804   3.487
  603SOL    HW2 2709   4.168   1.730   3.459
  604SOL     OW 2710   0.727   3.748   1.454
  604SOL    HW1 2711   0.743   3.682   1.527
  604SOL    HW2 2712   0.814   3.774   1.413
  605SOL     OW 2713   0.094   5.547   3.301
  605SOL    HW1 2714   0.090   5.458   3.346
  605SOL    HW2 2715   0.002   5.584   3.293
  606SOL     OW 2716   4.994   0.253   5.956
  606SOL    HW1 2717   5.007   0.155   5.972
  606SOL    HW2 2718   4.899   0.278   5.971
  607SOL     OW 2719   5.179   0.675   5.676
  607SOL    HW1 2720   5.159   0.707   5.768
  607SOL    HW2 2721   5.249   0.603   5.681
  608SOL     OW 2722   4.182   6.270   6.998
  608SOL    HW1 2723   4.126   6.353   6.993
  608SOL    HW2 2724   4.151   6.213   0.054
  609SOL     OW 2725   3.458   3.252   3.844
  609SOL    HW1 2726   3.394   3.183   3.879
  609SOL    HW2 2727   3.521   3.210   3.779
  610SOL     OW 2728   5.357   2.426   2.156
  610SOL    HW1 2729   5.309   2.404   2.241
  610SOL    HW2 2730   5.449   2.387   2.158
  611SOL     OW 2731   1.653   0.188   6.439
  611SOL    HW1 2732   1.746   0.223   6.448
  611SOL    HW2 2733   1.602   0.245   6.374
  612SOL     OW 2734   3.939   6.033   5.811
  612SOL    HW1 2735   4.001   6.036   5.890
  612SOL    HW2 2736   3.937   5.940   5.775
  613SOL     OW 2737   4.205   6.750   5.528
  613SOL    HW1 2738   4.203   6.810   5.608
  613SOL    HW2 2739   4.279   6.683   5.538
  614SOL     OW 2740   6.016   4.246   0.946
  614SOL    HW1 2741   6.007   4.147   0.932
  614SOL    HW2 2742   6.044   4.265   1.040
  615SOL     OW 2743   0.723   1.836   0.980
  615SOL    HW1 2744   0.779   1.755   0.958
  615SOL    HW2 2745   0.725   1.900   0.903
  616SOL     OW 2746   6.278   1.718   2.676
  616SOL    HW1 2747   6.316   1.670   2.597
  616SOL    HW2 2748   6.178   1.712   2.673
  617SOL     OW 2749   0.001   3.331   6.756
  617SOL    HW1 2750   6.995   3.418   6.715
  617SOL    HW2 2751   6.976   3.256   6.708
  618SOL     OW 2752   6.621   3.207   0.610
  618SOL    HW1 2753   6.541   3.209   0.551
  618SOL    HW2 2754   6.691   3.269   0.574
  619SOL     OW 2755   4.159   6.896   0.092
  619SOL    HW1 2756   4.257   6.877   0.089
  619SOL    HW2 2757   4.138   6.972   0.032
  620SOL     OW 2758   5.770   2.727   0.910
  620SOL    HW1 2759   5.744   2.792   0.837
  620SOL    HW2 2760   5.865   2.700   0.897
  621SOL     OW 2761   1.548   0.248   5.460
  621SOL    HW1 2762   1.572   0.158   5.496
  621SOL    HW2 2763   1.448   0.257   5.456
  622SOL     OW 2764   0.479   1.723   4.926
  622SOL    HW1 2765   0.562   1.682   4.888
  622SOL    HW2 2766   0.488   1.731   5.025
  623SOL     OW 2767   0.366   6.364   5.446
  623SOL    HW1 2768   0.396   6.271   5.467
  623SOL    HW2 2769   0.287   6.388   5.504
  624SOL     OW 2770   6.440   0.828   0.610
  624SOL    HW1 2771   6.356   0.863   0.652
  624SOL    HW2 2772   6.438   0.728   0.611
  625SOL     OW 2773   1.583   2.327   1.140
  625SOL    HW1 2774   1.543   2.413   1.106
  625SOL    HW2 2775   1.518   2.283   1.203
  626SOL     OW 2776   0.471   6.007   2.781
  626SOL    HW1 2777   0.483   5.968   2.873
  626SOL    HW2 2778   0.381   6.048   2.774
  627SOL     OW 2779   6.499   6.486   0.788
  627SOL    HW1 2780   6.560   6.475   0.866
  627SOL    HW2 2781   6.511   6.409   0.725
  628SOL     OW 2782   5.728   3.968   5.198
  628SOL    HW1 2783   5.763   3.988   5.106
  628SOL    HW2 2784   5.688   3.876   5.198
  629SOL     OW 2785   0.681   1.344   6.819
  629SOL    HW1 2786   0.724   1.432   6.800
  629SOL    HW2 2787   0.612   1.324   6.750
  630SOL     OW 2788   0.414   2.415   0.734
  630SOL    HW1 2789   0.476   2.346   0.772
  630SOL    HW2 2790   0.464   2.471   0.668
  631SOL     OW 2791   3.949   1.528   4.500
  631SOL    HW1 2792   3.939   1.622   4.469
  631SOL    HW2 2793   4.024   1.522   4.567
  632SOL     OW 2794   4.824   2.350   0.351
  632SOL    HW1 2795   4.764   2.430   0.343
  632SOL    HW2 2796   4.913   2.379   0.386
  633SOL     OW 2797   3.356   4.318   6.933
  633SOL    HW1 2798   3.382   4.318   6.836
  633SOL    HW2 2799   3.339   4.412   6.963
  634SOL     OW 2800   3.338   3.643   2.703
  634SOL    HW1 2801   3.428   3.684   2.694
  634SOL    HW2 2802   3.347   3.544   2.717
  635SOL     OW 2803   4.581   6.460   0.056
  635SOL    HW1 2804   4.681   6.460   0.046
  635SOL    HW2 2805   4.557   6.459   0.153
  636SOL     OW 2806   2.871   6.851   6.033
  636SOL    HW1 2807   2.869   6.829   6.130
  636SOL    HW2 2808   2.778   6.862   5.999
  637SOL     OW 2809   6.900   2.773   2.503
  637SOL    HW1 2810   6.965   2.797   2.432
  637SOL    HW2 2811   6.888   2.673   2.505
  638SOL     OW 2812   5.730   3.812   3.665
  638SOL    HW1 2813   5.743   3.734   3.726
  638SOL    HW2 2814   5.816   3.862   3.657
  639SOL     OW 2815   4.921   4.550   2.943
  639SOL    HW1 2816   4.825   4.580   2.942
  639SOL    HW2 2817   4.946   4.520   2.851
  640SOL     OW 2818   6.797   4.708   2.970
  640SOL    HW1 2819   6.725   4.702   2.901
  640SOL    HW2 2820   6.883   4.677   2.930
  641SOL     OW 2821   0.898   4.772   4.847
  641SOL    HW1 2822   0.943   4.793   4.760
  641SOL    HW2 2823   0.904   4.674   4.866
  642SOL     OW 2824   1.422   3.079   4.565
  642SOL    HW1 2825   1.429   2.984   4.595
  642SOL    HW2 2826   1.390   3.135   4.641
  643SOL     OW 2827   6.215   0.585   6.693
  643SOL    HW1 2828   6.171   0.606   6.781
  643SOL    HW2 2829   6.298   0.639   6.684
  644SOL     OW 2830   1.062   0.416   4.933
  644SOL    HW1 2831   0.993   0.345   4.943
  644SOL    HW2 2832   1.132   0.405   5.003
  645SOL     OW 2833   3.324   5.733   4.310
  645SOL    HW1 2834   3.287   5.640   4.306
  645SOL    HW2 2835   3.340   5.759   4.405
  646SOL     OW 2836   3.622   0.409   4.882
  646SOL    HW1 2837   3.529   0.443   4.895
  646SOL    HW2 2838   3.632   0.370   4.791
  647SOL     OW 2839   5.796   2.067   4.667
  647SOL    HW1 2840   5.772   2.140   4.730
  647SOL    HW2 2841   5.889   2.083   4.632
  648SOL     OW 2842   6.464   4.105   3.519
  648SOL    HW1 2843   6.390   4.142   3.462
  648SOL    HW2 2844   6.497   4.176   3.580
  649SOL     OW 2845   2.301   3.587   0.560
  649SOL    HW1 2846   2.225   3.523   0.564
  649SOL    HW2 2847   2.385   3.542   0.592
  650SOL     OW 2848   6.359   5.012   0.513
  650SOL    HW1 2849   6.396   5.025   0.605
  650SOL    HW2 2850   6.326   4.918   0.503
  651SOL     OW 2851   1.526   0.723   5.930
  651SOL    HW1 2852   1.474   0.667   5.995
  651SOL    HW2 2853   1.463   0.783   5.880
  652SOL     OW 2854   4.598   6.863   2.826
  652SOL    HW1 2855   4.615   6.765   2.815
  652SOL    HW2 2856   4.682   6.914   2.803
  653SOL     OW 2857   0.356   6.268   0.230
  653SOL    HW1 2858   0.283   6.219   0.182
  653SOL    HW2 2859   0.344   6.366   0.217
  654SOL     OW 2860   0.300   6.513   6.323
  654SOL    HW1 2861   0.282   6.604   6.361
  654SOL    HW2 2862   0.398   6.493   6.330
  655SOL     OW 2863   6.557   5.461   1.929
  655SOL    HW1 2864   6.486   5.391   1.933
  655SOL    HW2 2865   6.525   5.538   1.874
  656SOL     OW 2866   2.015   6.478   0.136
  656SOL    HW1 2867   1.982   6.477   0.042
  656SOL    HW2 2868   1.947   6.433   0.195
  657SOL     OW 2869   2.948   4.437   0.882
  657SOL    HW1 2870   2.884   4.500   0.925
  657SOL    HW2 2871   2.950   4.351   0.933
  658SOL     OW 2872   1.449   3.947   5.356
  658SOL    HW1 2873   1.363   3.903   5.329
  658SOL    HW2 2874   1.512   3.948   5.279
  659SOL     OW 2875   2.612   6.424   4.861
  659SOL    HW1 2876   2.703   6.383   4.864
  659SOL    HW2 2877   2.544   6.358   4.895
  660SOL     OW 2878   4.661   4.719   2.973
  660SOL    HW1 2879   4.704   4.785   3.036
  660SOL    HW2 2880   4.653   4.761   2.883
  661SOL     OW 2881   4.889   3.821   4.534
  661SOL    HW1 2882   4.886   3.825   4.434
  661SOL    HW2 2883   4.884   3.726   4.564
  662SOL     OW 2884   4.467   0.769   5.703
  662SOL    HW1 2885   4.486   0.728   5.792
  662SOL    HW2 2886   4.546   0.824   5.674
  663SOL     OW 2887   0.276   4.334   0.448
  663SOL    HW1 2888   0.269   4.356   0.350
  663SOL    HW2 2889   0.212   4.261   0.470
  664SOL     OW 2890   1.665   5.719   6.607
  664SOL    HW1 2891   1.621   5.748   6.523
  664SOL    HW2 2892   1.610   5.649   6.652
  665SOL     OW 2893   4.150   5.371   0.759
  665SOL    HW1 2894   4.158   5.418   0.847
  665SOL    HW2 2895   4.135   5.274   0.774
  666SOL     OW 2896   4.545   2.385   1.083
  666SOL    HW1 2897   4.579   2.435   1.004
  666SOL    HW2 2898   4.451   2.354   1.065
  667SOL     OW 2899   6.842   3.984   4.101
  667SOL    HW1 2900   6.914   4.053   4.102
  667SOL    HW2 2901   6.879   3.898   4.067
  668SOL     OW 2902   4.942   5.820   6.672
  668SOL    HW1 2903   4.845   5.844   6.680
  668SOL    HW2 2904   4.997   5.901   6.692
  669SOL     OW 2905   3.043   5.990   2.873
  669SOL    HW1 2906   3.078   5.952   2.787
  669SOL    HW2 2907   3.105   6.062   2.905
  670SOL     OW 2908   3.182   2.857   1.650
  670SOL    HW1 2909   3.110   2.789   1.665
  670SOL    HW2 2910   3.165   2.936   1.709
  671SOL     OW 2911   2.504   6.045   6.931
  671SOL    HW1 2912   2.502   5.958   6.881
  671SOL    HW2 2913   2.410   6.078   6.943
  672SOL     OW 2914   0.653   4.216   2.016
  672SOL    HW1 2915   0.614   4.182   1.931
  672SOL    HW2 2916   0.661   4.316   2.011
  673SOL     OW 2917   5.283   0.238   1.025
  673SOL    HW1 2918   5.232   0.161   0.985
  673SOL    HW2 2919   5.225   0.286   1.090
  674SOL     OW 2920   6.503   3.272   4.259
  674SOL    HW1 2921   6.408   3.263   4.288
  674SOL    HW2 2922   6.518   3.365   4.224
  675SOL     OW 2923   0.258   0.923   5.205
  675SOL    HW1 2924   0.355   0.914   5.229
  675SOL    HW2 2925   0.236   0.857   5.132
  676SOL     OW 2926   3.125   4.923   3.334
  676SOL    HW1 2927   3.088   4.931   3.242
  676SOL    HW2 2928   3.225   4.920   3.330
  677SOL     OW 2929   5.920   1.180   6.128
  677SOL    HW1 2930   5.822   1.200   6.131
  677SOL    HW2 2931   5.971   1.265   6.113
  678SOL     OW 2932   1.521   1.470   5.330
  678SOL    HW1 2933   1.609   1.452   5.373
  678SOL    HW2 2934   1.524   1.559   5.284
  679SOL     OW 2935   4.795   1.525   4.122
  679SOL    HW1 2936   4.762   1.452   4.181
  679SOL    HW2 2937   4.820   1.604   4.179
  680SOL     OW 2938   5.736   5.326   6.023
  680SOL    HW1 2939   5.653   5.382   6.030
  680SOL    HW2 2940   5.712   5.230   6.039
  681SOL     OW 2941   6.276   0.356   1.060
  681SOL    HW1 2942   6.256   0.270   1.013
  681SOL    HW2 2943   6.363   0.393   1.027
  682SOL     OW 2944   1.661   6.736   6.844
  682SOL    HW1 2945   1.696   6.828   6.825
  682SOL    HW2 2946   1.665   6.681   6.760
  683SOL     OW 2947   3.639   0.780   6.177
  683SOL    HW1 2948   3.548   0.738   6.177
  683SOL    HW2 2949   3.630   0.878   6.157
  684SOL     OW 2950   6.096   1.050   6.283
  684SOL    HW1 2951   6.041   1.098   6.214
  684SOL    HW2 2952   6.120   1.114   6.356
  685SOL     OW 2953   4.964   6.433   5.282
  685SOL    HW1 2954   4.874   6.447   5.240
  685SOL    HW2 2955   5.005   6.521   5.303
  686SOL     OW 2956   5.653   3.244   2.857
  686SOL    HW1 2957   5.596   3.318   2.892
  686SOL    HW2 2958   5.611   3.206   2.775
  687SOL     OW 2959   6.772   2.651   5.027
  687SOL    HW1 2960   6.720   2.634   5.111
  687SOL    HW2 2961   6.852   2.707   5.049
  688SOL     OW 2962   1.669   3.420   0.692
  688SOL    HW1 2963   1.611   3.497   0.665
  688SOL    HW2 2964   1.612   3.347   0.730
  689SOL     OW 2965   0.863   4.293   5.494
  689SOL    HW1 2966   0.871   4.248   5.405
  689SOL    HW2 2967   0.914   4.378   5.493
  690SOL     OW 2968   0.758   3.140   3.578
  690SOL    HW1 2969   0.675   3.127   3.525
  690SOL    HW2 2970   0.837   3.139   3.517
  691SOL     OW 2971   2.284   1.560   6.572
  691SOL    HW1 2972   2.342   1.623   6.624
  691SOL    HW2 2973   2.188   1.578   6.594
  692SOL     OW 2974   3.413   6.384   3.649
  692SOL    HW1 2975   3.507   6.398   3.680
  692SOL    HW2 2976   3.354   6.456   3.686
  693SOL     OW 2977   6.542   1.667   2.817
  693SOL    HW1 2978   6.545   1.662   2.718
  693SOL    HW2 2979   6.470   1.730   2.846
  694SOL     OW 2980   3.094   6.143   2.404
  694SOL    HW1 2981   3.184   6.103   2.385
  694SOL    HW2 2982   3.098   6.196   2.489
  695SOL     OW 2983   4.346   5.046   6.240
  695SOL    HW1 2984   4.269   5.011   6.294
  695SOL    HW2 2985   4.431   5.029   6.288
  696SOL     OW 2986   3.291   5.293   1.828
  696SOL    HW1 2987   3.315   5.271   1.923
  696SOL    HW2 2988   3.248   5.213   1.786
  697SOL     OW 2989   1.591   2.549   4.517
  697SOL    HW1 2990   1.560   2.532   4.610
  697SOL    HW2 2991   1.606   2.647   4.504
  698SOL     OW 2992   5.598   7.014   5.934
  698SOL    HW1 2993   5.531   0.058   5.972
  698SOL    HW2 2994   5.690   0.030   5.946
  699SOL     OW 2995   0.636   3.953   0.249
  699SOL    HW1 2996   0.644   4.041   0.295
  699SOL    HW2 2997   0.672   3.881   0.308
  700SOL     OW 2998   3.279   1.813   3.985
  700SOL    HW1 2999   3.366   1.775   4.017
  700SOL    HW2 3000   3.286   1.913   3.982
  701SOL     OW 3001   0.066   3.946   5.525
  701SOL    HW1 3002   0.002   3.967   5.452
  701SOL    HW2 3003   0.135   4.018   5.532
  702SOL     OW 3004   5.680   6.076   5.621
  702SOL    HW1 3005   5.702   6.160   5.671
  702SOL    HW2 3006   5.744   6.004   5.648
  703SOL     OW 3007   4.123   3.861   6.630
  703SOL    HW1 3008   4.123   3.879   6.728
  703SOL    HW2 3009   4.081   3.938   6.582
  704SOL     OW 3010   1.659   1.870   6.390
  704SOL    HW1 3011   1.702   1.782   6.372
  704SOL    HW2 3012   1.726   1.933   6.430
  705SOL     OW 3013   5.247   0.031   3.696
  705SOL    HW1 3014   5.300   0.111   3.669
  705SOL    HW2 3015   5.309   6.984   3.736
  706SOL     OW 3016   4.305   2.061   3.312
  706SOL    HW1 3017   4.207   2.072   3.298
  706SOL    HW2 3018   4.325   2.064   3.410
  707SOL     OW 3019   4.334   0.583   2.587
  707SOL    HW1 3020   4.344   0.485   2.572
  707SOL    HW2 3021   4.370   0.633   2.508
  708SOL     OW 3022   4.256   0.363   1.478
  708SOL    HW1 3023   4.165   0.379   1.441
  708SOL    HW2 3024   4.308   0.449   1.476
  709SOL     OW 3025   1.319   5.489   0.416
  709SOL    HW1 3026   1.352   5.551   0.345
  709SOL    HW2 3027   1.314   5.396   0.379
  710SOL     OW 3028   4.032   3.057   2.352
  710SOL    HW1 3029   4.126   3.072   2.322
  710SOL    HW2 3030   4.031   3.039   2.451
  711SOL     OW 3031   0.728   1.662   5.928
  711SOL    HW1 3032   0.745   1.585   5.988
  711SOL    HW2 3033   0.800   1.730   5.939
  712SOL     OW 3034   2.340   4.146   0.438
  712SOL    HW1 3035   2.316   4.202   0.517
  712SOL    HW2 3036   2.377   4.059   0.470
  713SOL     OW 3037   3.135   3.196   0.174
  713SOL    HW1 3038   3.111   3.279   0.123
  713SOL    HW2 3039   3.158   3.221   0.268
  714SOL     OW 3040   6.746   5.340   5.146
  714SOL    HW1 3041   6.684   5.353   5.224
  714SOL    HW2 3042   6.694   5.307   5.067
  715SOL     OW 3043   5.455   5.914   0.787
  715SOL    HW1 3044   5.530   5.976   0.767
  715SOL    HW2 3045   5.399   5.951   0.860
  716SOL     OW 3046   1.031   6.898   0.849
  716SOL    HW1 3047   0.971   6.975   0.872
  716SOL    HW2 3048   1.051   6.901   0.751
  717SOL     OW 3049   5.589   5.048   6.144
  717SOL    HW1 3050   5.591   5.012   6.051
  717SOL    HW2 3051   5.497   5.080   6.166
  718SOL     OW 3052   4.538   2.025   5.550
  718SOL    HW1 3053   4.634   2.002   5.566
  718SOL    HW2 3054   4.506   2.083   5.625
  719SOL     OW 3055   6.702   2.550   1.091
  719SOL    HW1 3056   6.739   2.604   1.015
  719SOL    HW2 3057   6.772   2.539   1.161
  720SOL     OW 3058   3.757   1.029   5.912
  720SOL    HW1 3059   3.837   1.003   5.859
  720SOL    HW2 3060   3.683   0.963   5.897
  721SOL     OW 3061   1.745   0.063   4.317
  721SOL    HW1 3062   1.701   7.002   4.355
  721SOL    HW2 3063   1.816   0.095   4.381
  722SOL     OW 3064   2.911   0.062   5.125
  722SOL    HW1 3065   2.855   7.016   5.076
  722SOL    HW2 3066   2.946   0.022   5.209
  723SOL     OW 3067   2.125   3.324   2.628
  723SOL    HW1 3068   2.030   3.340   2.601
  723SOL    HW2 3069   2.149   3.228   2.610
  724SOL     OW 3070   1.401   1.850   4.659
  724SOL    HW1 3071   1.337   1.891   4.724
  724SOL    HW2 3072   1.410   1.910   4.580
  725SOL     OW 3073   2.871   5.371   1.678
  725SOL    HW1 3074   2.816   5.367   1.762
  725SOL    HW2 3075   2.813   5.400   1.602
  726SOL     OW 3076   3.841   4.274   0.984
  726SOL    HW1 3077   3.892   4.320   0.912
  726SOL    HW2 3078   3.837   4.176   0.965
  727SOL     OW 3079   5.084   5.240   5.837
  727SOL    HW1 3080   5.106   5.196   5.750
  727SOL    HW2 3081   5.168   5.261   5.887
  728SOL     OW 3082   0.273   3.463   5.108
  728SOL    HW1 3083   0.181   3.458   5.146
  728SOL    HW2 3084   0.293   3.557   5.081
  729SOL     OW 3085   2.170   1.312   0.352
  729SOL    HW1 3086   2.172   1.233   0.413
  729SOL    HW2 3087   2.124   1.287   0.267
  730SOL     OW 3088   5.828   0.155   3.422
  730SOL    HW1 3089   5.899   0.105   3.373
  730SOL    HW2 3090   5.820   0.247   3.384
  731SOL     OW 3091   5.874   3.887   6.066
  731SOL    HW1 3092   5.974   3.881   6.067
  731SOL    HW2 3093   5.840   3.863   5.975
  732SOL     OW 3094   0.924   3.096   1.032
  732SOL    HW1 3095   0.989   3.162   1.070
  732SOL    HW2 3096   0.831   3.129   1.046
  733SOL     OW 3097   6.004   4.201   4.837
  733SOL    HW1 3098   5.912   4.176   4.809
  733SOL    HW2 3099   6.003   4.291   4.880
  734SOL     OW 3100   6.816   4.459   2.551
  734SOL    HW1 3101   6.777   4.551   2.546
  734SOL    HW2 3102   6.891   4.458   2.617
  735SOL     OW 3103   3.701   3.158   0.819
  735SOL    HW1 3104   3.778   3.131   0.761
  735SOL    HW2 3105   3.643   3.078   0.836
  736SOL     OW 3106   6.626   6.410   2.506
  736SOL    HW1 3107   6.704   6.437   2.450
  736SOL    HW2 3108   6.589   6.491   2.552
  737SOL     OW 3109   4.044   2.146   6.760
  737SOL    HW1 3110   4.081   2.059   6.791
  737SOL    HW2 3111   3.987   2.131   6.679
  738SOL     OW 3112   2.226   4.001   2.266
  738SOL    HW1 3113   2.126   4.001   2.278
  738SOL    HW2 3114   2.254   3.915   2.223
  739SOL     OW 3115   3.932   6.586   4.564
  739SOL    HW1 3116   3.911   6.494   4.597
  739SOL    HW2 3117   3.956   6.583   4.467
  740SOL     OW 3118   4.774   6.479   0.285
  740SOL    HW1 3119   4.786   6.390   0.329
  740SOL    HW2 3120   4.700   6.529   0.331
  741SOL     OW 3121   2.227   6.301   3.386
  741SOL    HW1 3122   2.273   6.276   3.471
  741SOL    HW2 3123   2.226   6.400   3.376
  742SOL     OW 3124   2.472   6.513   1.651
  742SOL    HW1 3125   2.490   6.604   1.614
  742SOL    HW2 3126   2.429   6.457   1.580
  743SOL     OW 3127   1.590   3.867   4.567
  743SOL    HW1 3128   1.641   3.784   4.546
  743SOL    HW2 3129   1.651   3.947   4.562
  744SOL     OW 3130   5.904   6.857   6.090
  744SOL    HW1 3131   5.863   6.897   6.008
  744SOL    HW2 3132   5.915   6.928   6.160
  745SOL     OW 3133   0.938   4.782   4.550
  745SOL    HW1 3134   0.985   4.696   4.570
  745SOL    HW2 3135   0.976   4.822   4.466
  746SOL     OW 3136   0.654   5.139   6.228
  746SOL    HW1 3137   0.632   5.096   6.140
  746SOL    HW2 3138   0.579   5.200   6.254
  747SOL     OW 3139   4.575   5.682   4.976
  747SOL    HW1 3140   4.487   5.682   5.023
  747SOL    HW2 3141   4.637   5.747   5.020
  748SOL     OW 3142   3.616   5.315   2.648
  748SOL    HW1 3143   3.573   5.370   2.577
  748SOL    HW2 3144   3.645   5.374   2.723
  749SOL     OW 3145   6.357   3.782   4.787
  749SOL    HW1 3146   6.321   3.875   4.790
  749SOL    HW2 3147   6.398   3.759   4.875
  750SOL     OW 3148   2.116   2.967   0.777
  750SOL    HW1 3149   2.150   2.894   0.717
  750SOL    HW2 3150   2.194   3.016   0.816
  751SOL     OW 3151   3.933   1.799   6.119
  751SOL    HW1 3152   4.006   1.733   6.104
  751SOL    HW2 3153   3.969   1.892   6.111
  752SOL     OW 3154   4.012   2.384   1.787
  752SOL    HW1 3155   3.953   2.448   1.737
  752SOL    HW2 3156   3.957   2.310   1.825
  753SOL     OW 3157   1.864   3.133   4.299
  753SOL    HW1 3158   1.843   3.160   4.205
  753SOL    HW2 3159   1.790   3.164   4.360
  754SOL     OW 3160   5.531   2.781   6.648
  754SOL    HW1 3161   5.541   2.872   6.608
  754SOL    HW2 3162   5.495   2.718   6.579
  755SOL     OW 3163   1.464   5.667   6.039
  755SOL    HW1 3164   1.419   5.661   6.128
  755SOL    HW2 3165   1.405   5.626   5.969
  756SOL     OW 3166   3.773   6.951   0.978
  756SOL    HW1 3167   3.738   0.014   0.936
  756SOL    HW2 3168   3.772   6.877   0.910
  757SOL     OW 3169   0.066   6.296   3.161
  757SOL    HW1 3170   0.152   6.252   3.136
  757SOL    HW2 3171   7.017   6.227   3.178
  758SOL     OW 3172   3.976   0.645   2.075
  758SOL    HW1 3173   4.030   0.674   1.996
  758SOL    HW2 3174   3.931   0.558   2.053
  759SOL     OW 3175   0.541   0.553   0.572
  759SOL    HW1 3176   0.479   0.474   0.579
  759SOL    HW2 3177   0.572   0.562   0.478
  760SOL     OW 3178   4.412   0.473   6.164
  760SOL    HW1 3179   4.372   0.524   6.240
  760SOL    HW2 3180   4.480   0.529   6.118
  761SOL     OW 3181   5.270   3.716   5.631
  761SOL    HW1 3182   5.258   3.633   5.687
  761SOL    HW2 3183   5.248   3.796   5.686
  762SOL     OW 3184   1.723   0.085   4.982
  762SOL    HW1 3185   1.641   0.091   5.039
  762SOL    HW2 3186   1.702   0.032   4.900
  763SOL     OW 3187   3.830   5.057   6.606
  763SOL    HW1 3188   3.802   5.031   6.514
  763SOL    HW2 3189   3.757   5.034   6.671
  764SOL     OW 3190   4.184   0.546   3.783
  764SOL    HW1 3191   4.118   0.614   3.815
  764SOL    HW2 3192   4.254   0.531   3.854
  765SOL     OW 3193   1.400   5.999   1.624
  765SOL    HW1 3194   1.396   6.073   1.691
  765SOL    HW2 3195   1.417   6.037   1.533
  766SOL     OW 3196   1.017   2.495   0.942
  766SOL    HW1 3197   0.921   2.516   0.958
  766SOL    HW2 3198   1.054   2.445   1.021
  767SOL     OW 3199   6.383   5.617   2.851
  767SOL    HW1 3200   6.354   5.528   2.815
  767SOL    HW2 3201   6.480   5.632   2.827
  768SOL     OW 3202   2.529   6.673   2.519
  768SOL    HW1 3203   2.528   6.619   2.435
  768SOL    HW2 3204   2.588   6.630   2.586
  769SOL     OW 3205   3.454   0.867   4.852
  769SOL    HW1 3206   3.407   0.939   4.904
  769SOL    HW2 3207   3.523   0.908   4.793
  770SOL     OW 3208   1.813   4.488   3.070
  770SOL    HW1 3209   1.823   4.545   3.152
  770SOL    HW2 3210   1.876   4.520   3.000
  771SOL     OW 3211   2.712   5.896   2.710
  771SOL    HW1 3212   2.696   5.974   2.770
  771SOL    HW2 3213   2.668   5.814   2.748
  772SOL     OW 3214   6.632   5.003   0.457
  772SOL    HW1 3215   6.669   5.032   0.369
  772SOL    HW2 3216   6.534   5.021   0.460
  773SOL     OW 3217   0.122   4.119   3.507
  773SOL    HW1 3218   0.213   4.079   3.497
  773SOL    HW2 3219   0.083   4.090   3.595
  774SOL     OW 3220   1.078   1.469   2.499
  774SOL    HW1 3221   1.034   1.552   2.532
  774SOL    HW2 3222   1.012   1.416   2.445
  775SOL     OW 3223   1.006   1.709   3.471
  775SOL    HW1 3224   0.982   1.648   3.395
  775SOL    HW2 3225   1.089   1.760   3.447
  776SOL     OW 3226   6.801   0.814   5.731
  776SOL    HW1 3227   6.856   0.803   5.648
  776SOL    HW2 3228   6.726   0.877   5.713
  777SOL     OW 3229   3.313   5.711   1.210
  777SOL    HW1 3230   3.320   5.802   1.251
  777SOL    HW2 3231   3.403   5.681   1.179
  778SOL     OW 3232   3.662   1.840   2.778
  778SOL    HW1 3233   3.582   1.808   2.829
  778SOL    HW2 3234   3.745   1.807   2.823
  779SOL     OW 3235   0.715   2.117   2.854
  779SOL    HW1 3236   0.657   2.149   2.929
  779SOL    HW2 3237   0.662   2.115   2.769
  780SOL     OW 3238   6.393   3.655   3.963
  780SOL    HW1 3239   6.334   3.720   4.011
  780SOL    HW2 3240   6.347   3.566   3.957
  781SOL     OW 3241   5.322   1.651   6.478
  781SOL    HW1 3242   5.316   1.712   6.558
  781SOL    HW2 3243   5.403   1.675   6.425
  782SOL     OW 3244   0.643   3.599   6.886
  782SOL    HW1 3245   0.632   3.630   6.981
  782SOL    HW2 3246   0.680   3.673   6.830
  783SOL     OW 3247   4.134   4.797   1.162
  783SOL    HW1 3248   4.108   4.702   1.182
  783SOL    HW2 3249   4.051   4.851   1.145
  784SOL     OW 3250   5.303   6.357   6.830
  784SOL    HW1 3251   5.302   6.449   6.793
  784SOL    HW2 3252   5.252   6.355   6.916
  785SOL     OW 3253   6.846   3.043   3.186
  785SOL    HW1 3254   6.767   3.047   3.125
  785SOL    HW2 3255   6.816   3.053   3.281
  786SOL     OW 3256   1.268   1.233   1.060
  786SOL    HW1 3257   1.317   1.175   0.996
  786SOL    HW2 3258   1.316   1.235   1.147
  787SOL     OW 3259   2.827   1.133   6.536
  787SOL    HW1 3260   2.806   1.225   6.502
  787SOL    HW2 3261   2.758   1.069   6.504
  788SOL     OW 3262   3.021   2.061   4.998
  788SOL    HW1 3263   3.094   2.130   4.991
  788SOL    HW2 3264   3.012   2.033   5.094
  789SOL     OW 3265   5.240   3.984   0.882
  789SOL    HW1 3266   5.302   3.938   0.945
  789SOL    HW2 3267   5.172   3.920   0.849
  790SOL     OW 3268   2.499   0.781   4.129
  790SOL    HW1 3269   2.478   0.867   4.176
  790SOL    HW2 3270   2.414   0.739   4.097
  791SOL     OW 3271   3.229   6.358   3.116
  791SOL    HW1 3272   3.186   6.329   3.202
  791SOL    HW2 3273   3.311   6.411   3.136
  792SOL     OW 3274   0.463   0.862   1.778
  792SOL    HW1 3275   0.468   0.832   1.683
  792SOL    HW2 3276   0.383   0.921   1.790
  793SOL     OW 3277   4.659   6.243   2.761
  793SOL    HW1 3278   4.586   6.282   2.705
  793SOL    HW2 3279   4.735   6.307   2.767
  794SOL     OW 3280   2.936   3.332   4.919
  794SOL    HW1 3281   2.836   3.331   4.910
  794SOL    HW2 3282   2.977   3.317   4.829
  795SOL     OW 3283   3.449   6.138   4.952
  795SOL    HW1 3284   3.523   6.135   4.885
  795SOL    HW2 3285   3.362   6.120   4.907
  796SOL     OW 3286   1.141   2.263   6.329
  796SOL    HW1 3287   1.232   2.224   6.314
  796SOL    HW2 3288   1.131   2.287   6.426
  797SOL     OW 3289   4.958   2.557   2.155
  797SOL    HW1 3290   4.871   2.600   2.132
  797SOL    HW2 3291   4.943   2.459   2.171
  798SOL     OW 3292   5.162   6.903   1.352
  798SOL    HW1 3293   5.089   6.971   1.362
  798SOL    HW2 3294   5.152   6.857   1.264
  799SOL     OW 3295   6.066   1.545   4.428
  799SOL    HW1 3296   6.133   1.585   4.490
  799SOL    HW2 3297   6.088   1.572   4.334
  800SOL     OW 3298   5.542   0.786   2.344
  800SOL    HW1 3299   5.609   0.860   2.351
  800SOL    HW2 3300   5.456   0.814   2.387
  801SOL     OW 3301   2.106   3.458   3.733
  801SOL    HW1 3302   2.108   3.461   3.633
  801SOL    HW2 3303   2.039   3.523   3.767
  802SOL     OW 3304   4.447   0.423   1.114
  802SOL    HW1 3305   4.365   0.385   1.070
  802SOL    HW2 3306   4.520   0.432   1.046
  803SOL     OW 3307   0.321   5.725   4.845
  803SOL    HW1 3308   0.335   5.697   4.750
  803SOL    HW2 3309   0.361   5.658   4.906
  804SOL     OW 3310   5.963   6.194   6.900
  804SOL    HW1 3311   6.037   6.245   6.857
  804SOL    HW2 3312   5.909   6.148   6.830
  805SOL     OW 3313   3.050   1.831   5.245
  805SOL    HW1 3314   3.096   1.918   5.258
  805SOL    HW2 3315   2.951   1.846   5.240
  806SOL     OW 3316   4.668   1.387   4.311
  806SOL    HW1 3317   4.631   1.477   4.334
  806SOL    HW2 3318   4.691   1.338   4.395
  807SOL     OW 3319   0.815   1.597   4.429
  807SOL    HW1 3320   0.862   1.667   4.376
  807SOL    HW2 3321   0.717   1.619   4.435
  808SOL     OW 3322   4.495   3.511   6.492
  808SOL    HW1 3323   4.523   3.460   6.411
  808SOL    HW2 3324   4.398   3.495   6.509
  809SOL     OW 3325   0.679   4.814   1.569
  809SOL    HW1 3326   0.682   4.909   1.599
  809SOL    HW2 3327   0.617   4.806   1.491
  810SOL     OW 3328   3.592   2.633   1.140
  810SOL    HW1 3329   3.670   2.673   1.092
  810SOL    HW2 3330   3.575   2.540   1.105
  811SOL     OW 3331   3.853   5.837   3.990
  811SOL    HW1 3332   3.893   5.910   3.934
  811SOL    HW2 3333   3.925   5.791   4.042
  812SOL     OW 3334   0.744   1.613   1.340
  812SOL    HW1 3335   0.720   1.524   1.379
  812SOL    HW2 3336   0.711   1.685   1.399
  813SOL     OW 3337   3.970   5.098   4.163
  813SOL    HW1 3338   3.883   5.112   4.210
  813SOL    HW2 3339   4.008   5.186   4.135
  814SOL     OW 3340   5.648   6.232   3.107
  814SOL    HW1 3341   5.680   6.319   3.144
  814SOL    HW2 3342   5.690   6.157   3.158
  815SOL     OW 3343   0.175   3.290   3.345
  815SOL    HW1 3344   0.131   3.302   3.256
  815SOL    HW2 3345   0.110   3.315   3.418
  816SOL     OW 3346   7.014   6.520   0.195
  816SOL    HW1 3347   7.004   6.608   0.148
  816SOL    HW2 3348   7.000   6.446   0.129
  817SOL     OW 3349   2.398   4.002   1.453
  817SOL    HW1 3350   2.393   4.042   1.362
  817SOL    HW2 3351   2.353   4.063   1.519
  818SOL     OW 3352   6.408   3.159   1.852
  818SOL    HW1 3353   6.470   3.121   1.920
  818SOL    HW2 3354   6.417   3.258   1.850
  819SOL     OW 3355   5.701   3.189   3.116
  819SOL    HW1 3356   5.681   3.181   3.018
  819SOL    HW2 3357   5.651   3.267   3.154
  820SOL     OW 3358   2.912   2.612   6.372
  820SOL    HW1 3359   2.855   2.608   6.290
  820SOL    HW2 3360   2.885   2.540   6.435
  821SOL     OW 3361   2.210   3.960   0.876
  821SOL    HW1 3362   2.196   3.862   0.864
  821SOL    HW2 3363   2.163   4.010   0.803
  822SOL     OW 3364   1.321   4.674   4.901
  822SOL    HW1 3365   1.380   4.755   4.909
  822SOL    HW2 3366   1.250   4.678   4.971
  823SOL     OW 3367   4.585   3.865   6.588
  823SOL    HW1 3368   4.667   3.917   6.566
  823SOL    HW2 3369   4.612   3.771   6.612
  824SOL     OW 3370   5.248   1.012   5.212
  824SOL    HW1 3371   5.310   0.965   5.149
  824SOL    HW2 3372   5.177   1.060   5.159
  825SOL     OW 3373   1.447   3.816   1.242
  825SOL    HW1 3374   1.386   3.893   1.225
  825SOL    HW2 3375   1.483   3.783   1.154
  826SOL     OW 3376   5.567   3.287   6.763
  826SOL    HW1 3377   5.516   3.328   6.839
  826SOL    HW2 3378   5.609   3.202   6.794
  827SOL     OW 3379   3.479   5.875   6.286
  827SOL    HW1 3380   3.493   5.880   6.187
  827SOL    HW2 3381   3.408   5.808   6.306
  828SOL     OW 3382   5.663   6.812   5.741
  828SOL    HW1 3383   5.631   6.883   5.804
  828SOL    HW2 3384   5.739   6.847   5.687
  829SOL     OW 3385   3.131   3.992   4.029
  829SOL    HW1 3386   3.112   4.034   4.118
  829SOL    HW2 3387   3.054   3.934   4.003
  830SOL     OW 3388   4.991   4.691   6.458
  830SOL    HW1 3389   5.088   4.713   6.442
  830SOL    HW2 3390   4.946   4.769   6.501
  831SOL     OW 3391   6.452   1.215   5.484
  831SOL    HW1 3392   6.363   1.171   5.496
  831SOL    HW2 3393   6.487   1.245   5.573
  832SOL     OW 3394   2.472   1.323   0.961
  832SOL    HW1 3395   2.535   1.277   0.897
  832SOL    HW2 3396   2.449   1.414   0.926
  833SOL     OW 3397   0.092   5.072   6.348
  833SOL    HW1 3398   0.178   5.044   6.306
  833SOL    HW2 3399   0.054   4.997   6.402
  834SOL     OW 3400   2.787   3.188   0.905
  834SOL    HW1 3401   2.805   3.117   0.837
  834SOL    HW2 3402   2.854   3.182   0.978
  835SOL     OW 3403   3.319   0.411   4.249
  835SOL    HW1 3404   3.240   0.349   4.253
  835SOL    HW2 3405   3.403   0.360   4.268
  836SOL     OW 3406   3.563   6.780   0.046
  836SOL    HW1 3407   3.622   6.844   0.095
  836SOL    HW2 3408   3.612   6.695   0.030
  837SOL     OW 3409   5.405   6.510   0.108
  837SOL    HW1 3410   5.323   6.457   0.083
  837SOL    HW2 3411   5.397   6.602   0.070
  838SOL     OW 3412   0.991   6.861   5.116
  838SOL    HW1 3413   0.959   6.769   5.139
  838SOL    HW2 3414   1.089   6.868   5.132
  839SOL     OW 3415   2.659   2.297   2.074
  839SOL    HW1 3416   2.615   2.344   1.998
  839SOL    HW2 3417   2.758   2.294   2.060
  840SOL     OW 3418   5.849   0.082   5.973
  840SOL    HW1 3419   5.938   0.041   5.955
  840SOL    HW2 3420   5.860   0.181   5.984
  841SOL     OW 3421   4.914   5.015   0.484
  841SOL    HW1 3422   4.976   5.092   0.500
  841SOL    HW2 3423   4.925   4.984   0.390
  842SOL     OW 3424   5.068   4.876   4.103
  842SOL    HW1 3425   5.135   4.910   4.037
  842SOL    HW2 3426   5.062   4.939   4.180
  843SOL     OW 3427   3.627   1.553   6.519
  843SOL    HW1 3428   3.530   1.527   6.526
  843SOL    HW2 3429   3.635   1.635   6.463
  844SOL     OW 3430   5.170   0.020   0.892
  844SOL    HW1 3431   5.082   0.018   0.938
  844SOL    HW2 3432   5.188   6.952   0.850
  845SOL     OW 3433   5.960   3.264   5.026
  845SOL    HW1 3434   5.993   3.348   5.070
  845SOL    HW2 3435   6.029   3.229   4.964
  846SOL     OW 3436   3.180   1.608   0.344
  846SOL    HW1 3437   3.218   1.585   0.433
  846SOL    HW2 3438   3.155   1.523   0.295
  847SOL     OW 3439   0.325   3.749   0.370
  847SOL    HW1 3440   0.314   3.677   0.301
  847SOL    HW2 3441   0.411   3.734   0.419
  848SOL     OW 3442   6.117   1.282   6.463
  848SOL    HW1 3443   6.084   1.298   6.556
  848SOL    HW2 3444   6.102   1.363   6.407
  849SOL     OW 3445   1.093   4.584   5.737
  849SOL    HW1 3446   1.086   4.492   5.777
  849SOL    HW2 3447   1.056   4.582   5.644
  850SOL     OW 3448   5.413   1.361   3.992
  850SOL    HW1 3449   5.329   1.376   4.045
  850SOL    HW2 3450   5.391   1.309   3.909
  851SOL     OW 3451   0.166   1.224   1.475
  851SOL    HW1 3452   0.146   1.142   1.529
  851SOL    HW2 3453   0.083   1.278   1.465
  852SOL     OW 3454   1.982   2.337   0.557
  852SOL    HW1 3455   1.991   2.241   0.582
  852SOL    HW2 3456   2.070   2.383   0.571
  853SOL     OW 3457   1.641   4.253   2.328
  853SOL    HW1 3458   1.627   4.154   2.316
  853SOL    HW2 3459   1.610   4.301   2.247
  854SOL     OW 3460   4.652   5.813   2.646
  854SOL    HW1 3461   4.612   5.883   2.586
  854SOL    HW2 3462   4.750   5.805   2.628
  855SOL     OW 3463   6.889   0.334   0.810
  855SOL    HW1 3464   6.823   0.310   0.739
  855SOL    HW2 3465   6.912   0.431   0.802
  856SOL     OW 3466   1.863   1.979   5.303
  856SOL    HW1 3467   1.821   1.966   5.393
  856SOL    HW2 3468   1.837   2.069   5.266
  857SOL     OW 3469   5.807   4.727   1.605
  857SOL    HW1 3470   5.824   4.719   1.703
  857SOL    HW2 3471   5.722   4.777   1.589
  858SOL     OW 3472   2.774   4.486   1.217
  858SOL    HW1 3473   2.681   4.521   1.231
  858SOL    HW2 3474   2.788   4.405   1.273
  859SOL     OW 3475   4.790   5.101   6.766
  859SOL    HW1 3476   4.747   5.167   6.828
  859SOL    HW2 3477   4.883   5.082   6.796
  860SOL     OW 3478   4.313   4.419   1.154
  860SOL    HW1 3479   4.264   4.393   1.070
  860SOL    HW2 3480   4.332   4.517   1.152
  861SOL     OW 3481   2.253   0.573   5.116
  861SOL    HW1 3482   2.176   0.612   5.165
  861SOL    HW2 3483   2.254   0.608   5.022
  862SOL     OW 3484   6.879   4.706   5.606
  862SOL    HW1 3485   6.958   4.765   5.588
  862SOL    HW2 3486   6.879   4.677   5.702
  863SOL     OW 3487   1.144   0.877   0.392
  863SOL    HW1 3488   1.085   0.836   0.323
  863SOL    HW2 3489   1.118   0.842   0.483
  864SOL     OW 3490   5.215   4.400   3.901
  864SOL    HW1 3491   5.267   4.486   3.900
  864SOL    HW2 3492   5.118   4.420   3.909
  865SOL     OW 3493   1.954   6.446   4.989
  865SOL    HW1 3494   1.873   6.412   4.940
  865SOL    HW2 3495   2.029   6.382   4.976
  866SOL     OW 3496   1.964   2.598   1.471
  866SOL    HW1 3497   1.868   2.621   1.452
  866SOL    HW2 3498   1.974   2.576   1.568
  867SOL     OW 3499   4.213   2.897   1.325
  867SOL    HW1 3500   4.311   2.879   1.316
  867SOL    HW2 3501   4.165   2.859   1.246
  868SOL     OW 3502   5.933   6.347   1.343
  868SOL    HW1 3503   5.982   6.433   1.358
  868SOL    HW2 3504   5.931   6.294   1.428
  869SOL     OW 3505   0.075   5.473   3.036
  869SOL    HW1 3506   0.081   5.373   3.034
  869SOL    HW2 3507   0.091   5.505   3.129
  870SOL     OW 3508   5.744   3.379   0.083
  870SOL    HW1 3509   5.698   3.431   0.154
  870SOL    HW2 3510   5.753   3.284   0.112
  871SOL     OW 3511   5.674   3.613   1.985
  871SOL    HW1 3512   5.697   3.700   2.028
  871SOL    HW2 3513   5.577   3.593   1.999
  872SOL     OW 3514   6.158   4.039   4.206
  872SOL    HW1 3515   6.099   4.024   4.285
  872SOL    HW2 3516   6.107   4.087   4.134
  873SOL     OW 3517   5.250   0.372   3.807
  873SOL    HW1 3518   5.274   0.298   3.870
  873SOL    HW2 3519   5.310   0.369   3.727
  874SOL     OW 3520   1.594   4.589   5.355
  874SOL    HW1 3521   1.575   4.628   5.265
  874SOL    HW2 3522   1.681   4.626   5.389
  875SOL     OW 3523   4.423   3.698   1.322
  875SOL    HW1 3524   4.418   3.599   1.307
  875SOL    HW2 3525   4.502   3.719   1.379
  876SOL     OW 3526   0.657   5.720   3.295
  876SOL    HW1 3527   0.660   5.645   3.362
  876SOL    HW2 3528   0.573   5.712   3.241
  877SOL     OW 3529   3.609   4.694   6.961
  877SOL    HW1 3530   3.680   4.742   6.909
  877SOL    HW2 3531   3.631   4.697   0.037
  878SOL     OW 3532   4.299   6.380   6.215
  878SOL    HW1 3533   4.265   6.314   6.148
  878SOL    HW2 3534   4.236   6.387   6.291
  879SOL     OW 3535   3.551   1.994   2.030
  879SOL    HW1 3536   3.585   2.088   2.025
  879SOL    HW2 3537   3.623   1.930   2.005
  880SOL     OW 3538   3.056   4.524   0.130
  880SOL    HW1 3539   3.059   4.591   0.056
  880SOL    HW2 3540   3.031   4.434   0.093
  881SOL     OW 3541   4.108   4.578   5.311
  881SOL    HW1 3542   4.178   4.524   5.264
  881SOL    HW2 3543   4.129   4.581   5.409
  882SOL     OW 3544   1.479   1.047   4.098
  882SOL    HW1 3545   1.458   0.961   4.146
  882SOL    HW2 3546   1.501   1.118   4.165
  883SOL     OW 3547   4.770   5.597   4.796
  883SOL    HW1 3548   4.679   5.615   4.833
  883SOL    HW2 3549   4.769   5.509   4.747
  884SOL     OW 3550   0.309   3.692   1.643
  884SOL    HW1 3551   0.378   3.642   1.591
  884SOL    HW2 3552   0.237   3.629   1.671
  885SOL     OW 3553   5.476   5.843   6.698
  885SOL    HW1 3554   5.404   5.906   6.726
  885SOL    HW2 3555   5.516   5.800   6.779
  886SOL     OW 3556   4.084   0.260   0.585
  886SOL    HW1 3557   4.095   0.358   0.569
  886SOL    HW2 3558   3.994   0.231   0.551
  887SOL     OW 3559   4.361   6.879   4.745
  887SOL    HW1 3560   4.391   6.787   4.718
  887SOL    HW2 3561   4.417   6.948   4.701
  888SOL     OW 3562   6.136   6.600   3.726
  888SOL    HW1 3563   6.059   6.577   3.785
  888SOL    HW2 3564   6.192   6.518   3.712
  889SOL     OW 3565   0.565   6.433   6.354
  889SOL    HW1 3566   0.649   6.472   6.314
  889SOL    HW2 3567   0.581   6.411   6.450
  890SOL     OW 3568   2.699   4.934   2.208
  890SOL    HW1 3569   2.741   5.003   2.149
  890SOL    HW2 3570   2.638   4.877   2.153
  891SOL     OW 3571   5.855   3.740   1.384
  891SOL    HW1 3572   5.886   3.776   1.472
  891SOL    HW2 3573   5.798   3.659   1.400
  892SOL     OW 3574   3.694   3.890   0.439
  892SOL    HW1 3575   3.700   3.973   0.384
  892SOL    HW2 3576   3.599   3.872   0.463
  893SOL     OW 3577   2.698   1.119   1.814
  893SOL    HW1 3578   2.717   1.131   1.717
  893SOL    HW2 3579   2.599   1.120   1.829
  894SOL     OW 3580   1.862   3.629   4.087
  894SOL    HW1 3581   1.956   3.658   4.102
  894SOL    HW2 3582   1.845   3.617   3.989
  895SOL     OW 3583   2.131   6.221   4.946
  895SOL    HW1 3584   2.229   6.221   4.927
  895SOL    HW2 3585   2.097   6.127   4.943
  896SOL     OW 3586   5.330   6.054   2.673
  896SOL    HW1 3587   5.316   5.955   2.678
  896SOL    HW2 3588   5.428   6.074   2.671
  897SOL     OW 3589   5.513   1.127   0.300
  897SOL    HW1 3590   5.447   1.069   0.253
  897SOL    HW2 3591   5.597   1.077   0.315
  898SOL     OW 3592   3.952   5.996   3.509
  898SOL    HW1 3593   3.972   5.957   3.419
  898SOL    HW2 3594   3.853   6.006   3.520
  899SOL     OW 3595   0.707   5.087   6.905
  899SOL    HW1 3596   0.676   5.130   6.990
  899SOL    HW2 3597   0.724   4.989   6.922
  900SOL     OW 3598   4.992   5.898   1.433
  900SOL    HW1 3599   4.987   5.972   1.500
  900SOL    HW2 3600   4.908   5.896   1.379
  901SOL     OW 3601   0.235   1.250   4.828
  901SOL    HW1 3602   0.276   1.167   4.791
  901SOL    HW2 3603   0.202   1.232   4.921
  902SOL     OW 3604   0.348   1.397   6.006
  902SOL    HW1 3605   0.396   1.434   5.927
  902SOL    HW2 3606   0.253   1.380   5.982
  903SOL     OW 3607   6.692   3.780   6.683
  903SOL    HW1 3608   6.725   3.853   6.624
  903SOL    HW2 3609   6.653   3.707   6.627
  904SOL     OW 3610   1.834   2.396   4.206
  904SOL    HW1 3611   1.785   2.337   4.142
  904SOL    HW2 3612   1.828   2.358   4.299
  905SOL     OW 3613   4.622   2.934   6.231
  905SOL    HW1 3614   4.644   2.837   6.223
  905SOL    HW2 3615   4.579   2.952   6.320
  906SOL     OW 3616   0.473   3.934   6.372
  906SOL    HW1 3617   0.440   4.022   6.406
  906SOL    HW2 3618   0.401   3.890   6.318
  907SOL     OW 3619   5.714   2.900   3.640
  907SOL    HW1 3620   5.735   2.814   3.687
  907SOL    HW2 3621   5.797   2.933   3.594
  908SOL     OW 3622   1.535   6.740   3.858
  908SOL    HW1 3623   1.455   6.725   3.800
  908SOL    HW2 3624   1.558   6.656   3.907
  909SOL     OW 3625   2.541   0.843   1.340
  909SOL    HW1 3626   2.460   0.872   1.391
  909SOL    HW2 3627   2.516   0.829   1.244
  910SOL     OW 3628   2.668   0.703   0.493
  910SOL    HW1 3629   2.590   0.743   0.444
  910SOL    HW2 3630   2.697   0.620   0.447
  911SOL     OW 3631   6.337   5.296   1.385
  911SOL    HW1 3632   6.250   5.258   1.417
  911SOL    HW2 3633   6.345   5.391   1.415
  912SOL     OW 3634   6.732   0.414   5.230
  912SOL    HW1 3635   6.647   0.390   5.276
  912SOL    HW2 3636   6.720   0.499   5.179
  913SOL     OW 3637   2.078   0.401   3.744
  913SOL    HW1 3638   2.100   0.341   3.821
  913SOL    HW2 3639   2.162   0.418   3.692
  914SOL     OW 3640   2.647   5.708   5.574
  914SOL    HW1 3641   2.704   5.784   5.605
  914SOL    HW2 3642   2.571   5.696   5.637
  915SOL     OW 3643   1.034   3.457   1.023
  915SOL    HW1 3644   1.051   3.449   1.122
  915SOL    HW2 3645   1.083   3.537   0.988
  916SOL     OW 3646   1.407   2.497   2.667
  916SOL    HW1 3647   1.491   2.452   2.698
  916SOL    HW2 3648   1.338   2.491   2.740
  917SOL     OW 3649   4.357   0.621   1.510
  917SOL    HW1 3650   4.379   0.664   1.423
  917SOL    HW2 3651   4.407   0.667   1.584
  918SOL     OW 3652   2.655   5.931   0.148
  918SOL    HW1 3653   2.622   5.946   0.055
  918SOL    HW2 3654   2.611   5.996   0.210
  919SOL     OW 3655   0.689   6.000   1.949
  919SOL    HW1 3656   0.619   5.990   2.019
  919SOL    HW2 3657   0.651   5.978   1.859
  920SOL     OW 3658   1.769   0.394   2.675
  920SOL    HW1 3659   1.685   0.447   2.666
  920SOL    HW2 3660   1.767   0.316   2.613
  921SOL     OW 3661   5.182   4.724   3.878
  921SOL    HW1 3662   5.210   4.681   3.792
  921SOL    HW2 3663   5.100   4.778   3.863
  922SOL     OW 3664   3.538   2.417   6.543
  922SOL    HW1 3665   3.557   2.372   6.456
  922SOL    HW2 3666   3.439   2.415   6.561
  923SOL     OW 3667   3.210   5.276   0.335
  923SOL    HW1 3668   3.122   5.307   0.372
  923SOL    HW2 3669   3.270   5.355   0.323
  924SOL     OW 3670   5.423   3.531   2.065
  924SOL    HW1 3671   5.345   3.541   2.126
  924SOL    HW2 3672   5.396   3.481   1.983
  925SOL     OW 3673   6.833   1.702   5.438
  925SOL    HW1 3674   6.754   1.654   5.402
  925SOL    HW2 3675   6.902   1.637   5.468
  926SOL     OW 3676   5.733   0.694   6.841
  926SOL    HW1 3677   5.757   0.783   6.802
  926SOL    HW2 3678   5.785   0.623   6.796
  927SOL     OW 3679   5.293   4.159   4.269
  927SOL    HW1 3680   5.232   4.107   4.208
  927SOL    HW2 3681   5.377   4.182   4.220
  928SOL     OW 3682   2.349   0.500   0.565
  928SOL    HW1 3683   2.264   0.551   0.556
  928SOL    HW2 3684   2.412   0.526   0.492
  929SOL     OW 3685   6.914   1.973   0.859
  929SOL    HW1 3686   6.880   2.062   0.890
  929SOL    HW2 3687   6.837   1.918   0.825
  930SOL     OW 3688   6.647   5.750   4.516
  930SOL    HW1 3689   6.642   5.654   4.489
  930SOL    HW2 3690   6.607   5.761   4.608
  931SOL     OW 3691   0.076   3.772   4.085
  931SOL    HW1 3692   0.089   3.830   4.005
  931SOL    HW2 3693   0.164   3.755   4.129
  932SOL     OW 3694   2.743   6.529   1.552
  932SOL    HW1 3695   2.650   6.564   1.539
  932SOL    HW2 3696   2.791   6.587   1.618
  933SOL     OW 3697   0.734   5.362   2.129
  933SOL    HW1 3698   0.704   5.457   2.125
  933SOL    HW2 3699   0.789   5.340   2.048
  934SOL     OW 3700   2.130   0.732   4.467
  934SOL    HW1 3701   2.153   0.686   4.553
  934SOL    HW2 3702   2.187   0.813   4.456
  935SOL     OW 3703   5.205   3.761   5.358
  935SOL    HW1 3704   5.232   3.749   5.454
  935SOL    HW2 3705   5.143   3.687   5.331
  936SOL     OW 3706   1.129   6.920   6.242
  936SOL    HW1 3707   1.040   6.966   6.237
  936SOL    HW2 3708   1.197   6.974   6.192
  937SOL     OW 3709   5.163   1.995   5.654
  937SOL    HW1 3710   5.213   1.914   5.624
  937SOL    HW2 3711   5.182   2.071   5.592
  938SOL     OW 3712   6.950   5.178   6.163
  938SOL    HW1 3713   6.885   5.102   6.161
  938SOL    HW2 3714   7.015   5.164   6.237
  939SOL     OW 3715   5.035   1.433   5.430
  939SOL    HW1 3716   5.027   1.518   5.378
  939SOL    HW2 3717   4.976   1.363   5.389
  940SOL     OW 3718   6.736   2.928   2.869
  940SOL    HW1 3719   6.686   2.842   2.861
  940SOL    HW2 3720   6.834   2.912   2.852
  941SOL     OW 3721   6.406   0.643   4.027
  941SOL    HW1 3722   6.379   0.547   4.028
  941SOL    HW2 3723   6.325   0.701   4.018
  942SOL     OW 3724   5.094   0.701   4.606
  942SOL    HW1 3725   5.067   0.666   4.517
  942SOL    HW2 3726   5.164   0.772   4.595
  943SOL     OW 3727   1.012   3.292   3.391
  943SOL    HW1 3728   0.960   3.228   3.336
  943SOL    HW2 3729   1.089   3.245   3.434
  944SOL     OW 3730   6.285   3.217   6.344
  944SOL    HW1 3731   6.201   3.260   6.311
  944SOL    HW2 3732   6.265   3.124   6.374
  945SOL     OW 3733   6.521   4.428   5.490
  945SOL    HW1 3734   6.449   4.484   5.533
  945SOL    HW2 3735   6.581   4.487   5.437
  946SOL     OW 3736   5.557   2.680   6.219
  946SOL    HW1 3737   5.458   2.692   6.210
  946SOL    HW2 3738   5.603   2.744   6.157
  947SOL     OW 3739   3.051   3.491   5.110
  947SOL    HW1 3740   3.014   3.434   5.037
  947SOL    HW2 3741   2.981   3.555   5.142
  948SOL     OW 3742   4.372   1.120   0.895
  948SOL    HW1 3743   4.456   1.075   0.924
  948SOL    HW2 3744   4.302   1.109   0.965
  949SOL     OW 3745   6.871   6.255   6.392
  949SOL    HW1 3746   6.862   6.204   6.478
  949SOL    HW2 3747   6.941   6.325   6.402
  950SOL     OW 3748   4.384   4.947   2.490
  950SOL    HW1 3749   4.354   4.862   2.534
  950SOL    HW2 3750   4.310   4.983   2.433
  951SOL     OW 3751   1.792   0.632   1.701
  951SOL    HW1 3752   1.770   0.633   1.603
  951SOL    HW2 3753   1.777   0.723   1.739
  952SOL     OW 3754   5.662   1.186   2.103
  952SOL    HW1 3755   5.615   1.226   2.024
  952SOL    HW2 3756   5.670   1.254   2.175
  953SOL     OW 3757   5.002   5.327   5.182
  953SOL    HW1 3758   4.964   5.287   5.265
  953SOL    HW2 3759   4.930   5.374   5.132
  954SOL     OW 3760   5.506   6.440   0.520
  954SOL    HW1 3761   5.430   6.393   0.565
  954SOL    HW2 3762   5.579   6.456   0.587
  955SOL     OW 3763   0.671   5.295   3.623
  955SOL    HW1 3764   0.742   5.225   3.612
  955SOL    HW2 3765   0.683   5.365   3.554
  956SOL     OW 3766   0.694   2.181   2.302
  956SOL    HW1 3767   0.764   2.181   2.231
  956SOL    HW2 3768   0.706   2.260   2.361
  957SOL     OW 3769   1.451   4.321   4.371
  957SOL    HW1 3770   1.397   4.247   4.412
  957SOL    HW2 3771   1.545   4.290   4.358
  958SOL     OW 3772   4.714   2.735   1.096
  958SOL    HW1 3773   4.783   2.665   1.115
  958SOL    HW2 3774   4.698   2.789   1.179
  959SOL     OW 3775   2.413   4.910   3.113
  959SOL    HW1 3776   2.415   4.982   3.044
  959SOL    HW2 3777   2.411   4.821   3.068
  960SOL     OW 3778   0.338   5.911   4.146
  960SOL    HW1 3779   0.320   5.900   4.048
  960SOL    HW2 3780   0.434   5.892   4.165
  961SOL     OW 3781   4.691   6.435   3.255
  961SOL    HW1 3782   4.686   6.355   3.195
  961SOL    HW2 3783   4.762   6.497   3.224
  962SOL     OW 3784   1.396   1.211   3.880
  962SOL    HW1 3785   1.399   1.295   3.934
  962SOL    HW2 3786   1.424   1.134   3.936
  963SOL     OW 3787   5.679   0.921   6.321
  963SOL    HW1 3788   5.637   0.960   6.403
  963SOL    HW2 3789   5.644   0.966   6.239
  964SOL     OW 3790   6.307   3.489   0.853
  964SOL    HW1 3791   6.270   3.521   0.940
  964SOL    HW2 3792   6.272   3.547   0.779
  965SOL     OW 3793   5.253   1.664   0.930
  965SOL    HW1 3794   5.189   1.664   0.853
  965SOL    HW2 3795   5.337   1.711   0.904
  966SOL     OW 3796   6.264   1.730   2.087
  966SOL    HW1 3797   6.317   1.815   2.081
  966SOL    HW2 3798   6.175   1.744   2.043
  967SOL     OW 3799   1.442   5.487   0.852
  967SOL    HW1 3800   1.430   5.581   0.821
  967SOL    HW2 3801   1.353   5.442   0.858
  968SOL     OW 3802   4.539   2.467   1.814
  968SOL    HW1 3803   4.567   2.541   1.753
  968SOL    HW2 3804   4.440   2.464   1.820
  969SOL     OW 3805   4.009   5.709   6.002
  969SOL    HW1 3806   4.032   5.781   6.068
  969SOL    HW2 3807   4.084   5.643   5.999
  970SOL     OW 3808   4.564   0.907   4.968
  970SOL    HW1 3809   4.546   0.879   5.063
  970SOL    HW2 3810   4.602   0.830   4.918
  971SOL     OW 3811   0.603   1.458   3.186
  971SOL    HW1 3812   0.634   1.417   3.100
  971SOL    HW2 3813   0.534   1.399   3.228
  972SOL     OW 3814   5.923   3.416   1.116
  972SOL    HW1 3815   5.988   3.460   1.178
  972SOL    HW2 3816   5.881   3.338   1.161
  973SOL     OW 3817   0.402   4.604   6.259
  973SOL    HW1 3818   0.493   4.576   6.289
  973SOL    HW2 3819   0.361   4.665   6.327
  974SOL     OW 3820   4.240   0.837   2.100
  974SOL    HW1 3821   4.229   0.936   2.100
  974SOL    HW2 3822   4.189   0.798   2.177
  975SOL     OW 3823   1.546   5.498   6.722
  975SOL    HW1 3824   1.581   5.461   6.807
  975SOL    HW2 3825   1.526   5.424   6.658
  976SOL     OW 3826   6.163   3.086   2.996
  976SOL    HW1 3827   6.205   3.174   3.019
  976SOL    HW2 3828   6.179   3.066   2.899
  977SOL     OW 3829   2.413   1.249   3.695
  977SOL    HW1 3830   2.512   1.255   3.711
  977SOL    HW2 3831   2.369   1.205   3.773
  978SOL     OW 3832   4.836   4.004   5.424
  978SOL    HW1 3833   4.799   3.973   5.336
  978SOL    HW2 3834   4.767   3.989   5.496
  979SOL     OW 3835   6.688   1.690   2.590
  979SOL    HW1 3836   6.764   1.641   2.550
  979SOL    HW2 3837   6.700   1.788   2.576
  980SOL     OW 3838   5.047   1.925   3.582
  980SOL    HW1 3839   5.136   1.881   3.588
  980SOL    HW2 3840   5.047   1.991   3.506
  981SOL     OW 3841   1.518   1.356   4.955
  981SOL    HW1 3842   1.437   1.340   5.011
  981SOL    HW2 3843   1.518   1.292   4.878
  982SOL     OW 3844   2.280   2.128   3.789
  982SOL    HW1 3845   2.182   2.147   3.797
  982SOL    HW2 3846   2.324   2.143   3.877
  983SOL     OW 3847   6.102   2.478   3.206
  983SOL    HW1 3848   6.158   2.535   3.146
  983SOL    HW2 3849   6.136   2.486   3.300
  984SOL     OW 3850   3.611   0.669   4.192
  984SOL    HW1 3851   3.636   0.669   4.095
  984SOL    HW2 3852   3.555   0.749   4.213
  985SOL     OW 3853   5.239   4.813   6.389
  985SOL    HW1 3854   5.248   4.906   6.426
  985SOL    HW2 3855   5.327   4.766   6.393
  986SOL     OW 3856   5.504   5.140   7.007
  986SOL    HW1 3857   5.434   5.072   6.986
  986SOL    HW2 3858   5.590   5.095   0.009
  987SOL     OW 3859   4.319   6.184   1.254
  987SOL    HW1 3860   4.413   6.217   1.254
  987SOL    HW2 3861   4.305   6.122   1.176
  988SOL     OW 3862   3.764   3.202   1.483
  988SOL    HW1 3863   3.717   3.117   1.461
  988SOL    HW2 3864   3.783   3.253   1.399
  989SOL     OW 3865   0.048   0.994   5.384
  989SOL    HW1 3866   6.984   0.986   5.331
  989SOL    HW2 3867   0.125   0.962   5.328
  990SOL     OW 3868   4.627   0.538   2.724
  990SOL    HW1 3869   4.613   0.460   2.786
  990SOL    HW2 3870   4.590   0.621   2.766
  991SOL     OW 3871   1.890   2.430   4.999
  991SOL    HW1 3872   1.974   2.484   5.001
  991SOL    HW2 3873   1.814   2.487   4.967
  992SOL     OW 3874   1.112   4.018   0.977
  992SOL    HW1 3875   1.026   4.067   0.961
  992SOL    HW2 3876   1.159   4.003   0.890
  993SOL     OW 3877   1.769   5.519   2.342
  993SOL    HW1 3878   1.677   5.556   2.359
  993SOL    HW2 3879   1.824   5.587   2.293
  994SOL     OW 3880   3.813   3.419   2.477
  994SOL    HW1 3881   3.868   3.476   2.538
  994SOL    HW2 3882   3.868   3.342   2.445
  995SOL     OW 3883   2.943   1.872   6.263
  995SOL    HW1 3884   3.041   1.860   6.275
  995SOL    HW2 3885   2.925   1.956   6.212
  996SOL     OW 3886   1.583   4.061   4.040
  996SOL    HW1 3887   1.677   4.032   4.021
  996SOL    HW2 3888   1.546   4.008   4.116
  997SOL     OW 3889   6.624   0.758   1.730
  997SOL    HW1 3890   6.688   0.784   1.803
  997SOL    HW2 3891   6.582   0.670   1.753
  998SOL     OW 3892   4.628   6.818   4.108
  998SOL    HW1 3893   4.604   6.908   4.143
  998SOL    HW2 3894   4.724   6.816   4.080
  999SOL     OW 3895   5.634   4.747   1.316
  999SOL    HW1 3896   5.576   4.689   1.259
  999SOL    HW2 3897   5.605   4.842   1.307
 1000SOL     OW 3898   1.293   1.033   2.283
 1000SOL    HW1 3899   1.276   1.049   2.380
 1000SOL    HW2 3900   1.365   1.094   2.251
 1001SOL     OW 3901   6.038   6.933   0.296
 1001SOL    HW1 3902   5.942   6.937   0.324
 1001SOL    HW2 3903   6.093   6.990   0.358
 1002SOL     OW 3904   6.190   1.891   6.493
 1002SOL    HW1 3905   6.140   1.977   6.485
 1002SOL    HW2 3906   6.198   1.865   6.590
 1003SOL     OW 3907   2.271   6.648   1.839
 1003SOL    HW1 3908   2.347   6.606   1.789
 1003SOL    HW2 3909   2.296   6.742   1.864
 1004SOL     OW 3910   6.912   0.415   1.314
 1004SOL    HW1 3911   6.977   0.437   1.241
 1004SOL    HW2 3912   6.883   0.500   1.358
 1005SOL     OW 3913   0.320   1.315   2.871
 1005SOL    HW1 3914   0.407   1.300   2.917
 1005SOL    HW2 3915   0.252   1.344   2.938
 1006SOL     OW 3916   1.886   5.824   1.739
 1006SOL    HW1 3917   1.858   5.813   1.643
 1006SOL    HW2 3918   1.816   5.787   1.799
 1007SOL     OW 3919   5.822   0.601   4.096
 1007SOL    HW1 3920   5.846   0.662   4.020
 1007SOL    HW2 3921   5.738   0.552   4.073
 1008SOL     OW 3922   2.072   3.057   4.703
 1008SOL    HW1 3923   2.094   2.999   4.781
 1008SOL    HW2 3924   2.139   3.043   4.631
 1009SOL     OW 3925   0.526   6.215   4.268
 1009SOL    HW1 3926   0.596   6.274   4.308
 1009SOL    HW2 3927   0.441   6.223   4.321
 1010SOL     OW 3928   3.500   2.300   6.279
 1010SOL    HW1 3929   3.454   2.212   6.290
 1010SOL    HW2 3930   3.431   2.371   6.260
 1011SOL     OW 3931   2.865   5.272   2.749
 1011SOL    HW1 3932   2.782   5.217   2.742
 1011SOL    HW2 3933   2.938   5.230   2.694
 1012SOL     OW 3934   6.914   6.689   0.388
 1012SOL    HW1 3935   6.948   6.770   0.436
 1012SOL    HW2 3936   6.979   6.662   0.317
 1013SOL     OW 3937   0.198   1.565   6.177
 1013SOL    HW1 3938   0.248   1.514   6.108
 1013SOL    HW2 3939   0.205   1.518   6.265
 1014SOL     OW 3940   5.038   5.364   6.596
 1014SOL    HW1 3941   5.109   5.334   6.660
 1014SOL    HW2 3942   5.060   5.456   6.564
 1015SOL     OW 3943   1.988   6.899   5.178
 1015SOL    HW1 3944   1.931   6.840   5.120
 1015SOL    HW2 3945   1.975   6.994   5.150
 1016SOL     OW 3946   2.604   3.713   0.508
 1016SOL    HW1 3947   2.529   3.769   0.473
 1016SOL    HW2 3948   2.677   3.707   0.439
 1017SOL     OW 3949   4.366   2.928   0.971
 1017SOL    HW1 3950   4.288   2.918   0.908
 1017SOL    HW2 3951   4.451   2.922   0.919
 1018SOL     OW 3952   1.824   3.205   3.820
 1018SOL    HW1 3953   1.742   3.256   3.793
 1018SOL    HW2 3954   1.893   3.268   3.855
 1019SOL     OW 3955   1.568   0.939   0.426
 1019SOL    HW1 3956   1.584   0.885   0.509
 1019SOL    HW2 3957   1.585   1.035   0.446
 1020SOL     OW 3958   1.008   6.956   1.312
 1020SOL    HW1 3959   1.029   0.029   1.338
 1020SOL    HW2 3960   1.044   6.893   1.381
 1021SOL     OW 3961   5.701   0.665   1.154
 1021SOL    HW1 3962   5.781   0.657   1.214
 1021SOL    HW2 3963   5.707   0.597   1.081
 1022SOL     OW 3964   3.748   4.691   6.305
 1022SOL    HW1 3965   3.693   4.608   6.294
 1022SOL    HW2 3966   3.805   4.705   6.225
 1023SOL     OW 3967   6.362   0.087   1.671
 1023SOL    HW1 3968   6.311   0.171   1.655
 1023SOL    HW2 3969   6.305   0.008   1.647
 1024SOL     OW 3970   6.232   3.440   4.028
 1024SOL    HW1 3971   6.253   3.360   3.972
 1024SOL    HW2 3972   6.148   3.423   4.079
 1025SOL     OW 3973   3.378   4.346   0.788
 1025SOL    HW1 3974   3.347   4.437   0.817
 1025SOL    HW2 3975   3.346   4.328   0.695
 1026SOL     OW 3976   1.768   1.719   1.574
 1026SOL    HW1 3977   1.799   1.785   1.507
 1026SOL    HW2 3978   1.692   1.666   1.536
 1027SOL     OW 3979   2.477   6.146   1.121
 1027SOL    HW1 3980   2.544   6.136   1.194
 1027SOL    HW2 3981   2.387   6.166   1.160
 1028SOL     OW 3982   4.433   5.862   0.143
 1028SOL    HW1 3983   4.356   5.905   0.096
 1028SOL    HW2 3984   4.472   5.790   0.085
 1029SOL     OW 3985   2.077   0.293   0.268
 1029SOL    HW1 3986   2.094   0.260   0.360
 1029SOL    HW2 3987   2.163   0.294   0.216
 1030SOL     OW 3988   3.578   3.391   1.611
 1030SOL    HW1 3989   3.630   3.312   1.578
 1030SOL    HW2 3990   3.480   3.370   1.608
 1031SOL     OW 3991   5.086   5.224   0.477
 1031SOL    HW1 3992   5.056   5.286   0.404
 1031SOL    HW2 3993   5.179   5.193   0.458
 1032SOL     OW 3994   1.815   2.002   4.589
 1032SOL    HW1 3995   1.775   1.934   4.650
 1032SOL    HW2 3996   1.808   2.093   4.630
 1033SOL     OW 3997   1.988   6.612   1.201
 1033SOL    HW1 3998   1.914   6.672   1.232
 1033SOL    HW2 3999   1.995   6.618   1.101
 1034SOL     OW 4000   1.260   5.818   5.124
 1034SOL    HW1 4001   1.202   5.899   5.125
 1034SOL    HW2 4002   1.344   5.836   5.173
 1035SOL     OW 4003   2.683   1.381   3.754
 1035SOL    HW1 4004   2.629   1.436   3.818
 1035SOL    HW2 4005   2.779   1.405   3.763
 1036SOL     OW 4006   3.531   0.439   1.260
 1036SOL    HW1 4007   3.493   0.521   1.304
 1036SOL    HW2 4008   3.532   0.364   1.325
 1037SOL     OW 4009   2.102   0.814   1.923
 1037SOL    HW1 4010   2.148   0.801   2.010
 1037SOL    HW2 4011   2.075   0.910   1.914
 1038SOL     OW 4012   1.163   0.873   5.730
 1038SOL    HW1 4013   1.113   0.914   5.806
 1038SOL    HW2 4014   1.121   0.787   5.704
 1039SOL     OW 4015   4.370   2.836   5.736
 1039SOL    HW1 4016   4.408   2.785   5.813
 1039SOL    HW2 4017   4.282   2.875   5.763
 1040SOL     OW 4018   5.110   2.938   2.489
 1040SOL    HW1 4019   5.197   2.980   2.514
 1040SOL    HW2 4020   5.126   2.865   2.423
 1041SOL     OW 4021   6.686   6.970   4.184
 1041SOL    HW1 4022   6.638   0.030   4.151
 1041SOL    HW2 4023   6.661   6.891   4.128
 1042SOL     OW 4024   3.484   4.964   2.063
 1042SOL    HW1 4025   3.563   4.905   2.045
 1042SOL    HW2 4026   3.419   4.915   2.122
 1043SOL     OW 4027   4.596   1.107   5.423
 1043SOL    HW1 4028   4.551   1.180   5.473
 1043SOL    HW2 4029   4.652   1.053   5.485
 1044SOL     OW 4030   4.606   4.447   1.737
 1044SOL    HW1 4031   4.543   4.448   1.660
 1044SOL    HW2 4032   4.579   4.376   1.802
 1045SOL     OW 4033   2.396   6.671   2.215
 1045SOL    HW1 4034   2.455   6.653   2.136
 1045SOL    HW2 4035   2.315   6.723   2.185
 1046SOL     OW 4036   1.963   6.997   0.197
 1046SOL    HW1 4037   2.024   0.051   0.170
 1046SOL    HW2 4038   1.978   6.974   0.293
 1047SOL     OW 4039   1.230   6.299   2.582
 1047SOL    HW1 4040   1.279   6.212   2.594
 1047SOL    HW2 4041   1.294   6.375   2.592
 1048SOL     OW 4042   4.767   5.455   5.588
 1048SOL    HW1 4043   4.692   5.433   5.650
 1048SOL    HW2 4044   4.794   5.372   5.537
 1049SOL     OW 4045   6.739   4.900   4.386
 1049SOL    HW1 4046   6.699   4.991   4.396
 1049SOL    HW2 4047   6.666   4.834   4.368
 1050SOL     OW 4048   3.362   5.351   0.829
 1050SOL    HW1 4049   3.353   5.281   0.759
 1050SOL    HW2 4050   3.283   5.412   0.826
 1051SOL     OW 4051   2.874   5.148   0.452
 1051SOL    HW1 4052   2.906   5.221   0.392
 1051SOL    HW2 4053   2.918   5.155   0.541
 1052SOL     OW 4054   4.304   0.027   4.066
 1052SOL    HW1 4055   4.309   6.999   4.154
 1052SOL    HW2 4056   4.397   0.046   4.034
 1053SOL     OW 4057   5.363   5.527   2.688
 1053SOL    HW1 4058   5.453   5.489   2.667
 1053SOL    HW2 4059   5.308   5.459   2.736
 1054SOL     OW 4060   3.265   4.863   5.404
 1054SOL    HW1 4061   3.310   4.797   5.464
 1054SOL    HW2 4062   3.198   4.816   5.347
 1055SOL     OW 4063   5.765   0.163   4.375
 1055SOL    HW1 4064   5.782   0.251   4.331
 1055SOL    HW2 4065   5.825   0.153   4.454
 1056SOL     OW 4066   1.905   6.050   5.720
 1056SOL    HW1 4067   1.900   5.953   5.695
 1056SOL    HW2 4068   1.918   6.105   5.637
 1057SOL     OW 4069   3.142   3.621   2.322
 1057SOL    HW1 4070   3.054   3.574   2.332
 1057SOL    HW2 4071   3.172   3.614   2.227
 1058SOL     OW 4072   4.761   1.592   2.266
 1058SOL    HW1 4073   4.750   1.530   2.189
 1058SOL    HW2 4074   4.842   1.650   2.251
 1059SOL     OW 4075   2.276   0.750   1.143
 1059SOL    HW1 4076   2.299   0.666   1.193
 1059SOL    HW2 4077   2.357   0.784   1.095
 1060SOL     OW 4078   0.374   2.824   4.554
 1060SOL    HW1 4079   0.305   2.865   4.614
 1060SOL    HW2 4080   0.465   2.842   4.592
 1061SOL     OW 4081   4.899   3.741   1.561
 1061SOL    HW1 4082   4.838   3.767   1.636
 1061SOL    HW2 4083   4.989   3.720   1.597
 1062SOL     OW 4084   6.568   5.005   6.067
 1062SOL    HW1 4085   6.475   4.969   6.059
 1062SOL    HW2 4086   6.608   5.016   5.975
 1063SOL     OW 4087   1.205   4.364   1.463
 1063SOL    HW1 4088   1.257   4.358   1.378
 1063SOL    HW2 4089   1.160   4.453   1.469
 1064SOL     OW 4090   1.102   4.133   1.584
 1064SOL    HW1 4091   1.128   4.223   1.549
 1064SOL    HW2 4092   1.010   4.110   1.552
 1065SOL     OW 4093   4.832   0.449   4.243
 1065SOL    HW1 4094   4.911   0.389   4.243
 1065SOL    HW2 4095   4.823   0.493   4.154
 1066SOL     OW 4096   5.657   1.250   3.984
 1066SOL    HW1 4097   5.696   1.260   4.076
 1066SOL    HW2 4098   5.558   1.266   3.988
 1067SOL     OW 4099   1.550   2.687   0.389
 1067SOL    HW1 4100   1.590   2.596   0.386
 1067SOL    HW2 4101   1.569   2.736   0.304
 1068SOL     OW 4102   5.351   4.360   1.876
 1068SOL    HW1 4103   5.417   4.295   1.840
 1068SOL    HW2 4104   5.298   4.399   1.801
 1069SOL     OW 4105   4.948   5.128   1.514
 1069SOL    HW1 4106   4.858   5.101   1.548
 1069SOL    HW2 4107   4.972   5.072   1.435
 1070SOL     OW 4108   1.318   1.076   0.321
 1070SOL    HW1 4109   1.409   1.066   0.363
 1070SOL    HW2 4110   1.259   1.001   0.351
 1071SOL     OW 4111   3.866   0.426   3.262
 1071SOL    HW1 4112   3.838   0.330   3.256
 1071SOL    HW2 4113   3.826   0.477   3.186
 1072SOL     OW 4114   1.558   5.971   1.181
 1072SOL    HW1 4115   1.642   5.921   1.160
 1072SOL    HW2 4116   1.487   5.906   1.210
 1073SOL     OW 4117   3.578   6.036   2.582
 1073SOL    HW1 4118   3.638   6.008   2.658
 1073SOL    HW2 4119   3.568   6.135   2.582
 1074SOL     OW 4120   1.870   5.276   1.386
 1074SOL    HW1 4121   1.846   5.348   1.451
 1074SOL    HW2 4122   1.788   5.246   1.338
 1075SOL     OW 4123   4.451   6.432   3.478
 1075SOL    HW1 4124   4.435   6.342   3.520
 1075SOL    HW2 4125   4.544   6.462   3.497
 1076SOL     OW 4126   0.396   4.635   5.011
 1076SOL    HW1 4127   0.459   4.685   4.951
 1076SOL    HW2 4128   0.441   4.553   5.046
 1077SOL     OW 4129   6.440   0.025   0.314
 1077SOL    HW1 4130   6.370   0.042   0.384
 1077SOL    HW2 4131   6.400   0.038   0.224
 1078SOL     OW 4132   2.157   0.948   2.621
 1078SOL    HW1 4133   2.150   0.960   2.522
 1078SOL    HW2 4134   2.184   0.854   2.642
 1079SOL     OW 4135   2.014   5.372   2.555
 1079SOL    HW1 4136   2.060   5.445   2.505
 1079SOL    HW2 4137   1.940   5.335   2.499
 1080SOL     OW 4138   1.757   4.310   3.401
 1080SOL    HW1 4139   1.835   4.356   3.443
 1080SOL    HW2 4140   1.683   4.376   3.385
 1081SOL     OW 4141   6.772   0.150   5.232
 1081SOL    HW1 4142   6.772   0.250   5.225
 1081SOL    HW2 4143   6.756   0.111   5.141
 1082SOL     OW 4144   1.837   0.786   5.660
 1082SOL    HW1 4145   1.860   0.714   5.594
 1082SOL    HW2 4146   1.906   0.858   5.655
 1083SOL     OW 4147   4.053   4.249   1.158
 1083SOL    HW1 4148   4.005   4.263   1.244
 1083SOL    HW2 4149   3.994   4.277   1.082
 1084SOL     OW 4150   6.445   5.944   1.081
 1084SOL    HW1 4151   6.488   5.854   1.091
 1084SOL    HW2 4152   6.511   6.014   1.107
 1085SOL     OW 4153   1.919   4.777   3.333
 1085SOL    HW1 4154   1.845   4.801   3.271
 1085SOL    HW2 4155   1.975   4.705   3.292
 1086SOL     OW 4156   6.707   5.785   2.974
 1086SOL    HW1 4157   6.800   5.809   2.998
 1086SOL    HW2 4158   6.666   5.859   2.921
 1087SOL     OW 4159   5.711   2.388   5.664
 1087SOL    HW1 4160   5.791   2.421   5.615
 1087SOL    HW2 4161   5.640   2.364   5.598
 1088SOL     OW 4162   5.974   4.937   3.330
 1088SOL    HW1 4163   5.941   4.936   3.236
 1088SOL    HW2 4164   6.057   4.882   3.336
 1089SOL     OW 4165   1.335   6.954   4.585
 1089SOL    HW1 4166   1.263   6.920   4.524
 1089SOL    HW2 4167   1.294   6.976   4.674
 1090SOL     OW 4168   2.957   1.388   3.710
 1090SOL    HW1 4169   2.932   1.467   3.653
 1090SOL    HW2 4170   2.923   1.304   3.668
 1091SOL     OW 4171   1.886   2.864   4.604
 1091SOL    HW1 4172   1.946   2.813   4.542
 1091SOL    HW2 4173   1.938   2.935   4.650
 1092SOL     OW 4174   2.860   3.494   0.940
 1092SOL    HW1 4175   2.825   3.402   0.927
 1092SOL    HW2 4176   2.895   3.505   1.033
 1093SOL     OW 4177   2.090   2.343   2.792
 1093SOL    HW1 4178   2.146   2.267   2.825
 1093SOL    HW2 4179   2.145   2.402   2.733
 1094SOL     OW 4180   1.025   0.105   2.887
 1094SOL    HW1 4181   1.095   0.080   2.953
 1094SOL    HW2 4182   0.936   0.071   2.918
 1095SOL     OW 4183   6.810   2.134   5.596
 1095SOL    HW1 4184   6.821   2.194   5.676
 1095SOL    HW2 4185   6.713   2.122   5.576
 1096SOL     OW 4186   3.728   4.853   1.677
 1096SOL    HW1 4187   3.673   4.801   1.744
 1096SOL    HW2 4188   3.825   4.833   1.691
 1097SOL     OW 4189   0.812   4.414   4.301
 1097SOL    HW1 4190   0.859   4.371   4.378
 1097SOL    HW2 4191   0.789   4.508   4.324
 1098SOL     OW 4192   5.298   2.655   0.680
 1098SOL    HW1 4193   5.260   2.713   0.608
 1098SOL    HW2 4194   5.340   2.713   0.750
 1099SOL     OW 4195   4.035   1.059   4.600
 1099SOL    HW1 4196   4.032   1.139   4.540
 1099SOL    HW2 4197   4.082   1.083   4.685
 1100SOL     OW 4198   2.386   1.995   6.516
 1100SOL    HW1 4199   2.423   1.991   6.424
 1100SOL    HW2 4200   2.460   1.988   6.583
 1101SOL     OW 4201   5.426   2.777   0.891
 1101SOL    HW1 4202   5.360   2.791   0.965
 1101SOL    HW2 4203   5.504   2.838   0.904
 1102SOL     OW 4204   1.989   5.346   3.167
 1102SOL    HW1 4205   1.915   5.389   3.115
 1102SOL    HW2 4206   1.952   5.310   3.252
 1103SOL     OW 4207   3.058   1.247   1.263
 1103SOL    HW1 4208   3.113   1.300   1.199
 1103SOL    HW2 4209   3.119   1.203   1.330
 1104SOL     OW 4210   1.948   3.273   6.280
 1104SOL    HW1 4211   2.015   3.348   6.282
 1104SOL    HW2 4212   1.996   3.186   6.274
 1105SOL     OW 4213   5.167   3.354   5.385
 1105SOL    HW1 4214   5.111   3.380   5.464
 1105SOL    HW2 4215   5.202   3.436   5.340
 1106SOL     OW 4216   1.070   2.050   0.601
 1106SOL    HW1 4217   1.059   2.080   0.695
 1106SOL    HW2 4218   0.980   2.024   0.564
 1107SOL     OW 4219   0.705   0.559   6.514
 1107SOL    HW1 4220   0.671   0.594   6.426
 1107SOL    HW2 4221   0.744   0.635   6.566
 1108SOL     OW 4222   2.910   0.143   6.113
 1108SOL    HW1 4223   2.938   0.082   6.188
 1108SOL    HW2 4224   2.832   0.103   6.065
 1109SOL     OW 4225   4.336   5.479   4.642
 1109SOL    HW1 4226   4.255   5.439   4.600
 1109SOL    HW2 4227   4.312   5.518   4.731
 1110SOL     OW 4228   2.747   1.723   2.176
 1110SOL    HW1 4229   2.756   1.811   2.223
 1110SOL    HW2 4230   2.809   1.721   2.097
 1111SOL     OW 4231   5.760   6.049   0.305
 1111SOL    HW1 4232   5.757   6.006   0.214
 1111SOL    HW2 4233   5.694   6.124   0.308
 1112SOL     OW 4234   6.231   0.906   2.736
 1112SOL    HW1 4235   6.252   1.003   2.751
 1112SOL    HW2 4236   6.260   0.853   2.815
 1113SOL     OW 4237   6.052   3.389   2.592
 1113SOL    HW1 4238   6.101   3.469   2.626
 1113SOL    HW2 4239   6.022   3.333   2.669
 1114SOL     OW 4240   4.718   0.743   6.640
 1114SOL    HW1 4241   4.693   0.654   6.602
 1114SOL    HW2 4242   4.693   0.746   6.737
 1115SOL     OW 4243   3.880   3.444   7.015
 1115SOL    HW1 4244   3.902   3.499   6.935
 1115SOL    HW2 4245   3.828   3.363   6.988
 1116SOL     OW 4246   5.824   5.320   4.367
 1116SOL    HW1 4247   5.911   5.347   4.326
 1116SOL    HW2 4248   5.762   5.288   4.296
 1117SOL     OW 4249   2.207   2.463   1.501
 1117SOL    HW1 4250   2.122   2.498   1.463
 1117SOL    HW2 4251   2.192   2.431   1.594
 1118SOL     OW 4252   2.085   5.028   2.021
 1118SOL    HW1 4253   2.101   4.977   1.936
 1118SOL    HW2 4254   2.042   4.968   2.088
 1119SOL     OW 4255   4.036   4.522   1.404
 1119SOL    HW1 4256   4.127   4.485   1.423
 1119SOL    HW2 4257   3.975   4.448   1.376
 1120SOL     OW 4258   5.213   6.046   5.536
 1120SOL    HW1 4259   5.151   5.994   5.477
 1120SOL    HW2 4260   5.238   5.989   5.615
 1121SOL     OW 4261   5.076   4.350   2.215
 1121SOL    HW1 4262   5.089   4.422   2.283
 1121SOL    HW2 4263   5.094   4.261   2.257
 1122SOL     OW 4264   4.937   3.175   6.043
 1122SOL    HW1 4265   4.937   3.108   5.969
 1122SOL    HW2 4266   5.018   3.162   6.100
 1123SOL     OW 4267   4.969   1.758   2.447
 1123SOL    HW1 4268   4.916   1.836   2.481
 1123SOL    HW2 4269   4.914   1.675   2.454
 1124SOL     OW 4270   6.268   3.815   5.372
 1124SOL    HW1 4271   6.171   3.835   5.359
 1124SOL    HW2 4272   6.323   3.885   5.327
 1125SOL     OW 4273   1.890   1.586   4.799
 1125SOL    HW1 4274   1.951   1.658   4.833
 1125SOL    HW2 4275   1.799   1.599   4.838
 1126SOL     OW 4276   5.320   6.738   0.339
 1126SOL    HW1 4277   5.406   6.789   0.347
 1126SOL    HW2 4278   5.290   6.738   0.244
 1127SOL     OW 4279   4.525   5.628   5.348
 1127SOL    HW1 4280   4.521   5.622   5.447
 1127SOL    HW2 4281   4.620   5.643   5.319
 1128SOL     OW 4282   4.649   2.380   5.291
 1128SOL    HW1 4283   4.552   2.363   5.307
 1128SOL    HW2 4284   4.686   2.437   5.364
 1129SOL     OW 4285   3.979   6.937   0.627
 1129SOL    HW1 4286   4.027   7.014   0.667
 1129SOL    HW2 4287   3.980   6.944   0.527
 1130SOL     OW 4288   2.030   3.767   1.181
 1130SOL    HW1 4289   1.966   3.693   1.164
 1130SOL    HW2 4290   1.979   3.851   1.201
 1131SOL     OW 4291   0.481   6.482   5.750
 1131SOL    HW1 4292   0.490   6.415   5.825
 1131SOL    HW2 4293   0.496   6.436   5.663
 1132SOL     OW 4294   4.465   7.006   6.879
 1132SOL    HW1 4295   4.469   6.919   6.830
 1132SOL    HW2 4296   4.537   7.009   6.949
 1133SOL     OW 4297   6.915   1.787   0.519
 1133SOL    HW1 4298   6.887   1.847   0.595
 1133SOL    HW2 4299   6.938   1.697   0.556
 1134SOL     OW 4300   5.123   1.783   0.481
 1134SOL    HW1 4301   5.097   1.760   0.575
 1134SOL    HW2 4302   5.128   1.883   0.471
 1135SOL     OW 4303   3.080   1.464   2.634
 1135SOL    HW1 4304   3.059   1.367   2.645
 1135SOL    HW2 4305   3.178   1.476   2.623
 1136SOL     OW 4306   3.560   5.186   4.946
 1136SOL    HW1 4307   3.559   5.213   5.042
 1136SOL    HW2 4308   3.496   5.244   4.895
 1137SOL     OW 4309   0.804   3.013   0.129
 1137SOL    HW1 4310   0.817   2.924   0.174
 1137SOL    HW2 4311   0.805   3.085   0.199
 1138SOL     OW 4312   0.907   1.873   6.063
 1138SOL    HW1 4313   0.999   1.868   6.102
 1138SOL    HW2 4314   0.869   1.964   6.080
 1139SOL     OW 4315   2.356   6.253   1.955
 1139SOL    HW1 4316   2.421   6.189   1.914
 1139SOL    HW2 4317   2.400   6.301   2.031
 1140SOL     OW 4318   3.893   1.842   2.068
 1140SOL    HW1 4319   3.900   1.769   2.000
 1140SOL    HW2 4320   3.811   1.827   2.124
 1141SOL     OW 4321   6.357   5.940   6.306
 1141SOL    HW1 4322   6.305   6.016   6.347
 1141SOL    HW2 4323   6.321   5.853   6.340
 1142SOL     OW 4324   4.188   0.509   4.213
 1142SOL    HW1 4325   4.275   0.535   4.171
 1142SOL    HW2 4326   4.161   0.418   4.181
 1143SOL     OW 4327   3.186   2.061   2.329
 1143SOL    HW1 4328   3.211   2.010   2.247
 1143SOL    HW2 4329   3.092   2.094   2.321
 1144SOL     OW 4330   6.795   5.016   4.862
 1144SOL    HW1 4331   6.808   4.939   4.925
 1144SOL    HW2 4332   6.830   4.991   4.772
 1145SOL     OW 4333   0.323   4.319   3.118
 1145SOL    HW1 4334   0.403   4.265   3.090
 1145SOL    HW2 4335   0.258   4.260   3.166
 1146SOL     OW 4336   5.110   0.676   0.798
 1146SOL    HW1 4337   5.034   0.622   0.764
 1146SOL    HW2 4338   5.076   0.761   0.838
 1147SOL     OW 4339   0.837   4.770   0.370
 1147SOL    HW1 4340   0.813   4.679   0.337
 1147SOL    HW2 4341   0.883   4.762   0.458
 1148SOL     OW 4342   3.305   6.426   0.348
 1148SOL    HW1 4343   3.286   6.334   0.382
 1148SOL    HW2 4344   3.358   6.476   0.416
 1149SOL     OW 4345   5.334   3.786   3.098
 1149SOL    HW1 4346   5.401   3.789   3.171
 1149SOL    HW2 4347   5.379   3.768   3.011
 1150SOL     OW 4348   1.270   3.893   0.776
 1150SOL    HW1 4349   1.355   3.844   0.760
 1150SOL    HW2 4350   1.274   3.983   0.732
 1151SOL     OW 4351   5.122   5.612   6.584
 1151SOL    HW1 4352   5.203   5.661   6.553
 1151SOL    HW2 4353   5.053   5.678   6.614
 1152SOL     OW 4354   0.948   6.240   5.630
 1152SOL    HW1 4355   0.881   6.312   5.616
 1152SOL    HW2 4356   0.901   6.154   5.651
 1153SOL     OW 4357   2.303   6.946   1.868
 1153SOL    HW1 4358   2.294   0.016   1.908
 1153SOL    HW2 4359   2.235   6.935   1.795
 1154SOL     OW 4360   0.335   3.485   2.160
 1154SOL    HW1 4361   0.347   3.402   2.105
 1154SOL    HW2 4362   0.343   3.565   2.100
 1155SOL     OW 4363   3.429   4.913   6.695
 1155SOL    HW1 4364   3.465   4.824   6.668
 1155SOL    HW2 4365   3.341   4.928   6.649
 1156SOL     OW 4366   1.766   0.422   4.347
 1156SOL    HW1 4367   1.696   0.359   4.312
 1156SOL    HW2 4368   1.725   0.482   4.416
 1157SOL     OW 4369   6.193   1.987   4.300
 1157SOL    HW1 4370   6.127   1.935   4.355
 1157SOL    HW2 4371   6.199   1.947   4.209
 1158SOL     OW 4372   6.521   5.346   5.767
 1158SOL    HW1 4373   6.464   5.266   5.748
 1158SOL    HW2 4374   6.600   5.319   5.821
 1159SOL     OW 4375   5.208   0.296   3.035
 1159SOL    HW1 4376   5.266   0.268   2.959
 1159SOL    HW2 4377   5.247   0.376   3.080
 1160SOL     OW 4378   3.970   4.021   1.355
 1160SOL    HW1 4379   3.971   3.962   1.275
 1160SOL    HW2 4380   3.902   3.987   1.420
 1161SOL     OW 4381   4.817   0.062   5.595
 1161SOL    HW1 4382   4.855   6.991   5.590
 1161SOL    HW2 4383   4.729   0.065   5.548
 1162SOL     OW 4384   3.896   3.121   0.617
 1162SOL    HW1 4385   3.857   3.207   0.585
 1162SOL    HW2 4386   3.984   3.106   0.571
 1163SOL     OW 4387   5.430   3.083   2.280
 1163SOL    HW1 4388   5.497   3.156   2.288
 1163SOL    HW2 4389   5.404   3.072   2.184
 1164SOL     OW 4390   5.334   2.545   3.914
 1164SOL    HW1 4391   5.252   2.575   3.864
 1164SOL    HW2 4392   5.384   2.625   3.947
 1165SOL     OW 4393   2.127   4.582   4.169
 1165SOL    HW1 4394   2.057   4.583   4.240
 1165SOL    HW2 4395   2.093   4.532   4.089
 1166SOL     OW 4396   3.958   0.679   6.912
 1166SOL    HW1 4397   3.865   0.646   6.899
 1166SOL    HW2 4398   3.992   0.650   7.002
 1167SOL     OW 4399   2.908   0.152   6.552
 1167SOL    HW1 4400   2.942   0.077   6.494
 1167SOL    HW2 4401   2.808   0.150   6.553
 1168SOL     OW 4402   6.263   6.670   2.424
 1168SOL    HW1 4403   6.224   6.612   2.352
 1168SOL    HW2 4404   6.257   6.622   2.512
 1169SOL     OW 4405   6.727   2.749   0.396
 1169SOL    HW1 4406   6.676   2.832   0.419
 1169SOL    HW2 4407   6.825   2.767   0.403
 1170SOL     OW 4408   4.739   0.638   1.954
 1170SOL    HW1 4409   4.704   0.545   1.946
 1170SOL    HW2 4410   4.745   0.663   2.051
 1171SOL     OW 4411   2.175   5.757   0.327
 1171SOL    HW1 4412   2.124   5.673   0.343
 1171SOL    HW2 4413   2.259   5.736   0.277
 1172SOL     OW 4414   3.546   4.037   3.114
 1172SOL    HW1 4415   3.644   4.047   3.130
 1172SOL    HW2 4416   3.517   3.944   3.137
 1173SOL     OW 4417   3.123   0.127   5.945
 1173SOL    HW1 4418   3.116   0.162   5.852
 1173SOL    HW2 4419   3.033   0.130   5.988
 1174SOL     OW 4420   3.265   5.126   0.659
 1174SOL    HW1 4421   3.230   5.032   0.653
 1174SOL    HW2 4422   3.191   5.187   0.689
 1175SOL     OW 4423   5.161   3.283   6.490
 1175SOL    HW1 4424   5.104   3.362   6.512
 1175SOL    HW2 4425   5.141   3.208   6.552
 1176SOL     OW 4426   5.645   4.268   0.578
 1176SOL    HW1 4427   5.707   4.336   0.539
 1176SOL    HW2 4428   5.621   4.295   0.672
 1177SOL     OW 4429   0.065   1.533   5.226
 1177SOL    HW1 4430   0.036   1.465   5.159
 1177SOL    HW2 4431   0.155   1.568   5.202
 1178SOL     OW 4432   3.918   3.348   1.198
 1178SOL    HW1 4433   3.835   3.399   1.179
 1178SOL    HW2 4434   3.945   3.296   1.117
 1179SOL     OW 4435   3.005   5.231   0.697
 1179SOL    HW1 4436   2.956   5.192   0.774
 1179SOL    HW2 4437   3.032   5.325   0.719
 1180SOL     OW 4438   2.946   0.323   3.650
 1180SOL    HW1 4439   2.957   0.418   3.622
 1180SOL    HW2 4440   2.927   0.267   3.570
 1181SOL     OW 4441   0.383   2.959   4.897
 1181SOL    HW1 4442   0.316   2.885   4.902
 1181SOL    HW2 4443   0.457   2.932   4.836
 1182SOL     OW 4444   1.793   5.078   3.352
 1182SOL    HW1 4445   1.773   5.010   3.422
 1182SOL    HW2 4446   1.807   5.032   3.264
 1183SOL     OW 4447   3.544   5.598   2.540
 1183SOL    HW1 4448   3.608   5.667   2.507
 1183SOL    HW2 4449   3.458   5.606   2.490
 1184SOL     OW 4450   3.647   2.087   5.156
 1184SOL    HW1 4451   3.554   2.124   5.153
 1184SOL    HW2 4452   3.688   2.093   5.065
 1185SOL     OW 4453   2.323   0.193   0.150
 1185SOL    HW1 4454   2.346   0.286   0.178
 1185SOL    HW2 4455   2.392   0.129   0.183
 1186SOL     OW 4456   6.022   6.611   6.145
 1186SOL    HW1 4457   6.083   6.599   6.066
 1186SOL    HW2 4458   5.981   6.702   6.142
 1187SOL     OW 4459   5.691   5.982   4.867
 1187SOL    HW1 4460   5.693   5.923   4.786
 1187SOL    HW2 4461   5.725   5.931   4.946
 1188SOL     OW 4462   3.619   6.734   6.417
 1188SOL    HW1 4463   3.543   6.776   6.465
 1188SOL    HW2 4464   3.630   6.777   6.327
 1189SOL     OW 4465   5.353   0.995   1.813
 1189SOL    HW1 4466   5.257   1.023   1.822
 1189SOL    HW2 4467   5.392   1.037   1.731
 1190SOL     OW 4468   4.471   4.790   4.629
 1190SOL    HW1 4469   4.429   4.879   4.646
 1190SOL    HW2 4470   4.478   4.740   4.715
 1191SOL     OW 4471   4.161   5.876   5.141
 1191SOL    HW1 4472   4.113   5.867   5.054
 1191SOL    HW2 4473   4.100   5.919   5.208
 1192SOL     OW 4474   5.723   5.170   3.160
 1192SOL    HW1 4475   5.726   5.207   3.253
 1192SOL    HW2 4476   5.630   5.177   3.124
 1193SOL     OW 4477   6.713   0.502   4.387
 1193SOL    HW1 4478   6.661   0.563   4.445
 1193SOL    HW2 4479   6.731   0.547   4.299
 1194SOL     OW 4480   0.296   1.594   1.213
 1194SOL    HW1 4481   0.232   1.534   1.165
 1194SOL    HW2 4482   0.388   1.583   1.176
 1195SOL     OW 4483   5.580   2.257   0.772
 1195SOL    HW1 4484   5.556   2.353   0.757
 1195SOL    HW2 4485   5.501   2.208   0.808
 1196SOL     OW 4486   0.070   4.559   2.135
 1196SOL    HW1 4487   0.114   4.471   2.151
 1196SOL    HW2 4488   7.013   4.548   2.074
 1197SOL     OW 4489   3.739   5.819   5.128
 1197SOL    HW1 4490   3.739   5.794   5.224
 1197SOL    HW2 4491   3.763   5.739   5.072
 1198SOL     OW 4492   2.357   2.637   2.221
 1198SOL    HW1 4493   2.443   2.660   2.266
 1198SOL    HW2 4494   2.373   2.569   2.150
 1199SOL     OW 4495   3.747   3.099   2.963
 1199SOL    HW1 4496   3.767   3.095   2.865
 1199SOL    HW2 4497   3.650   3.120   2.976
 1200SOL     OW 4498   3.924   4.041   4.781
 1200SOL    HW1 4499   3.933   3.954   4.734
 1200SOL    HW2 4500   3.964   4.114   4.725
 1201SOL     OW 4501   0.252   1.290   4.072
 1201SOL    HW1 4502   0.348   1.289   4.043
 1201SOL    HW2 4503   0.204   1.215   4.027
 1202SOL     OW 4504   6.508   0.629   5.762
 1202SOL    HW1 4505   6.566   0.638   5.843
 1202SOL    HW2 4506   6.561   0.591   5.687
 1203SOL     OW 4507   5.877   6.852   1.337
 1203SOL    HW1 4508   5.849   6.878   1.244
 1203SOL    HW2 4509   5.866   6.931   1.398
 1204SOL     OW 4510   4.307   1.279   0.102
 1204SOL    HW1 4511   4.230   1.274   0.038
 1204SOL    HW2 4512   4.275   1.312   0.191
 1205SOL     OW 4513   3.827   3.457   6.499
 1205SOL    HW1 4514   3.853   3.421   6.410
 1205SOL    HW2 4515   3.860   3.396   6.571
 1206SOL     OW 4516   1.296   2.157   4.959
 1206SOL    HW1 4517   1.283   2.079   4.898
 1206SOL    HW2 4518   1.286   2.242   4.907
 1207SOL     OW 4519   0.430   7.015   0.598
 1207SOL    HW1 4520   0.331   7.001   0.590
 1207SOL    HW2 4521   0.464   6.965   0.678
 1208SOL     OW 4522   3.518   3.931   2.284
 1208SOL    HW1 4523   3.574   3.909   2.205
 1208SOL    HW2 4524   3.424   3.901   2.268
 1209SOL     OW 4525   5.571   6.931   4.602
 1209SOL    HW1 4526   5.656   6.884   4.578
 1209SOL    HW2 4527   5.589   0.007   4.616
 1210SOL     OW 4528   4.427   6.949   3.620
 1210SOL    HW1 4529   4.486   6.870   3.602
 1210SOL    HW2 4530   4.449   0.001   3.556
 1211SOL     OW 4531   1.732   3.561   3.232
 1211SOL    HW1 4532   1.685   3.646   3.258
 1211SOL    HW2 4533   1.740   3.503   3.313
 1212SOL     OW 4534   0.221   2.019   5.641
 1212SOL    HW1 4535   0.164   2.005   5.722
 1212SOL    HW2 4536   0.311   2.051   5.669
 1213SOL     OW 4537   5.748   3.178   5.195
 1213SOL    HW1 4538   5.749   3.078   5.203
 1213SOL    HW2 4539   5.813   3.207   5.125
 1214SOL     OW 4540   1.203   3.505   4.901
 1214SOL    HW1 4541   1.159   3.590   4.929
 1214SOL    HW2 4542   1.160   3.427   4.947
 1215SOL     OW 4543   1.943   5.090   2.519
 1215SOL    HW1 4544   1.965   5.075   2.422
 1215SOL    HW2 4545   1.867   5.155   2.526
 1216SOL     OW 4546   0.221   6.931   1.344
 1216SOL    HW1 4547   0.237   6.833   1.349
 1216SOL    HW2 4548   0.293   6.980   1.393
 1217SOL     OW 4549   2.581   5.971   0.934
 1217SOL    HW1 4550   2.557   6.049   0.992
 1217SOL    HW2 4551   2.528   5.890   0.963
 1218SOL     OW 4552   0.586   3.357   4.805
 1218SOL    HW1 4553   0.497   3.312   4.790
 1218SOL    HW2 4554   0.658   3.289   4.810
 1219SOL     OW 4555   4.600   4.826   1.460
 1219SOL    HW1 4556   4.666   4.760   1.424
 1219SOL    HW2 4557   4.549   4.867   1.385
 1220SOL     OW 4558   5.462   3.721   2.850
 1220SOL    HW1 4559   5.524   3.798   2.862
 1220SOL    HW2 4560   5.419   3.726   2.760
 1221SOL     OW 4561   5.738   4.016   6.454
 1221SOL    HW1 4562   5.786   3.967   6.527
 1221SOL    HW2 4563   5.644   3.985   6.450
 1222SOL     OW 4564   6.622   0.160   0.461
 1222SOL    HW1 4565   6.684   0.153   0.383
 1222SOL    HW2 4566   6.535   0.116   0.439
 1223SOL     OW 4567   5.463   1.355   0.656
 1223SOL    HW1 4568   5.366   1.377   0.659
 1223SOL    HW2 4569   5.475   1.256   0.663
 1224SOL     OW 4570   3.291   5.853   0.603
 1224SOL    HW1 4571   3.370   5.843   0.543
 1224SOL    HW2 4572   3.267   5.950   0.612
 1225SOL     OW 4573   4.109   2.811   1.101
 1225SOL    HW1 4574   4.029   2.871   1.099
 1225SOL    HW2 4575   4.122   2.769   1.011
 1226SOL     OW 4576   4.910   5.876   0.590
 1226SOL    HW1 4577   4.954   5.964   0.571
 1226SOL    HW2 4578   4.825   5.891   0.640
 1227SOL     OW 4579   6.299   4.934   6.012
 1227SOL    HW1 4580   6.221   4.990   5.984
 1227SOL    HW2 4581   6.316   4.862   5.944
 1228SOL     OW 4582   3.782   3.351   0.435
 1228SOL    HW1 4583   3.848   3.358   0.360
 1228SOL    HW2 4584   3.770   3.441   0.478
 1229SOL     OW 4585   1.747   6.620   1.590
 1229SOL    HW1 4586   1.808   6.544   1.611
 1229SOL    HW2 4587   1.711   6.659   1.676
 1230SOL     OW 4588   5.274   5.585   3.012
 1230SOL    HW1 4589   5.346   5.516   3.009
 1230SOL    HW2 4590   5.194   5.551   2.963
 1231SOL     OW 4591   1.137   2.493   6.185
 1231SOL    HW1 4592   1.112   2.405   6.227
 1231SOL    HW2 4593   1.191   2.547   6.250
 1232SOL     OW 4594   4.595   0.881   5.261
 1232SOL    HW1 4595   4.693   0.863   5.268
 1232SOL    HW2 4596   4.577   0.976   5.284
 1233SOL     OW 4597   1.205   5.503   3.308
 1233SOL    HW1 4598   1.223   5.570   3.380
 1233SOL    HW2 4599   1.176   5.551   3.224
 1234SOL     OW 4600   6.970   2.371   6.211
 1234SOL    HW1 4601   6.901   2.433   6.248
 1234SOL    HW2 4602   0.017   2.423   6.159
 1235SOL     OW 4603   6.565   4.626   6.914
 1235SOL    HW1 4604   6.489   4.588   6.966
 1235SOL    HW2 4605   6.645   4.635   6.972
 1236SOL     OW 4606   3.991   2.069   0.852
 1236SOL    HW1 4607   3.962   2.106   0.940
 1236SOL    HW2 4608   3.924   2.003   0.819
 1237SOL     OW 4609   1.765   6.167   4.894
 1237SOL    HW1 4610   1.681   6.115   4.878
 1237SOL    HW2 4611   1.830   6.111   4.945
 1238SOL     OW 4612   0.264   6.882   3.747
 1238SOL    HW1 4613   0.315   6.851   3.666
 1238SOL    HW2 4614   0.195   6.813   3.771
 1239SOL     OW 4615   6.190   5.869   5.009
 1239SOL    HW1 4616   6.142   5.871   4.921
 1239SOL    HW2 4617   6.285   5.899   4.995
 1240SOL     OW 4618   5.956   4.718   2.154
 1240SOL    HW1 4619   6.047   4.732   2.194
 1240SOL    HW2 4620   5.899   4.668   2.219
 1241SOL     OW 4621   0.051   4.485   4.794
 1241SOL    HW1 4622   6.974   4.486   4.815
 1241SOL    HW2 4623   0.066   4.440   4.706
 1242SOL     OW 4624   2.482   3.237   0.330
 1242SOL    HW1 4625   2.494   3.273   0.238
 1242SOL    HW2 4626   2.536   3.292   0.394
 1243SOL     OW 4627   0.919   1.473   4.635
 1243SOL    HW1 4628   1.018   1.473   4.619
 1243SOL    HW2 4629   0.872   1.506   4.554
 1244SOL     OW 4630   5.106   6.655   5.389
 1244SOL    HW1 4631   5.191   6.612   5.420
 1244SOL    HW2 4632   5.083   6.731   5.449
 1245SOL     OW 4633   5.269   5.501   0.868
 1245SOL    HW1 4634   5.185   5.478   0.917
 1245SOL    HW2 4635   5.275   5.448   0.783
 1246SOL     OW 4636   3.646   0.866   2.093
 1246SOL    HW1 4637   3.659   0.768   2.079
 1246SOL    HW2 4638   3.635   0.911   2.005
 1247SOL     OW 4639   6.213   0.234   5.018
 1247SOL    HW1 4640   6.217   0.253   4.920
 1247SOL    HW2 4641   6.305   0.240   5.056
 1248SOL     OW 4642   1.318   6.423   4.057
 1248SOL    HW1 4643   1.309   6.479   4.139
 1248SOL    HW2 4644   1.230   6.420   4.009
 1249SOL     OW 4645   0.387   4.394   1.643
 1249SOL    HW1 4646   0.344   4.325   1.585
 1249SOL    HW2 4647   0.320   4.464   1.668
 1250SOL     OW 4648   6.026   3.203   4.319
 1250SOL    HW1 4649   5.942   3.226   4.368
 1250SOL    HW2 4650   6.105   3.246   4.364
 1251SOL     OW 4651   2.214   1.132   2.787
 1251SOL    HW1 4652   2.234   1.077   2.868
 1251SOL    HW2 4653   2.211   1.074   2.706
 1252SOL     OW 4654   3.430   5.177   6.574
 1252SOL    HW1 4655   3.450   5.091   6.623
 1252SOL    HW2 4656   3.368   5.158   6.498
 1253SOL     OW 4657   2.757   0.596   1.434
 1253SOL    HW1 4658   2.818   0.651   1.491
 1253SOL    HW2 4659   2.696   0.657   1.383
 1254SOL     OW 4660   6.228   2.638   3.030
 1254SOL    HW1 4661   6.231   2.625   2.931
 1254SOL    HW2 4662   6.303   2.698   3.058
 1255SOL     OW 4663   5.811   2.604   5.798
 1255SOL    HW1 4664   5.889   2.620   5.738
 1255SOL    HW2 4665   5.735   2.566   5.746
 1256SOL     OW 4666   0.385   6.351   3.312
 1256SOL    HW1 4667   0.360   6.256   3.294
 1256SOL    HW2 4668   0.484   6.361   3.308
 1257SOL     OW 4669   0.213   4.918   4.243
 1257SOL    HW1 4670   0.117   4.889   4.240
 1257SOL    HW2 4671   0.226   4.996   4.182
 1258SOL     OW 4672   1.959   5.564   2.759
 1258SOL    HW1 4673   2.002   5.486   2.714
 1258SOL    HW2 4674   1.870   5.535   2.797
 1259SOL     OW 4675   3.149   6.256   5.396
 1259SOL    HW1 4676   3.138   6.255   5.496
 1259SOL    HW2 4677   3.109   6.340   5.359
 1260SOL     OW 4678   3.484   1.038   1.124
 1260SOL    HW1 4679   3.552   0.966   1.136
 1260SOL    HW2 4680   3.468   1.053   1.026
 1261SOL     OW 4681   0.001   4.012   0.068
 1261SOL    HW1 4682   6.993   3.984   6.997
 1261SOL    HW2 4683   0.100   4.007   0.075
 1262SOL     OW 4684   4.672   5.051   1.583
 1262SOL    HW1 4685   4.664   4.962   1.539
 1262SOL    HW2 4686   4.635   5.045   1.676
 1263SOL     OW 4687   6.648   1.409   0.584
 1263SOL    HW1 4688   6.632   1.457   0.670
 1263SOL    HW2 4689   6.635   1.473   0.507
 1264SOL     OW 4690   1.275   3.842   2.132
 1264SOL    HW1 4691   1.252   3.853   2.035
 1264SOL    HW2 4692   1.245   3.923   2.182
 1265SOL     OW 4693   6.991   4.363   2.966
 1265SOL    HW1 4694   0.061   4.336   2.933
 1265SOL    HW2 4695   6.952   4.289   3.021
 1266SOL     OW 4696   2.254   0.638   3.996
 1266SOL    HW1 4697   2.315   0.614   3.921
 1266SOL    HW2 4698   2.173   0.684   3.960
 1267SOL     OW 4699   5.330   5.938   1.100
 1267SOL    HW1 4700   5.250   5.899   1.054
 1267SOL    HW2 4701   5.303   6.020   1.150
 1268SOL     OW 4702   4.577   2.252   6.622
 1268SOL    HW1 4703   4.595   2.332   6.565
 1268SOL    HW2 4704   4.481   2.225   6.612
 1269SOL     OW 4705   5.707   6.214   5.202
 1269SOL    HW1 4706   5.800   6.220   5.238
 1269SOL    HW2 4707   5.648   6.171   5.270
 1270SOL     OW 4708   2.149   3.591   4.058
 1270SOL    HW1 4709   2.161   3.553   3.967
 1270SOL    HW2 4710   2.171   3.689   4.057
 1271SOL     OW 4711   3.791   1.786   3.616
 1271SOL    HW1 4712   3.742   1.867   3.583
 1271SOL    HW2 4713   3.770   1.708   3.557
 1272SOL     OW 4714   6.855   6.001   1.236
 1272SOL    HW1 4715   6.870   6.061   1.315
 1272SOL    HW2 4716   6.821   6.056   1.159
 1273SOL     OW 4717   1.650   4.540   7.014
 1273SOL    HW1 4718   1.703   4.621   0.019
 1273SOL    HW2 4719   1.642   4.537   6.914
 1274SOL     OW 4720   6.458   3.443   1.919
 1274SOL    HW1 4721   6.433   3.538   1.897
 1274SOL    HW2 4722   6.554   3.440   1.946
 1275SOL     OW 4723   3.916   0.135   3.624
 1275SOL    HW1 4724   3.963   0.221   3.606
 1275SOL    HW2 4725   3.981   0.059   3.618
 1276SOL     OW 4726   6.814   0.541   3.027
 1276SOL    HW1 4727   6.796   0.637   3.048
 1276SOL    HW2 4728   6.739   0.484   3.061
 1277SOL     OW 4729   0.470   0.131   4.664
 1277SOL    HW1 4730   0.436   0.199   4.599
 1277SOL    HW2 4731   0.560   0.159   4.696
 1278SOL     OW 4732   1.230   1.205   5.470
 1278SOL    HW1 4733   1.250   1.300   5.448
 1278SOL    HW2 4734   1.312   1.161   5.507
 1279SOL     OW 4735   2.637   6.848   0.507
 1279SOL    HW1 4736   2.658   6.840   0.605
 1279SOL    HW2 4737   2.563   6.785   0.485
 1280SOL     OW 4738   2.754   6.169   3.902
 1280SOL    HW1 4739   2.817   6.172   3.825
 1280SOL    HW2 4740   2.794   6.220   3.979
 1281SOL     OW 4741   0.792   5.670   2.867
 1281SOL    HW1 4742   0.850   5.703   2.793
 1281SOL    HW2 4743   0.843   5.671   2.953
 1282SOL     OW 4744   0.325   1.047   0.369
 1282SOL    HW1 4745   0.235   1.075   0.403
 1282SOL    HW2 4746   0.367   1.123   0.320
 1283SOL     OW 4747   5.116   2.507   5.264
 1283SOL    HW1 4748   5.044   2.448   5.228
 1283SOL    HW2 4749   5.088   2.603   5.257
 1284SOL     OW 4750   4.035   3.626   1.526
 1284SOL    HW1 4751   4.050   3.528   1.516
 1284SOL    HW2 4752   4.071   3.674   1.446
 1285SOL     OW 4753   5.498   3.409   6.257
 1285SOL    HW1 4754   5.457   3.352   6.185
 1285SOL    HW2 4755   5.482   3.368   6.346
 1286SOL     OW 4756   4.928   4.597   2.667
 1286SOL    HW1 4757   4.900   4.518   2.613
 1286SOL    HW2 4758   4.878   4.678   2.637
 1287SOL     OW 4759   4.578   3.837   6.053
 1287SOL    HW1 4760   4.631   3.824   5.969
 1287SOL    HW2 4761   4.542   3.931   6.055
 1288SOL     OW 4762   6.166   3.760   0.871
 1288SOL    HW1 4763   6.184   3.766   0.969
 1288SOL    HW2 4764   6.179   3.850   0.829
 1289SOL     OW 4765   0.393   6.101   1.890
 1289SOL    HW1 4766   0.386   6.034   1.964
 1289SOL    HW2 4767   0.357   6.061   1.806
 1290SOL     OW 4768   1.143   0.493   0.048
 1290SOL    HW1 4769   1.236   0.529   0.042
 1290SOL    HW2 4770   1.145   0.404   0.094
 1291SOL     OW 4771   0.431   3.650   5.831
 1291SOL    HW1 4772   0.342   3.694   5.844
 1291SOL    HW2 4773   0.472   3.682   5.746
 1292SOL     OW 4774   6.036   5.217   2.477
 1292SOL    HW1 4775   6.021   5.197   2.574
 1292SOL    HW2 4776   6.120   5.170   2.447
 1293SOL     OW 4777   1.889   1.296   6.620
 1293SOL    HW1 4778   1.971   1.250   6.654
 1293SOL    HW2 4779   1.816   1.229   6.607
 1294SOL     OW 4780   1.140   3.391   0.660
 1294SOL    HW1 4781   1.161   3.481   0.622
 1294SOL    HW2 4782   1.173   3.386   0.755
 1295SOL     OW 4783   6.555   3.662   2.559
 1295SOL    HW1 4784   6.642   3.707   2.542
 1295SOL    HW2 4785   6.509   3.645   2.471
 1296SOL     OW 4786   3.801   0.541   5.667
 1296SOL    HW1 4787   3.879   0.496   5.623
 1296SOL    HW2 4788   3.740   0.578   5.596
 1297SOL     OW 4789   5.897   0.419   6.306
 1297SOL    HW1 4790   5.924   0.494   6.366
 1297SOL    HW2 4791   5.936   0.433   6.215
 1298SOL     OW 4792   5.938   3.644   3.370
 1298SOL    HW1 4793   5.980   3.561   3.406
 1298SOL    HW2 4794   5.887   3.690   3.444
 1299SOL     OW 4795   0.909   3.737   3.180
 1299SOL    HW1 4796   0.815   3.761   3.154
 1299SOL    HW2 4797   0.961   3.820   3.198
 1300SOL     OW 4798   3.507   4.218   1.751
 1300SOL    HW1 4799   3.491   4.197   1.848
 1300SOL    HW2 4800   3.598   4.258   1.741
 1301SOL     OW 4801   0.143   6.044   2.440
 1301SOL    HW1 4802   0.151   5.997   2.528
 1301SOL    HW2 4803   0.047   6.045   2.412
 1302SOL     OW 4804   2.932   0.448   4.863
 1302SOL    HW1 4805   2.891   0.406   4.944
 1302SOL    HW2 4806   2.900   0.542   4.854
 1303SOL     OW 4807   4.587   1.969   0.853
 1303SOL    HW1 4808   4.610   2.032   0.927
 1303SOL    HW2 4809   4.493   1.987   0.822
 1304SOL     OW 4810   1.352   1.576   6.428
 1304SOL    HW1 4811   1.363   1.546   6.333
 1304SOL    HW2 4812   1.384   1.505   6.490
 1305SOL     OW 4813   5.596   4.649   6.678
 1305SOL    HW1 4814   5.501   4.678   6.676
 1305SOL    HW2 4815   5.643   4.682   6.596
 1306SOL     OW 4816   1.010   4.529   5.484
 1306SOL    HW1 4817   1.095   4.548   5.434
 1306SOL    HW2 4818   0.944   4.601   5.464
 1307SOL     OW 4819   1.932   2.534   4.634
 1307SOL    HW1 4820   1.963   2.610   4.577
 1307SOL    HW2 4821   1.863   2.481   4.584
 1308SOL     OW 4822   4.257   5.311   4.248
 1308SOL    HW1 4823   4.324   5.267   4.308
 1308SOL    HW2 4824   4.299   5.326   4.158
 1309SOL     OW 4825   5.733   3.250   5.600
 1309SOL    HW1 4826   5.796   3.194   5.547
 1309SOL    HW2 4827   5.654   3.274   5.544
 1310SOL     OW 4828   7.014   3.640   5.162
 1310SOL    HW1 4829   0.005   3.738   5.147
 1310SOL    HW2 4830   6.980   3.625   5.255
 1311SOL     OW 4831   6.618   6.729   4.041
 1311SOL    HW1 4832   6.525   6.694   4.048
 1311SOL    HW2 4833   6.676   6.661   3.996
 1312SOL     OW 4834   0.959   0.416   6.558
 1312SOL    HW1 4835   0.868   0.446   6.531
 1312SOL    HW2 4836   0.989   0.469   6.638
 1313SOL     OW 4837   1.761   4.936   5.328
 1313SOL    HW1 4838   1.791   4.860   5.270
 1313SOL    HW2 4839   1.817   5.016   5.308
 1314SOL     OW 4840   2.753   1.808   5.871
 1314SOL    HW1 4841   2.792   1.801   5.779
 1314SOL    HW2 4842   2.660   1.770   5.872
 1315SOL     OW 4843   0.654   0.762   0.339
 1315SOL    HW1 4844   0.663   0.848   0.289
 1315SOL    HW2 4845   0.559   0.731   0.335
 1316SOL     OW 4846   2.302   6.754   4.012
 1316SOL    HW1 4847   2.293   6.851   4.036
 1316SOL    HW2 4848   2.252   6.699   4.079
 1317SOL     OW 4849   0.550   3.849   4.667
 1317SOL    HW1 4850   0.497   3.885   4.590
 1317SOL    HW2 4851   0.511   3.762   4.696
 1318SOL     OW 4852   6.549   0.292   0.692
 1318SOL    HW1 4853   6.567   0.227   0.767
 1318SOL    HW2 4854   6.558   0.245   0.604
 1319SOL     OW 4855   6.001   0.979   0.135
 1319SOL    HW1 4856   6.043   0.968   0.045
 1319SOL    HW2 4857   5.975   1.074   0.149
 1320SOL     OW 4858   6.245   3.779   0.462
 1320SOL    HW1 4859   6.311   3.743   0.527
 1320SOL    HW2 4860   6.176   3.709   0.442
 1321SOL     OW 4861   4.339   2.335   6.391
 1321SOL    HW1 4862   4.364   2.269   6.462
 1321SOL    HW2 4863   4.251   2.376   6.413
 1322SOL     OW 4864   4.883   0.704   3.224
 1322SOL    HW1 4865   4.906   0.620   3.272
 1322SOL    HW2 4866   4.847   0.771   3.288
 1323SOL     OW 4867   5.307   1.744   5.333
 1323SOL    HW1 4868   5.212   1.768   5.313
 1323SOL    HW2 4869   5.352   1.712   5.249
 1324SOL     OW 4870   1.250   3.050   1.230
 1324SOL    HW1 4871   1.274   2.957   1.257
 1324SOL    HW2 4872   1.292   3.115   1.293
 1325SOL     OW 4873   1.976   0.116   2.090
 1325SOL    HW1 4874   2.055   0.151   2.039
 1325SOL    HW2 4875   1.969   0.164   2.177
 1326SOL     OW 4876   5.190   2.862   4.974
 1326SOL    HW1 4877   5.215   2.934   4.909
 1326SOL    HW2 4878   5.175   2.903   5.064
 1327SOL     OW 4879   2.774   4.836   2.599
 1327SOL    HW1 4880   2.744   4.784   2.679
 1327SOL    HW2 4881   2.749   4.786   2.516
 1328SOL     OW 4882   1.233   2.975   0.949
 1328SOL    HW1 4883   1.226   3.004   1.044
 1328SOL    HW2 4884   1.152   2.922   0.924
 1329SOL     OW 4885   0.375   2.046   0.585
 1329SOL    HW1 4886   0.412   1.972   0.642
 1329SOL    HW2 4887   0.321   2.108   0.643
 1330SOL     OW 4888   6.392   1.009   1.382
 1330SOL    HW1 4889   6.345   0.921   1.373
 1330SOL    HW2 4890   6.443   1.011   1.468
 1331SOL     OW 4891   4.608   2.268   2.965
 1331SOL    HW1 4892   4.613   2.168   2.968
 1331SOL    HW2 4893   4.620   2.298   2.870
 1332SOL     OW 4894   3.700   6.981   0.178
 1332SOL    HW1 4895   3.747   6.985   0.090
 1332SOL    HW2 4896   3.626   0.027   0.180
 1333SOL     OW 4897   3.747   3.175   6.321
 1333SOL    HW1 4898   3.799   3.252   6.285
 1333SOL    HW2 4899   3.665   3.162   6.266
 1334SOL     OW 4900   0.246   2.443   4.876
 1334SOL    HW1 4901   0.277   2.362   4.925
 1334SOL    HW2 4902   0.183   2.417   4.803
 1335SOL     OW 4903   2.761   6.925   3.042
 1335SOL    HW1 4904   2.786   6.953   3.135
 1335SOL    HW2 4905   2.816   6.975   2.976
 1336SOL     OW 4906   1.783   1.640   6.421
 1336SOL    HW1 4907   1.868   1.613   6.467
 1336SOL    HW2 4908   1.714   1.569   6.433
 1337SOL     OW 4909   0.992   1.570   4.987
 1337SOL    HW1 4910   1.062   1.544   4.920
 1337SOL    HW2 4911   1.019   1.656   5.031
 1338SOL     OW 4912   4.399   2.666   5.980
 1338SOL    HW1 4913   4.424   2.614   6.061
 1338SOL    HW2 4914   4.353   2.751   6.008
 1339SOL     OW 4915   0.775   0.139   0.169
 1339SOL    HW1 4916   0.824   0.052   0.173
 1339SOL    HW2 4917   0.680   0.122   0.141
 1340SOL     OW 4918   0.757   1.380   1.807
 1340SOL    HW1 4919   0.677   1.323   1.824
 1340SOL    HW2 4920   0.760   1.406   1.711
 1341SOL     OW 4921   4.040   0.394   5.875
 1341SOL    HW1 4922   4.131   0.363   5.902
 1341SOL    HW2 4923   4.029   0.384   5.776
 1342SOL     OW 4924   1.912   4.802   5.792
 1342SOL    HW1 4925   1.990   4.757   5.835
 1342SOL    HW2 4926   1.858   4.848   5.862
 1343SOL     OW 4927   3.965   5.828   2.445
 1343SOL    HW1 4928   3.969   5.730   2.465
 1343SOL    HW2 4929   3.999   5.844   2.353
 1344SOL     OW 4930   6.639   4.134   4.006
 1344SOL    HW1 4931   6.709   4.066   4.028
 1344SOL    HW2 4932   6.659   4.219   4.053
 1345SOL     OW 4933   1.215   1.872   3.452
 1345SOL    HW1 4934   1.272   1.910   3.525
 1345SOL    HW2 4935   1.274   1.829   3.383
 1346SOL     OW 4936   1.480   0.345   2.798
 1346SOL    HW1 4937   1.419   0.267   2.780
 1346SOL    HW2 4938   1.495   0.354   2.896
 1347SOL     OW 4939   6.353   6.576   4.094
 1347SOL    HW1 4940   6.294   6.654   4.116
 1347SOL    HW2 4941   6.394   6.541   4.178
 1348SOL     OW 4942   5.809   5.684   3.270
 1348SOL    HW1 4943   5.738   5.618   3.245
 1348SOL    HW2 4944   5.825   5.746   3.194
 1349SOL     OW 4945   4.747   2.694   6.224
 1349SOL    HW1 4946   4.833   2.654   6.258
 1349SOL    HW2 4947   4.748   2.693   6.124
 1350SOL     OW 4948   4.077   4.616   0.144
 1350SOL    HW1 4949   4.024   4.685   0.094
 1350SOL    HW2 4950   4.092   4.648   0.237
 1351SOL     OW 4951   0.238   2.035   3.013
 1351SOL    HW1 4952   0.304   2.019   3.086
 1351SOL    HW2 4953   0.245   2.130   2.982
 1352SOL     OW 4954   0.633   0.409   2.965
 1352SOL    HW1 4955   0.619   0.508   2.970
 1352SOL    HW2 4956   0.726   0.390   2.937
 1353SOL     OW 4957   6.343   3.988   5.842
 1353SOL    HW1 4958   6.326   4.078   5.802
 1353SOL    HW2 4959   6.321   3.918   5.774
 1354SOL     OW 4960   0.471   2.127   0.342
 1354SOL    HW1 4961   0.521   2.212   0.359
 1354SOL    HW2 4962   0.424   2.099   0.426
 1355SOL     OW 4963   6.049   2.474   6.052
 1355SOL    HW1 4964   5.983   2.446   5.983
 1355SOL    HW2 4965   6.026   2.433   6.140
 1356SOL     OW 4966   3.220   3.460   3.712
 1356SOL    HW1 4967   3.141   3.403   3.689
 1356SOL    HW2 4968   3.290   3.404   3.754
 1357SOL     OW 4969   1.532   4.216   5.671
 1357SOL    HW1 4970   1.569   4.165   5.593
 1357SOL    HW2 4971   1.524   4.154   5.750
 1358SOL     OW 4972   3.657   1.285   5.885
 1358SOL    HW1 4973   3.739   1.342   5.878
 1358SOL    HW2 4974   3.683   1.188   5.886
 1359SOL     OW 4975   6.831   5.215   1.263
 1359SOL    HW1 4976   6.783   5.277   1.325
 1359SOL    HW2 4977   6.765   5.173   1.201
 1360SOL     OW 4978   4.091   3.686   2.398
 1360SOL    HW1 4979   4.036   3.650   2.474
 1360SOL    HW2 4980   4.158   3.751   2.432
 1361SOL     OW 4981   0.032   6.887   6.122
 1361SOL    HW1 4982   0.058   6.793   6.141
 1361SOL    HW2 4983   0.026   6.901   6.023
 1362SOL     OW 4984   2.963   3.782   3.976
 1362SOL    HW1 4985   2.864   3.782   3.993
 1362SOL    HW2 4986   2.998   3.688   3.983
 1363SOL     OW 4987   6.436   6.016   3.643
 1363SOL    HW1 4988   6.529   6.039   3.673
 1363SOL    HW2 4989   6.426   6.035   3.545
 1364SOL     OW 4990   0.627   2.359   0.393
 1364SOL    HW1 4991   0.689   2.307   0.452
 1364SOL    HW2 4992   0.666   2.366   0.301
 1365SOL     OW 4993   0.439   3.536   5.533
 1365SOL    HW1 4994   0.343   3.515   5.549
 1365SOL    HW2 4995   0.478   3.469   5.469
 1366SOL     OW 4996   0.076   4.114   0.529
 1366SOL    HW1 4997   0.002   4.049   0.547
 1366SOL    HW2 4998   0.153   4.067   0.486
 1367SOL     OW 4999   1.217   6.033   3.174
 1367SOL    HW1 5000   1.278   5.958   3.152
 1367SOL    HW2 5001   1.201   6.089   3.092
 1368SOL     OW 5002   6.737   0.706   4.139
 1368SOL    HW1 5003   6.831   0.680   4.115
 1368SOL    HW2 5004   6.729   0.805   4.135
 1369SOL     OW 5005   2.517   6.995   2.273
 1369SOL    HW1 5006   2.548   6.900   2.276
 1369SOL    HW2 5007   2.596   0.035   2.261
 1370SOL     OW 5008   5.731   2.296   3.980
 1370SOL    HW1 5009   5.683   2.208   3.984
 1370SOL    HW2 5010   5.677   2.362   3.928
 1371SOL     OW 5011   4.816   1.741   4.832
 1371SOL    HW1 5012   4.896   1.796   4.809
 1371SOL    HW2 5013   4.733   1.796   4.819
 1372SOL     OW 5014   0.750   2.209   0.994
 1372SOL    HW1 5015   0.756   2.187   1.091
 1372SOL    HW2 5016   0.834   2.181   0.948
 1373SOL     OW 5017   4.453   2.244   0.081
 1373SOL    HW1 5018   4.394   2.192   0.020
 1373SOL    HW2 5019   4.455   2.201   0.171
 1374SOL     OW 5020   4.962   3.379   0.558
 1374SOL    HW1 5021   5.053   3.354   0.590
 1374SOL    HW2 5022   4.926   3.307   0.498
 1375SOL     OW 5023   0.228   0.145   6.642
 1375SOL    HW1 5024   0.302   0.112   6.583
 1375SOL    HW2 5025   0.209   0.078   6.713
 1376SOL     OW 5026   3.668   4.907   5.737
 1376SOL    HW1 5027   3.671   4.985   5.674
 1376SOL    HW2 5028   3.752   4.854   5.728
 1377SOL     OW 5029   1.156   3.529   3.453
 1377SOL    HW1 5030   1.098   3.474   3.392
 1377SOL    HW2 5031   1.234   3.475   3.483
 1378SOL     OW 5032   5.926   2.449   5.524
 1378SOL    HW1 5033   5.947   2.430   5.428
 1378SOL    HW2 5034   6.004   2.495   5.566
 1379SOL     OW 5035   4.247   5.628   3.279
 1379SOL    HW1 5036   4.199   5.589   3.358
 1379SOL    HW2 5037   4.345   5.624   3.294
 1380SOL     OW 5038   0.317   6.003   3.478
 1380SOL    HW1 5039   0.272   6.029   3.564
 1380SOL    HW2 5040   0.307   5.904   3.464
 1381SOL     OW 5041   5.633   1.538   0.246
 1381SOL    HW1 5042   5.692   1.619   0.245
 1381SOL    HW2 5043   5.547   1.559   0.199
 1382SOL     OW 5044   5.150   3.305   1.187
 1382SOL    HW1 5045   5.082   3.256   1.132
 1382SOL    HW2 5046   5.109   3.337   1.272
 1383SOL     OW 5047   1.024   0.160   1.517
 1383SOL    HW1 5048   1.030   0.224   1.594
 1383SOL    HW2 5049   0.961   0.086   1.540
 1384SOL     OW 5050   4.585   6.984   2.261
 1384SOL    HW1 5051   4.641   0.036   2.300
 1384SOL    HW2 5052   4.645   6.912   2.226
 1385SOL     OW 5053   2.911   4.768   3.746
 1385SOL    HW1 5054   2.918   4.851   3.691
 1385SOL    HW2 5055   2.990   4.710   3.728
 1386SOL     OW 5056   2.945   0.876   4.081
 1386SOL    HW1 5057   2.857   0.836   4.056
 1386SOL    HW2 5058   2.949   0.971   4.048
 1387SOL     OW 5059   4.069   5.434   2.910
 1387SOL    HW1 5060   4.012   5.477   2.840
 1387SOL    HW2 5061   4.033   5.457   3.001
 1388SOL     OW 5062   6.478   0.202   2.258
 1388SOL    HW1 5063   6.396   0.145   2.258
 1388SOL    HW2 5064   6.456   0.292   2.295
 1389SOL     OW 5065   6.339   1.170   4.199
 1389SOL    HW1 5066   6.363   1.258   4.160
 1389SOL    HW2 5067   6.377   1.096   4.143
 1390SOL     OW 5068   0.118   3.640   6.928
 1390SOL    HW1 5069   0.020   3.636   6.942
 1390SOL    HW2 5070   0.151   3.553   6.891
 1391SOL     OW 5071   6.540   6.283   4.815
 1391SOL    HW1 5072   6.615   6.345   4.792
 1391SOL    HW2 5073   6.566   6.189   4.791
 1392SOL     OW 5074   5.441   5.970   5.765
 1392SOL    HW1 5075   5.536   5.940   5.759
 1392SOL    HW2 5076   5.437   6.069   5.752
 1393SOL     OW 5077   6.242   4.882   5.167
 1393SOL    HW1 5078   6.289   4.857   5.082
 1393SOL    HW2 5079   6.281   4.829   5.243
 1394SOL     OW 5080   3.558   5.091   5.943
 1394SOL    HW1 5081   3.605   5.020   5.890
 1394SOL    HW2 5082   3.475   5.052   5.984
 1395SOL     OW 5083   2.603   4.561   5.422
 1395SOL    HW1 5084   2.685   4.507   5.439
 1395SOL    HW2 5085   2.597   4.584   5.325
 1396SOL     OW 5086   0.971   1.339   5.268
 1396SOL    HW1 5087   1.022   1.425   5.265
 1396SOL    HW2 5088   0.897   1.342   5.200
 1397SOL     OW 5089   0.162   0.027   3.998
 1397SOL    HW1 5090   0.227   0.010   3.924
 1397SOL    HW2 5091   0.209   0.070   4.075
 1398SOL     OW 5092   3.072   0.305   6.689
 1398SOL    HW1 5093   3.011   0.254   6.629
 1398SOL    HW2 5094   3.017   0.364   6.750
 1399SOL     OW 5095   3.778   5.438   0.708
 1399SOL    HW1 5096   3.683   5.448   0.678
 1399SOL    HW2 5097   3.832   5.516   0.678
 1400SOL     OW 5098   0.293   1.520   3.320
 1400SOL    HW1 5099   0.228   1.547   3.391
 1400SOL    HW2 5100   0.347   1.443   3.354
 1401SOL     OW 5101   6.326   1.080   4.718
 1401SOL    HW1 5102   6.382   1.047   4.794
 1401SOL    HW2 5103   6.384   1.132   4.655
 1402SOL     OW 5104   6.455   3.347   6.541
 1402SOL    HW1 5105   6.398   3.334   6.622
 1402SOL    HW2 5106   6.403   3.322   6.459
 1403SOL     OW 5107   2.624   2.598   1.400
 1403SOL    HW1 5108   2.704   2.657   1.407
 1403SOL    HW2 5109   2.573   2.620   1.316
 1404SOL     OW 5110   6.499   6.712   0.622
 1404SOL    HW1 5111   6.525   6.645   0.691
 1404SOL    HW2 5112   6.422   6.677   0.569
 1405SOL     OW 5113   2.563   3.330   0.870
 1405SOL    HW1 5114   2.632   3.260   0.887
 1405SOL    HW2 5115   2.536   3.373   0.957
 1406SOL     OW 5116   0.586   5.501   0.825
 1406SOL    HW1 5117   0.494   5.461   0.815
 1406SOL    HW2 5118   0.604   5.517   0.922
 1407SOL     OW 5119   0.365   3.246   2.042
 1407SOL    HW1 5120   0.278   3.208   2.011
 1407SOL    HW2 5121   0.398   3.192   2.120
 1408SOL     OW 5122   5.655   1.017   6.054
 1408SOL    HW1 5123   5.747   1.017   6.013
 1408SOL    HW2 5124   5.595   0.956   6.001
 1409SOL     OW 5125   0.045   0.036   4.947
 1409SOL    HW1 5126   0.003   0.093   4.877
 1409SOL    HW2 5127   0.143   0.056   4.953
 1410SOL     OW 5128   1.266   3.623   6.610
 1410SOL    HW1 5129   1.315   3.588   6.530
 1410SOL    HW2 5130   1.275   3.722   6.614
 1411SOL     OW 5131   3.385   6.704   1.009
 1411SOL    HW1 5132   3.399   6.731   0.913
 1411SOL    HW2 5133   3.354   6.609   1.012
 1412SOL     OW 5134   0.998   2.146   0.897
 1412SOL    HW1 5135   1.017   2.048   0.911
 1412SOL    HW2 5136   1.078   2.199   0.925
 1413SOL     OW 5137   1.401   2.501   5.415
 1413SOL    HW1 5138   1.340   2.476   5.491
 1413SOL    HW2 5139   1.346   2.540   5.341
 1414SOL     OW 5140   2.728   1.409   1.618
 1414SOL    HW1 5141   2.756   1.428   1.712
 1414SOL    HW2 5142   2.782   1.465   1.555
 1415SOL     OW 5143   2.165   1.398   4.125
 1415SOL    HW1 5144   2.150   1.341   4.205
 1415SOL    HW2 5145   2.260   1.428   4.123
 1416SOL     OW 5146   5.581   5.412   4.465
 1416SOL    HW1 5147   5.640   5.408   4.385
 1416SOL    HW2 5148   5.512   5.339   4.459
 1417SOL     OW 5149   2.956   2.277   0.419
 1417SOL    HW1 5150   3.052   2.249   0.412
 1417SOL    HW2 5151   2.929   2.326   0.336
 1418SOL     OW 5152   3.538   4.144   2.662
 1418SOL    HW1 5153   3.603   4.132   2.586
 1418SOL    HW2 5154   3.445   4.141   2.626
 1419SOL     OW 5155   2.371   5.726   4.400
 1419SOL    HW1 5156   2.354   5.798   4.332
 1419SOL    HW2 5157   2.338   5.756   4.489
 1420SOL     OW 5158   2.658   6.698   1.986
 1420SOL    HW1 5159   2.695   6.722   2.075
 1420SOL    HW2 5160   2.632   6.782   1.937
 1421SOL     OW 5161   2.170   5.042   3.670
 1421SOL    HW1 5162   2.142   5.105   3.743
 1421SOL    HW2 5163   2.240   5.086   3.613
 1422SOL     OW 5164   1.111   4.113   0.497
 1422SOL    HW1 5165   1.072   4.022   0.485
 1422SOL    HW2 5166   1.167   4.136   0.417
 1423SOL     OW 5167   5.012   6.539   3.334
 1423SOL    HW1 5168   4.985   6.467   3.398
 1423SOL    HW2 5169   5.041   6.620   3.385
 1424SOL     OW 5170   6.746   4.870   5.870
 1424SOL    HW1 5171   6.696   4.806   5.928
 1424SOL    HW2 5172   6.803   4.929   5.927
 1425SOL     OW 5173   1.879   5.445   5.298
 1425SOL    HW1 5174   1.865   5.347   5.286
 1425SOL    HW2 5175   1.963   5.474   5.253
 1426SOL     OW 5176   1.655   4.129   6.198
 1426SOL    HW1 5177   1.706   4.085   6.272
 1426SOL    HW2 5178   1.719   4.152   6.124
 1427SOL     OW 5179   0.131   0.184   3.382
 1427SOL    HW1 5180   0.205   0.228   3.434
 1427SOL    HW2 5181   0.145   0.200   3.284
 1428SOL     OW 5182   0.192   3.106   7.005
 1428SOL    HW1 5183   0.185   3.084   6.908
 1428SOL    HW2 5184   0.106   3.146   0.016
 1429SOL     OW 5185   4.026   1.652   6.658
 1429SOL    HW1 5186   3.938   1.609   6.676
 1429SOL    HW2 5187   4.096   1.581   6.651
 1430SOL     OW 5188   1.401   4.794   3.746
 1430SOL    HW1 5189   1.456   4.815   3.826
 1430SOL    HW2 5190   1.335   4.722   3.768
 1431SOL     OW 5191   3.046   1.992   0.664
 1431SOL    HW1 5192   3.120   2.060   0.660
 1431SOL    HW2 5193   2.960   2.038   0.685
 1432SOL     OW 5194   2.321   1.634   1.972
 1432SOL    HW1 5195   2.253   1.564   1.995
 1432SOL    HW2 5196   2.283   1.698   1.905
 1433SOL     OW 5197   4.478   0.625   5.297
 1433SOL    HW1 5198   4.464   0.586   5.206
 1433SOL    HW2 5199   4.526   0.713   5.288
 1434SOL     OW 5200   0.481   0.377   6.313
 1434SOL    HW1 5201   0.534   0.397   6.231
 1434SOL    HW2 5202   0.384   0.383   6.293
 1435SOL     OW 5203   6.548   6.983   2.915
 1435SOL    HW1 5204   6.594   6.969   2.827
 1435SOL    HW2 5205   6.551   6.899   2.968
 1436SOL     OW 5206   5.193   3.915   6.664
 1436SOL    HW1 5207   5.202   3.978   6.587
 1436SOL    HW2 5208   5.110   3.936   6.715
 1437SOL     OW 5209   3.080   1.804   4.221
 1437SOL    HW1 5210   3.077   1.891   4.271
 1437SOL    HW2 5211   3.096   1.822   4.124
 1438SOL     OW 5212   2.476   6.132   1.697
 1438SOL    HW1 5213   2.541   6.200   1.730
 1438SOL    HW2 5214   2.474   6.134   1.597
 1439SOL     OW 5215   6.287   5.737   1.460
 1439SOL    HW1 5216   6.254   5.831   1.452
 1439SOL    HW2 5217   6.386   5.738   1.477
 1440SOL     OW 5218   2.645   2.919   6.965
 1440SOL    HW1 5219   2.674   2.909   6.870
 1440SOL    HW2 5220   2.557   2.967   6.968
 1441SOL     OW 5221   6.337   0.743   3.640
 1441SOL    HW1 5222   6.406   0.690   3.689
 1441SOL    HW2 5223   6.315   0.697   3.554
 1442SOL     OW 5224   0.015   5.571   6.702
 1442SOL    HW1 5225   0.085   5.502   6.687
 1442SOL    HW2 5226   6.963   5.560   6.634
 1443SOL     OW 5227   0.590   2.956   4.289
 1443SOL    HW1 5228   0.618   2.879   4.347
 1443SOL    HW2 5229   0.650   3.034   4.307
 1444SOL     OW 5230   4.742   5.119   0.681
 1444SOL    HW1 5231   4.789   5.154   0.763
 1444SOL    HW2 5232   4.809   5.078   0.620
 1445SOL     OW 5233   1.386   2.884   3.087
 1445SOL    HW1 5234   1.396   2.847   2.995
 1445SOL    HW2 5235   1.465   2.940   3.109
 1446SOL     OW 5236   6.018   1.768   0.269
 1446SOL    HW1 5237   5.953   1.767   0.345
 1446SOL    HW2 5238   6.073   1.852   0.273
 1447SOL     OW 5239   5.705   6.094   4.325
 1447SOL    HW1 5240   5.778   6.030   4.349
 1447SOL    HW2 5241   5.721   6.182   4.369
 1448SOL     OW 5242   6.956   2.293   5.105
 1448SOL    HW1 5243   6.915   2.319   5.018
 1448SOL    HW2 5244   0.025   2.334   5.113
 1449SOL     OW 5245   1.009   2.924   6.420
 1449SOL    HW1 5246   1.033   3.014   6.383
 1449SOL    HW2 5247   0.939   2.935   6.491
 1450SOL     OW 5248   0.820   2.347   1.379
 1450SOL    HW1 5249   0.806   2.424   1.318
 1450SOL    HW2 5250   0.747   2.280   1.366
 1451SOL     OW 5251   0.546   6.907   2.291
 1451SOL    HW1 5252   0.545   6.864   2.381
 1451SOL    HW2 5253   0.453   6.913   2.256
 1452SOL     OW 5254   4.560   1.558   5.180
 1452SOL    HW1 5255   4.544   1.656   5.193
 1452SOL    HW2 5256   4.483   1.518   5.130
 1453SOL     OW 5257   0.016   3.827   6.064
 1453SOL    HW1 5258   6.997   3.865   5.981
 1453SOL    HW2 5259   6.977   3.755   6.099
 1454SOL     OW 5260   0.355   2.780   2.087
 1454SOL    HW1 5261   0.430   2.785   2.154
 1454SOL    HW2 5262   0.387   2.814   1.999
 1455SOL     OW 5263   1.494   0.083   1.324
 1455SOL    HW1 5264   1.406   0.039   1.345
 1455SOL    HW2 5265   1.479   0.180   1.305
 1456SOL     OW 5266   0.015   6.462   5.656
 1456SOL    HW1 5267   0.100   6.504   5.689
 1456SOL    HW2 5268   7.021   6.489   5.561
 1457SOL     OW 5269   0.427   6.734   1.502
 1457SOL    HW1 5270   0.412   6.687   1.414
 1457SOL    HW2 5271   0.342   6.732   1.555
 1458SOL     OW 5272   5.891   5.572   4.168
 1458SOL    HW1 5273   5.837   5.527   4.097
 1458SOL    HW2 5274   5.970   5.618   4.127
 1459SOL     OW 5275   3.536   6.129   5.802
 1459SOL    HW1 5276   3.441   6.097   5.792
 1459SOL    HW2 5277   3.571   6.155   5.713
 1460SOL     OW 5278   0.215   0.122   5.411
 1460SOL    HW1 5279   0.161   0.206   5.404
 1460SOL    HW2 5280   0.263   0.121   5.498
 1461SOL     OW 5281   6.470   3.965   2.918
 1461SOL    HW1 5282   6.392   3.972   2.857
 1461SOL    HW2 5283   6.441   3.928   3.006
 1462SOL     OW 5284   1.683   0.800   0.131
 1462SOL    HW1 5285   1.723   0.756   0.212
 1462SOL    HW2 5286   1.725   0.890   0.117
 1463SOL     OW 5287   6.934   5.178   6.625
 1463SOL    HW1 5288   6.893   5.218   6.543
 1463SOL    HW2 5289   7.001   5.109   6.599
 1464SOL     OW 5290   6.765   5.875   2.156
 1464SOL    HW1 5291   6.790   5.946   2.221
 1464SOL    HW2 5292   6.700   5.811   2.199
 1465SOL     OW 5293   1.551   0.496   3.671
 1465SOL    HW1 5294   1.465   0.543   3.689
 1465SOL    HW2 5295   1.591   0.464   3.757
 1466SOL     OW 5296   2.512   2.183   2.282
 1466SOL    HW1 5297   2.426   2.233   2.289
 1466SOL    HW2 5298   2.571   2.226   2.215
 1467SOL     OW 5299   1.697   1.362   3.159
 1467SOL    HW1 5300   1.751   1.400   3.083
 1467SOL    HW2 5301   1.728   1.402   3.245
 1468SOL     OW 5302   3.008   5.527   2.848
 1468SOL    HW1 5303   2.952   5.545   2.767
 1468SOL    HW2 5304   2.974   5.581   2.925
 1469SOL     OW 5305   0.594   0.757   2.059
 1469SOL    HW1 5306   0.622   0.724   1.968
 1469SOL    HW2 5307   0.531   0.834   2.048
 1470SOL     OW 5308   0.934   2.122   2.521
 1470SOL    HW1 5309   0.950   2.037   2.572
 1470SOL    HW2 5310   0.895   2.100   2.432
 1471SOL     OW 5311   0.621   0.253   0.642
 1471SOL    HW1 5312   0.602   0.175   0.583
 1471SOL    HW2 5313   0.682   0.316   0.595
 1472SOL     OW 5314   2.908   5.590   5.197
 1472SOL    HW1 5315   2.873   5.520   5.135
 1472SOL    HW2 5316   3.001   5.566   5.225
 1473SOL     OW 5317   4.024   5.315   4.849
 1473SOL    HW1 5318   4.026   5.219   4.819
 1473SOL    HW2 5319   3.930   5.340   4.872
 1474SOL     OW 5320   5.747   4.946   2.078
 1474SOL    HW1 5321   5.761   4.952   1.979
 1474SOL    HW2 5322   5.823   4.896   2.119
 1475SOL     OW 5323   5.620   0.821   1.621
 1475SOL    HW1 5324   5.551   0.785   1.683
 1475SOL    HW2 5325   5.662   0.902   1.662
 1476SOL     OW 5326   3.370   0.740   1.049
 1476SOL    HW1 5327   3.285   0.720   1.097
 1476SOL    HW2 5328   3.350   0.780   0.959
 1477SOL     OW 5329   3.107   6.522   5.853
 1477SOL    HW1 5330   3.091   6.612   5.895
 1477SOL    HW2 5331   3.205   6.512   5.834
 1478SOL     OW 5332   6.175   5.398   5.652
 1478SOL    HW1 5333   6.203   5.456   5.729
 1478SOL    HW2 5334   6.208   5.438   5.566
 1479SOL     OW 5335   1.887   2.611   1.145
 1479SOL    HW1 5336   1.907   2.631   1.241
 1479SOL    HW2 5337   1.790   2.624   1.128
 1480SOL     OW 5338   3.382   0.610   4.806
 1480SOL    HW1 5339   3.423   0.697   4.833
 1480SOL    HW2 5340   3.351   0.616   4.711
 1481SOL     OW 5341   6.238   2.806   7.015
 1481SOL    HW1 5342   6.332   2.789   0.024
 1481SOL    HW2 5343   6.190   2.718   7.004
 1482SOL     OW 5344   4.531   1.408   1.854
 1482SOL    HW1 5345   4.534   1.502   1.889
 1482SOL    HW2 5346   4.449   1.363   1.890
 1483SOL     OW 5347   4.786   1.739   6.225
 1483SOL    HW1 5348   4.782   1.639   6.226
 1483SOL    HW2 5349   4.873   1.768   6.186
 1484SOL     OW 5350   5.271   5.236   3.987
 1484SOL    HW1 5351   5.265   5.202   4.081
 1484SOL    HW2 5352   5.359   5.210   3.947
 1485SOL     OW 5353   3.810   1.119   3.974
 1485SOL    HW1 5354   3.876   1.108   4.049
 1485SOL    HW2 5355   3.751   1.198   3.993
 1486SOL     OW 5356   5.872   0.838   2.576
 1486SOL    HW1 5357   5.964   0.800   2.579
 1486SOL    HW2 5358   5.845   0.852   2.480
 1487SOL     OW 5359   0.438   2.267   6.843
 1487SOL    HW1 5360   0.491   2.352   6.835
 1487SOL    HW2 5361   0.479   2.196   6.786
 1488SOL     OW 5362   5.658   0.516   3.734
 1488SOL    HW1 5363   5.744   0.494   3.686
 1488SOL    HW2 5364   5.600   0.572   3.675
 1489SOL     OW 5365   4.108   4.852   6.029
 1489SOL    HW1 5366   4.018   4.831   6.066
 1489SOL    HW2 5367   4.152   4.923   6.085
 1490SOL     OW 5368   1.033   3.494   1.316
 1490SOL    HW1 5369   1.044   3.396   1.300
 1490SOL    HW2 5370   0.975   3.509   1.396
 1491SOL     OW 5371   5.880   4.689   2.455
 1491SOL    HW1 5372   5.796   4.704   2.403
 1491SOL    HW2 5373   5.925   4.607   2.421
 1492SOL     OW 5374   6.506   0.618   2.605
 1492SOL    HW1 5375   6.466   0.653   2.520
 1492SOL    HW2 5376   6.539   0.694   2.660
 1493SOL     OW 5377   3.549   6.623   5.927
 1493SOL    HW1 5378   3.542   6.652   6.023
 1493SOL    HW2 5379   3.635   6.576   5.912
 1494SOL     OW 5380   5.091   1.626   6.276
 1494SOL    HW1 5381   5.152   1.648   6.352
 1494SOL    HW2 5382   5.070   1.528   6.278
 1495SOL     OW 5383   0.152   3.230   5.610
 1495SOL    HW1 5384   0.242   3.194   5.631
 1495SOL    HW2 5385   0.161   3.320   5.567
 1496SOL     OW 5386   0.137   1.575   1.460
 1496SOL    HW1 5387   0.134   1.595   1.362
 1496SOL    HW2 5388   0.232   1.567   1.489
 1497SOL     OW 5389   5.406   3.372   2.737
 1497SOL    HW1 5390   5.341   3.348   2.809
 1497SOL    HW2 5391   5.481   3.426   2.776
 1498SOL     OW 5392   2.534   4.479   6.919
 1498SOL    HW1 5393   2.509   4.446   7.009
 1498SOL    HW2 5394   2.570   4.404   6.864
 1499SOL     OW 5395   0.907   2.386   5.443
 1499SOL    HW1 5396   0.875   2.315   5.505
 1499SOL    HW2 5397   0.976   2.347   5.381
 1500SOL     OW 5398   0.208   0.018   0.252
 1500SOL    HW1 5399   0.244   6.947   0.266
 1500SOL    HW2 5400   0.139   0.016   0.179
 1501SOL     OW 5401   5.042   2.236   6.629
 1501SOL    HW1 5402   4.988   2.266   6.550
 1501SOL    HW2 5403   4.981   2.212   6.704
 1502SOL     OW 5404   4.162   0.317   6.784
 1502SOL    HW1 5405   4.208   0.369   6.856
 1502SOL    HW2 5406   4.082   0.369   6.753
 1503SOL     OW 5407   1.480   2.975   2.155
 1503SOL    HW1 5408   1.569   3.018   2.170
 1503SOL    HW2 5409   1.454   2.985   2.059
 1504SOL     OW 5410   0.522   0.072   4.342
 1504SOL    HW1 5411   0.582   0.016   4.399
 1504SOL    HW2 5412   0.571   0.153   4.311
 1505SOL     OW 5413   4.908   0.242   4.634
 1505SOL    HW1 5414   4.822   0.287   4.610
 1505SOL    HW2 5415   4.930   0.261   4.730
 1506SOL     OW 5416   1.131   6.397   0.024
 1506SOL    HW1 5417   1.063   6.395   0.098
 1506SOL    HW2 5418   1.084   6.407   6.958
 1507SOL     OW 5419   0.432   1.755   6.000
 1507SOL    HW1 5420   0.497   1.780   6.072
 1507SOL    HW2 5421   0.344   1.798   6.018
 1508SOL     OW 5422   6.524   1.444   1.266
 1508SOL    HW1 5423   6.472   1.406   1.189
 1508SOL    HW2 5424   6.511   1.386   1.346
 1509SOL     OW 5425   3.999   1.668   5.257
 1509SOL    HW1 5426   3.947   1.590   5.222
 1509SOL    HW2 5427   4.021   1.730   5.182
 1510SOL     OW 5428   5.019   1.595   4.667
 1510SOL    HW1 5429   5.013   1.693   4.647
 1510SOL    HW2 5430   4.927   1.560   4.685
 1511SOL     OW 5431   4.164   3.508   3.500
 1511SOL    HW1 5432   4.209   3.485   3.586
 1511SOL    HW2 5433   4.118   3.596   3.510
 1512SOL     OW 5434   0.122   5.392   0.749
 1512SOL    HW1 5435   0.102   5.324   0.679
 1512SOL    HW2 5436   0.047   5.459   0.753
 1513SOL     OW 5437   3.847   0.594   5.228
 1513SOL    HW1 5438   3.911   0.661   5.266
 1513SOL    HW2 5439   3.828   0.616   5.132
 1514SOL     OW 5440   3.634   2.355   5.830
 1514SOL    HW1 5441   3.658   2.314   5.743
 1514SOL    HW2 5442   3.709   2.343   5.895
 1515SOL     OW 5443   5.580   2.333   2.254
 1515SOL    HW1 5444   5.552   2.258   2.313
 1515SOL    HW2 5445   5.593   2.415   2.309
 1516SOL     OW 5446   6.591   5.893   6.130
 1516SOL    HW1 5447   6.508   5.918   6.179
 1516SOL    HW2 5448   6.666   5.952   6.159
 1517SOL     OW 5449   4.403   6.317   3.048
 1517SOL    HW1 5450   4.464   6.241   3.069
 1517SOL    HW2 5451   4.322   6.283   2.999
 1518SOL     OW 5452   0.506   2.571   0.489
 1518SOL    HW1 5453   0.577   2.641   0.489
 1518SOL    HW2 5454   0.544   2.486   0.453
 1519SOL     OW 5455   6.701   4.742   1.910
 1519SOL    HW1 5456   6.743   4.818   1.861
 1519SOL    HW2 5457   6.643   4.777   1.983
 1520SOL     OW 5458   0.650   4.455   1.503
 1520SOL    HW1 5459   0.693   4.543   1.519
 1520SOL    HW2 5460   0.564   4.449   1.555
 1521SOL     OW 5461   1.873   3.961   6.379
 1521SOL    HW1 5462   1.950   3.904   6.352
 1521SOL    HW2 5463   1.906   4.048   6.414
 1522SOL     OW 5464   5.507   6.180   4.876
 1522SOL    HW1 5465   5.527   6.267   4.922
 1522SOL    HW2 5466   5.584   6.118   4.887
 1523SOL     OW 5467   4.658   6.059   0.019
 1523SOL    HW1 5468   4.577   6.112   7.014
 1523SOL    HW2 5469   4.668   5.981   6.978
 1524SOL     OW 5470   2.463   1.597   2.690
 1524SOL    HW1 5471   2.487   1.693   2.700
 1524SOL    HW2 5472   2.546   1.544   2.668
 1525SOL     OW 5473   6.615   3.700   0.419
 1525SOL    HW1 5474   6.641   3.768   0.351
 1525SOL    HW2 5475   6.695   3.645   0.444
 1526SOL     OW 5476   6.971   0.966   6.771
 1526SOL    HW1 5477   6.885   0.987   6.817
 1526SOL    HW2 5478   7.006   0.878   6.803
 1527SOL     OW 5479   4.199   1.110   4.813
 1527SOL    HW1 5480   4.297   1.101   4.797
 1527SOL    HW2 5481   4.183   1.136   4.908
 1528SOL     OW 5482   4.074   4.780   2.752
 1528SOL    HW1 5483   4.132   4.799   2.831
 1528SOL    HW2 5484   4.127   4.730   2.683
 1529SOL     OW 5485   4.330   0.171   0.421
 1529SOL    HW1 5486   4.323   0.157   0.322
 1529SOL    HW2 5487   4.239   0.179   0.460
 1530SOL     OW 5488   3.752   2.099   2.263
 1530SOL    HW1 5489   3.736   2.179   2.205
 1530SOL    HW2 5490   3.717   2.017   2.218
 1531SOL     OW 5491   4.491   6.850   6.069
 1531SOL    HW1 5492   4.566   6.871   6.005
 1531SOL    HW2 5493   4.458   6.936   6.110
 1532SOL     OW 5494   3.082   3.535   6.386
 1532SOL    HW1 5495   3.053   3.457   6.330
 1532SOL    HW2 5496   3.174   3.562   6.360
 1533SOL     OW 5497   5.963   4.802   6.437
 1533SOL    HW1 5498   6.062   4.790   6.433
 1533SOL    HW2 5499   5.935   4.866   6.366
 1534SOL     OW 5500   3.000   4.682   6.916
 1534SOL    HW1 5501   2.970   4.776   6.906
 1534SOL    HW2 5502   2.922   4.624   6.938
 1535SOL     OW 5503   5.112   6.490   4.589
 1535SOL    HW1 5504   5.040   6.553   4.560
 1535SOL    HW2 5505   5.106   6.406   4.535
 1536SOL     OW 5506   3.638   4.233   5.775
 1536SOL    HW1 5507   3.711   4.262   5.713
 1536SOL    HW2 5508   3.550   4.265   5.740
 1537SOL     OW 5509   4.710   6.312   3.630
 1537SOL    HW1 5510   4.751   6.281   3.715
 1537SOL    HW2 5511   4.640   6.246   3.601
 1538SOL     OW 5512   3.423   6.531   6.846
 1538SOL    HW1 5513   3.521   6.512   6.840
 1538SOL    HW2 5514   3.389   6.508   6.937
 1539SOL     OW 5515   4.708   3.992   1.517
 1539SOL    HW1 5516   4.672   4.019   1.607
 1539SOL    HW2 5517   4.805   4.014   1.513
 1540SOL     OW 5518   1.040   5.774   5.577
 1540SOL    HW1 5519   1.021   5.780   5.479
 1540SOL    HW2 5520   0.956   5.750   5.626
 1541SOL     OW 5521   3.551   2.885   4.140
 1541SOL    HW1 5522   3.650   2.885   4.128
 1541SOL    HW2 5523   3.508   2.927   4.060
 1542SOL     OW 5524   6.440   0.171   2.733
 1542SOL    HW1 5525   6.342   0.178   2.751
 1542SOL    HW2 5526   6.480   0.104   2.795
 1543SOL     OW 5527   3.246   5.212   5.198
 1543SOL    HW1 5528   3.179   5.179   5.264
 1543SOL    HW2 5529   3.337   5.178   5.222
 1544SOL     OW 5530   3.233   3.047   2.412
 1544SOL    HW1 5531   3.254   2.991   2.332
 1544SOL    HW2 5532   3.279   3.008   2.492
 1545SOL     OW 5533   5.543   0.539   3.030
 1545SOL    HW1 5534   5.577   0.445   3.033
 1545SOL    HW2 5535   5.474   0.547   2.958
 1546SOL     OW 5536   3.825   0.086   5.745
 1546SOL    HW1 5537   3.803   0.132   5.659
 1546SOL    HW2 5538   3.762   0.010   5.759
 1547SOL     OW 5539   1.702   3.867   2.756
 1547SOL    HW1 5540   1.622   3.814   2.784
 1547SOL    HW2 5541   1.707   3.951   2.811
 1548SOL     OW 5542   5.676   3.535   5.490
 1548SOL    HW1 5543   5.702   3.538   5.393
 1548SOL    HW2 5544   5.598   3.473   5.501
 1549SOL     OW 5545   4.594   1.258   2.134
 1549SOL    HW1 5546   4.678   1.312   2.123
 1549SOL    HW2 5547   4.516   1.320   2.142
 1550SOL     OW 5548   3.191   3.678   0.311
 1550SOL    HW1 5549   3.108   3.687   0.256
 1550SOL    HW2 5550   3.216   3.582   0.319
 1551SOL     OW 5551   2.567   3.853   6.236
 1551SOL    HW1 5552   2.487   3.796   6.215
 1551SOL    HW2 5553   2.552   3.946   6.202
 1552SOL     OW 5554   1.049   6.086   0.653
 1552SOL    HW1 5555   1.077   6.100   0.748
 1552SOL    HW2 5556   0.953   6.060   0.650
 1553SOL     OW 5557   0.622   2.012   5.909
 1553SOL    HW1 5558   0.523   2.001   5.914
 1553SOL    HW2 5559   0.667   1.929   5.942
 1554SOL     OW 5560   4.064   2.232   2.837
 1554SOL    HW1 5561   4.147   2.271   2.798
 1554SOL    HW2 5562   3.998   2.214   2.764
 1555SOL     OW 5563   4.809   2.194   6.827
 1555SOL    HW1 5564   4.736   2.202   6.759
 1555SOL    HW2 5565   4.772   2.215   6.918
 1556SOL     OW 5566   2.997   1.425   0.197
 1556SOL    HW1 5567   2.974   1.330   0.217
 1556SOL    HW2 5568   2.931   1.486   0.240
 1557SOL     OW 5569   2.515   1.656   5.855
 1557SOL    HW1 5570   2.434   1.692   5.810
 1557SOL    HW2 5571   2.492   1.629   5.949
 1558SOL     OW 5572   5.647   0.749   4.745
 1558SOL    HW1 5573   5.642   0.660   4.789
 1558SOL    HW2 5574   5.559   0.796   4.756
 1559SOL     OW 5575   0.667   2.670   6.981
 1559SOL    HW1 5576   0.613   2.608   6.925
 1559SOL    HW2 5577   0.698   2.747   6.925
 1560SOL     OW 5578   0.356   0.949   5.968
 1560SOL    HW1 5579   0.365   0.886   5.890
 1560SOL    HW2 5580   0.289   0.913   6.032
 1561SOL     OW 5581   6.712   6.458   4.097
 1561SOL    HW1 5582   6.680   6.486   4.187
 1561SOL    HW2 5583   6.812   6.466   4.092
 1562SOL     OW 5584   4.016   5.793   2.865
 1562SOL    HW1 5585   3.974   5.862   2.925
 1562SOL    HW2 5586   4.094   5.751   2.912
 1563SOL     OW 5587   2.003   0.220   5.650
 1563SOL    HW1 5588   2.095   0.213   5.689
 1563SOL    HW2 5589   1.949   0.287   5.701
 1564SOL     OW 5590   1.478   2.784   3.358
 1564SOL    HW1 5591   1.457   2.689   3.378
 1564SOL    HW2 5592   1.441   2.809   3.268
 1565SOL     OW 5593   4.372   4.740   4.352
 1565SOL    HW1 5594   4.370   4.645   4.321
 1565SOL    HW2 5595   4.416   4.745   4.442
 1566SOL     OW 5596   6.053   4.797   2.831
 1566SOL    HW1 5597   6.049   4.717   2.770
 1566SOL    HW2 5598   5.964   4.809   2.875
 1567SOL     OW 5599   6.287   5.967   0.854
 1567SOL    HW1 5600   6.194   5.932   0.863
 1567SOL    HW2 5601   6.332   5.966   0.943
 1568SOL     OW 5602   1.799   6.426   0.309
 1568SOL    HW1 5603   1.739   6.346   0.321
 1568SOL    HW2 5604   1.831   6.457   0.398
 1569SOL     OW 5605   4.146   6.279   3.414
 1569SOL    HW1 5606   4.162   6.184   3.389
 1569SOL    HW2 5607   4.172   6.339   3.339
 1570SOL     OW 5608   2.101   0.585   0.530
 1570SOL    HW1 5609   2.076   0.564   0.435
 1570SOL    HW2 5610   2.030   0.551   0.591
 1571SOL     OW 5611   5.424   2.245   1.231
 1571SOL    HW1 5612   5.353   2.253   1.301
 1571SOL    HW2 5613   5.506   2.294   1.260
 1572SOL     OW 5614   0.784   6.686   1.075
 1572SOL    HW1 5615   0.772   6.745   1.155
 1572SOL    HW2 5616   0.702   6.631   1.061
 1573SOL     OW 5617   5.367   3.428   1.818
 1573SOL    HW1 5618   5.304   3.357   1.788
 1573SOL    HW2 5619   5.441   3.438   1.751
 1574SOL     OW 5620   6.625   1.146   1.837
 1574SOL    HW1 5621   6.606   1.200   1.919
 1574SOL    HW2 5622   6.711   1.177   1.796
 1575SOL     OW 5623   4.147   1.158   0.504
 1575SOL    HW1 5624   4.165   1.252   0.478
 1575SOL    HW2 5625   4.232   1.114   0.534
 1576SOL     OW 5626   1.362   6.994   3.547
 1576SOL    HW1 5627   1.345   6.914   3.489
 1576SOL    HW2 5628   1.441   0.023   3.512
 1577SOL     OW 5629   2.990   1.374   4.735
 1577SOL    HW1 5630   2.952   1.366   4.643
 1577SOL    HW2 5631   2.964   1.462   4.775
 1578SOL     OW 5632   6.291   2.835   6.130
 1578SOL    HW1 5633   6.215   2.790   6.084
 1578SOL    HW2 5634   6.305   2.926   6.091
 1579SOL     OW 5635   0.190   1.508   2.422
 1579SOL    HW1 5636   0.161   1.490   2.516
 1579SOL    HW2 5637   0.191   1.423   2.370
 1580SOL     OW 5638   2.976   3.730   4.891
 1580SOL    HW1 5639   3.060   3.780   4.868
 1580SOL    HW2 5640   2.911   3.738   4.816
 1581SOL     OW 5641   0.307   3.728   5.014
 1581SOL    HW1 5642   0.229   3.719   4.952
 1581SOL    HW2 5643   0.312   3.823   5.046
 1582SOL     OW 5644   1.092   6.851   4.512
 1582SOL    HW1 5645   1.021   6.781   4.524
 1582SOL    HW2 5646   1.085   6.891   4.421
 1583SOL     OW 5647   1.025   4.960   3.468
 1583SOL    HW1 5648   1.006   5.005   3.381
 1583SOL    HW2 5649   1.006   4.862   3.461
 1584SOL     OW 5650   1.247   6.818   5.284
 1584SOL    HW1 5651   1.328   6.815   5.343
 1584SOL    HW2 5652   1.168   6.785   5.334
 1585SOL     OW 5653   6.192   1.997   3.414
 1585SOL    HW1 5654   6.255   2.064   3.375
 1585SOL    HW2 5655   6.243   1.918   3.447
 1586SOL     OW 5656   3.587   5.174   1.596
 1586SOL    HW1 5657   3.522   5.183   1.520
 1586SOL    HW2 5658   3.554   5.104   1.659
 1587SOL     OW 5659   2.837   6.134   6.362
 1587SOL    HW1 5660   2.879   6.052   6.400
 1587SOL    HW2 5661   2.905   6.208   6.362
 1588SOL     OW 5662   4.851   1.673   3.247
 1588SOL    HW1 5663   4.888   1.582   3.226
 1588SOL    HW2 5664   4.919   1.742   3.224
 1589SOL     OW 5665   5.827   4.214   1.570
 1589SOL    HW1 5666   5.925   4.211   1.550
 1589SOL    HW2 5667   5.781   4.271   1.501
 1590SOL     OW 5668   2.876   5.641   6.853
 1590SOL    HW1 5669   2.863   5.680   6.944
 1590SOL    HW2 5670   2.964   5.669   6.816
 1591SOL     OW 5671   0.005   5.044   2.665
 1591SOL    HW1 5672   6.987   5.029   2.756
 1591SOL    HW2 5673   6.974   5.116   2.618
 1592SOL     OW 5674   2.274   4.469   0.421
 1592SOL    HW1 5675   2.345   4.482   0.352
 1592SOL    HW2 5676   2.312   4.417   0.498
 1593SOL     OW 5677   1.096   6.261   4.322
 1593SOL    HW1 5678   1.038   6.194   4.369
 1593SOL    HW2 5679   1.122   6.226   4.232
 1594SOL     OW 5680   6.825   6.186   2.547
 1594SOL    HW1 5681   6.742   6.243   2.545
 1594SOL    HW2 5682   6.884   6.216   2.622
 1595SOL     OW 5683   1.159   5.188   6.614
 1595SOL    HW1 5684   1.145   5.091   6.636
 1595SOL    HW2 5685   1.147   5.243   6.697
 1596SOL     OW 5686   0.482   2.574   4.529
 1596SOL    HW1 5687   0.408   2.641   4.519
 1596SOL    HW2 5688   0.568   2.616   4.501
 1597SOL     OW 5689   1.847   6.564   6.923
 1597SOL    HW1 5690   1.752   6.593   6.913
 1597SOL    HW2 5691   1.907   6.644   6.911
 1598SOL     OW 5692   0.986   3.600   6.833
 1598SOL    HW1 5693   1.042   3.525   6.799
 1598SOL    HW2 5694   0.976   3.669   6.762
 1599SOL     OW 5695   4.039   4.346   5.786
 1599SOL    HW1 5696   4.043   4.274   5.855
 1599SOL    HW2 5697   4.083   4.429   5.820
 1600SOL     OW 5698   5.025   1.403   5.033
 1600SOL    HW1 5699   4.926   1.392   5.022
 1600SOL    HW2 5700   5.054   1.487   4.986
 1601SOL     OW 5701   6.907   4.940   4.594
 1601SOL    HW1 5702   6.994   4.892   4.583
 1601SOL    HW2 5703   6.848   4.921   4.515
 1602SOL     OW 5704   2.164   5.268   3.863
 1602SOL    HW1 5705   2.139   5.348   3.809
 1602SOL    HW2 5706   2.261   5.270   3.884
 1603SOL     OW 5707   6.505   5.972   2.789
 1603SOL    HW1 5708   6.474   6.036   2.860
 1603SOL    HW2 5709   6.429   5.950   2.728
 1604SOL     OW 5710   6.411   4.599   0.229
 1604SOL    HW1 5711   6.416   4.547   0.143
 1604SOL    HW2 5712   6.365   4.544   0.298
 1605SOL     OW 5713   6.492   6.431   2.062
 1605SOL    HW1 5714   6.577   6.381   2.074
 1605SOL    HW2 5715   6.435   6.420   2.143
 1606SOL     OW 5716   3.460   0.611   5.216
 1606SOL    HW1 5717   3.502   0.598   5.306
 1606SOL    HW2 5718   3.525   0.659   5.156
 1607SOL     OW 5719   3.815   2.309   0.564
 1607SOL    HW1 5720   3.821   2.409   0.561
 1607SOL    HW2 5721   3.777   2.276   0.477
 1608SOL     OW 5722   1.119   6.973   4.269
 1608SOL    HW1 5723   1.177   0.025   4.234
 1608SOL    HW2 5724   1.078   6.923   4.193
 1609SOL     OW 5725   4.619   0.260   0.622
 1609SOL    HW1 5726   4.710   0.221   0.632
 1609SOL    HW2 5727   4.597   0.269   0.525
 1610SOL     OW 5728   5.502   4.192   5.910
 1610SOL    HW1 5729   5.441   4.270   5.892
 1610SOL    HW2 5730   5.534   4.197   6.005
 1611SOL     OW 5731   2.969   3.754   1.453
 1611SOL    HW1 5732   2.985   3.675   1.513
 1611SOL    HW2 5733   2.898   3.812   1.493
 1612SOL     OW 5734   2.694   1.474   4.989
 1612SOL    HW1 5735   2.707   1.410   4.913
 1612SOL    HW2 5736   2.764   1.459   5.058
 1613SOL     OW 5737   1.813   5.492   1.596
 1613SOL    HW1 5738   1.730   5.483   1.651
 1613SOL    HW2 5739   1.892   5.503   1.657
 1614SOL     OW 5740   6.409   3.263   0.455
 1614SOL    HW1 5741   6.314   3.294   0.458
 1614SOL    HW2 5742   6.468   3.340   0.428
 1615SOL     OW 5743   6.455   5.031   0.747
 1615SOL    HW1 5744   6.434   4.977   0.829
 1615SOL    HW2 5745   6.523   5.101   0.770
 1616SOL     OW 5746   3.502   2.009   4.633
 1616SOL    HW1 5747   3.524   1.969   4.722
 1616SOL    HW2 5748   3.409   1.984   4.607
 1617SOL     OW 5749   5.788   0.579   1.882
 1617SOL    HW1 5750   5.783   0.674   1.852
 1617SOL    HW2 5751   5.696   0.542   1.892
 1618SOL     OW 5752   1.556   4.110   1.578
 1618SOL    HW1 5753   1.654   4.102   1.598
 1618SOL    HW2 5754   1.506   4.133   1.662
 1619SOL     OW 5755   0.918   2.603   2.940
 1619SOL    HW1 5756   0.869   2.657   3.009
 1619SOL    HW2 5757   0.964   2.526   2.986
 1620SOL     OW 5758   2.612   5.382   1.270
 1620SOL    HW1 5759   2.646   5.289   1.287
 1620SOL    HW2 5760   2.656   5.419   1.188
 1621SOL     OW 5761   0.475   1.351   0.499
 1621SOL    HW1 5762   0.553   1.294   0.472
 1621SOL    HW2 5763   0.448   1.409   0.422
 1622SOL     OW 5764   0.527   2.403   4.740
 1622SOL    HW1 5765   0.470   2.324   4.721
 1622SOL    HW2 5766   0.503   2.478   4.678
 1623SOL     OW 5767   2.463   3.189   5.561
 1623SOL    HW1 5768   2.417   3.199   5.473
 1623SOL    HW2 5769   2.417   3.245   5.629
 1624SOL     OW 5770   2.698   1.183   5.205
 1624SOL    HW1 5771   2.746   1.270   5.217
 1624SOL    HW2 5772   2.748   1.126   5.139
 1625SOL     OW 5773   1.516   5.453   1.667
 1625SOL    HW1 5774   1.450   5.518   1.631
 1625SOL    HW2 5775   1.486   5.421   1.757
 1626SOL     OW 5776   3.281   2.422   6.135
 1626SOL    HW1 5777   3.225   2.505   6.143
 1626SOL    HW2 5778   3.281   2.392   6.039
 1627SOL     OW 5779   6.509   2.848   3.685
 1627SOL    HW1 5780   6.527   2.757   3.650
 1627SOL    HW2 5781   6.580   2.874   3.750
 1628SOL     OW 5782   4.490   4.659   6.941
 1628SOL    HW1 5783   4.519   4.611   6.859
 1628SOL    HW2 5784   4.390   4.670   6.940
 1629SOL     OW 5785   2.747   1.297   4.106
 1629SOL    HW1 5786   2.734   1.252   4.018
 1629SOL    HW2 5787   2.843   1.288   4.134
 1630SOL     OW 5788   1.546   6.139   6.071
 1630SOL    HW1 5789   1.524   6.223   6.120
 1630SOL    HW2 5790   1.469   6.075   6.078
 1631SOL     OW 5791   0.176   1.834   6.101
 1631SOL    HW1 5792   0.089   1.872   6.132
 1631SOL    HW2 5793   0.172   1.735   6.102
 1632SOL     OW 5794   0.374   2.066   0.026
 1632SOL    HW1 5795   0.403   1.995   6.983
 1632SOL    HW2 5796   0.335   2.023   0.108
 1633SOL     OW 5797   4.976   2.659   3.958
 1633SOL    HW1 5798   4.890   2.706   3.940
 1633SOL    HW2 5799   4.958   2.562   3.975
 1634SOL     OW 5800   3.807   4.794   6.794
 1634SOL    HW1 5801   3.781   4.758   6.705
 1634SOL    HW2 5802   3.897   4.838   6.788
 1635SOL     OW 5803   6.914   5.689   5.596
 1635SOL    HW1 5804   6.970   5.613   5.563
 1635SOL    HW2 5805   6.819   5.658   5.604
 1636SOL     OW 5806   2.773   4.258   1.362
 1636SOL    HW1 5807   2.814   4.167   1.367
 1636SOL    HW2 5808   2.677   4.251   1.334
 1637SOL     OW 5809   0.241   0.200   3.123
 1637SOL    HW1 5810   0.211   0.225   3.031
 1637SOL    HW2 5811   0.266   0.104   3.125
 1638SOL     OW 5812   0.295   4.143   3.968
 1638SOL    HW1 5813   0.370   4.099   4.017
 1638SOL    HW2 5814   0.228   4.177   4.033
 1639SOL     OW 5815   4.382   0.228   2.918
 1639SOL    HW1 5816   4.349   0.134   2.919
 1639SOL    HW2 5817   4.351   0.275   3.001
 1640SOL     OW 5818   5.850   1.603   0.769
 1640SOL    HW1 5819   5.940   1.578   0.735
 1640SOL    HW2 5820   5.854   1.617   0.868
 1641SOL     OW 5821   5.372   2.607   4.322
 1641SOL    HW1 5822   5.343   2.514   4.346
 1641SOL    HW2 5823   5.296   2.655   4.278
 1642SOL     OW 5824   5.784   3.665   6.474
 1642SOL    HW1 5825   5.869   3.699   6.435
 1642SOL    HW2 5826   5.790   3.566   6.486
 1643SOL     OW 5827   3.135   4.847   4.055
 1643SOL    HW1 5828   3.035   4.850   4.059
 1643SOL    HW2 5829   3.172   4.830   4.146
 1644SOL     OW 5830   0.539   2.936   1.357
 1644SOL    HW1 5831   0.604   2.940   1.280
 1644SOL    HW2 5832   0.538   2.843   1.394
 1645SOL     OW 5833   2.460   5.933   5.859
 1645SOL    HW1 5834   2.533   5.994   5.828
 1645SOL    HW2 5835   2.476   5.909   5.955
 1646SOL     OW 5836   2.663   6.072   0.651
 1646SOL    HW1 5837   2.747   6.110   0.612
 1646SOL    HW2 5838   2.681   6.039   0.744
 1647SOL     OW 5839   6.140   2.406   4.693
 1647SOL    HW1 5840   6.137   2.317   4.649
 1647SOL    HW2 5841   6.125   2.478   4.625
 1648SOL     OW 5842   6.051   6.183   0.877
 1648SOL    HW1 5843   5.968   6.233   0.899
 1648SOL    HW2 5844   6.112   6.241   0.823
 1649SOL     OW 5845   3.929   6.995   4.469
 1649SOL    HW1 5846   3.947   7.002   4.371
 1649SOL    HW2 5847   3.994   6.931   4.511
 1650SOL     OW 5848   1.704   6.670   5.214
 1650SOL    HW1 5849   1.774   6.684   5.144
 1650SOL    HW2 5850   1.632   6.612   5.178
 1651SOL     OW 5851   0.517   1.228   1.831
 1651SOL    HW1 5852   0.512   1.217   1.930
 1651SOL    HW2 5853   0.430   1.263   1.797
 1652SOL     OW 5854   1.764   3.412   1.678
 1652SOL    HW1 5855   1.773   3.454   1.587
 1652SOL    HW2 5856   1.853   3.412   1.723
 1653SOL     OW 5857   0.817   0.003   1.040
 1653SOL    HW1 5858   0.800   6.926   1.052
 1653SOL    HW2 5859   0.759   0.038   0.966
 1654SOL     OW 5860   6.903   3.273   2.233
 1654SOL    HW1 5861   6.953   3.350   2.193
 1654SOL    HW2 5862   6.890   3.290   2.331
 1655SOL     OW 5863   6.045   2.394   4.964
 1655SOL    HW1 5864   5.984   2.316   4.952
 1655SOL    HW2 5865   6.101   2.407   4.882
 1656SOL     OW 5866   1.981   4.633   2.880
 1656SOL    HW1 5867   2.048   4.708   2.881
 1656SOL    HW2 5868   1.978   4.592   2.790
 1657SOL     OW 5869   6.903   0.893   4.407
 1657SOL    HW1 5870   6.993   0.870   4.370
 1657SOL    HW2 5871   6.841   0.913   4.331
 1658SOL     OW 5872   0.867   0.118   1.909
 1658SOL    HW1 5873   0.837   0.038   1.858
 1658SOL    HW2 5874   0.901   0.187   1.846
 1659SOL     OW 5875   3.751   1.230   5.245
 1659SOL    HW1 5876   3.656   1.235   5.273
 1659SOL    HW2 5877   3.810   1.251   5.323
 1660SOL     OW 5878   1.091   5.104   3.949
 1660SOL    HW1 5879   1.042   5.191   3.941
 1660SOL    HW2 5880   1.178   5.110   3.900
 1661SOL     OW 5881   3.354   1.406   2.059
 1661SOL    HW1 5882   3.445   1.427   2.095
 1661SOL    HW2 5883   3.291   1.480   2.081
 1662SOL     OW 5884   6.719   0.977   4.191
 1662SOL    HW1 5885   6.622   0.972   4.211
 1662SOL    HW2 5886   6.737   1.053   4.128
 1663SOL     OW 5887   2.992   1.032   3.022
 1663SOL    HW1 5888   2.980   1.093   3.100
 1663SOL    HW2 5889   3.052   0.956   3.047
 1664SOL     OW 5890   2.505   6.905   3.911
 1664SOL    HW1 5891   2.571   6.840   3.872
 1664SOL    HW2 5892   2.422   6.857   3.937
 1665SOL     OW 5893   0.606   1.080   2.691
 1665SOL    HW1 5894   0.565   1.095   2.602
 1665SOL    HW2 5895   0.535   1.070   2.760
 1666SOL     OW 5896   5.422   3.375   0.743
 1666SOL    HW1 5897   5.366   3.455   0.719
 1666SOL    HW2 5898   5.511   3.382   0.698
 1667SOL     OW 5899   6.245   6.966   1.335
 1667SOL    HW1 5900   6.337   6.940   1.304
 1667SOL    HW2 5901   6.230   6.930   1.427
 1668SOL     OW 5902   5.330   5.645   5.591
 1668SOL    HW1 5903   5.405   5.700   5.555
 1668SOL    HW2 5904   5.293   5.688   5.674
 1669SOL     OW 5905   6.546   6.211   6.379
 1669SOL    HW1 5906   6.633   6.192   6.333
 1669SOL    HW2 5907   6.562   6.263   6.462
 1670SOL     OW 5908   6.833   4.963   6.457
 1670SOL    HW1 5909   6.824   4.956   6.358
 1670SOL    HW2 5910   6.753   5.010   6.494
 1671SOL     OW 5911   4.321   3.259   0.874
 1671SOL    HW1 5912   4.359   3.343   0.914
 1671SOL    HW2 5913   4.391   3.188   0.874
 1672SOL     OW 5914   1.973   3.732   1.808
 1672SOL    HW1 5915   1.980   3.635   1.786
 1672SOL    HW2 5916   1.944   3.743   1.903
 1673SOL     OW 5917   6.799   2.047   4.218
 1673SOL    HW1 5918   6.838   2.044   4.126
 1673SOL    HW2 5919   6.732   2.121   4.225
 1674SOL     OW 5920   0.809   3.841   2.553
 1674SOL    HW1 5921   0.856   3.807   2.472
 1674SOL    HW2 5922   0.861   3.817   2.635
 1675SOL     OW 5923   4.058   0.431   5.551
 1675SOL    HW1 5924   4.136   0.380   5.588
 1675SOL    HW2 5925   4.073   0.449   5.454
 1676SOL     OW 5926   2.810   1.461   2.280
 1676SOL    HW1 5927   2.809   1.553   2.241
 1676SOL    HW2 5928   2.904   1.432   2.298
 1677SOL     OW 5929   4.174   3.299   5.217
 1677SOL    HW1 5930   4.243   3.365   5.189
 1677SOL    HW2 5931   4.112   3.342   5.283
 1678SOL     OW 5932   4.876   4.434   4.998
 1678SOL    HW1 5933   4.780   4.412   4.978
 1678SOL    HW2 5934   4.915   4.363   5.056
 1679SOL     OW 5935   2.050   3.196   5.160
 1679SOL    HW1 5936   2.065   3.196   5.061
 1679SOL    HW2 5937   2.060   3.103   5.195
 1680SOL     OW 5938   0.809   2.322   4.525
 1680SOL    HW1 5939   0.729   2.263   4.533
 1680SOL    HW2 5940   0.791   2.410   4.568
 1681SOL     OW 5941   6.243   6.100   1.185
 1681SOL    HW1 5942   6.297   6.140   1.259
 1681SOL    HW2 5943   6.292   6.024   1.144
 1682SOL     OW 5944   0.197   1.940   4.781
 1682SOL    HW1 5945   0.142   1.899   4.708
 1682SOL    HW2 5946   0.247   1.867   4.828
 1683SOL     OW 5947   3.981   5.613   1.005
 1683SOL    HW1 5948   3.991   5.702   1.049
 1683SOL    HW2 5949   3.912   5.559   1.053
 1684SOL     OW 5950   0.936   5.999   2.903
 1684SOL    HW1 5951   0.876   6.058   2.957
 1684SOL    HW2 5952   1.031   6.017   2.925
 1685SOL     OW 5953   2.712   1.119   6.103
 1685SOL    HW1 5954   2.699   1.218   6.100
 1685SOL    HW2 5955   2.629   1.074   6.135
 1686SOL     OW 5956   2.441   4.821   4.988
 1686SOL    HW1 5957   2.497   4.745   4.956
 1686SOL    HW2 5958   2.399   4.798   5.075
 1687SOL     OW 5959   2.501   3.019   1.437
 1687SOL    HW1 5960   2.596   3.048   1.422
 1687SOL    HW2 5961   2.477   2.951   1.367
 1688SOL     OW 5962   1.700   2.664   3.887
 1688SOL    HW1 5963   1.710   2.735   3.818
 1688SOL    HW2 5964   1.668   2.705   3.973
 1689SOL     OW 5965   4.836   0.685   2.220
 1689SOL    HW1 5966   4.928   0.718   2.239
 1689SOL    HW2 5967   4.806   0.625   2.294
 1690SOL     OW 5968   1.545   3.225   3.530
 1690SOL    HW1 5969   1.601   3.250   3.610
 1690SOL    HW2 5970   1.545   3.301   3.465
 1691SOL     OW 5971   5.382   4.256   3.384
 1691SOL    HW1 5972   5.383   4.281   3.481
 1691SOL    HW2 5973   5.447   4.313   3.334
 1692SOL     OW 5974   5.898   0.233   1.879
 1692SOL    HW1 5975   5.941   0.226   1.970
 1692SOL    HW2 5976   5.830   0.306   1.880
 1693SOL     OW 5977   0.354   1.922   2.728
 1693SOL    HW1 5978   0.263   1.893   2.699
 1693SOL    HW2 5979   0.399   1.848   2.778
 1694SOL     OW 5980   5.051   0.378   3.611
 1694SOL    HW1 5981   5.086   0.312   3.545
 1694SOL    HW2 5982   5.112   0.379   3.691
 1695SOL     OW 5983   2.720   1.496   5.733
 1695SOL    HW1 5984   2.673   1.408   5.742
 1695SOL    HW2 5985   2.663   1.568   5.771
 1696SOL     OW 5986   4.925   4.555   0.936
 1696SOL    HW1 5987   4.901   4.652   0.936
 1696SOL    HW2 5988   4.842   4.500   0.948
 1697SOL     OW 5989   5.492   5.766   2.037
 1697SOL    HW1 5990   5.520   5.680   2.080
 1697SOL    HW2 5991   5.491   5.839   2.105
 1698SOL     OW 5992   5.507   1.091   0.656
 1698SOL    HW1 5993   5.444   1.090   0.578
 1698SOL    HW2 5994   5.516   0.998   0.692
 1699SOL     OW 5995   2.868   1.536   1.224
 1699SOL    HW1 5996   2.934   1.462   1.223
 1699SOL    HW2 5997   2.776   1.499   1.209
 1700SOL     OW 5998   6.256   2.529   3.436
 1700SOL    HW1 5999   6.321   2.530   3.360
 1700SOL    HW2 6000   6.307   2.533   3.522
 1701SOL     OW 6001   5.517   3.609   5.847
 1701SOL    HW1 6002   5.524   3.625   5.946
 1701SOL    HW2 6003   5.421   3.592   5.823
 1702SOL     OW 6004   6.810   2.771   0.978
 1702SOL    HW1 6005   6.907   2.749   0.986
 1702SOL    HW2 6006   6.772   2.728   0.897
 1703SOL     OW 6007   4.052   3.364   2.800
 1703SOL    HW1 6008   4.066   3.285   2.742
 1703SOL    HW2 6009   4.098   3.350   2.888
 1704SOL     OW 6010   0.586   1.200   2.115
 1704SOL    HW1 6011   0.664   1.138   2.105
 1704SOL    HW2 6012   0.620   1.295   2.118
 1705SOL     OW 6013   3.666   2.638   1.438
 1705SOL    HW1 6014   3.644   2.635   1.341
 1705SOL    HW2 6015   3.687   2.546   1.471
 1706SOL     OW 6016   4.939   0.758   1.594
 1706SOL    HW1 6017   5.019   0.698   1.597
 1706SOL    HW2 6018   4.857   0.704   1.614
 1707SOL     OW 6019   4.604   2.215   2.476
 1707SOL    HW1 6020   4.623   2.255   2.387
 1707SOL    HW2 6021   4.566   2.123   2.464
 1708SOL     OW 6022   4.823   5.119   2.380
 1708SOL    HW1 6023   4.900   5.088   2.435
 1708SOL    HW2 6024   4.737   5.102   2.430
 1709SOL     OW 6025   2.392   5.743   1.506
 1709SOL    HW1 6026   2.437   5.813   1.560
 1709SOL    HW2 6027   2.401   5.765   1.408
 1710SOL     OW 6028   5.639   4.727   3.583
 1710SOL    HW1 6029   5.603   4.686   3.666
 1710SOL    HW2 6030   5.574   4.714   3.508
 1711SOL     OW 6031   1.435   4.460   4.745
 1711SOL    HW1 6032   1.533   4.471   4.728
 1711SOL    HW2 6033   1.401   4.539   4.797
 1712SOL     OW 6034   0.648   3.195   6.343
 1712SOL    HW1 6035   0.733   3.232   6.306
 1712SOL    HW2 6036   0.607   3.132   6.276
 1713SOL     OW 6037   3.978   2.281   1.430
 1713SOL    HW1 6038   4.042   2.270   1.506
 1713SOL    HW2 6039   4.015   2.350   1.366
 1714SOL     OW 6040   4.842   1.588   5.961
 1714SOL    HW1 6041   4.808   1.503   5.999
 1714SOL    HW2 6042   4.767   1.654   5.952
 1715SOL     OW 6043   6.796   3.648   2.386
 1715SOL    HW1 6044   6.755   3.594   2.312
 1715SOL    HW2 6045   6.895   3.632   2.388
 1716SOL     OW 6046   4.586   0.074   2.595
 1716SOL    HW1 6047   4.663   0.088   2.657
 1716SOL    HW2 6048   4.512   0.027   2.644
 1717SOL     OW 6049   1.931   6.601   6.096
 1717SOL    HW1 6050   1.980   6.528   6.049
 1717SOL    HW2 6051   1.941   6.590   6.195
 1718SOL     OW 6052   2.278   2.315   2.311
 1718SOL    HW1 6053   2.232   2.362   2.236
 1718SOL    HW2 6054   2.209   2.268   2.367
 1719SOL     OW 6055   2.418   4.257   1.216
 1719SOL    HW1 6056   2.422   4.158   1.200
 1719SOL    HW2 6057   2.398   4.274   1.312
 1720SOL     OW 6058   0.106   1.769   0.821
 1720SOL    HW1 6059   0.047   1.849   0.831
 1720SOL    HW2 6060   0.058   1.687   0.852
 1721SOL     OW 6061   1.044   6.756   3.039
 1721SOL    HW1 6062   1.000   6.846   3.044
 1721SOL    HW2 6063   0.982   6.692   2.993
 1722SOL     OW 6064   4.885   2.125   4.164
 1722SOL    HW1 6065   4.844   2.092   4.080
 1722SOL    HW2 6066   4.817   2.177   4.217
 1723SOL     OW 6067   0.080   2.426   2.740
 1723SOL    HW1 6068   0.043   2.334   2.750
 1723SOL    HW2 6069   0.079   2.452   2.643
 1724SOL     OW 6070   6.174   2.030   1.046
 1724SOL    HW1 6071   6.106   2.072   1.106
 1724SOL    HW2 6072   6.129   1.998   0.962
 1725SOL     OW 6073   2.110   4.581   6.898
 1725SOL    HW1 6074   2.097   4.660   6.838
 1725SOL    HW2 6075   2.155   4.610   6.982
 1726SOL     OW 6076   5.717   4.172   5.383
 1726SOL    HW1 6077   5.634   4.225   5.398
 1726SOL    HW2 6078   5.696   4.095   5.321
 1727SOL     OW 6079   3.532   3.253   4.682
 1727SOL    HW1 6080   3.508   3.288   4.592
 1727SOL    HW2 6081   3.631   3.243   4.689
 1728SOL     OW 6082   5.949   5.418   4.628
 1728SOL    HW1 6083   5.881   5.386   4.563
 1728SOL    HW2 6084   5.903   5.450   4.711
 1729SOL     OW 6085   2.179   4.032   3.705
 1729SOL    HW1 6086   2.171   3.960   3.637
 1729SOL    HW2 6087   2.184   4.121   3.660
 1730SOL     OW 6088   6.243   6.949   5.085
 1730SOL    HW1 6089   6.170   6.996   5.036
 1730SOL    HW2 6090   6.307   7.016   5.122
 1731SOL     OW 6091   0.227   4.772   2.052
 1731SOL    HW1 6092   0.323   4.752   2.072
 1731SOL    HW2 6093   0.172   4.689   2.064
 1732SOL     OW 6094   2.620   4.210   5.500
 1732SOL    HW1 6095   2.554   4.212   5.425
 1732SOL    HW2 6096   2.706   4.251   5.470
 1733SOL     OW 6097   1.124   3.936   2.872
 1733SOL    HW1 6098   1.106   4.024   2.828
 1733SOL    HW2 6099   1.218   3.934   2.905
 1734SOL     OW 6100   4.873   3.281   1.854
 1734SOL    HW1 6101   4.827   3.349   1.911
 1734SOL    HW2 6102   4.847   3.189   1.884
 1735SOL     OW 6103   5.816   5.953   1.443
 1735SOL    HW1 6104   5.839   6.024   1.510
 1735SOL    HW2 6105   5.833   5.987   1.351
 1736SOL     OW 6106   4.131   2.551   1.175
 1736SOL    HW1 6107   4.127   2.648   1.154
 1736SOL    HW2 6108   4.157   2.538   1.270
 1737SOL     OW 6109   2.888   0.824   4.348
 1737SOL    HW1 6110   2.798   0.783   4.366
 1737SOL    HW2 6111   2.880   0.888   4.272
 1738SOL     OW 6112   1.947   1.533   4.043
 1738SOL    HW1 6113   1.873   1.491   4.097
 1738SOL    HW2 6114   2.035   1.510   4.083
 1739SOL     OW 6115   5.525   1.934   5.656
 1739SOL    HW1 6116   5.483   1.983   5.732
 1739SOL    HW2 6117   5.615   1.974   5.636
 1740SOL     OW 6118   0.530   1.469   6.213
 1740SOL    HW1 6119   0.627   1.486   6.195
 1740SOL    HW2 6120   0.479   1.471   6.127
 1741SOL     OW 6121   1.982   0.472   3.993
 1741SOL    HW1 6122   1.985   0.565   4.029
 1741SOL    HW2 6123   2.005   0.473   3.895
 1742SOL     OW 6124   4.800   6.343   6.060
 1742SOL    HW1 6125   4.731   6.302   6.120
 1742SOL    HW2 6126   4.755   6.408   5.998
 1743SOL     OW 6127   2.034   2.061   2.399
 1743SOL    HW1 6128   2.003   1.968   2.413
 1743SOL    HW2 6129   2.049   2.077   2.302
 1744SOL     OW 6130   0.390   0.476   1.375
 1744SOL    HW1 6131   0.323   0.402   1.376
 1744SOL    HW2 6132   0.434   0.483   1.464
 1745SOL     OW 6133   6.251   0.589   3.420
 1745SOL    HW1 6134   6.241   0.627   3.328
 1745SOL    HW2 6135   6.261   0.490   3.415
 1746SOL     OW 6136   2.501   5.025   5.837
 1746SOL    HW1 6137   2.427   5.055   5.777
 1746SOL    HW2 6138   2.582   5.081   5.821
 1747SOL     OW 6139   5.922   1.168   3.124
 1747SOL    HW1 6140   5.823   1.170   3.112
 1747SOL    HW2 6141   5.963   1.107   3.056
 1748SOL     OW 6142   0.514   0.881   3.855
 1748SOL    HW1 6143   0.610   0.859   3.840
 1748SOL    HW2 6144   0.457   0.803   3.829
 1749SOL     OW 6145   2.612   6.947   5.337
 1749SOL    HW1 6146   2.566   6.858   5.339
 1749SOL    HW2 6147   2.699   6.941   5.385
 1750SOL     OW 6148   6.605   0.064   3.461
 1750SOL    HW1 6149   6.610   0.149   3.407
 1750SOL    HW2 6150   6.638   7.009   3.407
 1751SOL     OW 6151   4.123   5.513   4.354
 1751SOL    HW1 6152   4.075   5.475   4.433
 1751SOL    HW2 6153   4.184   5.443   4.315
 1752SOL     OW 6154   0.085   2.471   2.483
 1752SOL    HW1 6155   0.087   2.388   2.427
 1752SOL    HW2 6156   0.091   2.551   2.423
 1753SOL     OW 6157   6.946   2.331   0.703
 1753SOL    HW1 6158   6.892   2.391   0.645
 1753SOL    HW2 6159   6.977   2.252   0.650
 1754SOL     OW 6160   3.202   3.702   1.114
 1754SOL    HW1 6161   3.236   3.719   1.206
 1754SOL    HW2 6162   3.151   3.782   1.082
 1755SOL     OW 6163   6.016   5.881   2.773
 1755SOL    HW1 6164   5.958   5.803   2.798
 1755SOL    HW2 6165   5.959   5.958   2.746
 1756SOL     OW 6166   4.019   4.195   6.091
 1756SOL    HW1 6167   3.926   4.200   6.129
 1756SOL    HW2 6168   4.054   4.102   6.100
 1757SOL     OW 6169   2.547   5.064   4.964
 1757SOL    HW1 6170   2.516   4.969   4.965
 1757SOL    HW2 6171   2.473   5.123   4.995
 1758SOL     OW 6172   2.697   0.454   3.879
 1758SOL    HW1 6173   2.796   0.461   3.879
 1758SOL    HW2 6174   2.669   0.366   3.841
 1759SOL     OW 6175   1.238   5.247   5.823
 1759SOL    HW1 6176   1.329   5.268   5.861
 1759SOL    HW2 6177   1.211   5.155   5.851
 1760SOL     OW 6178   5.581   2.182   1.806
 1760SOL    HW1 6179   5.543   2.144   1.722
 1760SOL    HW2 6180   5.556   2.279   1.813
 1761SOL     OW 6181   0.253   0.600   0.936
 1761SOL    HW1 6182   0.154   0.586   0.932
 1761SOL    HW2 6183   0.299   0.529   0.882
 1762SOL     OW 6184   6.855   1.868   4.722
 1762SOL    HW1 6185   6.908   1.795   4.765
 1762SOL    HW2 6186   6.872   1.869   4.624
 1763SOL     OW 6187   1.287   3.601   4.058
 1763SOL    HW1 6188   1.370   3.560   4.096
 1763SOL    HW2 6189   1.249   3.665   4.124
 1764SOL     OW 6190   2.316   4.121   2.031
 1764SOL    HW1 6191   2.319   4.093   2.127
 1764SOL    HW2 6192   2.285   4.044   1.975
 1765SOL     OW 6193   3.970   1.720   0.069
 1765SOL    HW1 6194   3.953   1.735   0.167
 1765SOL    HW2 6195   3.891   1.752   0.017
 1766SOL     OW 6196   4.924   3.570   3.390
 1766SOL    HW1 6197   5.004   3.554   3.333
 1766SOL    HW2 6198   4.952   3.603   3.480
 1767SOL     OW 6199   6.431   3.874   3.163
 1767SOL    HW1 6200   6.440   3.775   3.150
 1767SOL    HW2 6201   6.363   3.893   3.234
 1768SOL     OW 6202   3.634   1.159   4.843
 1768SOL    HW1 6203   3.729   1.186   4.857
 1768SOL    HW2 6204   3.574   1.230   4.880
 1769SOL     OW 6205   4.442   2.488   4.862
 1769SOL    HW1 6206   4.365   2.485   4.925
 1769SOL    HW2 6207   4.413   2.451   4.773
 1770SOL     OW 6208   0.118   5.335   4.683
 1770SOL    HW1 6209   0.118   5.265   4.755
 1770SOL    HW2 6210   0.088   5.422   4.721
 1771SOL     OW 6211   2.214   5.089   6.828
 1771SOL    HW1 6212   2.261   5.173   6.854
 1771SOL    HW2 6213   2.119   5.093   6.860
 1772SOL     OW 6214   3.031   6.692   3.689
 1772SOL    HW1 6215   3.109   6.658   3.742
 1772SOL    HW2 6216   3.063   6.725   3.600
 1773SOL     OW 6217   2.805   4.779   6.043
 1773SOL    HW1 6218   2.792   4.867   6.088
 1773SOL    HW2 6219   2.774   4.786   5.948
 1774SOL     OW 6220   4.667   6.939   1.913
 1774SOL    HW1 6221   4.697   6.932   2.008
 1774SOL    HW2 6222   4.601   6.867   1.893
 1775SOL     OW 6223   1.110   4.449   4.164
 1775SOL    HW1 6224   1.145   4.413   4.078
 1775SOL    HW2 6225   1.014   4.421   4.176
 1776SOL     OW 6226   3.316   1.076   4.997
 1776SOL    HW1 6227   3.347   1.074   5.092
 1776SOL    HW2 6228   3.338   1.166   4.957
 1777SOL     OW 6229   3.459   5.272   5.613
 1777SOL    HW1 6230   3.383   5.207   5.620
 1777SOL    HW2 6231   3.457   5.334   5.691
 1778SOL     OW 6232   4.810   2.431   5.906
 1778SOL    HW1 6233   4.783   2.527   5.906
 1778SOL    HW2 6234   4.875   2.414   5.980
 1779SOL     OW 6235   4.457   1.074   4.738
 1779SOL    HW1 6236   4.462   1.016   4.657
 1779SOL    HW2 6237   4.517   1.037   4.809
 1780SOL     OW 6238   2.832   3.563   6.048
 1780SOL    HW1 6239   2.931   3.549   6.047
 1780SOL    HW2 6240   2.806   3.623   5.972
 1781SOL     OW 6241   4.275   5.564   3.968
 1781SOL    HW1 6242   4.334   5.604   4.038
 1781SOL    HW2 6243   4.325   5.559   3.882
 1782SOL     OW 6244   2.741   2.003   2.897
 1782SOL    HW1 6245   2.799   1.951   2.836
 1782SOL    HW2 6246   2.793   2.079   2.937
 1783SOL     OW 6247   1.637   3.878   6.484
 1783SOL    HW1 6248   1.576   3.899   6.408
 1783SOL    HW2 6249   1.731   3.900   6.459
 1784SOL     OW 6250   3.072   1.250   5.073
 1784SOL    HW1 6251   3.041   1.326   5.016
 1784SOL    HW2 6252   3.152   1.208   5.032
 1785SOL     OW 6253   5.848   5.530   3.488
 1785SOL    HW1 6254   5.856   5.580   3.402
 1785SOL    HW2 6255   5.822   5.593   3.561
 1786SOL     OW 6256   1.667   2.700   1.417
 1786SOL    HW1 6257   1.673   2.653   1.505
 1786SOL    HW2 6258   1.593   2.767   1.420
 1787SOL     OW 6259   2.302   0.976   4.560
 1787SOL    HW1 6260   2.368   0.997   4.489
 1787SOL    HW2 6261   2.348   0.973   4.649
 1788SOL     OW 6262   2.928   2.990   6.972
 1788SOL    HW1 6263   2.832   3.014   6.985
 1788SOL    HW2 6264   2.982   3.027   0.026
 1789SOL     OW 6265   6.183   1.769   2.372
 1789SOL    HW1 6266   6.175   1.672   2.393
 1789SOL    HW2 6267   6.236   1.780   2.288
 1790SOL     OW 6268   4.339   6.444   4.179
 1790SOL    HW1 6269   4.250   6.454   4.135
 1790SOL    HW2 6270   4.412   6.453   4.111
 1791SOL     OW 6271   0.175   1.379   3.826
 1791SOL    HW1 6272   0.198   1.383   3.923
 1791SOL    HW2 6273   0.219   1.455   3.778
 1792SOL     OW 6274   0.158   2.361   3.968
 1792SOL    HW1 6275   0.138   2.281   4.025
 1792SOL    HW2 6276   0.175   2.440   4.026
 1793SOL     OW 6277   6.924   6.926   3.618
 1793SOL    HW1 6278   6.909   6.931   3.716
 1793SOL    HW2 6279   6.900   7.013   3.576
 1794SOL     OW 6280   5.316   5.949   6.304
 1794SOL    HW1 6281   5.358   6.004   6.232
 1794SOL    HW2 6282   5.304   6.005   6.386
 1795SOL     OW 6283   0.167   2.852   2.442
 1795SOL    HW1 6284   0.205   2.917   2.507
 1795SOL    HW2 6285   0.192   2.879   2.349
 1796SOL     OW 6286   2.029   0.663   4.194
 1796SOL    HW1 6287   2.108   0.684   4.252
 1796SOL    HW2 6288   1.950   0.717   4.223
 1797SOL     OW 6289   1.293   1.118   6.385
 1797SOL    HW1 6290   1.391   1.116   6.363
 1797SOL    HW2 6291   1.282   1.127   6.484
 1798SOL     OW 6292   5.070   1.898   4.673
 1798SOL    HW1 6293   5.163   1.875   4.644
 1798SOL    HW2 6294   5.018   1.933   4.595
 1799SOL     OW 6295   6.326   1.297   6.163
 1799SOL    HW1 6296   6.361   1.335   6.249
 1799SOL    HW2 6297   6.235   1.335   6.145
 1800SOL     OW 6298   4.446   5.046   2.898
 1800SOL    HW1 6299   4.458   5.087   2.988
 1800SOL    HW2 6300   4.404   5.112   2.836
 1801SOL     OW 6301   0.778   1.015   2.105
 1801SOL    HW1 6302   0.795   0.922   2.136
 1801SOL    HW2 6303   0.858   1.072   2.123
 1802SOL     OW 6304   5.370   5.072   2.259
 1802SOL    HW1 6305   5.309   4.994   2.274
 1802SOL    HW2 6306   5.448   5.067   2.321
 1803SOL     OW 6307   6.958   6.243   0.365
 1803SOL    HW1 6308   6.983   6.340   0.367
 1803SOL    HW2 6309   6.927   6.218   0.274
 1804SOL     OW 6310   1.875   4.191   5.992
 1804SOL    HW1 6311   1.883   4.290   5.996
 1804SOL    HW2 6312   1.902   4.159   5.901
 1805SOL     OW 6313   6.704   3.933   5.898
 1805SOL    HW1 6314   6.663   3.923   5.807
 1805SOL    HW2 6315   6.635   3.914   5.968
 1806SOL     OW 6316   1.177   1.061   0.630
 1806SOL    HW1 6317   1.122   1.116   0.567
 1806SOL    HW2 6318   1.150   0.965   0.623
 1807SOL     OW 6319   4.926   2.354   6.168
 1807SOL    HW1 6320   4.905   2.359   6.266
 1807SOL    HW2 6321   4.902   2.263   6.133
 1808SOL     OW 6322   0.130   3.398   5.982
 1808SOL    HW1 6323   0.196   3.337   5.939
 1808SOL    HW2 6324   0.049   3.346   6.009
 1809SOL     OW 6325   2.132   3.467   4.319
 1809SOL    HW1 6326   2.146   3.368   4.318
 1809SOL    HW2 6327   2.154   3.505   4.229
 1810SOL     OW 6328   2.556   0.660   4.898
 1810SOL    HW1 6329   2.626   0.695   4.959
 1810SOL    HW2 6330   2.529   0.568   4.928
 1811SOL     OW 6331   4.550   4.486   3.766
 1811SOL    HW1 6332   4.631   4.444   3.808
 1811SOL    HW2 6333   4.527   4.438   3.681
 1812SOL     OW 6334   4.136   6.499   5.757
 1812SOL    HW1 6335   4.068   6.428   5.737
 1812SOL    HW2 6336   4.102   6.557   5.831
 1813SOL     OW 6337   5.105   4.889   0.263
 1813SOL    HW1 6338   5.197   4.870   0.228
 1813SOL    HW2 6339   5.037   4.865   0.193
 1814SOL     OW 6340   6.954   1.044   0.248
 1814SOL    HW1 6341   7.006   0.970   0.205
 1814SOL    HW2 6342   6.856   1.026   0.239
 1815SOL     OW 6343   5.897   2.583   1.850
 1815SOL    HW1 6344   5.972   2.541   1.800
 1815SOL    HW2 6345   5.816   2.589   1.791
 1816SOL     OW 6346   2.464   4.069   0.803
 1816SOL    HW1 6347   2.374   4.026   0.798
 1816SOL    HW2 6348   2.454   4.168   0.794
 1817SOL     OW 6349   3.073   6.860   3.481
 1817SOL    HW1 6350   3.079   6.937   3.545
 1817SOL    HW2 6351   3.132   6.877   3.403
 1818SOL     OW 6352   2.119   6.926   2.555
 1818SOL    HW1 6353   2.049   6.919   2.626
 1818SOL    HW2 6354   2.082   6.891   2.469
 1819SOL     OW 6355   0.054   5.522   1.581
 1819SOL    HW1 6356   0.090   5.441   1.534
 1819SOL    HW2 6357   7.010   5.493   1.651
 1820SOL     OW 6358   4.910   0.744   2.565
 1820SOL    HW1 6359   4.951   0.654   2.580
 1820SOL    HW2 6360   4.971   0.800   2.509
 1821SOL     OW 6361   2.683   0.754   1.719
 1821SOL    HW1 6362   2.583   0.753   1.712
 1821SOL    HW2 6363   2.720   0.822   1.657
 1822SOL     OW 6364   2.368   2.846   1.265
 1822SOL    HW1 6365   2.393   2.754   1.236
 1822SOL    HW2 6366   2.271   2.847   1.288
 1823SOL     OW 6367   2.692   5.991   3.329
 1823SOL    HW1 6368   2.656   6.028   3.415
 1823SOL    HW2 6369   2.617   5.978   3.264
 1824SOL     OW 6370   3.754   3.552   1.436
 1824SOL    HW1 6371   3.849   3.521   1.441
 1824SOL    HW2 6372   3.699   3.502   1.504
 1825SOL     OW 6373   1.306   1.865   4.155
 1825SOL    HW1 6374   1.229   1.880   4.093
 1825SOL    HW2 6375   1.364   1.947   4.157
 1826SOL     OW 6376   3.188   0.315   0.756
 1826SOL    HW1 6377   3.122   0.283   0.824
 1826SOL    HW2 6378   3.178   0.260   0.673
 1827SOL     OW 6379   0.378   6.119   1.470
 1827SOL    HW1 6380   0.377   6.209   1.514
 1827SOL    HW2 6381   0.284   6.091   1.450
 1828SOL     OW 6382   1.020   2.474   0.625
 1828SOL    HW1 6383   1.104   2.527   0.638
 1828SOL    HW2 6384   0.996   2.429   0.711
 1829SOL     OW 6385   2.839   0.555   3.486
 1829SOL    HW1 6386   2.792   0.579   3.401
 1829SOL    HW2 6387   2.816   0.622   3.557
 1830SOL     OW 6388   6.223   6.354   3.937
 1830SOL    HW1 6389   6.229   6.375   3.839
 1830SOL    HW2 6390   6.239   6.438   3.990
 1831SOL     OW 6391   5.961   0.314   2.432
 1831SOL    HW1 6392   6.010   0.227   2.424
 1831SOL    HW2 6393   5.923   0.323   2.524
 1832SOL     OW 6394   4.697   1.539   1.078
 1832SOL    HW1 6395   4.762   1.531   1.154
 1832SOL    HW2 6396   4.696   1.633   1.045
 1833SOL     OW 6397   5.223   0.398   6.353
 1833SOL    HW1 6398   5.149   0.462   6.374
 1833SOL    HW2 6399   5.187   0.321   6.300
 1834SOL     OW 6400   2.655   4.313   0.331
 1834SOL    HW1 6401   2.627   4.240   0.393
 1834SOL    HW2 6402   2.628   4.401   0.369
 1835SOL     OW 6403   0.034   3.597   2.374
 1835SOL    HW1 6404   0.069   3.653   2.450
 1835SOL    HW2 6405   0.073   3.505   2.379
 1836SOL     OW 6406   5.117   2.808   1.167
 1836SOL    HW1 6407   5.036   2.756   1.195
 1836SOL    HW2 6408   5.198   2.752   1.181
 1837SOL     OW 6409   1.287   1.195   4.722
 1837SOL    HW1 6410   1.248   1.272   4.773
 1837SOL    HW2 6411   1.386   1.193   4.735
 1838SOL     OW 6412   0.002   1.346   4.211
 1838SOL    HW1 6413   0.088   1.311   4.174
 1838SOL    HW2 6414   0.013   1.365   4.309
 1839SOL     OW 6415   5.517   2.368   5.467
 1839SOL    HW1 6416   5.428   2.324   5.461
 1839SOL    HW2 6417   5.553   2.386   5.376
 1840SOL     OW 6418   3.223   6.517   1.564
 1840SOL    HW1 6419   3.267   6.515   1.654
 1840SOL    HW2 6420   3.132   6.476   1.571
 1841SOL     OW 6421   2.153   0.997   3.565
 1841SOL    HW1 6422   2.155   1.025   3.661
 1841SOL    HW2 6423   2.086   1.051   3.515
 1842SOL     OW 6424   1.508   5.726   0.002
 1842SOL    HW1 6425   1.594   5.716   6.974
 1842SOL    HW2 6426   1.458   5.804   6.987
 1843SOL     OW 6427   6.573   2.355   3.476
 1843SOL    HW1 6428   6.627   2.434   3.444
 1843SOL    HW2 6429   6.621   2.271   3.453
 1844SOL     OW 6430   3.153   0.218   5.692
 1844SOL    HW1 6431   3.153   0.289   5.762
 1844SOL    HW2 6432   3.155   0.260   5.602
 1845SOL     OW 6433   2.598   0.298   5.192
 1845SOL    HW1 6434   2.535   0.222   5.207
 1845SOL    HW2 6435   2.556   0.383   5.226
 1846SOL     OW 6436   4.288   2.285   1.032
 1846SOL    HW1 6437   4.244   2.228   1.102
 1846SOL    HW2 6438   4.233   2.367   1.017
 1847SOL     OW 6439   1.666   1.429   6.756
 1847SOL    HW1 6440   1.756   1.414   6.716
 1847SOL    HW2 6441   1.666   1.515   6.807
 1848SOL     OW 6442   0.837   6.775   3.324
 1848SOL    HW1 6443   0.762   6.797   3.385
 1848SOL    HW2 6444   0.890   6.700   3.361
 1849SOL     OW 6445   3.883   2.561   0.503
 1849SOL    HW1 6446   3.955   2.592   0.441
 1849SOL    HW2 6447   3.842   2.639   0.550
 1850SOL     OW 6448   0.637   2.440   2.117
 1850SOL    HW1 6449   0.589   2.370   2.170
 1850SOL    HW2 6450   0.712   2.478   2.171
 1851SOL     OW 6451   0.058   2.762   0.915
 1851SOL    HW1 6452   0.101   2.852   0.905
 1851SOL    HW2 6453   0.105   2.696   0.856
 1852SOL     OW 6454   6.603   4.161   1.879
 1852SOL    HW1 6455   6.656   4.149   1.963
 1852SOL    HW2 6456   6.598   4.259   1.857
 1853SOL     OW 6457   0.114   2.647   2.891
 1853SOL    HW1 6458   0.115   2.573   2.823
 1853SOL    HW2 6459   0.067   2.616   2.973
 1854SOL     OW 6460   2.503   6.414   3.148
 1854SOL    HW1 6461   2.448   6.333   3.169
 1854SOL    HW2 6462   2.587   6.386   3.100
 1855SOL     OW 6463   5.201   3.025   5.806
 1855SOL    HW1 6464   5.292   3.049   5.839
 1855SOL    HW2 6465   5.171   2.940   5.849
 1856SOL     OW 6466   6.014   3.402   5.761
 1856SOL    HW1 6467   5.915   3.407   5.771
 1856SOL    HW2 6468   6.040   3.310   5.732
 1857SOL     OW 6469   4.249   1.369   5.287
 1857SOL    HW1 6470   4.320   1.378   5.216
 1857SOL    HW2 6471   4.257   1.445   5.351
 1858SOL     OW 6472   6.194   3.802   4.071
 1858SOL    HW1 6473   6.198   3.894   4.110
 1858SOL    HW2 6474   6.111   3.756   4.102
 1859SOL     OW 6475   5.019   2.128   2.805
 1859SOL    HW1 6476   5.069   2.151   2.721
 1859SOL    HW2 6477   4.983   2.035   2.799
 1860SOL     OW 6478   6.299   0.419   5.289
 1860SOL    HW1 6479   6.319   0.414   5.191
 1860SOL    HW2 6480   6.248   0.503   5.308
 1861SOL     OW 6481   5.864   7.013   2.334
 1861SOL    HW1 6482   5.791   0.041   2.286
 1861SOL    HW2 6483   5.826   6.968   2.415
 1862SOL     OW 6484   2.538   7.008   6.229
 1862SOL    HW1 6485   2.584   6.953   6.298
 1862SOL    HW2 6486   2.521   0.079   6.264
 1863SOL     OW 6487   1.335   2.298   2.440
 1863SOL    HW1 6488   1.370   2.313   2.533
 1863SOL    HW2 6489   1.309   2.202   2.430
 1864SOL     OW 6490   1.443   6.896   5.447
 1864SOL    HW1 6491   1.415   6.831   5.517
 1864SOL    HW2 6492   1.525   6.863   5.402
 1865SOL     OW 6493   3.820   6.543   6.291
 1865SOL    HW1 6494   3.764   6.617   6.328
 1865SOL    HW2 6495   3.762   6.476   6.245
 1866SOL     OW 6496   4.437   5.262   3.384
 1866SOL    HW1 6497   4.337   5.270   3.375
 1866SOL    HW2 6498   4.460   5.175   3.427
 1867SOL     OW 6499   0.246   4.360   0.187
 1867SOL    HW1 6500   0.242   4.262   0.204
 1867SOL    HW2 6501   0.164   4.389   0.137
 1868SOL     OW 6502   4.925   3.670   6.710
 1868SOL    HW1 6503   4.889   3.709   6.794
 1868SOL    HW2 6504   4.934   3.743   6.641
 1869SOL     OW 6505   6.018   2.849   5.442
 1869SOL    HW1 6506   5.953   2.785   5.483
 1869SOL    HW2 6507   5.978   2.940   5.439
 1870SOL     OW 6508   1.756   3.148   5.490
 1870SOL    HW1 6509   1.757   3.082   5.416
 1870SOL    HW2 6510   1.848   3.185   5.504
 1871SOL     OW 6511   0.387   0.673   0.367
 1871SOL    HW1 6512   0.358   0.720   0.284
 1871SOL    HW2 6513   0.440   0.592   0.342
 1872SOL     OW 6514   4.111   1.600   6.081
 1872SOL    HW1 6515   4.055   1.519   6.066
 1872SOL    HW2 6516   4.200   1.572   6.119
 1873SOL     OW 6517   5.193   1.443   5.649
 1873SOL    HW1 6518   5.143   1.436   5.736
 1873SOL    HW2 6519   5.129   1.457   5.574
 1874SOL     OW 6520   3.162   1.493   0.636
 1874SOL    HW1 6521   3.144   1.583   0.676
 1874SOL    HW2 6522   3.089   1.430   0.661
 1875SOL     OW 6523   0.085   0.854   0.147
 1875SOL    HW1 6524   0.036   0.831   0.063
 1875SOL    HW2 6525   0.183   0.856   0.128
 1876SOL     OW 6526   3.674   6.349   6.142
 1876SOL    HW1 6527   3.605   6.346   6.214
 1876SOL    HW2 6528   3.649   6.286   6.069
 1877SOL     OW 6529   0.523   0.239   2.780
 1877SOL    HW1 6530   0.563   0.306   2.843
 1877SOL    HW2 6531   0.504   0.284   2.692
 1878SOL     OW 6532   6.824   2.597   3.744
 1878SOL    HW1 6533   6.779   2.630   3.827
 1878SOL    HW2 6534   6.766   2.616   3.665
 1879SOL     OW 6535   1.463   5.020   4.127
 1879SOL    HW1 6536   1.480   5.106   4.175
 1879SOL    HW2 6537   1.530   4.952   4.156
 1880SOL     OW 6538   6.508   1.295   4.591
 1880SOL    HW1 6539   6.448   1.358   4.541
 1880SOL    HW2 6540   6.575   1.257   4.528
 1881SOL     OW 6541   6.204   2.747   2.314
 1881SOL    HW1 6542   6.254   2.678   2.367
 1881SOL    HW2 6543   6.268   2.798   2.256
 1882SOL     OW 6544   0.608   3.523   6.445
 1882SOL    HW1 6545   0.528   3.552   6.497
 1882SOL    HW2 6546   0.655   3.450   6.494
 1883SOL     OW 6547   0.856   2.031   4.087
 1883SOL    HW1 6548   0.906   2.114   4.111
 1883SOL    HW2 6549   0.759   2.052   4.075
 1884SOL     OW 6550   6.602   2.986   0.295
 1884SOL    HW1 6551   6.520   2.930   0.303
 1884SOL    HW2 6552   6.584   3.064   0.235
 1885SOL     OW 6553   1.316   2.662   6.306
 1885SOL    HW1 6554   1.383   2.621   6.367
 1885SOL    HW2 6555   1.323   2.762   6.312
 1886SOL     OW 6556   2.300   0.830   1.494
 1886SOL    HW1 6557   2.304   0.812   1.593
 1886SOL    HW2 6558   2.247   0.758   1.449
 1887SOL     OW 6559   0.982   5.666   4.988
 1887SOL    HW1 6560   0.995   5.586   4.930
 1887SOL    HW2 6561   1.035   5.655   5.072
 1888SOL     OW 6562   2.219   2.399   6.980
 1888SOL    HW1 6563   2.132   2.421   0.003
 1888SOL    HW2 6564   2.201   2.360   6.889
 1889SOL     OW 6565   0.333   2.923   5.986
 1889SOL    HW1 6566   0.362   2.840   5.939
 1889SOL    HW2 6567   0.276   2.977   5.925
 1890SOL     OW 6568   1.519   6.664   4.664
 1890SOL    HW1 6569   1.540   6.567   4.658
 1890SOL    HW2 6570   1.599   6.717   4.636
 1891SOL     OW 6571   5.326   2.027   2.111
 1891SOL    HW1 6572   5.257   1.956   2.124
 1891SOL    HW2 6573   5.285   2.105   2.064
 1892SOL     OW 6574   2.445   1.078   2.611
 1892SOL    HW1 6575   2.389   1.136   2.671
 1892SOL    HW2 6576   2.536   1.066   2.651
 1893SOL     OW 6577   3.770   2.914   6.877
 1893SOL    HW1 6578   3.746   2.861   6.959
 1893SOL    HW2 6579   3.867   2.936   6.879
 1894SOL     OW 6580   3.712   4.028   3.684
 1894SOL    HW1 6581   3.804   4.033   3.723
 1894SOL    HW2 6582   3.715   3.979   3.597
 1895SOL     OW 6583   5.166   0.600   1.584
 1895SOL    HW1 6584   5.232   0.556   1.646
 1895SOL    HW2 6585   5.152   0.541   1.504
 1896SOL     OW 6586   5.527   0.305   1.556
 1896SOL    HW1 6587   5.450   0.359   1.589
 1896SOL    HW2 6588   5.613   0.353   1.575
 1897SOL     OW 6589   1.602   5.037   1.628
 1897SOL    HW1 6590   1.524   4.975   1.640
 1897SOL    HW2 6591   1.576   5.111   1.566
 1898SOL     OW 6592   2.081   5.977   3.329
 1898SOL    HW1 6593   2.046   5.909   3.265
 1898SOL    HW2 6594   2.005   6.016   3.382
 1899SOL     OW 6595   1.319   0.790   2.144
 1899SOL    HW1 6596   1.269   0.720   2.195
 1899SOL    HW2 6597   1.304   0.879   2.186
 1900SOL     OW 6598   1.404   0.232   6.561
 1900SOL    HW1 6599   1.359   0.270   6.480
 1900SOL    HW2 6600   1.497   0.204   6.537
 1901SOL     OW 6601   1.810   1.623   1.034
 1901SOL    HW1 6602   1.878   1.690   1.066
 1901SOL    HW2 6603   1.726   1.671   1.008
 1902SOL     OW 6604   2.308   2.167   5.192
 1902SOL    HW1 6605   2.241   2.095   5.171
 1902SOL    HW2 6606   2.332   2.215   5.108
 1903SOL     OW 6607   6.923   3.309   2.517
 1903SOL    HW1 6608   6.932   3.230   2.578
 1903SOL    HW2 6609   7.010   3.356   2.510
 1904SOL     OW 6610   5.265   5.756   3.565
 1904SOL    HW1 6611   5.209   5.744   3.646
 1904SOL    HW2 6612   5.235   5.837   3.514
 1905SOL     OW 6613   1.281   0.300   3.730
 1905SOL    HW1 6614   1.268   0.325   3.634
 1905SOL    HW2 6615   1.255   0.204   3.743
 1906SOL     OW 6616   2.475   0.397   4.958
 1906SOL    HW1 6617   2.529   0.399   5.042
 1906SOL    HW2 6618   2.399   0.334   4.968
 1907SOL     OW 6619   3.636   0.703   1.706
 1907SOL    HW1 6620   3.652   0.722   1.609
 1907SOL    HW2 6621   3.628   0.604   1.719
 1908SOL     OW 6622   3.587   6.671   5.355
 1908SOL    HW1 6623   3.618   6.765   5.366
 1908SOL    HW2 6624   3.528   6.665   5.275
 1909SOL     OW 6625   0.084   3.777   2.642
 1909SOL    HW1 6626   0.035   3.712   2.702
 1909SOL    HW2 6627   0.160   3.818   2.693
 1910SOL     OW 6628   0.438   3.948   7.019
 1910SOL    HW1 6629   0.425   3.870   6.958
 1910SOL    HW2 6630   0.522   3.935   0.052
 1911SOL     OW 6631   6.832   3.455   5.046
 1911SOL    HW1 6632   6.779   3.439   5.129
 1911SOL    HW2 6633   6.913   3.510   5.069
 1912SOL     OW 6634   3.930   5.725   0.740
 1912SOL    HW1 6635   3.945   5.701   0.836
 1912SOL    HW2 6636   3.853   5.789   0.734
 1913SOL     OW 6637   2.478   6.656   4.898
 1913SOL    HW1 6638   2.393   6.629   4.944
 1913SOL    HW2 6639   2.519   6.577   4.853
 1914SOL     OW 6640   3.720   3.008   6.028
 1914SOL    HW1 6641   3.644   2.996   5.965
 1914SOL    HW2 6642   3.699   2.964   6.115
 1915SOL     OW 6643   3.407   2.169   5.179
 1915SOL    HW1 6644   3.319   2.180   5.132
 1915SOL    HW2 6645   3.427   2.252   5.232
 1916SOL     OW 6646   4.127   5.772   1.505
 1916SOL    HW1 6647   4.066   5.780   1.584
 1916SOL    HW2 6648   4.222   5.773   1.536
 1917SOL     OW 6649   2.588   3.052   6.201
 1917SOL    HW1 6650   2.641   3.129   6.164
 1917SOL    HW2 6651   2.514   3.088   6.259
 1918SOL     OW 6652   0.989   1.093   5.448
 1918SOL    HW1 6653   0.956   1.149   5.372
 1918SOL    HW2 6654   1.083   1.118   5.470
 1919SOL     OW 6655   2.084   0.619   1.725
 1919SOL    HW1 6656   1.984   0.616   1.714
 1919SOL    HW2 6657   2.109   0.695   1.785
 1920SOL     OW 6658   0.215   3.799   2.909
 1920SOL    HW1 6659   0.242   3.706   2.934
 1920SOL    HW2 6660   0.277   3.864   2.952
 1921SOL     OW 6661   1.443   3.703   6.155
 1921SOL    HW1 6662   1.453   3.735   6.061
 1921SOL    HW2 6663   1.414   3.778   6.213
 1922SOL     OW 6664   2.169   3.691   0.886
 1922SOL    HW1 6665   2.202   3.603   0.851
 1922SOL    HW2 6666   2.136   3.679   0.980
 1923SOL     OW 6667   4.040   0.891   5.606
 1923SOL    HW1 6668   4.007   0.838   5.685
 1923SOL    HW2 6669   4.123   0.940   5.632
 1924SOL     OW 6670   4.851   6.253   6.828
 1924SOL    HW1 6671   4.755   6.250   6.800
 1924SOL    HW2 6672   4.861   6.312   6.908
 1925SOL     OW 6673   1.767   4.842   1.076
 1925SOL    HW1 6674   1.707   4.820   1.152
 1925SOL    HW2 6675   1.781   4.941   1.072
 1926SOL     OW 6676   2.555   0.054   2.969
 1926SOL    HW1 6677   2.628   7.007   2.982
 1926SOL    HW2 6678   2.484   0.015   2.911
 1927SOL     OW 6679   2.448   4.441   0.168
 1927SOL    HW1 6680   2.388   4.361   0.161
 1927SOL    HW2 6681   2.538   4.413   0.198
 1928SOL     OW 6682   6.636   4.238   5.682
 1928SOL    HW1 6683   6.588   4.289   5.610
 1928SOL    HW2 6684   6.669   4.302   5.751
 1929SOL     OW 6685   2.583   6.763   1.545
 1929SOL    HW1 6686   2.649   6.791   1.476
 1929SOL    HW2 6687   2.499   6.817   1.534
 1930SOL     OW 6688   3.896   3.744   6.435
 1930SOL    HW1 6689   3.878   3.655   6.478
 1930SOL    HW2 6690   3.994   3.760   6.432
 1931SOL     OW 6691   1.423   2.456   1.608
 1931SOL    HW1 6692   1.516   2.479   1.582
 1931SOL    HW2 6693   1.410   2.357   1.606
 1932SOL     OW 6694   4.744   2.452   3.211
 1932SOL    HW1 6695   4.686   2.530   3.187
 1932SOL    HW2 6696   4.815   2.441   3.141
 1933SOL     OW 6697   2.155   3.416   0.811
 1933SOL    HW1 6698   2.194   3.350   0.874
 1933SOL    HW2 6699   2.143   3.374   0.721
 1934SOL     OW 6700   6.926   6.943   5.288
 1934SOL    HW1 6701   6.897   0.016   5.302
 1934SOL    HW2 6702   6.895   6.910   5.199
 1935SOL     OW 6703   4.500   6.152   3.574
 1935SOL    HW1 6704   4.466   6.126   3.484
 1935SOL    HW2 6705   4.543   6.073   3.617
 1936SOL     OW 6706   5.419   4.032   3.789
 1936SOL    HW1 6707   5.367   4.115   3.771
 1936SOL    HW2 6708   5.505   4.055   3.835
 1937SOL     OW 6709   4.437   6.087   0.590
 1937SOL    HW1 6710   4.494   6.020   0.543
 1937SOL    HW2 6711   4.489   6.130   0.664
 1938SOL     OW 6712   1.188   1.746   1.879
 1938SOL    HW1 6713   1.234   1.702   1.801
 1938SOL    HW2 6714   1.206   1.844   1.876
 1939SOL     OW 6715   6.965   6.729   4.517
 1939SOL    HW1 6716   6.933   6.642   4.479
 1939SOL    HW2 6717   6.934   6.804   4.460
 1940SOL     OW 6718   5.679   5.738   0.883
 1940SOL    HW1 6719   5.653   5.772   0.792
 1940SOL    HW2 6720   5.778   5.739   0.892
 1941SOL     OW 6721   1.225   3.162   4.160
 1941SOL    HW1 6722   1.215   3.233   4.091
 1941SOL    HW2 6723   1.271   3.201   4.240
 1942SOL     OW 6724   5.535   3.134   1.590
 1942SOL    HW1 6725   5.478   3.084   1.655
 1942SOL    HW2 6726   5.551   3.226   1.624
 1943SOL     OW 6727   1.761   0.072   2.918
 1943SOL    HW1 6728   1.719   0.058   3.008
 1943SOL    HW2 6729   1.790   0.167   2.909
 1944SOL     OW 6730   6.145   3.352   0.463
 1944SOL    HW1 6731   6.105   3.444   0.465
 1944SOL    HW2 6732   6.095   3.293   0.526
 1945SOL     OW 6733   4.038   5.409   0.272
 1945SOL    HW1 6734   4.073   5.348   0.201
 1945SOL    HW2 6735   4.047   5.503   0.242
 1946SOL     OW 6736   5.840   6.903   1.062
 1946SOL    HW1 6737   5.871   6.959   0.985
 1946SOL    HW2 6738   5.819   6.811   1.030
 1947SOL     OW 6739   5.608   6.615   4.474
 1947SOL    HW1 6740   5.564   6.594   4.387
 1947SOL    HW2 6741   5.545   6.599   4.550
 1948SOL     OW 6742   6.486   4.783   3.148
 1948SOL    HW1 6743   6.433   4.746   3.072
 1948SOL    HW2 6744   6.437   4.861   3.188
 1949SOL     OW 6745   3.361   3.383   6.606
 1949SOL    HW1 6746   3.426   3.438   6.554
 1949SOL    HW2 6747   3.371   3.402   6.704
 1950SOL     OW 6748   3.917   2.994   1.100
 1950SOL    HW1 6749   3.830   3.028   1.137
 1950SOL    HW2 6750   3.970   3.070   1.063
 1951SOL     OW 6751   6.615   4.824   6.703
 1951SOL    HW1 6752   6.585   4.754   6.768
 1951SOL    HW2 6753   6.683   4.883   6.747
 1952SOL     OW 6754   5.063   4.139   1.271
 1952SOL    HW1 6755   4.980   4.156   1.217
 1952SOL    HW2 6756   5.037   4.111   1.363
 1953SOL     OW 6757   5.973   1.583   5.258
 1953SOL    HW1 6758   5.938   1.625   5.342
 1953SOL    HW2 6759   5.916   1.611   5.181
 1954SOL     OW 6760   6.635   0.365   1.371
 1954SOL    HW1 6761   6.728   0.375   1.334
 1954SOL    HW2 6762   6.594   0.282   1.334
 1955SOL     OW 6763   0.622   0.158   3.141
 1955SOL    HW1 6764   0.603   0.220   3.064
 1955SOL    HW2 6765   0.638   0.212   3.224
 1956SOL     OW 6766   5.135   6.805   1.605
 1956SOL    HW1 6767   5.136   6.836   1.510
 1956SOL    HW2 6768   5.169   6.878   1.665
 1957SOL     OW 6769   5.351   4.307   3.660
 1957SOL    HW1 6770   5.447   4.333   3.660
 1957SOL    HW2 6771   5.299   4.368   3.720
 1958SOL     OW 6772   4.512   1.675   1.979
 1958SOL    HW1 6773   4.538   1.766   2.011
 1958SOL    HW2 6774   4.416   1.658   2.001
 1959SOL     OW 6775   1.237   0.026   3.776
 1959SOL    HW1 6776   1.296   0.002   3.699
 1959SOL    HW2 6777   1.232   6.970   3.840
 1960SOL     OW 6778   0.331   3.958   2.595
 1960SOL    HW1 6779   0.365   3.872   2.557
 1960SOL    HW2 6780   0.403   4.001   2.648
 1961SOL     OW 6781   6.697   4.656   4.904
 1961SOL    HW1 6782   6.783   4.700   4.931
 1961SOL    HW2 6783   6.711   4.605   4.819
 1962SOL     OW 6784   1.716   6.221   2.577
 1962SOL    HW1 6785   1.789   6.285   2.553
 1962SOL    HW2 6786   1.748   6.127   2.563
 1963SOL     OW 6787   0.535   1.823   1.474
 1963SOL    HW1 6788   0.443   1.822   1.513
 1963SOL    HW2 6789   0.584   1.905   1.505
 1964SOL     OW 6790   4.222   4.684   1.784
 1964SOL    HW1 6791   4.309   4.733   1.778
 1964SOL    HW2 6792   4.235   4.589   1.754
 1965SOL     OW 6793   1.641   3.174   4.465
 1965SOL    HW1 6794   1.564   3.128   4.509
 1965SOL    HW2 6795   1.710   3.197   4.535
 1966SOL     OW 6796   0.585   6.163   1.310
 1966SOL    HW1 6797   0.514   6.138   1.375
 1966SOL    HW2 6798   0.662   6.100   1.319
 1967SOL     OW 6799   5.426   2.779   4.002
 1967SOL    HW1 6800   5.501   2.844   4.015
 1967SOL    HW2 6801   5.384   2.759   4.091
 1968SOL     OW 6802   1.879   0.541   5.513
 1968SOL    HW1 6803   1.785   0.517   5.537
 1968SOL    HW2 6804   1.914   0.477   5.445
 1969SOL     OW 6805   2.950   1.356   0.834
 1969SOL    HW1 6806   2.887   1.282   0.859
 1969SOL    HW2 6807   3.032   1.351   0.892
 1970SOL     OW 6808   2.243   0.008   5.618
 1970SOL    HW1 6809   2.151   6.998   5.595
 1970SOL    HW2 6810   2.236   0.087   5.679
 1971SOL     OW 6811   0.116   0.381   5.435
 1971SOL    HW1 6812   0.154   0.403   5.524
 1971SOL    HW2 6813   0.051   0.451   5.407
 1972SOL     OW 6814   5.725   2.140   1.339
 1972SOL    HW1 6815   5.752   2.222   1.390
 1972SOL    HW2 6816   5.637   2.107   1.372
 1973SOL     OW 6817   2.795   3.813   0.683
 1973SOL    HW1 6818   2.868   3.838   0.620
 1973SOL    HW2 6819   2.731   3.751   0.638
 1974SOL     OW 6820   5.154   0.542   4.844
 1974SOL    HW1 6821   5.128   0.609   4.774
 1974SOL    HW2 6822   5.212   0.472   4.804
 1975SOL     OW 6823   1.985   2.040   4.099
 1975SOL    HW1 6824   1.924   1.961   4.096
 1975SOL    HW2 6825   1.955   2.102   4.171
 1976SOL     OW 6826   6.464   6.367   0.473
 1976SOL    HW1 6827   6.365   6.372   0.460
 1976SOL    HW2 6828   6.507   6.447   0.430
 1977SOL     OW 6829   1.779   3.229   5.150
 1977SOL    HW1 6830   1.749   3.191   5.238
 1977SOL    HW2 6831   1.879   3.235   5.148
 1978SOL     OW 6832   2.117   5.750   2.918
 1978SOL    HW1 6833   2.085   5.757   3.013
 1978SOL    HW2 6834   2.058   5.687   2.868
 1979SOL     OW 6835   5.260   4.889   6.708
 1979SOL    HW1 6836   5.340   4.910   6.765
 1979SOL    HW2 6837   5.262   4.945   6.625
 1980SOL     OW 6838   3.804   6.911   4.050
 1980SOL    HW1 6839   3.783   6.928   3.953
 1980SOL    HW2 6840   3.754   6.831   4.081
 1981SOL     OW 6841   5.717   3.479   2.516
 1981SOL    HW1 6842   5.645   3.505   2.452
 1981SOL    HW2 6843   5.760   3.394   2.485
 1982SOL     OW 6844   6.536   4.325   3.647
 1982SOL    HW1 6845   6.509   4.397   3.711
 1982SOL    HW2 6846   6.595   4.364   3.576
 1983SOL     OW 6847   1.774   6.754   1.348
 1983SOL    HW1 6848   1.780   6.854   1.350
 1983SOL    HW2 6849   1.769   6.718   1.441
 1984SOL     OW 6850   4.600   2.694   4.983
 1984SOL    HW1 6851   4.654   2.667   4.903
 1984SOL    HW2 6852   4.508   2.657   4.974
 1985SOL     OW 6853   0.263   6.228   2.987
 1985SOL    HW1 6854   0.243   6.227   2.889
 1985SOL    HW2 6855   0.357   6.258   3.002
 1986SOL     OW 6856   2.936   1.109   6.794
 1986SOL    HW1 6857   2.912   1.106   6.697
 1986SOL    HW2 6858   2.905   1.195   6.833
 1987SOL     OW 6859   2.304   1.922   3.168
 1987SOL    HW1 6860   2.242   1.988   3.211
 1987SOL    HW2 6861   2.398   1.941   3.197
 1988SOL     OW 6862   6.994   3.401   0.946
 1988SOL    HW1 6863   6.921   3.345   0.908
 1988SOL    HW2 6864   0.062   3.359   0.926
 1989SOL     OW 6865   1.945   5.777   5.244
 1989SOL    HW1 6866   2.008   5.791   5.320
 1989SOL    HW2 6867   1.919   5.681   5.238
 1990SOL     OW 6868   4.118   5.748   0.497
 1990SOL    HW1 6869   4.028   5.736   0.537
 1990SOL    HW2 6870   4.182   5.780   0.566
 1991SOL     OW 6871   2.761   5.768   0.392
 1991SOL    HW1 6872   2.740   5.735   0.300
 1991SOL    HW2 6873   2.691   5.834   0.419
 1992SOL     OW 6874   0.120   0.797   0.423
 1992SOL    HW1 6875   0.194   0.836   0.477
 1992SOL    HW2 6876   0.120   0.838   0.331
 1993SOL     OW 6877   3.678   1.682   5.888
 1993SOL    HW1 6878   3.676   1.633   5.800
 1993SOL    HW2 6879   3.773   1.694   5.917
 1994SOL     OW 6880   6.641   2.281   0.473
 1994SOL    HW1 6881   6.619   2.279   0.571
 1994SOL    HW2 6882   6.680   2.371   0.451
 1995SOL     OW 6883   5.160   3.004   3.946
 1995SOL    HW1 6884   5.171   3.103   3.948
 1995SOL    HW2 6885   5.198   2.967   3.861
 1996SOL     OW 6886   2.475   2.133   0.810
 1996SOL    HW1 6887   2.555   2.193   0.807
 1996SOL    HW2 6888   2.475   2.074   0.730
 1997SOL     OW 6889   3.778   1.991   4.317
 1997SOL    HW1 6890   3.766   1.930   4.239
 1997SOL    HW2 6891   3.694   2.045   4.330
 1998SOL     OW 6892   1.649   3.452   0.205
 1998SOL    HW1 6893   1.553   3.427   0.188
 1998SOL    HW2 6894   1.706   3.370   0.205
 1999SOL     OW 6895   1.873   6.900   6.296
 1999SOL    HW1 6896   1.786   6.899   6.344
 1999SOL    HW2 6897   1.921   6.814   6.312
 2000SOL     OW 6898   3.717   2.635   5.832
 2000SOL    HW1 6899   3.735   2.661   5.737
 2000SOL    HW2 6900   3.719   2.536   5.841
 2001SOL     OW 6901   2.158   1.037   1.330
 2001SOL    HW1 6902   2.187   0.973   1.402
 2001SOL    HW2 6903   2.231   1.103   1.314
 2002SOL     OW 6904   0.174   4.658   0.395
 2002SOL    HW1 6905   0.209   4.652   0.489
 2002SOL    HW2 6906   0.076   4.641   0.395
 2003SOL     OW 6907   6.986   4.774   2.578
 2003SOL    HW1 6908   6.990   4.871   2.605
 2003SOL    HW2 6909   0.004   4.764   2.486
 2004SOL     OW 6910   5.666   1.201   4.274
 2004SOL    HW1 6911   5.654   1.282   4.332
 2004SOL    HW2 6912   5.751   1.155   4.299
 2005SOL     OW 6913   6.928   4.631   0.784
 2005SOL    HW1 6914   6.901   4.618   0.879
 2005SOL    HW2 6915   7.014   4.681   0.780
 2006SOL     OW 6916   5.427   0.412   3.374
 2006SOL    HW1 6917   5.368   0.442   3.299
 2006SOL    HW2 6918   5.522   0.413   3.345
 2007SOL     OW 6919   5.083   4.732   1.256
 2007SOL    HW1 6920   5.036   4.738   1.168
 2007SOL    HW2 6921   5.176   4.697   1.242
 2008SOL     OW 6922   1.964   4.166   3.816
 2008SOL    HW1 6923   2.030   4.101   3.778
 2008SOL    HW2 6924   1.896   4.188   3.747
 2009SOL     OW 6925   4.814   7.005   2.779
 2009SOL    HW1 6926   4.883   6.941   2.812
 2009SOL    HW2 6927   4.837   0.077   2.809
 2010SOL     OW 6928   2.439   1.468   1.667
 2010SOL    HW1 6929   2.453   1.555   1.714
 2010SOL    HW2 6930   2.524   1.440   1.623
 2011SOL     OW 6931   0.555   0.861   4.808
 2011SOL    HW1 6932   0.626   0.865   4.738
 2011SOL    HW2 6933   0.578   0.924   4.883
 2012SOL     OW 6934   1.091   4.175   2.706
 2012SOL    HW1 6935   1.132   4.177   2.615
 2012SOL    HW2 6936   1.035   4.257   2.719
 2013SOL     OW 6937   5.735   3.114   3.838
 2013SOL    HW1 6938   5.681   3.042   3.795
 2013SOL    HW2 6939   5.817   3.075   3.879
 2014SOL     OW 6940   2.801   6.922   3.369
 2014SOL    HW1 6941   2.869   6.858   3.406
 2014SOL    HW2 6942   2.710   6.893   3.396
 2015SOL     OW 6943   2.336   0.173   0.902
 2015SOL    HW1 6944   2.324   0.125   0.989
 2015SOL    HW2 6945   2.337   0.106   0.828
 2016SOL     OW 6946   1.689   5.789   5.930
 2016SOL    HW1 6947   1.614   5.753   5.985
 2016SOL    HW2 6948   1.739   5.858   5.983
 2017SOL     OW 6949   4.098   0.865   3.064
 2017SOL    HW1 6950   4.139   0.923   2.994
 2017SOL    HW2 6951   4.025   0.809   3.023
 2018SOL     OW 6952   5.951   3.029   3.590
 2018SOL    HW1 6953   5.940   3.011   3.687
 2018SOL    HW2 6954   6.018   2.966   3.551
 2019SOL     OW 6955   5.487   3.947   6.465
 2019SOL    HW1 6956   5.510   3.958   6.562
 2019SOL    HW2 6957   5.428   3.867   6.454
 2020SOL     OW 6958   2.060   6.948   6.552
 2020SOL    HW1 6959   2.070   6.948   6.453
 2020SOL    HW2 6960   2.055   0.021   6.585
 2021SOL     OW 6961   6.651   6.683   4.885
 2021SOL    HW1 6962   6.730   6.693   4.825
 2021SOL    HW2 6963   6.597   6.767   4.883
 2022SOL     OW 6964   1.397   4.556   4.155
 2022SOL    HW1 6965   1.452   4.555   4.072
 2022SOL    HW2 6966   1.398   4.466   4.197
 2023SOL     OW 6967   0.500   0.990   6.762
 2023SOL    HW1 6968   0.582   0.933   6.771
 2023SOL    HW2 6969   0.441   0.976   6.841
 2024SOL     OW 6970   0.204   5.413   3.816
 2024SOL    HW1 6971   0.263   5.387   3.740
 2024SOL    HW2 6972   0.260   5.442   3.894
 2025SOL     OW 6973   4.134   1.094   3.819
 2025SOL    HW1 6974   4.090   1.024   3.874
 2025SOL    HW2 6975   4.153   1.174   3.876
 2026SOL     OW 6976   6.720   2.164   6.141
 2026SOL    HW1 6977   6.717   2.186   6.238
 2026SOL    HW2 6978   6.815   2.158   6.111
 2027SOL     OW 6979   1.425   0.343   1.335
 2027SOL    HW1 6980   1.454   0.407   1.407
 2027SOL    HW2 6981   1.332   0.311   1.354
 2028SOL     OW 6982   3.352   5.635   4.719
 2028SOL    HW1 6983   3.429   5.615   4.658
 2028SOL    HW2 6984   3.382   5.628   4.814
 2029SOL     OW 6985   6.429   1.878   0.222
 2029SOL    HW1 6986   6.391   1.829   0.301
 2029SOL    HW2 6987   6.431   1.976   0.243
 2030SOL     OW 6988   3.120   0.557   3.351
 2030SOL    HW1 6989   3.116   0.510   3.263
 2030SOL    HW2 6990   3.028   0.566   3.388
 2031SOL     OW 6991   6.475   5.640   1.730
 2031SOL    HW1 6992   6.544   5.712   1.737
 2031SOL    HW2 6993   6.385   5.678   1.753
 2032SOL     OW 6994   3.891   1.301   1.480
 2032SOL    HW1 6995   3.854   1.381   1.528
 2032SOL    HW2 6996   3.970   1.329   1.426
 2033SOL     OW 6997   2.402   1.672   0.652
 2033SOL    HW1 6998   2.448   1.631   0.573
 2033SOL    HW2 6999   2.318   1.622   0.671
 2034SOL     OW 7000   2.708   5.143   5.739
 2034SOL    HW1 7001   2.745   5.231   5.771
 2034SOL    HW2 7002   2.695   5.147   5.640
 2035SOL     OW 7003   6.325   6.527   3.330
 2035SOL    HW1 7004   6.396   6.588   3.366
 2035SOL    HW2 7005   6.247   6.582   3.299
 2036SOL     OW 7006   1.235   3.601   2.589
 2036SOL    HW1 7007   1.221   3.646   2.501
 2036SOL    HW2 7008   1.333   3.588   2.605
 2037SOL     OW 7009   6.352   2.667   6.344
 2037SOL    HW1 7010   6.313   2.722   6.270
 2037SOL    HW2 7011   6.346   2.570   6.320
 2038SOL     OW 7012   2.166   1.538   0.684
 2038SOL    HW1 7013   2.102   1.479   0.734
 2038SOL    HW2 7014   2.126   1.566   0.597
 2039SOL     OW 7015   6.866   6.084   3.464
 2039SOL    HW1 7016   6.814   6.000   3.482
 2039SOL    HW2 7017   6.962   6.068   3.485
 2040SOL     OW 7018   1.723   2.376   0.151
 2040SOL    HW1 7019   1.742   2.328   0.237
 2040SOL    HW2 7020   1.626   2.399   0.147
 2041SOL     OW 7021   0.925   0.170   4.992
 2041SOL    HW1 7022   0.967   0.140   5.078
 2041SOL    HW2 7023   0.858   0.102   4.963
 2042SOL     OW 7024   5.307   6.344   6.249
 2042SOL    HW1 7025   5.295   6.319   6.153
 2042SOL    HW2 7026   5.271   6.272   6.307
 2043SOL     OW 7027   6.363   2.615   2.745
 2043SOL    HW1 7028   6.459   2.587   2.753
 2043SOL    HW2 7029   6.359   2.702   2.695
 2044SOL     OW 7030   6.459   0.707   1.178
 2044SOL    HW1 7031   6.472   0.636   1.246
 2044SOL    HW2 7032   6.366   0.703   1.142
 2045SOL     OW 7033   1.294   4.881   4.590
 2045SOL    HW1 7034   1.236   4.925   4.659
 2045SOL    HW2 7035   1.242   4.870   4.505
 2046SOL     OW 7036   6.279   1.820   4.812
 2046SOL    HW1 7037   6.376   1.828   4.835
 2046SOL    HW2 7038   6.238   1.746   4.866
 2047SOL     OW 7039   0.003   2.358   0.365
 2047SOL    HW1 7040   0.085   2.397   0.406
 2047SOL    HW2 7041   0.028   2.296   0.290
 2048SOL     OW 7042   0.325   6.906   5.034
 2048SOL    HW1 7043   0.389   6.959   5.089
 2048SOL    HW2 7044   0.375   6.855   4.964
 2049SOL     OW 7045   6.019   1.872   4.484
 2049SOL    HW1 7046   6.091   1.824   4.534
 2049SOL    HW2 7047   5.939   1.812   4.475
 2050SOL     OW 7048   6.795   2.600   4.308
 2050SOL    HW1 7049   6.800   2.505   4.339
 2050SOL    HW2 7050   6.859   2.613   4.232
 2051SOL     OW 7051   1.876   6.284   6.839
 2051SOL    HW1 7052   1.969   6.259   6.814
 2051SOL    HW2 7053   1.872   6.382   6.859
 2052SOL     OW 7054   1.585   2.887   1.152
 2052SOL    HW1 7055   1.682   2.905   1.137
 2052SOL    HW2 7056   1.530   2.952   1.098
 2053SOL     OW 7057   6.920   5.473   4.954
 2053SOL    HW1 7058   6.868   5.417   5.017
 2053SOL    HW2 7059   7.014   5.482   4.987
 2054SOL     OW 7060   3.036   3.842   2.960
 2054SOL    HW1 7061   2.964   3.806   2.901
 2054SOL    HW2 7062   3.072   3.927   2.921
 2055SOL     OW 7063   6.012   2.590   5.137
 2055SOL    HW1 7064   6.050   2.506   5.099
 2055SOL    HW2 7065   5.947   2.629   5.072
 2056SOL     OW 7066   4.033   5.306   1.838
 2056SOL    HW1 7067   4.039   5.390   1.783
 2056SOL    HW2 7068   4.018   5.228   1.778
 2057SOL     OW 7069   4.971   3.578   5.865
 2057SOL    HW1 7070   5.054   3.609   5.911
 2057SOL    HW2 7071   4.947   3.642   5.792
 2058SOL     OW 7072   0.088   6.396   2.335
 2058SOL    HW1 7073   0.141   6.314   2.314
 2058SOL    HW2 7074   0.142   6.455   2.395
 2059SOL     OW 7075   2.294   6.326   6.945
 2059SOL    HW1 7076   2.363   6.397   6.928
 2059SOL    HW2 7077   2.256   6.296   6.857
 2060SOL     OW 7078   0.773   3.634   1.706
 2060SOL    HW1 7079   0.704   3.652   1.776
 2060SOL    HW2 7080   0.838   3.710   1.704
 2061SOL     OW 7081   1.646   2.400   2.710
 2061SOL    HW1 7082   1.684   2.487   2.678
 2061SOL    HW2 7083   1.690   2.324   2.662
 2062SOL     OW 7084   0.111   6.188   5.867
 2062SOL    HW1 7085   0.088   6.265   5.808
 2062SOL    HW2 7086   0.062   6.196   5.954
 2063SOL     OW 7087   1.505   6.158   5.139
 2063SOL    HW1 7088   1.532   6.211   5.220
 2063SOL    HW2 7089   1.419   6.194   5.103
 2064SOL     OW 7090   0.347   2.133   4.641
 2064SOL    HW1 7091   0.288   2.212   4.652
 2064SOL    HW2 7092   0.309   2.055   4.691
 2065SOL     OW 7093   6.014   3.079   6.203
 2065SOL    HW1 7094   6.061   3.054   6.288
 2065SOL    HW2 7095   6.039   3.172   6.177
 2066SOL     OW 7096   6.926   3.995   5.295
 2066SOL    HW1 7097   6.844   3.937   5.299
 2066SOL    HW2 7098   6.988   3.960   5.226
 2067SOL     OW 7099   6.993   5.316   1.046
 2067SOL    HW1 7100   6.947   5.371   0.976
 2067SOL    HW2 7101   6.929   5.250   1.084
 2068SOL     OW 7102   3.823   0.169   4.158
 2068SOL    HW1 7103   3.916   0.198   4.136
 2068SOL    HW2 7104   3.811   0.074   4.129
 2069SOL     OW 7105   0.036   2.226   4.170
 2069SOL    HW1 7106   6.988   2.291   4.136
 2069SOL    HW2 7107   7.011   2.148   4.212
 2070SOL     OW 7108   0.818   1.938   1.262
 2070SOL    HW1 7109   0.790   1.878   1.187
 2070SOL    HW2 7110   0.917   1.932   1.275
 2071SOL     OW 7111   6.290   1.019   5.775
 2071SOL    HW1 7112   6.256   1.027   5.869
 2071SOL    HW2 7113   6.374   1.071   5.765
 2072SOL     OW 7114   4.514   5.191   4.315
 2072SOL    HW1 7115   4.528   5.093   4.309
 2072SOL    HW2 7116   4.591   5.238   4.272
 2073SOL     OW 7117   3.677   6.065   5.273
 2073SOL    HW1 7118   3.697   6.150   5.224
 2073SOL    HW2 7119   3.676   5.989   5.208
 2074SOL     OW 7120   1.756   2.753   6.813
 2074SOL    HW1 7121   1.748   2.822   6.740
 2074SOL    HW2 7122   1.852   2.739   6.835
 2075SOL     OW 7123   6.823   2.499   2.533
 2075SOL    HW1 7124   6.908   2.481   2.485
 2075SOL    HW2 7125   6.773   2.414   2.545
 2076SOL     OW 7126   5.610   6.363   6.051
 2076SOL    HW1 7127   5.590   6.377   6.148
 2076SOL    HW2 7128   5.682   6.426   6.022
 2077SOL     OW 7129   6.683   2.008   1.868
 2077SOL    HW1 7130   6.765   1.953   1.883
 2077SOL    HW2 7131   6.666   2.015   1.770
 2078SOL     OW 7132   2.107   5.291   6.505
 2078SOL    HW1 7133   2.122   5.320   6.599
 2078SOL    HW2 7134   2.175   5.221   6.481
 2079SOL     OW 7135   6.905   1.076   2.875
 2079SOL    HW1 7136   6.907   1.144   2.948
 2079SOL    HW2 7137   6.820   1.085   2.824
 2080SOL     OW 7138   3.093   0.954   4.916
 2080SOL    HW1 7139   3.114   0.857   4.929
 2080SOL    HW2 7140   3.176   1.008   4.930
 2081SOL     OW 7141   1.042   6.500   4.449
 2081SOL    HW1 7142   1.059   6.406   4.421
 2081SOL    HW2 7143   1.109   6.528   4.518
 2082SOL     OW 7144   0.940   6.513   3.414
 2082SOL    HW1 7145   0.941   6.476   3.322
 2082SOL    HW2 7146   1.008   6.466   3.470
 2083SOL     OW 7147   1.532   6.014   4.897
 2083SOL    HW1 7148   1.487   5.927   4.914
 2083SOL    HW2 7149   1.559   6.056   4.984
 2084SOL     OW 7150   0.790   2.886   2.083
 2084SOL    HW1 7151   0.765   2.941   2.163
 2084SOL    HW2 7152   0.740   2.918   2.003
 2085SOL     OW 7153   4.852   6.426   0.794
 2085SOL    HW1 7154   4.924   6.360   0.815
 2085SOL    HW2 7155   4.809   6.456   0.879
 2086SOL     OW 7156   3.792   6.115   0.316
 2086SOL    HW1 7157   3.849   6.149   0.390
 2086SOL    HW2 7158   3.697   6.141   0.332
 2087SOL     OW 7159   4.548   2.323   0.650
 2087SOL    HW1 7160   4.497   2.389   0.594
 2087SOL    HW2 7161   4.560   2.238   0.598
 2088SOL     OW 7162   1.544   5.710   6.345
 2088SOL    HW1 7163   1.575   5.619   6.317
 2088SOL    HW2 7164   1.590   5.779   6.289
 2089SOL     OW 7165   4.401   2.268   5.325
 2089SOL    HW1 7166   4.353   2.238   5.242
 2089SOL    HW2 7167   4.416   2.189   5.384
 2090SOL     OW 7168   4.797   3.114   5.377
 2090SOL    HW1 7169   4.818   3.193   5.319
 2090SOL    HW2 7170   4.882   3.069   5.404
 2091SOL     OW 7171   6.811   5.912   0.705
 2091SOL    HW1 7172   6.801   5.914   0.606
 2091SOL    HW2 7173   6.722   5.926   0.748
 2092SOL     OW 7174   5.707   3.657   0.762
 2092SOL    HW1 7175   5.675   3.579   0.709
 2092SOL    HW2 7176   5.719   3.630   0.858
 2093SOL     OW 7177   3.440   1.909   1.773
 2093SOL    HW1 7178   3.421   1.822   1.818
 2093SOL    HW2 7179   3.526   1.947   1.809
 2094SOL     OW 7180   5.180   1.908   1.054
 2094SOL    HW1 7181   5.239   1.827   1.044
 2094SOL    HW2 7182   5.236   1.991   1.049
 2095SOL     OW 7183   6.179   6.798   4.087
 2095SOL    HW1 7184   6.099   6.770   4.034
 2095SOL    HW2 7185   6.229   6.868   4.037
 2096SOL     OW 7186   4.517   5.585   3.389
 2096SOL    HW1 7187   4.532   5.501   3.335
 2096SOL    HW2 7188   4.552   5.571   3.481
 2097SOL     OW 7189   2.831   3.491   0.087
 2097SOL    HW1 7190   2.822   3.499   0.186
 2097SOL    HW2 7191   2.797   3.401   0.057
 2098SOL     OW 7192   4.116   6.101   3.194
 2098SOL    HW1 7193   4.053   6.175   3.217
 2098SOL    HW2 7194   4.151   6.114   3.101
 2099SOL     OW 7195   4.743   1.178   6.328
 2099SOL    HW1 7196   4.716   1.104   6.390
 2099SOL    HW2 7197   4.789   1.249   6.381
 2100SOL     OW 7198   4.701   1.255   0.322
 2100SOL    HW1 7199   4.622   1.195   0.335
 2100SOL    HW2 7200   4.776   1.203   0.279
 2101SOL     OW 7201   6.842   6.231   1.056
 2101SOL    HW1 7202   6.888   6.204   0.972
 2101SOL    HW2 7203   6.904   6.286   1.112
 2102SOL     OW 7204   4.591   3.748   1.561
 2102SOL    HW1 7205   4.640   3.663   1.543
 2102SOL    HW2 7206   4.656   3.824   1.567
 2103SOL     OW 7207   4.129   4.088   0.340
 2103SOL    HW1 7208   4.102   4.163   0.280
 2103SOL    HW2 7209   4.048   4.051   0.385
 2104SOL     OW 7210   1.533   4.692   1.756
 2104SOL    HW1 7211   1.458   4.626   1.750
 2104SOL    HW2 7212   1.549   4.714   1.853
 2105SOL     OW 7213   4.098   4.863   6.859
 2105SOL    HW1 7214   4.108   4.926   6.782
 2105SOL    HW2 7215   4.130   4.907   6.943
 2106SOL     OW 7216   5.454   3.609   1.102
 2106SOL    HW1 7217   5.403   3.585   1.019
 2106SOL    HW2 7218   5.429   3.547   1.176
 2107SOL     OW 7219   6.072   2.605   5.694
 2107SOL    HW1 7220   6.051   2.547   5.773
 2107SOL    HW2 7221   6.171   2.602   5.676
 2108SOL     OW 7222   5.835   5.517   4.851
 2108SOL    HW1 7223   5.762   5.533   4.918
 2108SOL    HW2 7224   5.922   5.545   4.890
 2109SOL     OW 7225   2.663   6.008   2.440
 2109SOL    HW1 7226   2.689   5.943   2.511
 2109SOL    HW2 7227   2.745   6.041   2.394
 2110SOL     OW 7228   3.898   0.762   6.109
 2110SOL    HW1 7229   3.802   0.764   6.134
 2110SOL    HW2 7230   3.941   0.679   6.144
 2111SOL     OW 7231   1.732   2.960   5.295
 2111SOL    HW1 7232   1.672   2.895   5.341
 2111SOL    HW2 7233   1.786   2.913   5.226
 2112SOL     OW 7234   5.214   2.141   6.916
 2112SOL    HW1 7235   5.120   2.115   6.894
 2112SOL    HW2 7236   5.274   2.063   6.902
 2113SOL     OW 7237   1.948   0.150   5.091
 2113SOL    HW1 7238   1.859   0.127   5.052
 2113SOL    HW2 7239   2.014   0.163   5.016
 2114SOL     OW 7240   2.019   2.635   6.848
 2114SOL    HW1 7241   2.013   2.567   6.921
 2114SOL    HW2 7242   1.996   2.593   6.761
 2115SOL     OW 7243   0.952   4.171   2.058
 2115SOL    HW1 7244   0.854   4.160   2.070
 2115SOL    HW2 7245   0.977   4.147   1.964
 2116SOL     OW 7246   1.593   3.200   1.620
 2116SOL    HW1 7247   1.593   3.134   1.696
 2116SOL    HW2 7248   1.657   3.274   1.640
 2117SOL     OW 7249   5.281   3.802   1.482
 2117SOL    HW1 7250   5.245   3.749   1.559
 2117SOL    HW2 7251   5.313   3.891   1.514
 2118SOL     OW 7252   6.640   3.355   2.597
 2118SOL    HW1 7253   6.727   3.310   2.612
 2118SOL    HW2 7254   6.627   3.427   2.666
 2119SOL     OW 7255   2.025   1.156   0.984
 2119SOL    HW1 7256   2.087   1.232   1.007
 2119SOL    HW2 7257   2.070   1.069   1.004
 2120SOL     OW 7258   0.076   2.851   2.046
 2120SOL    HW1 7259   0.016   2.792   1.992
 2120SOL    HW2 7260   0.170   2.816   2.042
 2121SOL     OW 7261   2.029   2.860   6.398
 2121SOL    HW1 7262   2.044   2.777   6.345
 2121SOL    HW2 7263   2.018   2.938   6.337
 2122SOL     OW 7264   5.843   6.443   5.623
 2122SOL    HW1 7265   5.921   6.441   5.686
 2122SOL    HW2 7266   5.878   6.439   5.529
 2123SOL     OW 7267   6.021   6.119   2.354
 2123SOL    HW1 7268   6.054   6.025   2.358
 2123SOL    HW2 7269   6.086   6.179   2.401
 2124SOL     OW 7270   2.848   1.879   0.011
 2124SOL    HW1 7271   2.775   1.824   6.993
 2124SOL    HW2 7272   2.936   1.847   6.997
 2125SOL     OW 7273   0.623   5.611   2.052
 2125SOL    HW1 7274   0.538   5.664   2.061
 2125SOL    HW2 7275   0.657   5.618   1.959
 2126SOL     OW 7276   3.857   2.705   6.067
 2126SOL    HW1 7277   3.796   2.696   5.988
 2126SOL    HW2 7278   3.879   2.802   6.080
 2127SOL     OW 7279   0.716   1.738   5.402
 2127SOL    HW1 7280   0.805   1.736   5.447
 2127SOL    HW2 7281   0.648   1.773   5.466
 2128SOL     OW 7282   5.986   2.512   1.318
 2128SOL    HW1 7283   5.999   2.471   1.227
 2128SOL    HW2 7284   5.909   2.576   1.314
 2129SOL     OW 7285   4.628   4.455   4.262
 2129SOL    HW1 7286   4.633   4.498   4.352
 2129SOL    HW2 7287   4.555   4.497   4.208
 2130SOL     OW 7288   2.186   1.429   1.541
 2130SOL    HW1 7289   2.129   1.396   1.617
 2130SOL    HW2 7290   2.277   1.453   1.575
 2131SOL     OW 7291   4.708   1.799   1.025
 2131SOL    HW1 7292   4.729   1.849   1.109
 2131SOL    HW2 7293   4.680   1.864   0.954
 2132SOL     OW 7294   3.323   1.399   6.905
 2132SOL    HW1 7295   3.292   1.304   6.893
 2132SOL    HW2 7296   3.410   1.399   6.953
 2133SOL     OW 7297   3.471   2.353   0.613
 2133SOL    HW1 7298   3.564   2.351   0.650
 2133SOL    HW2 7299   3.427   2.265   0.631
 2134SOL     OW 7300   1.059   0.860   5.042
 2134SOL    HW1 7301   0.989   0.926   5.015
 2134SOL    HW2 7302   1.129   0.906   5.097
 2135SOL     OW 7303   0.416   1.364   4.334
 2135SOL    HW1 7304   0.462   1.275   4.333
 2135SOL    HW2 7305   0.402   1.395   4.240
 2136SOL     OW 7306   1.326   3.275   4.376
 2136SOL    HW1 7307   1.285   3.343   4.436
 2136SOL    HW2 7308   1.412   3.243   4.415
 2137SOL     OW 7309   0.600   6.558   4.567
 2137SOL    HW1 7310   0.518   6.615   4.569
 2137SOL    HW2 7311   0.597   6.491   4.641
 2138SOL     OW 7312   6.233   3.008   1.740
 2138SOL    HW1 7313   6.263   2.919   1.775
 2138SOL    HW2 7314   6.301   3.077   1.764
 2139SOL     OW 7315   4.098   1.422   3.234
 2139SOL    HW1 7316   4.072   1.360   3.309
 2139SOL    HW2 7317   4.171   1.381   3.181
 2140SOL     OW 7318   3.035   6.338   3.321
 2140SOL    HW1 7319   2.952   6.299   3.360
 2140SOL    HW2 7320   3.016   6.431   3.288
 2141SOL     OW 7321   6.549   2.966   1.661
 2141SOL    HW1 7322   6.640   2.962   1.703
 2141SOL    HW2 7323   6.492   3.031   1.711
 2142SOL     OW 7324   1.328   2.280   3.472
 2142SOL    HW1 7325   1.299   2.192   3.509
 2142SOL    HW2 7326   1.251   2.322   3.423
 2143SOL     OW 7327   3.433   5.292   1.116
 2143SOL    HW1 7328   3.445   5.379   1.165
 2143SOL    HW2 7329   3.402   5.310   1.023
 2144SOL     OW 7330   2.008   0.611   2.889
 2144SOL    HW1 7331   1.935   0.675   2.914
 2144SOL    HW2 7332   1.992   0.524   2.935
 2145SOL     OW 7333   3.561   5.254   4.215
 2145SOL    HW1 7334   3.598   5.272   4.123
 2145SOL    HW2 7335   3.469   5.216   4.207
 2146SOL     OW 7336   3.037   3.868   2.409
 2146SOL    HW1 7337   2.959   3.857   2.347
 2146SOL    HW2 7338   3.102   3.794   2.394
 2147SOL     OW 7339   6.575   1.295   0.207
 2147SOL    HW1 7340   6.666   1.288   0.165
 2147SOL    HW2 7341   6.515   1.348   0.149
 2148SOL     OW 7342   5.074   3.119   4.407
 2148SOL    HW1 7343   5.146   3.060   4.373
 2148SOL    HW2 7344   5.102   3.158   4.495
 2149SOL     OW 7345   3.959   0.366   1.150
 2149SOL    HW1 7346   3.967   0.281   1.099
 2149SOL    HW2 7347   3.971   0.443   1.088
 2150SOL     OW 7348   3.268   1.978   2.064
 2150SOL    HW1 7349   3.217   2.044   2.009
 2150SOL    HW2 7350   3.366   1.998   2.059
 2151SOL     OW 7351   2.789   1.892   4.350
 2151SOL    HW1 7352   2.837   1.845   4.276
 2151SOL    HW2 7353   2.711   1.942   4.313
 2152SOL     OW 7354   4.261   6.251   2.221
 2152SOL    HW1 7355   4.170   6.208   2.215
 2152SOL    HW2 7356   4.263   6.332   2.163
 2153SOL     OW 7357   3.915   0.805   3.449
 2153SOL    HW1 7358   4.001   0.820   3.498
 2153SOL    HW2 7359   3.916   0.855   3.363
 2154SOL     OW 7360   3.266   6.334   4.680
 2154SOL    HW1 7361   3.296   6.408   4.739
 2154SOL    HW2 7362   3.341   6.306   4.620
 2155SOL     OW 7363   1.667   5.282   0.404
 2155SOL    HW1 7364   1.756   5.289   0.450
 2155SOL    HW2 7365   1.594   5.290   0.472
 2156SOL     OW 7366   2.924   0.564   1.798
 2156SOL    HW1 7367   2.830   0.599   1.800
 2156SOL    HW2 7368   2.939   0.515   1.711
 2157SOL     OW 7369   6.518   0.907   3.396
 2157SOL    HW1 7370   6.432   0.955   3.376
 2157SOL    HW2 7371   6.521   0.822   3.343
 2158SOL     OW 7372   3.409   6.653   0.498
 2158SOL    HW1 7373   3.428   6.715   0.574
 2158SOL    HW2 7374   3.478   6.665   0.427
 2159SOL     OW 7375   1.507   6.042   5.705
 2159SOL    HW1 7376   1.594   6.057   5.752
 2159SOL    HW2 7377   1.445   5.992   5.765
 2160SOL     OW 7378   4.352   3.801   1.706
 2160SOL    HW1 7379   4.323   3.897   1.701
 2160SOL    HW2 7380   4.439   3.790   1.658
 2161SOL     OW 7381   4.863   3.518   3.769
 2161SOL    HW1 7382   4.812   3.458   3.830
 2161SOL    HW2 7383   4.847   3.613   3.794
 2162SOL     OW 7384   2.518   0.347   0.318
 2162SOL    HW1 7385   2.463   0.268   0.343
 2162SOL    HW2 7386   2.615   0.324   0.323
 2163SOL     OW 7387   6.837   5.552   6.544
 2163SOL    HW1 7388   6.847   5.459   6.508
 2163SOL    HW2 7389   6.809   5.613   6.470
 2164SOL     OW 7390   1.697   1.604   6.962
 2164SOL    HW1 7391   1.644   1.688   6.975
 2164SOL    HW2 7392   1.678   1.541   0.017
 2165SOL     OW 7393   1.361   1.532   3.211
 2165SOL    HW1 7394   1.434   1.472   3.242
 2165SOL    HW2 7395   1.293   1.478   3.161
 2166SOL     OW 7396   1.984   2.377   5.844
 2166SOL    HW1 7397   1.891   2.368   5.809
 2166SOL    HW2 7398   2.007   2.474   5.852
 2167SOL     OW 7399   2.644   0.567   2.511
 2167SOL    HW1 7400   2.679   0.660   2.501
 2167SOL    HW2 7401   2.545   0.569   2.523
 2168SOL     OW 7402   6.598   2.265   4.313
 2168SOL    HW1 7403   6.545   2.347   4.293
 2168SOL    HW2 7404   6.537   2.190   4.335
 2169SOL     OW 7405   5.606   1.931   6.293
 2169SOL    HW1 7406   5.631   2.000   6.361
 2169SOL    HW2 7407   5.617   1.840   6.333
 2170SOL     OW 7408   5.755   4.768   4.961
 2170SOL    HW1 7409   5.764   4.830   5.038
 2170SOL    HW2 7410   5.710   4.815   4.885
 2171SOL     OW 7411   6.283   2.839   0.833
 2171SOL    HW1 7412   6.259   2.816   0.739
 2171SOL    HW2 7413   6.353   2.911   0.833
 2172SOL     OW 7414   3.377   1.415   0.479
 2172SOL    HW1 7415   3.366   1.319   0.450
 2172SOL    HW2 7416   3.313   1.435   0.553
 2173SOL     OW 7417   3.603   0.513   5.872
 2173SOL    HW1 7418   3.590   0.423   5.829
 2173SOL    HW2 7419   3.684   0.557   5.832
 2174SOL     OW 7420   6.346   4.801   5.777
 2174SOL    HW1 7421   6.276   4.747   5.730
 2174SOL    HW2 7422   6.394   4.858   5.710
 2175SOL     OW 7423   3.147   1.873   2.817
 2175SOL    HW1 7424   3.140   1.860   2.916
 2175SOL    HW2 7425   3.238   1.908   2.795
 2176SOL     OW 7426   0.838   2.103   1.807
 2176SOL    HW1 7427   0.766   2.149   1.858
 2176SOL    HW2 7428   0.926   2.146   1.826
 2177SOL     OW 7429   6.560   0.461   2.355
 2177SOL    HW1 7430   6.579   0.509   2.440
 2177SOL    HW2 7431   6.646   0.448   2.304
 2178SOL     OW 7432   0.570   4.368   0.523
 2178SOL    HW1 7433   0.504   4.309   0.569
 2178SOL    HW2 7434   0.637   4.312   0.474
 2179SOL     OW 7435   2.091   5.786   4.365
 2179SOL    HW1 7436   2.091   5.880   4.399
 2179SOL    HW2 7437   2.156   5.778   4.289
 2180SOL     OW 7438   3.107   3.057   1.847
 2180SOL    HW1 7439   3.180   3.123   1.867
 2180SOL    HW2 7440   3.018   3.101   1.855
 2181SOL     OW 7441   4.520   4.054   5.691
 2181SOL    HW1 7442   4.533   3.979   5.627
 2181SOL    HW2 7443   4.444   4.111   5.660
 2182SOL     OW 7444   6.577   3.207   6.205
 2182SOL    HW1 7445   6.488   3.222   6.248
 2182SOL    HW2 7446   6.614   3.119   6.234
 2183SOL     OW 7447   3.509   3.378   0.446
 2183SOL    HW1 7448   3.481   3.343   0.535
 2183SOL    HW2 7449   3.601   3.345   0.425
 2184SOL     OW 7450   3.456   0.267   5.433
 2184SOL    HW1 7451   3.533   0.317   5.392
 2184SOL    HW2 7452   3.436   0.186   5.378
 2185SOL     OW 7453   2.048   1.334   1.756
 2185SOL    HW1 7454   1.963   1.378   1.786
 2185SOL    HW2 7455   2.026   1.243   1.718
 2186SOL     OW 7456   0.088   4.256   2.359
 2186SOL    HW1 7457   7.011   4.264   2.344
 2186SOL    HW2 7458   0.105   4.216   2.450
 2187SOL     OW 7459   0.589   1.109   1.581
 2187SOL    HW1 7460   0.529   1.168   1.526
 2187SOL    HW2 7461   0.592   1.143   1.675
 2188SOL     OW 7462   4.702   5.945   3.732
 2188SOL    HW1 7463   4.696   5.890   3.816
 2188SOL    HW2 7464   4.797   5.953   3.704
 2189SOL     OW 7465   1.329   6.834   6.404
 2189SOL    HW1 7466   1.344   6.886   6.488
 2189SOL    HW2 7467   1.245   6.866   6.360
 2190SOL     OW 7468   6.217   2.607   1.471
 2190SOL    HW1 7469   6.148   2.578   1.406
 2190SOL    HW2 7470   6.249   2.699   1.447
 2191SOL     OW 7471   3.716   1.777   6.331
 2191SOL    HW1 7472   3.745   1.782   6.235
 2191SOL    HW2 7473   3.795   1.790   6.391
 2192SOL     OW 7474   4.104   0.107   4.927
 2192SOL    HW1 7475   4.055   0.146   4.849
 2192SOL    HW2 7476   4.037   0.076   4.995
 2193SOL     OW 7477   6.477   5.488   6.137
 2193SOL    HW1 7478   6.497   5.581   6.106
 2193SOL    HW2 7479   6.491   5.481   6.235
 2194SOL     OW 7480   2.664   5.533   0.186
 2194SOL    HW1 7481   2.662   5.436   0.207
 2194SOL    HW2 7482   2.571   5.569   0.180
 2195SOL     OW 7483   6.866   6.711   2.031
 2195SOL    HW1 7484   6.842   6.748   2.121
 2195SOL    HW2 7485   6.936   6.640   2.043
 2196SOL     OW 7486   2.060   0.666   6.027
 2196SOL    HW1 7487   2.122   0.685   5.951
 2196SOL    HW2 7488   1.965   0.675   5.996
 2197SOL     OW 7489   5.016   4.072   1.554
 2197SOL    HW1 7490   5.093   4.019   1.590
 2197SOL    HW2 7491   5.005   4.155   1.609
 2198SOL     OW 7492   6.716   2.819   6.902
 2198SOL    HW1 7493   6.772   2.855   6.828
 2198SOL    HW2 7494   6.774   2.799   6.981
 2199SOL     OW 7495   5.247   6.810   0.773
 2199SOL    HW1 7496   5.295   6.723   0.786
 2199SOL    HW2 7497   5.216   6.816   0.678
 2200SOL     OW 7498   3.905   0.526   4.184
 2200SOL    HW1 7499   3.960   0.464   4.240
 2200SOL    HW2 7500   3.895   0.487   4.092
 2201SOL     OW 7501   5.972   4.156   2.303
 2201SOL    HW1 7502   5.889   4.196   2.263
 2201SOL    HW2 7503   6.013   4.093   2.237
 2202SOL     OW 7504   3.481   5.075   4.619
 2202SOL    HW1 7505   3.550   5.002   4.608
 2202SOL    HW2 7506   3.417   5.050   4.691
 2203SOL     OW 7507   3.410   2.128   2.480
 2203SOL    HW1 7508   3.429   2.222   2.510
 2203SOL    HW2 7509   3.350   2.130   2.400
 2204SOL     OW 7510   4.069   1.259   6.414
 2204SOL    HW1 7511   3.987   1.316   6.412
 2204SOL    HW2 7512   4.105   1.248   6.321
 2205SOL     OW 7513   1.125   0.783   6.699
 2205SOL    HW1 7514   1.205   0.724   6.713
 2205SOL    HW2 7515   1.148   0.877   6.724
 2206SOL     OW 7516   3.017   4.286   5.538
 2206SOL    HW1 7517   3.010   4.200   5.588
 2206SOL    HW2 7518   3.048   4.269   5.445
 2207SOL     OW 7519   2.090   4.478   6.534
 2207SOL    HW1 7520   2.111   4.526   6.619
 2207SOL    HW2 7521   2.133   4.526   6.457
 2208SOL     OW 7522   1.649   4.979   1.927
 2208SOL    HW1 7523   1.689   5.069   1.947
 2208SOL    HW2 7524   1.590   4.986   1.847
 2209SOL     OW 7525   1.340   5.893   5.843
 2209SOL    HW1 7526   1.340   5.922   5.939
 2209SOL    HW2 7527   1.315   5.796   5.838
 2210SOL     OW 7528   0.930   5.459   3.112
 2210SOL    HW1 7529   0.973   5.543   3.079
 2210SOL    HW2 7530   0.910   5.399   3.034
 2211SOL     OW 7531   5.430   1.409   5.483
 2211SOL    HW1 7532   5.446   1.311   5.494
 2211SOL    HW2 7533   5.336   1.430   5.509
 2212SOL     OW 7534   0.436   6.141   6.872
 2212SOL    HW1 7535   0.420   6.060   6.815
 2212SOL    HW2 7536   0.528   6.177   6.855
 2213SOL     OW 7537   4.655   2.620   4.714
 2213SOL    HW1 7538   4.572   2.568   4.693
 2213SOL    HW2 7539   4.693   2.659   4.630
 2214SOL     OW 7540   4.205   0.533   5.336
 2214SOL    HW1 7541   4.303   0.521   5.322
 2214SOL    HW2 7542   4.155   0.497   5.257
 2215SOL     OW 7543   6.889   1.321   5.580
 2215SOL    HW1 7544   6.953   1.244   5.577
 2215SOL    HW2 7545   6.940   1.407   5.577
 2216SOL     OW 7546   1.366   0.158   6.837
 2216SOL    HW1 7547   1.375   0.193   6.743
 2216SOL    HW2 7548   1.270   0.139   6.857
 2217SOL     OW 7549   3.675   0.158   0.878
 2217SOL    HW1 7550   3.729   0.236   0.912
 2217SOL    HW2 7551   3.580   0.170   0.904
 2218SOL     OW 7552   0.846   6.818   0.531
 2218SOL    HW1 7553   0.936   6.834   0.491
 2218SOL    HW2 7554   0.790   6.900   0.521
 2219SOL     OW 7555   1.569   4.139   3.231
 2219SOL    HW1 7556   1.560   4.172   3.325
 2219SOL    HW2 7557   1.662   4.156   3.199
 2220SOL     OW 7558   0.504   1.321   4.013
 2220SOL    HW1 7559   0.520   1.412   4.050
 2220SOL    HW2 7560   0.563   1.307   3.933
 2221SOL     OW 7561   0.064   1.942   0.311
 2221SOL    HW1 7562   0.157   1.904   0.310
 2221SOL    HW2 7563   0.002   1.878   0.356
 2222SOL     OW 7564   4.013   0.645   1.034
 2222SOL    HW1 7565   3.961   0.729   1.015
 2222SOL    HW2 7566   4.066   0.658   1.118
 2223SOL     OW 7567   5.869   5.241   3.792
 2223SOL    HW1 7568   5.790   5.209   3.740
 2223SOL    HW2 7569   5.943   5.174   3.784
 2224SOL     OW 7570   1.734   4.446   1.129
 2224SOL    HW1 7571   1.643   4.409   1.148
 2224SOL    HW2 7572   1.785   4.382   1.072
 2225SOL     OW 7573   6.282   4.427   2.682
 2225SOL    HW1 7574   6.364   4.437   2.738
 2225SOL    HW2 7575   6.307   4.399   2.590
 2226SOL     OW 7576   3.644   3.411   0.809
 2226SOL    HW1 7577   3.662   3.316   0.835
 2226SOL    HW2 7578   3.569   3.447   0.865
 2227SOL     OW 7579   6.066   4.067   6.566
 2227SOL    HW1 7580   6.044   3.971   6.584
 2227SOL    HW2 7581   5.997   4.125   6.610
 2228SOL     OW 7582   3.490   5.522   0.636
 2228SOL    HW1 7583   3.478   5.620   0.650
 2228SOL    HW2 7584   3.444   5.472   0.709
 2229SOL     OW 7585   4.641   1.857   3.853
 2229SOL    HW1 7586   4.680   1.936   3.900
 2229SOL    HW2 7587   4.541   1.859   3.862
 2230SOL     OW 7588   1.069   6.041   3.809
 2230SOL    HW1 7589   1.110   6.068   3.896
 2230SOL    HW2 7590   0.974   6.014   3.824
 2231SOL     OW 7591   1.595   1.824   2.583
 2231SOL    HW1 7592   1.583   1.886   2.506
 2231SOL    HW2 7593   1.671   1.856   2.640
 2232SOL     OW 7594   0.744   3.182   4.276
 2232SOL    HW1 7595   0.778   3.254   4.215
 2232SOL    HW2 7596   0.749   3.214   4.371
 2233SOL     OW 7597   3.624   5.024   6.854
 2233SOL    HW1 7598   3.539   4.988   6.814
 2233SOL    HW2 7599   3.689   4.949   6.866
 2234SOL     OW 7600   4.228   2.502   0.737
 2234SOL    HW1 7601   4.154   2.451   0.782
 2234SOL    HW2 7602   4.243   2.588   0.786
 2235SOL     OW 7603   1.349   0.289   0.442
 2235SOL    HW1 7604   1.298   0.215   0.398
 2235SOL    HW2 7605   1.419   0.322   0.379
 2236SOL     OW 7606   0.932   4.563   1.126
 2236SOL    HW1 7607   0.939   4.627   1.202
 2236SOL    HW2 7608   0.899   4.475   1.160
 2237SOL     OW 7609   6.561   3.449   4.758
 2237SOL    HW1 7610   6.631   3.417   4.694
 2237SOL    HW2 7611   6.600   3.516   4.820
 2238SOL     OW 7612   0.056   5.262   1.928
 2238SOL    HW1 7613   0.013   5.339   1.882
 2238SOL    HW2 7614   0.129   5.295   1.988
 2239SOL     OW 7615   3.811   4.847   3.959
 2239SOL    HW1 7616   3.721   4.806   3.970
 2239SOL    HW2 7617   3.802   4.939   3.920
 2240SOL     OW 7618   6.360   5.100   3.192
 2240SOL    HW1 7619   6.431   5.143   3.249
 2240SOL    HW2 7620   6.289   5.167   3.171
 2241SOL     OW 7621   0.220   5.833   2.640
 2241SOL    HW1 7622   0.215   5.746   2.689
 2241SOL    HW2 7623   0.245   5.817   2.545
 2242SOL     OW 7624   5.658   1.231   3.080
 2242SOL    HW1 7625   5.580   1.221   3.018
 2242SOL    HW2 7626   5.691   1.325   3.076
 2243SOL     OW 7627   2.498   6.260   5.156
 2243SOL    HW1 7628   2.487   6.343   5.210
 2243SOL    HW2 7629   2.536   6.188   5.214
 2244SOL     OW 7630   3.850   1.201   2.974
 2244SOL    HW1 7631   3.808   1.182   3.063
 2244SOL    HW2 7632   3.778   1.220   2.908
 2245SOL     OW 7633   0.230   2.141   2.359
 2245SOL    HW1 7634   0.240   2.091   2.273
 2245SOL    HW2 7635   0.138   2.126   2.396
 2246SOL     OW 7636   1.760   2.792   5.643
 2246SOL    HW1 7637   1.838   2.754   5.594
 2246SOL    HW2 7638   1.677   2.784   5.587
 2247SOL     OW 7639   2.719   2.078   5.928
 2247SOL    HW1 7640   2.628   2.119   5.922
 2247SOL    HW2 7641   2.714   1.980   5.909
 2248SOL     OW 7642   5.230   4.137   5.605
 2248SOL    HW1 7643   5.252   4.096   5.694
 2248SOL    HW2 7644   5.308   4.128   5.544
 2249SOL     OW 7645   6.187   6.223   2.971
 2249SOL    HW1 7646   6.142   6.154   3.028
 2249SOL    HW2 7647   6.137   6.234   2.885
 2250SOL     OW 7648   5.317   4.047   1.223
 2250SOL    HW1 7649   5.347   3.968   1.169
 2250SOL    HW2 7650   5.217   4.047   1.228
 2251SOL     OW 7651   5.872   1.742   0.517
 2251SOL    HW1 7652   5.790   1.722   0.571
 2251SOL    HW2 7653   5.953   1.725   0.573
 2252SOL     OW 7654   6.487   2.599   5.428
 2252SOL    HW1 7655   6.506   2.646   5.514
 2252SOL    HW2 7656   6.398   2.629   5.393
 2253SOL     OW 7657   1.127   3.149   6.350
 2253SOL    HW1 7658   1.176   3.176   6.433
 2253SOL    HW2 7659   1.128   3.224   6.285
 2254SOL     OW 7660   2.232   3.010   6.016
 2254SOL    HW1 7661   2.308   2.997   5.953
 2254SOL    HW2 7662   2.254   3.085   6.079
 2255SOL     OW 7663   6.274   2.442   1.190
 2255SOL    HW1 7664   6.221   2.384   1.253
 2255SOL    HW2 7665   6.242   2.536   1.197
 2256SOL     OW 7666   3.554   5.418   2.086
 2256SOL    HW1 7667   3.606   5.352   2.032
 2256SOL    HW2 7668   3.595   5.426   2.177
 2257SOL     OW 7669   1.007   2.719   4.417
 2257SOL    HW1 7670   1.100   2.730   4.450
 2257SOL    HW2 7671   0.991   2.781   4.340
 2258SOL     OW 7672   1.688   5.510   4.601
 2258SOL    HW1 7673   1.645   5.600   4.595
 2258SOL    HW2 7674   1.627   5.447   4.650
 2259SOL     OW 7675   5.336   3.737   6.404
 2259SOL    HW1 7676   5.384   3.654   6.376
 2259SOL    HW2 7677   5.259   3.712   6.463
 2260SOL     OW 7678   4.494   4.511   3.047
 2260SOL    HW1 7679   4.534   4.590   3.001
 2260SOL    HW2 7680   4.552   4.430   3.031
 2261SOL     OW 7681   5.970   6.497   0.912
 2261SOL    HW1 7682   5.951   6.594   0.894
 2261SOL    HW2 7683   6.068   6.480   0.898
 2262SOL     OW 7684   5.559   2.227   3.029
 2262SOL    HW1 7685   5.656   2.228   3.056
 2262SOL    HW2 7686   5.544   2.154   2.962
 2263SOL     OW 7687   2.399   6.238   6.294
 2263SOL    HW1 7688   2.416   6.142   6.273
 2263SOL    HW2 7689   2.324   6.246   6.359
 2264SOL     OW 7690   3.289   3.843   2.169
 2264SOL    HW1 7691   3.221   3.905   2.130
 2264SOL    HW2 7692   3.272   3.750   2.134
 2265SOL     OW 7693   0.366   0.972   3.500
 2265SOL    HW1 7694   0.306   1.004   3.427
 2265SOL    HW2 7695   0.321   0.985   3.589
 2266SOL     OW 7696   6.825   1.344   1.022
 2266SOL    HW1 7697   6.828   1.284   1.102
 2266SOL    HW2 7698   6.836   1.289   0.939
 2267SOL     OW 7699   5.778   2.568   4.651
 2267SOL    HW1 7700   5.699   2.612   4.609
 2267SOL    HW2 7701   5.861   2.616   4.624
 2268SOL     OW 7702   6.183   5.923   0.479
 2268SOL    HW1 7703   6.150   5.863   0.405
 2268SOL    HW2 7704   6.104   5.962   0.527
 2269SOL     OW 7705   5.974   5.429   5.130
 2269SOL    HW1 7706   5.923   5.426   5.216
 2269SOL    HW2 7707   5.964   5.519   5.088
 2270SOL     OW 7708   3.671   3.974   1.150
 2270SOL    HW1 7709   3.621   4.060   1.154
 2270SOL    HW2 7710   3.725   3.969   1.066
 2271SOL     OW 7711   6.389   4.306   1.221
 2271SOL    HW1 7712   6.394   4.283   1.124
 2271SOL    HW2 7713   6.403   4.404   1.233
 2272SOL     OW 7714   6.014   2.187   4.445
 2272SOL    HW1 7715   5.914   2.183   4.455
 2272SOL    HW2 7716   6.046   2.103   4.403
 2273SOL     OW 7717   1.882   1.756   3.345
 2273SOL    HW1 7718   1.802   1.707   3.310
 2273SOL    HW2 7719   1.961   1.735   3.286
 2274SOL     OW 7720   1.479   3.577   4.887
 2274SOL    HW1 7721   1.510   3.582   4.792
 2274SOL    HW2 7722   1.384   3.607   4.893
 2275SOL     OW 7723   4.466   0.148   4.649
 2275SOL    HW1 7724   4.518   0.077   4.602
 2275SOL    HW2 7725   4.438   0.218   4.583
 2276SOL     OW 7726   3.330   5.604   1.578
 2276SOL    HW1 7727   3.306   5.582   1.673
 2276SOL    HW2 7728   3.372   5.695   1.575
 2277SOL     OW 7729   3.305   3.397   4.818
 2277SOL    HW1 7730   3.389   3.356   4.782
 2277SOL    HW2 7731   3.295   3.373   4.914
 2278SOL     OW 7732   4.666   6.938   3.074
 2278SOL    HW1 7733   4.609   6.920   2.994
 2278SOL    HW2 7734   4.755   6.895   3.062
 2279SOL     OW 7735   5.563   4.388   3.903
 2279SOL    HW1 7736   5.658   4.371   3.879
 2279SOL    HW2 7737   5.536   4.480   3.873
 2280SOL     OW 7738   6.517   6.327   5.094
 2280SOL    HW1 7739   6.482   6.340   5.001
 2280SOL    HW2 7740   6.598   6.384   5.107
 2281SOL     OW 7741   3.230   1.573   1.307
 2281SOL    HW1 7742   3.187   1.525   1.384
 2281SOL    HW2 7743   3.296   1.639   1.342
 2282SOL     OW 7744   5.444   6.285   4.629
 2282SOL    HW1 7745   5.388   6.225   4.572
 2282SOL    HW2 7746   5.454   6.243   4.720
 2283SOL     OW 7747   6.586   3.334   2.273
 2283SOL    HW1 7748   6.642   3.335   2.355
 2283SOL    HW2 7749   6.606   3.415   2.218
 2284SOL     OW 7750   2.817   2.108   1.551
 2284SOL    HW1 7751   2.759   2.041   1.598
 2284SOL    HW2 7752   2.903   2.064   1.525
 2285SOL     OW 7753   1.288   3.638   0.520
 2285SOL    HW1 7754   1.370   3.654   0.466
 2285SOL    HW2 7755   1.208   3.633   0.460
 2286SOL     OW 7756   6.731   5.729   4.999
 2286SOL    HW1 7757   6.800   5.795   5.028
 2286SOL    HW2 7758   6.768   5.636   5.007
 2287SOL     OW 7759   2.310   3.212   1.429
 2287SOL    HW1 7760   2.371   3.290   1.414
 2287SOL    HW2 7761   2.364   3.128   1.432
 2288SOL     OW 7762   0.836   5.979   3.902
 2288SOL    HW1 7763   0.804   6.012   3.991
 2288SOL    HW2 7764   0.763   5.929   3.856
 2289SOL     OW 7765   5.514   2.773   1.866
 2289SOL    HW1 7766   5.596   2.825   1.890
 2289SOL    HW2 7767   5.466   2.745   1.949
 2290SOL     OW 7768   3.195   3.339   2.438
 2290SOL    HW1 7769   3.244   3.255   2.416
 2290SOL    HW2 7770   3.252   3.418   2.414
 2291SOL     OW 7771   1.845   1.893   1.166
 2291SOL    HW1 7772   1.912   1.964   1.185
 2291SOL    HW2 7773   1.762   1.911   1.219
 2292SOL     OW 7774   5.278   3.494   3.840
 2292SOL    HW1 7775   5.223   3.576   3.858
 2292SOL    HW2 7776   5.308   3.494   3.745
 2293SOL     OW 7777   5.750   1.093   0.438
 2293SOL    HW1 7778   5.730   1.191   0.436
 2293SOL    HW2 7779   5.849   1.080   0.429
 2294SOL     OW 7780   3.201   1.796   6.252
 2294SOL    HW1 7781   3.246   1.706   6.254
 2294SOL    HW2 7782   3.268   1.866   6.226
 2295SOL     OW 7783   6.574   0.872   2.043
 2295SOL    HW1 7784   6.506   0.873   1.970
 2295SOL    HW2 7785   6.553   0.799   2.107
 2296SOL     OW 7786   2.704   4.799   2.872
 2296SOL    HW1 7787   2.624   4.811   2.931
 2296SOL    HW2 7788   2.787   4.803   2.927
 2297SOL     OW 7789   4.539   4.791   5.848
 2297SOL    HW1 7790   4.556   4.693   5.840
 2297SOL    HW2 7791   4.445   4.810   5.822
 2298SOL     OW 7792   3.834   3.556   3.293
 2298SOL    HW1 7793   3.777   3.487   3.247
 2298SOL    HW2 7794   3.812   3.646   3.258
 2299SOL     OW 7795   4.945   3.840   5.050
 2299SOL    HW1 7796   4.895   3.754   5.038
 2299SOL    HW2 7797   4.881   3.911   5.083
 2300SOL     OW 7798   3.613   6.937   3.125
 2300SOL    HW1 7799   3.635   6.964   3.218
 2300SOL    HW2 7800   3.515   6.918   3.117
 2301SOL     OW 7801   3.366   2.906   4.355
 2301SOL    HW1 7802   3.427   2.885   4.278
 2301SOL    HW2 7803   3.275   2.928   4.320
 2302SOL     OW 7804   4.229   0.363   0.935
 2302SOL    HW1 7805   4.150   0.301   0.932
 2302SOL    HW2 7806   4.211   0.442   0.877
 2303SOL     OW 7807   2.430   3.071   1.101
 2303SOL    HW1 7808   2.524   3.091   1.130
 2303SOL    HW2 7809   2.408   2.976   1.121
 2304SOL     OW 7810   6.262   5.930   3.857
 2304SOL    HW1 7811   6.262   5.999   3.929
 2304SOL    HW2 7812   6.276   5.974   3.768
 2305SOL     OW 7813   1.674   0.626   4.101
 2305SOL    HW1 7814   1.717   0.697   4.158
 2305SOL    HW2 7815   1.636   0.668   4.019
 2306SOL     OW 7816   1.511   5.196   2.400
 2306SOL    HW1 7817   1.443   5.201   2.473
 2306SOL    HW2 7818   1.601   5.219   2.437
 2307SOL     OW 7819   1.191   2.941   5.676
 2307SOL    HW1 7820   1.236   3.025   5.645
 2307SOL    HW2 7821   1.101   2.962   5.712
 2308SOL     OW 7822   2.411   5.046   1.142
 2308SOL    HW1 7823   2.401   5.080   1.236
 2308SOL    HW2 7824   2.491   5.088   1.100
 2309SOL     OW 7825   1.705   0.442   3.897
 2309SOL    HW1 7826   1.684   0.503   3.972
 2309SOL    HW2 7827   1.805   0.432   3.889
 2310SOL     OW 7828   5.671   6.680   2.408
 2310SOL    HW1 7829   5.707   6.743   2.477
 2310SOL    HW2 7830   5.694   6.714   2.317
 2311SOL     OW 7831   2.203   5.999   7.021
 2311SOL    HW1 7832   2.198   5.904   0.031
 2311SOL    HW2 7833   2.190   6.060   0.078
 2312SOL     OW 7834   3.710   5.469   3.466
 2312SOL    HW1 7835   3.636   5.434   3.524
 2312SOL    HW2 7836   3.714   5.568   3.475
 2313SOL     OW 7837   5.135   4.919   2.222
 2313SOL    HW1 7838   5.051   4.868   2.240
 2313SOL    HW2 7839   5.212   4.855   2.213
 2314SOL     OW 7840   3.738   5.888   2.777
 2314SOL    HW1 7841   3.833   5.862   2.758
 2314SOL    HW2 7842   3.720   5.878   2.875
 2315SOL     OW 7843   5.161   3.668   6.058
 2315SOL    HW1 7844   5.128   3.627   6.143
 2315SOL    HW2 7845   5.184   3.764   6.074
 2316SOL     OW 7846   5.092   2.074   3.334
 2316SOL    HW1 7847   5.047   2.009   3.272
 2316SOL    HW2 7848   5.068   2.167   3.308
 2317SOL     OW 7849   0.933   5.282   2.877
 2317SOL    HW1 7850   1.002   5.307   2.809
 2317SOL    HW2 7851   0.858   5.233   2.833
 2318SOL     OW 7852   0.626   2.493   3.567
 2318SOL    HW1 7853   0.583   2.484   3.657
 2318SOL    HW2 7854   0.578   2.435   3.501
 2319SOL     OW 7855   2.102   4.168   5.108
 2319SOL    HW1 7856   2.040   4.103   5.152
 2319SOL    HW2 7857   2.173   4.118   5.058
 2320SOL     OW 7858   0.198   2.324   4.370
 2320SOL    HW1 7859   0.221   2.248   4.431
 2320SOL    HW2 7860   0.126   2.295   4.307
 2321SOL     OW 7861   3.572   0.830   5.083
 2321SOL    HW1 7862   3.663   0.869   5.076
 2321SOL    HW2 7863   3.528   0.829   4.992
 2322SOL     OW 7864   1.840   1.768   5.610
 2322SOL    HW1 7865   1.896   1.843   5.645
 2322SOL    HW2 7866   1.786   1.800   5.532
 2323SOL     OW 7867   3.574   5.922   3.354
 2323SOL    HW1 7868   3.564   5.822   3.357
 2323SOL    HW2 7869   3.595   5.956   3.446
 2324SOL     OW 7870   0.597   6.074   2.412
 2324SOL    HW1 7871   0.631   6.146   2.351
 2324SOL    HW2 7872   0.547   6.006   2.358
 2325SOL     OW 7873   1.237   3.848   1.603
 2325SOL    HW1 7874   1.230   3.945   1.627
 2325SOL    HW2 7875   1.330   3.816   1.623
 2326SOL     OW 7876   2.107   3.916   6.576
 2326SOL    HW1 7877   2.099   3.988   6.645
 2326SOL    HW2 7878   2.034   3.849   6.590
 2327SOL     OW 7879   4.936   2.895   4.531
 2327SOL    HW1 7880   5.004   2.961   4.498
 2327SOL    HW2 7881   4.981   2.808   4.552
 2328SOL     OW 7882   4.936   0.970   3.337
 2328SOL    HW1 7883   4.951   0.956   3.239
 2328SOL    HW2 7884   5.001   1.037   3.372
 2329SOL     OW 7885   1.242   5.343   4.545
 2329SOL    HW1 7886   1.143   5.349   4.561
 2329SOL    HW2 7887   1.266   5.400   4.466
 2330SOL     OW 7888   0.068   5.254   1.454
 2330SOL    HW1 7889   0.064   5.187   1.528
 2330SOL    HW2 7890   0.009   5.225   1.379
 2331SOL     OW 7891   0.010   4.445   5.554
 2331SOL    HW1 7892   7.004   4.374   5.489
 2331SOL    HW2 7893   6.949   4.483   5.597
 2332SOL     OW 7894   5.172   2.446   5.506
 2332SOL    HW1 7895   5.161   2.465   5.408
 2332SOL    HW2 7896   5.215   2.357   5.518
 2333SOL     OW 7897   0.615   5.156   2.585
 2333SOL    HW1 7898   0.693   5.123   2.532
 2333SOL    HW2 7899   0.646   5.220   2.655
 2334SOL     OW 7900   3.328   6.488   0.067
 2334SOL    HW1 7901   3.294   6.497   0.161
 2334SOL    HW2 7902   3.403   6.421   0.066
 2335SOL     OW 7903   6.306   1.068   3.160
 2335SOL    HW1 7904   6.324   1.160   3.194
 2335SOL    HW2 7905   6.324   1.064   3.062
 2336SOL     OW 7906   4.762   0.976   5.593
 2336SOL    HW1 7907   4.774   1.023   5.680
 2336SOL    HW2 7908   4.845   0.927   5.569
 2337SOL     OW 7909   5.246   0.524   3.203
 2337SOL    HW1 7910   5.201   0.588   3.141
 2337SOL    HW2 7911   5.178   0.487   3.267
 2338SOL     OW 7912   0.630   6.768   0.085
 2338SOL    HW1 7913   0.716   6.819   0.085
 2338SOL    HW2 7914   0.649   6.672   0.108
 2339SOL     OW 7915   3.328   3.328   5.747
 2339SOL    HW1 7916   3.297   3.234   5.764
 2339SOL    HW2 7917   3.427   3.329   5.739
 2340SOL     OW 7918   3.786   6.285   5.124
 2340SOL    HW1 7919   3.850   6.346   5.170
 2340SOL    HW2 7920   3.834   6.232   5.055
 2341SOL     OW 7921   5.248   4.552   0.323
 2341SOL    HW1 7922   5.156   4.514   0.327
 2341SOL    HW2 7923   5.254   4.619   0.249
 2342SOL     OW 7924   0.531   6.737   5.902
 2342SOL    HW1 7925   0.515   6.661   5.838
 2342SOL    HW2 7926   0.447   6.759   5.950
 2343SOL     OW 7927   1.322   6.377   1.345
 2343SOL    HW1 7928   1.234   6.387   1.390
 2343SOL    HW2 7929   1.316   6.410   1.251
 2344SOL     OW 7930   3.073   1.541   2.320
 2344SOL    HW1 7931   3.131   1.466   2.351
 2344SOL    HW2 7932   3.093   1.624   2.373
 2345SOL     OW 7933   1.246   7.010   4.830
 2345SOL    HW1 7934   1.307   6.935   4.855
 2345SOL    HW2 7935   1.226   0.044   4.911
 2346SOL     OW 7936   4.567   2.789   5.346
 2346SOL    HW1 7937   4.532   2.876   5.381
 2346SOL    HW2 7938   4.636   2.807   5.277
 2347SOL     OW 7939   1.845   4.079   1.944
 2347SOL    HW1 7940   1.855   3.999   2.003
 2347SOL    HW2 7941   1.920   4.143   1.961
 2348SOL     OW 7942   2.182   6.562   3.349
 2348SOL    HW1 7943   2.230   6.609   3.275
 2348SOL    HW2 7944   2.089   6.599   3.356
 2349SOL     OW 7945   0.077   6.616   6.000
 2349SOL    HW1 7946   0.089   6.520   6.027
 2349SOL    HW2 7947   0.165   6.653   5.969
 2350SOL     OW 7948   3.265   0.760   5.579
 2350SOL    HW1 7949   3.251   0.859   5.585
 2350SOL    HW2 7950   3.293   0.725   5.668
 2351SOL     OW 7951   3.032   5.217   3.829
 2351SOL    HW1 7952   3.063   5.236   3.735
 2351SOL    HW2 7953   2.937   5.189   3.827
 2352SOL     OW 7954   6.353   4.201   4.033
 2352SOL    HW1 7955   6.451   4.216   4.045
 2352SOL    HW2 7956   6.318   4.146   4.108
 2353SOL     OW 7957   2.610   3.877   5.563
 2353SOL    HW1 7958   2.610   3.900   5.466
 2353SOL    HW2 7959   2.523   3.903   5.604
 2354SOL     OW 7960   3.295   2.557   0.031
 2354SOL    HW1 7961   3.356   2.579   6.976
 2354SOL    HW2 7962   3.293   2.634   0.094
 2355SOL     OW 7963   0.671   0.101   0.836
 2355SOL    HW1 7964   0.650   0.170   0.767
 2355SOL    HW2 7965   0.612   0.022   0.824
 2356SOL     OW 7966   2.282   4.879   2.167
 2356SOL    HW1 7967   2.217   4.836   2.104
 2356SOL    HW2 7968   2.305   4.814   2.239
 2357SOL     OW 7969   5.082   4.963   3.554
 2357SOL    HW1 7970   5.039   5.053   3.541
 2357SOL    HW2 7971   5.081   4.939   3.651
 2358SOL     OW 7972   2.871   0.096   3.843
 2358SOL    HW1 7973   2.889   0.185   3.801
 2358SOL    HW2 7974   2.871   0.105   3.942
 2359SOL     OW 7975   2.693   1.419   6.148
 2359SOL    HW1 7976   2.771   1.479   6.131
 2359SOL    HW2 7977   2.608   1.464   6.118
 2360SOL     OW 7978   3.711   4.325   6.958
 2360SOL    HW1 7979   3.769   4.385   6.904
 2360SOL    HW2 7980   3.694   4.366   0.027
 2361SOL     OW 7981   2.887   0.183   3.418
 2361SOL    HW1 7982   2.820   0.108   3.413
 2361SOL    HW2 7983   2.892   0.229   3.329
 2362SOL     OW 7984   4.514   6.005   4.955
 2362SOL    HW1 7985   4.531   6.092   4.908
 2362SOL    HW2 7986   4.493   5.934   4.887
 2363SOL     OW 7987   4.338   1.876   5.457
 2363SOL    HW1 7988   4.275   1.928   5.399
 2363SOL    HW2 7989   4.423   1.928   5.469
 2364SOL     OW 7990   5.494   1.740   1.876
 2364SOL    HW1 7991   5.558   1.728   1.952
 2364SOL    HW2 7992   5.476   1.838   1.862
 2365SOL     OW 7993   5.756   4.175   4.705
 2365SOL    HW1 7994   5.664   4.191   4.669
 2365SOL    HW2 7995   5.810   4.125   4.637
 2366SOL     OW 7996   1.620   3.915   5.119
 2366SOL    HW1 7997   1.610   3.931   5.021
 2366SOL    HW2 7998   1.666   3.827   5.134
 2367SOL     OW 7999   0.803   3.556   5.611
 2367SOL    HW1 8000   0.742   3.633   5.590
 2367SOL    HW2 8001   0.898   3.587   5.609
 2368SOL     OW 8002   4.155   1.469   4.667
 2368SOL    HW1 8003   4.241   1.461   4.616
 2368SOL    HW2 8004   4.175   1.495   4.762
 2369SOL     OW 8005   3.379   1.880   3.157
 2369SOL    HW1 8006   3.387   1.967   3.206
 2369SOL    HW2 8007   3.285   1.848   3.163
 2370SOL     OW 8008   4.710   2.918   0.219
 2370SOL    HW1 8009   4.681   2.926   0.314
 2370SOL    HW2 8010   4.629   2.912   0.160
 2371SOL     OW 8011   0.925   6.882   2.251
 2371SOL    HW1 8012   0.980   6.822   2.193
 2371SOL    HW2 8013   0.930   6.851   2.346
 2372SOL     OW 8014   6.764   0.633   6.412
 2372SOL    HW1 8015   6.686   0.583   6.449
 2372SOL    HW2 8016   6.736   0.726   6.389
 2373SOL     OW 8017   5.983   0.599   6.519
 2373SOL    HW1 8018   6.061   0.592   6.582
 2373SOL    HW2 8019   5.963   0.695   6.501
 2374SOL     OW 8020   5.799   5.392   2.953
 2374SOL    HW1 8021   5.761   5.347   2.872
 2374SOL    HW2 8022   5.788   5.332   3.033
 2375SOL     OW 8023   0.408   0.331   3.715
 2375SOL    HW1 8024   0.435   0.238   3.738
 2375SOL    HW2 8025   0.318   0.350   3.754
 2376SOL     OW 8026   6.718   2.587   3.502
 2376SOL    HW1 8027   6.659   2.662   3.473
 2376SOL    HW2 8028   6.801   2.586   3.446
 2377SOL     OW 8029   3.262   4.288   6.035
 2377SOL    HW1 8030   3.191   4.307   6.103
 2377SOL    HW2 8031   3.228   4.223   5.967
 2378SOL     OW 8032   5.733   1.853   0.124
 2378SOL    HW1 8033   5.689   1.870   0.036
 2378SOL    HW2 8034   5.665   1.859   0.197
 2379SOL     OW 8035   6.683   4.333   0.147
 2379SOL    HW1 8036   6.770   4.319   0.195
 2379SOL    HW2 8037   6.702   4.372   0.057
 2380SOL     OW 8038   6.094   1.882   5.142
 2380SOL    HW1 8039   6.094   1.817   5.067
 2380SOL    HW2 8040   6.000   1.908   5.164
 2381SOL     OW 8041   2.386   4.896   4.706
 2381SOL    HW1 8042   2.484   4.880   4.690
 2381SOL    HW2 8043   2.367   4.888   4.804
 2382SOL     OW 8044   1.363   6.076   2.630
 2382SOL    HW1 8045   1.358   5.979   2.651
 2382SOL    HW2 8046   1.426   6.121   2.694
 2383SOL     OW 8047   5.094   5.533   5.844
 2383SOL    HW1 8048   5.103   5.614   5.785
 2383SOL    HW2 8049   5.042   5.462   5.795
 2384SOL     OW 8050   0.665   2.059   1.591
 2384SOL    HW1 8051   0.739   2.103   1.643
 2384SOL    HW2 8052   0.602   2.128   1.558
 2385SOL     OW 8053   1.056   2.042   0.041
 2385SOL    HW1 8054   1.021   2.125   0.087
 2385SOL    HW2 8055   1.051   1.965   0.105
 2386SOL     OW 8056   3.281   5.027   4.795
 2386SOL    HW1 8057   3.262   4.965   4.871
 2386SOL    HW2 8058   3.219   5.006   4.719
 2387SOL     OW 8059   0.038   3.378   4.114
 2387SOL    HW1 8060   0.121   3.405   4.064
 2387SOL    HW2 8061   0.049   3.400   4.211
 2388SOL     OW 8062   0.317   1.586   5.582
 2388SOL    HW1 8063   0.365   1.588   5.670
 2388SOL    HW2 8064   0.364   1.525   5.519
 2389SOL     OW 8065   5.327   4.497   4.197
 2389SOL    HW1 8066   5.402   4.430   4.204
 2389SOL    HW2 8067   5.260   4.465   4.130
 2390SOL     OW 8068   3.870   3.559   5.203
 2390SOL    HW1 8069   3.774   3.544   5.180
 2390SOL    HW2 8070   3.909   3.627   5.141
 2391SOL     OW 8071   3.515   3.708   6.155
 2391SOL    HW1 8072   3.528   3.703   6.254
 2391SOL    HW2 8073   3.601   3.734   6.111
 2392SOL     OW 8074   3.285   4.260   6.494
 2392SOL    HW1 8075   3.208   4.315   6.524
 2392SOL    HW2 8076   3.312   4.197   6.567
 2393SOL     OW 8077   3.839   6.000   1.543
 2393SOL    HW1 8078   3.809   6.004   1.448
 2393SOL    HW2 8079   3.907   6.071   1.560
 2394SOL     OW 8080   0.186   3.925   3.841
 2394SOL    HW1 8081   0.230   4.004   3.883
 2394SOL    HW2 8082   0.104   3.954   3.791
 2395SOL     OW 8083   6.911   2.911   0.059
 2395SOL    HW1 8084   7.000   2.884   0.022
 2395SOL    HW2 8085   6.921   2.933   0.156
 2396SOL     OW 8086   5.617   0.536   0.214
 2396SOL    HW1 8087   5.532   0.528   0.266
 2396SOL    HW2 8088   5.695   0.539   0.277
 2397SOL     OW 8089   0.261   4.778   6.499
 2397SOL    HW1 8090   0.172   4.786   6.545
 2397SOL    HW2 8091   0.334   4.799   6.564
 2398SOL     OW 8092   2.793   5.148   4.590
 2398SOL    HW1 8093   2.766   5.155   4.686
 2398SOL    HW2 8094   2.843   5.230   4.564
 2399SOL     OW 8095   3.889   2.206   3.814
 2399SOL    HW1 8096   3.796   2.175   3.837
 2399SOL    HW2 8097   3.904   2.196   3.716
 2400SOL     OW 8098   1.846   3.394   0.467
 2400SOL    HW1 8099   1.795   3.409   0.552
 2400SOL    HW2 8100   1.830   3.301   0.434
 2401SOL     OW 8101   3.521   0.252   3.771
 2401SOL    HW1 8102   3.473   0.273   3.856
 2401SOL    HW2 8103   3.585   0.326   3.750
 2402SOL     OW 8104   0.015   2.012   3.450
 2402SOL    HW1 8105   7.003   1.930   3.403
 2402SOL    HW2 8106   0.114   2.010   3.456
 2403SOL     OW 8107   3.912   3.752   0.949
 2403SOL    HW1 8108   3.974   3.698   1.005
 2403SOL    HW2 8109   3.850   3.691   0.899
 2404SOL     OW 8110   5.767   1.898   1.569
 2404SOL    HW1 8111   5.836   1.970   1.581
 2404SOL    HW2 8112   5.768   1.837   1.648
 2405SOL     OW 8113   3.226   5.073   5.583
 2405SOL    HW1 8114   3.196   5.037   5.671
 2405SOL    HW2 8115   3.271   5.000   5.531
 2406SOL     OW 8116   2.303   7.008   4.127
 2406SOL    HW1 8117   2.385   0.022   4.082
 2406SOL    HW2 8118   2.317   7.007   4.226
 2407SOL     OW 8119   4.474   2.513   2.875
 2407SOL    HW1 8120   4.516   2.453   2.807
 2407SOL    HW2 8121   4.496   2.479   2.967
 2408SOL     OW 8122   2.587   5.716   2.864
 2408SOL    HW1 8123   2.659   5.648   2.851
 2408SOL    HW2 8124   2.499   5.678   2.835
 2409SOL     OW 8125   2.704   3.076   1.179
 2409SOL    HW1 8126   2.703   2.979   1.154
 2409SOL    HW2 8127   2.799   3.106   1.191
 2410SOL     OW 8128   6.359   3.065   6.067
 2410SOL    HW1 8129   6.346   3.163   6.055
 2410SOL    HW2 8130   6.450   3.048   6.104
 2411SOL     OW 8131   2.715   3.796   5.879
 2411SOL    HW1 8132   2.638   3.858   5.863
 2411SOL    HW2 8133   2.778   3.801   5.800
 2412SOL     OW 8134   2.424   2.961   0.569
 2412SOL    HW1 8135   2.499   2.972   0.503
 2412SOL    HW2 8136   2.378   3.049   0.581
 2413SOL     OW 8137   6.026   3.416   6.557
 2413SOL    HW1 8138   6.070   3.505   6.564
 2413SOL    HW2 8139   5.947   3.413   6.619
 2414SOL     OW 8140   5.935   2.587   3.497
 2414SOL    HW1 8141   5.868   2.537   3.552
 2414SOL    HW2 8142   5.887   2.644   3.430
 2415SOL     OW 8143   2.557   0.133   1.108
 2415SOL    HW1 8144   2.619   0.070   1.060
 2415SOL    HW2 8145   2.514   0.194   1.042
 2416SOL     OW 8146   1.085   3.112   3.657
 2416SOL    HW1 8147   1.047   3.204   3.662
 2416SOL    HW2 8148   1.154   3.108   3.585
 2417SOL     OW 8149   4.455   1.803   6.703
 2417SOL    HW1 8150   4.530   1.869   6.701
 2417SOL    HW2 8151   4.482   1.723   6.755
 2418SOL     OW 8152   3.979   3.768   5.003
 2418SOL    HW1 8153   3.919   3.755   4.924
 2418SOL    HW2 8154   3.963   3.858   5.043
 2419SOL     OW 8155   1.951   6.924   4.795
 2419SOL    HW1 8156   2.026   6.894   4.736
 2419SOL    HW2 8157   1.927   6.852   4.860
 2420SOL     OW 8158   3.342   5.709   1.910
 2420SOL    HW1 8159   3.369   5.687   2.003
 2420SOL    HW2 8160   3.281   5.789   1.911
 2421SOL     OW 8161   4.180   6.765   4.095
 2421SOL    HW1 8162   4.126   6.696   4.046
 2421SOL    HW2 8163   4.261   6.788   4.041
 2422SOL     OW 8164   3.656   6.543   0.759
 2422SOL    HW1 8165   3.583   6.609   0.777
 2422SOL    HW2 8166   3.741   6.591   0.739
 2423SOL     OW 8167   1.760   5.548   1.090
 2423SOL    HW1 8168   1.679   5.538   1.148
 2423SOL    HW2 8169   1.762   5.475   1.022
 2424SOL     OW 8170   5.980   6.624   6.734
 2424SOL    HW1 8171   5.985   6.524   6.729
 2424SOL    HW2 8172   6.016   6.664   6.649
 2425SOL     OW 8173   4.863   5.718   5.577
 2425SOL    HW1 8174   4.821   5.634   5.543
 2425SOL    HW2 8175   4.838   5.730   5.673
 2426SOL     OW 8176   0.960   5.168   4.936
 2426SOL    HW1 8177   0.879   5.166   4.877
 2426SOL    HW2 8178   1.039   5.135   4.884
 2427SOL     OW 8179   5.042   6.055   6.764
 2427SOL    HW1 8180   5.133   6.048   6.804
 2427SOL    HW2 8181   4.988   6.122   6.815
 2428SOL     OW 8182   0.249   0.455   2.399
 2428SOL    HW1 8183   0.170   0.414   2.444
 2428SOL    HW2 8184   0.305   0.383   2.357
 2429SOL     OW 8185   5.893   4.350   2.649
 2429SOL    HW1 8186   5.908   4.252   2.663
 2429SOL    HW2 8187   5.868   4.392   2.736
 2430SOL     OW 8188   5.419   2.095   0.216
 2430SOL    HW1 8189   5.363   2.144   0.283
 2430SOL    HW2 8190   5.446   2.158   0.143
 2431SOL     OW 8191   5.325   1.698   1.400
 2431SOL    HW1 8192   5.280   1.707   1.489
 2431SOL    HW2 8193   5.359   1.604   1.390
 2432SOL     OW 8194   3.181   6.189   1.308
 2432SOL    HW1 8195   3.234   6.191   1.393
 2432SOL    HW2 8196   3.146   6.280   1.288
 2433SOL     OW 8197   0.894   6.515   0.507
 2433SOL    HW1 8198   0.935   6.606   0.517
 2433SOL    HW2 8199   0.836   6.496   0.585
 2434SOL     OW 8200   5.272   1.847   2.463
 2434SOL    HW1 8201   5.232   1.760   2.490
 2434SOL    HW2 8202   5.201   1.917   2.458
 2435SOL     OW 8203   5.837   5.682   0.153
 2435SOL    HW1 8204   5.807   5.702   0.247
 2435SOL    HW2 8205   5.885   5.595   0.151
 2436SOL     OW 8206   1.584   0.387   1.112
 2436SOL    HW1 8207   1.528   0.372   1.194
 2436SOL    HW2 8208   1.643   0.307   1.097
 2437SOL     OW 8209   5.431   6.249   1.474
 2437SOL    HW1 8210   5.365   6.245   1.550
 2437SOL    HW2 8211   5.514   6.295   1.504
 2438SOL     OW 8212   4.436   1.504   4.738
 2438SOL    HW1 8213   4.392   1.579   4.787
 2438SOL    HW2 8214   4.529   1.492   4.771
 2439SOL     OW 8215   0.283   5.112   0.168
 2439SOL    HW1 8216   0.284   5.212   0.161
 2439SOL    HW2 8217   0.361   5.074   0.118
 2440SOL     OW 8218   3.955   6.634   5.915
 2440SOL    HW1 8219   3.955   6.717   5.858
 2440SOL    HW2 8220   3.888   6.569   5.879
 2441SOL     OW 8221   6.050   1.328   6.737
 2441SOL    HW1 8222   5.984   1.267   6.781
 2441SOL    HW2 8223   6.007   1.416   6.721
 2442SOL     OW 8224   5.867   4.952   3.064
 2442SOL    HW1 8225   5.953   4.999   3.046
 2442SOL    HW2 8226   5.806   5.013   3.115
 2443SOL     OW 8227   2.831   0.890   6.890
 2443SOL    HW1 8228   2.731   0.885   6.900
 2443SOL    HW2 8229   2.857   0.983   6.865
 2444SOL     OW 8230   4.193   4.951   0.115
 2444SOL    HW1 8231   4.186   5.044   0.150
 2444SOL    HW2 8232   4.155   4.887   0.181
 2445SOL     OW 8233   6.020   1.499   1.686
 2445SOL    HW1 8234   5.923   1.485   1.705
 2445SOL    HW2 8235   6.054   1.423   1.630
 2446SOL     OW 8236   1.036   2.789   3.355
 2446SOL    HW1 8237   1.101   2.859   3.328
 2446SOL    HW2 8238   0.967   2.829   3.415
 2447SOL     OW 8239   2.530   0.842   1.059
 2447SOL    HW1 8240   2.532   0.906   0.982
 2447SOL    HW2 8241   2.581   0.760   1.035
 2448SOL     OW 8242   6.179   1.876   4.056
 2448SOL    HW1 8243   6.084   1.893   4.030
 2448SOL    HW2 8244   6.238   1.887   3.976
 2449SOL     OW 8245   1.629   3.236   1.265
 2449SOL    HW1 8246   1.678   3.170   1.323
 2449SOL    HW2 8247   1.668   3.234   1.173
 2450SOL     OW 8248   2.948   5.478   6.443
 2450SOL    HW1 8249   2.866   5.427   6.467
 2450SOL    HW2 8250   3.003   5.425   6.378
 2451SOL     OW 8251   1.210   0.577   3.163
 2451SOL    HW1 8252   1.114   0.549   3.163
 2451SOL    HW2 8253   1.244   0.581   3.069
 2452SOL     OW 8254   3.042   2.021   3.779
 2452SOL    HW1 8255   2.977   1.983   3.713
 2452SOL    HW2 8256   3.129   2.041   3.732
 2453SOL     OW 8257   0.395   3.082   0.840
 2453SOL    HW1 8258   0.475   3.084   0.780
 2453SOL    HW2 8259   0.338   3.002   0.819
 2454SOL     OW 8260   2.858   6.212   7.007
 2454SOL    HW1 8261   2.911   6.294   6.984
 2454SOL    HW2 8262   2.889   6.175   0.073
 2455SOL     OW 8263   4.609   0.574   0.496
 2455SOL    HW1 8264   4.531   0.512   0.483
 2455SOL    HW2 8265   4.577   0.668   0.489
 2456SOL     OW 8266   0.136   2.451   6.588
 2456SOL    HW1 8267   0.097   2.533   6.547
 2456SOL    HW2 8268   0.235   2.464   6.599
 2457SOL     OW 8269   6.444   1.039   6.169
 2457SOL    HW1 8270   6.384   0.967   6.135
 2457SOL    HW2 8271   6.394   1.125   6.176
 2458SOL     OW 8272   1.460   6.415   3.599
 2458SOL    HW1 8273   1.560   6.420   3.597
 2458SOL    HW2 8274   1.422   6.473   3.527
 2459SOL     OW 8275   2.788   6.630   5.439
 2459SOL    HW1 8276   2.771   6.656   5.534
 2459SOL    HW2 8277   2.845   6.548   5.436
 2460SOL     OW 8278   1.420   1.446   0.490
 2460SOL    HW1 8279   1.417   1.487   0.582
 2460SOL    HW2 8280   1.476   1.504   0.430
 2461SOL     OW 8281   4.668   0.910   4.113
 2461SOL    HW1 8282   4.654   0.990   4.171
 2461SOL    HW2 8283   4.584   0.889   4.063
 2462SOL     OW 8284   2.070   4.844   6.805
 2462SOL    HW1 8285   2.147   4.906   6.816
 2462SOL    HW2 8286   2.003   4.884   6.743
 2463SOL     OW 8287   5.902   1.658   7.011
 2463SOL    HW1 8288   5.877   1.719   0.065
 2463SOL    HW2 8289   5.935   1.712   6.934
 2464SOL     OW 8290   1.844   3.258   2.906
 2464SOL    HW1 8291   1.939   3.265   2.934
 2464SOL    HW2 8292   1.814   3.162   2.912
 2465SOL     OW 8293   0.588   6.820   6.813
 2465SOL    HW1 8294   0.641   6.778   6.739
 2465SOL    HW2 8295   0.613   6.778   6.900
 2466SOL     OW 8296   1.842   1.441   2.929
 2466SOL    HW1 8297   1.919   1.399   2.880
 2466SOL    HW2 8298   1.848   1.540   2.922
 2467SOL     OW 8299   4.977   1.681   5.277
 2467SOL    HW1 8300   5.009   1.704   5.185
 2467SOL    HW2 8301   4.893   1.733   5.297
 2468SOL     OW 8302   4.356   6.690   1.088
 2468SOL    HW1 8303   4.268   6.657   1.054
 2468SOL    HW2 8304   4.394   6.623   1.152
 2469SOL     OW 8305   3.994   3.378   4.556
 2469SOL    HW1 8306   3.905   3.361   4.598
 2469SOL    HW2 8307   4.059   3.405   4.627
 2470SOL     OW 8308   3.952   4.721   5.724
 2470SOL    HW1 8309   3.891   4.655   5.681
 2470SOL    HW2 8310   4.045   4.708   5.689
 2471SOL     OW 8311   3.373   5.963   0.260
 2471SOL    HW1 8312   3.325   5.875   0.257
 2471SOL    HW2 8313   3.443   5.965   0.189
 2472SOL     OW 8314   5.022   2.380   3.336
 2472SOL    HW1 8315   5.004   2.430   3.421
 2472SOL    HW2 8316   4.938   2.332   3.308
 2473SOL     OW 8317   0.975   3.979   4.994
 2473SOL    HW1 8318   0.891   3.985   4.940
 2473SOL    HW2 8319   0.954   3.942   5.084
 2474SOL     OW 8320   0.116   6.043   1.401
 2474SOL    HW1 8321   0.111   5.945   1.420
 2474SOL    HW2 8322   0.029   6.086   1.423
 2475SOL     OW 8323   4.169   0.797   2.649
 2475SOL    HW1 8324   4.122   0.811   2.561
 2475SOL    HW2 8325   4.204   0.704   2.653
 2476SOL     OW 8326   5.827   1.096   2.654
 2476SOL    HW1 8327   5.843   0.999   2.635
 2476SOL    HW2 8328   5.886   1.152   2.596
 2477SOL     OW 8329   4.110   1.149   2.906
 2477SOL    HW1 8330   4.176   1.200   2.961
 2477SOL    HW2 8331   4.017   1.176   2.930
 2478SOL     OW 8332   6.377   1.853   1.393
 2478SOL    HW1 8333   6.419   1.772   1.435
 2478SOL    HW2 8334   6.334   1.909   1.463
 2479SOL     OW 8335   1.190   2.766   2.406
 2479SOL    HW1 8336   1.284   2.748   2.432
 2479SOL    HW2 8337   1.184   2.773   2.306
 2480SOL     OW 8338   4.684   4.410   0.986
 2480SOL    HW1 8339   4.641   4.429   0.898
 2480SOL    HW2 8340   4.699   4.312   0.995
 2481SOL     OW 8341   4.103   6.523   0.688
 2481SOL    HW1 8342   4.084   6.438   0.736
 2481SOL    HW2 8343   4.154   6.504   0.604
 2482SOL     OW 8344   5.251   3.520   5.856
 2482SOL    HW1 8345   5.239   3.550   5.950
 2482SOL    HW2 8346   5.207   3.431   5.843
 2483SOL     OW 8347   1.861   1.783   0.617
 2483SOL    HW1 8348   1.908   1.786   0.706
 2483SOL    HW2 8349   1.925   1.809   0.545
 2484SOL     OW 8350   3.826   0.234   6.812
 2484SOL    HW1 8351   3.727   0.239   6.802
 2484SOL    HW2 8352   3.870   0.276   6.732
 2485SOL     OW 8353   5.563   3.635   1.446
 2485SOL    HW1 8354   5.544   3.732   1.432
 2485SOL    HW2 8355   5.527   3.582   1.370
 2486SOL     OW 8356   1.899   4.731   5.141
 2486SOL    HW1 8357   1.897   4.634   5.116
 2486SOL    HW2 8358   1.862   4.786   5.066
 2487SOL     OW 8359   4.308   6.405   0.224
 2487SOL    HW1 8360   4.215   6.376   0.201
 2487SOL    HW2 8361   4.367   6.324   0.230
 2488SOL     OW 8362   1.510   4.436   1.904
 2488SOL    HW1 8363   1.510   4.520   1.958
 2488SOL    HW2 8364   1.605   4.406   1.891
 2489SOL     OW 8365   1.006   6.795   4.091
 2489SOL    HW1 8366   1.081   6.775   4.028
 2489SOL    HW2 8367   0.966   6.710   4.123
 2490SOL     OW 8368   6.778   5.423   1.436
 2490SOL    HW1 8369   6.843   5.431   1.511
 2490SOL    HW2 8370   6.693   5.471   1.459
 2491SOL     OW 8371   2.276   4.653   0.101
 2491SOL    HW1 8372   2.353   4.592   0.121
 2491SOL    HW2 8373   2.309   4.731   0.048
 2492SOL     OW 8374   4.934   3.580   0.727
 2492SOL    HW1 8375   4.960   3.532   0.811
 2492SOL    HW2 8376   4.955   3.523   0.648
 2493SOL     OW 8377   5.468   0.088   2.105
 2493SOL    HW1 8378   5.566   0.100   2.119
 2493SOL    HW2 8379   5.439   0.000   2.143
 2494SOL     OW 8380   5.248   4.934   2.678
 2494SOL    HW1 8381   5.292   4.895   2.597
 2494SOL    HW2 8382   5.205   4.861   2.731
 2495SOL     OW 8383   4.933   6.710   4.307
 2495SOL    HW1 8384   4.897   6.804   4.313
 2495SOL    HW2 8385   4.879   6.650   4.365
 2496SOL     OW 8386   0.298   2.402   5.920
 2496SOL    HW1 8387   0.302   2.502   5.913
 2496SOL    HW2 8388   0.353   2.372   5.998
 2497SOL     OW 8389   0.202   0.283   0.588
 2497SOL    HW1 8390   0.130   0.351   0.604
 2497SOL    HW2 8391   0.276   0.298   0.654
 2498SOL     OW 8392   2.794   2.316   4.375
 2498SOL    HW1 8393   2.697   2.326   4.397
 2498SOL    HW2 8394   2.844   2.287   4.457
 2499SOL     OW 8395   6.163   2.372   2.034
 2499SOL    HW1 8396   6.136   2.437   1.964
 2499SOL    HW2 8397   6.112   2.390   2.118
 2500SOL     OW 8398   4.293   4.329   6.412
 2500SOL    HW1 8399   4.325   4.361   6.501
 2500SOL    HW2 8400   4.354   4.258   6.378
 2501SOL     OW 8401   5.294   5.389   0.334
 2501SOL    HW1 8402   5.351   5.310   0.312
 2501SOL    HW2 8403   5.206   5.381   0.287
 2502SOL     OW 8404   0.938   0.507   3.158
 2502SOL    HW1 8405   0.926   0.450   3.076
 2502SOL    HW2 8406   0.910   0.456   3.239
 2503SOL     OW 8407   2.240   6.441   4.688
 2503SOL    HW1 8408   2.219   6.538   4.694
 2503SOL    HW2 8409   2.220   6.397   4.776
 2504SOL     OW 8410   3.665   5.541   4.834
 2504SOL    HW1 8411   3.654   5.561   4.737
 2504SOL    HW2 8412   3.575   5.531   4.876
 2505SOL     OW 8413   0.540   6.738   3.265
 2505SOL    HW1 8414   0.532   6.818   3.206
 2505SOL    HW2 8415   0.522   6.765   3.360
 2506SOL     OW 8416   5.767   3.753   5.843
 2506SOL    HW1 8417   5.675   3.715   5.852
 2506SOL    HW2 8418   5.813   3.712   5.764
 2507SOL     OW 8419   6.836   3.590   0.546
 2507SOL    HW1 8420   6.802   3.615   0.637
 2507SOL    HW2 8421   6.920   3.641   0.527
 2508SOL     OW 8422   2.843   1.593   3.543
 2508SOL    HW1 8423   2.780   1.593   3.620
 2508SOL    HW2 8424   2.792   1.585   3.458
 2509SOL     OW 8425   6.981   3.684   0.985
 2509SOL    HW1 8426   0.055   3.684   0.953
 2509SOL    HW2 8427   6.954   3.591   1.009
 2510SOL     OW 8428   2.947   5.040   1.109
 2510SOL    HW1 8429   2.889   5.085   1.041
 2510SOL    HW2 8430   3.025   5.098   1.130
 2511SOL     OW 8431   3.970   2.188   4.314
 2511SOL    HW1 8432   3.898   2.119   4.309
 2511SOL    HW2 8433   3.929   2.278   4.334
 2512SOL     OW 8434   5.410   3.484   5.255
 2512SOL    HW1 8435   5.338   3.442   5.200
 2512SOL    HW2 8436   5.383   3.578   5.278
 2513SOL     OW 8437   1.953   4.027   5.304
 2513SOL    HW1 8438   1.889   4.047   5.378
 2513SOL    HW2 8439   1.990   3.935   5.315
 2514SOL     OW 8440   6.944   3.217   4.911
 2514SOL    HW1 8441   0.018   3.249   4.921
 2514SOL    HW2 8442   6.889   3.252   4.987
 2515SOL     OW 8443   1.541   6.976   0.940
 2515SOL    HW1 8444   1.500   6.911   1.004
 2515SOL    HW2 8445   1.493   6.972   0.853
 2516SOL     OW 8446   5.894   2.421   2.407
 2516SOL    HW1 8447   5.809   2.377   2.380
 2516SOL    HW2 8448   5.940   2.364   2.476
 2517SOL     OW 8449   1.568   6.330   5.862
 2517SOL    HW1 8450   1.535   6.261   5.926
 2517SOL    HW2 8451   1.605   6.408   5.913
 2518SOL     OW 8452   1.607   4.841   6.818
 2518SOL    HW1 8453   1.529   4.790   6.854
 2518SOL    HW2 8454   1.680   4.842   6.886
 2519SOL     OW 8455   4.179   6.534   2.569
 2519SOL    HW1 8456   4.213   6.573   2.654
 2519SOL    HW2 8457   4.230   6.450   2.548
 2520SOL     OW 8458   2.846   1.558   0.388
 2520SOL    HW1 8459   2.919   1.619   0.422
 2520SOL    HW2 8460   2.761   1.610   0.380
 2521SOL     OW 8461   2.051   0.966   5.349
 2521SOL    HW1 8462   1.953   0.974   5.364
 2521SOL    HW2 8463   2.097   1.046   5.388
 2522SOL     OW 8464   0.524   2.970   5.151
 2522SOL    HW1 8465   0.585   3.046   5.126
 2522SOL    HW2 8466   0.453   2.960   5.082
 2523SOL     OW 8467   0.376   3.446   1.464
 2523SOL    HW1 8468   0.330   3.362   1.493
 2523SOL    HW2 8469   0.448   3.424   1.399
 2524SOL     OW 8470   1.031   6.110   4.792
 2524SOL    HW1 8471   1.089   6.146   4.719
 2524SOL    HW2 8472   0.979   6.031   4.757
 2525SOL     OW 8473   1.085   2.623   5.966
 2525SOL    HW1 8474   1.108   2.578   6.052
 2525SOL    HW2 8475   1.061   2.553   5.898
 2526SOL     OW 8476   0.961   4.703   6.729
 2526SOL    HW1 8477   0.961   4.615   6.776
 2526SOL    HW2 8478   0.907   4.696   6.645
 2527SOL     OW 8479   5.381   5.698   4.971
 2527SOL    HW1 8480   5.403   5.738   4.882
 2527SOL    HW2 8481   5.304   5.635   4.960
 2528SOL     OW 8482   5.907   4.599   0.284
 2528SOL    HW1 8483   5.979   4.631   0.222
 2528SOL    HW2 8484   5.848   4.535   0.235
 2529SOL     OW 8485   6.576   6.320   6.641
 2529SOL    HW1 8486   6.562   6.279   6.731
 2529SOL    HW2 8487   6.608   6.414   6.652
 2530SOL     OW 8488   2.593   6.257   5.440
 2530SOL    HW1 8489   2.575   6.160   5.458
 2530SOL    HW2 8490   2.691   6.272   5.437
 2531SOL     OW 8491   5.366   6.123   4.405
 2531SOL    HW1 8492   5.454   6.098   4.366
 2531SOL    HW2 8493   5.293   6.072   4.359
 2532SOL     OW 8494   0.353   5.949   0.646
 2532SOL    HW1 8495   0.394   5.877   0.590
 2532SOL    HW2 8496   0.344   6.032   0.591
 2533SOL     OW 8497   3.178   6.600   4.286
 2533SOL    HW1 8498   3.166   6.574   4.190
 2533SOL    HW2 8499   3.272   6.631   4.301
 2534SOL     OW 8500   3.473   0.857   2.936
 2534SOL    HW1 8501   3.383   0.852   2.980
 2534SOL    HW2 8502   3.468   0.916   2.856
 2535SOL     OW 8503   3.532   2.348   5.407
 2535SOL    HW1 8504   3.452   2.290   5.426
 2535SOL    HW2 8505   3.501   2.438   5.377
 2536SOL     OW 8506   1.535   2.202   5.076
 2536SOL    HW1 8507   1.452   2.156   5.046
 2536SOL    HW2 8508   1.521   2.301   5.073
 2537SOL     OW 8509   3.635   0.168   6.601
 2537SOL    HW1 8510   3.673   0.249   6.558
 2537SOL    HW2 8511   3.686   0.087   6.573
 2538SOL     OW 8512   0.821   4.285   3.823
 2538SOL    HW1 8513   0.805   4.187   3.834
 2538SOL    HW2 8514   0.826   4.328   3.914
 2539SOL     OW 8515   5.579   1.111   4.807
 2539SOL    HW1 8516   5.555   1.208   4.813
 2539SOL    HW2 8517   5.643   1.097   4.731
 2540SOL     OW 8518   4.123   1.970   2.743
 2540SOL    HW1 8519   4.133   1.914   2.825
 2540SOL    HW2 8520   4.075   2.055   2.765
 2541SOL     OW 8521   2.609   0.182   5.486
 2541SOL    HW1 8522   2.579   0.121   5.560
 2541SOL    HW2 8523   2.605   0.133   5.399
 2542SOL     OW 8524   3.537   1.037   6.091
 2542SOL    HW1 8525   3.598   1.114   6.072
 2542SOL    HW2 8526   3.446   1.057   6.057
 2543SOL     OW 8527   1.530   0.977   3.526
 2543SOL    HW1 8528   1.591   0.922   3.583
 2543SOL    HW2 8529   1.584   1.041   3.472
 2544SOL     OW 8530   0.648   6.483   1.907
 2544SOL    HW1 8531   0.677   6.544   1.833
 2544SOL    HW2 8532   0.715   6.411   1.920
 2545SOL     OW 8533   1.296   0.013   1.533
 2545SOL    HW1 8534   1.209   0.062   1.538
 2545SOL    HW2 8535   1.279   6.938   1.510
 2546SOL     OW 8536   0.404   1.590   1.494
 2546SOL    HW1 8537   0.409   1.655   1.418
 2546SOL    HW2 8538   0.464   1.620   1.568
 2547SOL     OW 8539   6.311   5.360   0.749
 2547SOL    HW1 8540   6.239   5.395   0.809
 2547SOL    HW2 8541   6.270   5.303   0.678
 2548SOL     OW 8542   1.124   6.630   6.118
 2548SOL    HW1 8543   1.118   6.539   6.160
 2548SOL    HW2 8544   1.116   6.700   6.188
 2549SOL     OW 8545   2.242   0.840   0.563
 2549SOL    HW1 8546   2.203   0.758   0.521
 2549SOL    HW2 8547   2.190   0.864   0.644
 2550SOL     OW 8548   6.843   0.431   6.768
 2550SOL    HW1 8549   6.896   0.401   6.689
 2550SOL    HW2 8550   6.757   0.380   6.772
 2551SOL     OW 8551   3.311   5.004   0.334
 2551SOL    HW1 8552   3.403   5.008   0.296
 2551SOL    HW2 8553   3.271   5.096   0.335
 2552SOL     OW 8554   2.176   5.233   5.373
 2552SOL    HW1 8555   2.156   5.304   5.440
 2552SOL    HW2 8556   2.203   5.149   5.420
 2553SOL     OW 8557   5.076   3.090   5.377
 2553SOL    HW1 8558   5.145   3.040   5.430
 2553SOL    HW2 8559   5.106   3.184   5.363
 2554SOL     OW 8560   1.877   6.607   0.549
 2554SOL    HW1 8561   1.928   6.534   0.596
 2554SOL    HW2 8562   1.809   6.645   0.611
 2555SOL     OW 8563   5.946   6.822   5.402
 2555SOL    HW1 8564   5.949   6.844   5.500
 2555SOL    HW2 8565   5.857   6.848   5.365
 2556SOL     OW 8566   4.351   5.655   0.829
 2556SOL    HW1 8567   4.392   5.610   0.749
 2556SOL    HW2 8568   4.294   5.590   0.879
 2557SOL     OW 8569   2.464   3.863   6.925
 2557SOL    HW1 8570   2.392   3.827   6.985
 2557SOL    HW2 8571   2.549   3.814   6.942
 2558SOL     OW 8572   5.210   1.894   4.264
 2558SOL    HW1 8573   5.212   1.975   4.323
 2558SOL    HW2 8574   5.164   1.819   4.312
 2559SOL     OW 8575   6.790   3.683   4.143
 2559SOL    HW1 8576   6.829   3.680   4.235
 2559SOL    HW2 8577   6.861   3.661   4.076
 2560SOL     OW 8578   5.619   3.467   4.476
 2560SOL    HW1 8579   5.562   3.549   4.486
 2560SOL    HW2 8580   5.563   3.385   4.489
 2561SOL     OW 8581   3.387   6.218   5.552
 2561SOL    HW1 8582   3.453   6.286   5.519
 2561SOL    HW2 8583   3.332   6.186   5.474
 2562SOL     OW 8584   1.973   5.293   2.260
 2562SOL    HW1 8585   2.044   5.223   2.269
 2562SOL    HW2 8586   2.015   5.383   2.251
 2563SOL     OW 8587   4.010   2.694   0.291
 2563SOL    HW1 8588   3.965   2.627   0.232
 2563SOL    HW2 8589   4.090   2.731   0.244
 2564SOL     OW 8590   2.025   6.410   5.942
 2564SOL    HW1 8591   2.066   6.319   5.945
 2564SOL    HW2 8592   2.002   6.433   5.848
 2565SOL     OW 8593   0.852   0.786   6.638
 2565SOL    HW1 8594   0.810   0.833   6.560
 2565SOL    HW2 8595   0.951   0.789   6.630
 2566SOL     OW 8596   3.053   6.718   1.133
 2566SOL    HW1 8597   2.970   6.760   1.170
 2566SOL    HW2 8598   3.124   6.788   1.123
 2567SOL     OW 8599   0.882   1.075   0.945
 2567SOL    HW1 8600   0.948   1.146   0.970
 2567SOL    HW2 8601   0.843   1.096   0.856
 2568SOL     OW 8602   4.541   6.618   0.318
 2568SOL    HW1 8603   4.444   6.611   0.294
 2568SOL    HW2 8604   4.583   6.690   0.263
 2569SOL     OW 8605   3.178   1.450   1.532
 2569SOL    HW1 8606   3.078   1.451   1.536
 2569SOL    HW2 8607   3.214   1.505   1.607
 2570SOL     OW 8608   5.480   0.194   6.134
 2570SOL    HW1 8609   5.445   0.145   6.214
 2570SOL    HW2 8610   5.411   0.192   6.061
 2571SOL     OW 8611   2.530   4.545   5.801
 2571SOL    HW1 8612   2.495   4.514   5.713
 2571SOL    HW2 8613   2.613   4.493   5.824
 2572SOL     OW 8614   2.374   4.855   6.978
 2572SOL    HW1 8615   2.349   4.947   6.947
 2572SOL    HW2 8616   2.437   4.814   6.913
 2573SOL     OW 8617   6.722   2.469   1.837
 2573SOL    HW1 8618   6.624   2.485   1.820
 2573SOL    HW2 8619   6.752   2.391   1.783
 2574SOL     OW 8620   6.048   3.683   0.025
 2574SOL    HW1 8621   5.962   3.652   7.007
 2574SOL    HW2 8622   6.099   3.604   0.059
 2575SOL     OW 8623   5.387   5.197   0.730
 2575SOL    HW1 8624   5.470   5.241   0.766
 2575SOL    HW2 8625   5.335   5.263   0.677
 2576SOL     OW 8626   3.977   6.494   4.314
 2576SOL    HW1 8627   3.979   6.409   4.367
 2576SOL    HW2 8628   3.984   6.473   4.216
 2577SOL     OW 8629   4.474   6.645   1.907
 2577SOL    HW1 8630   4.384   6.622   1.871
 2577SOL    HW2 8631   4.464   6.682   1.999
 2578SOL     OW 8632   4.981   1.120   5.080
 2578SOL    HW1 8633   4.922   1.115   5.161
 2578SOL    HW2 8634   4.993   1.216   5.053
 2579SOL     OW 8635   1.571   6.121   3.510
 2579SOL    HW1 8636   1.562   6.164   3.600
 2579SOL    HW2 8637   1.632   6.176   3.453
 2580SOL     OW 8638   2.744   3.659   6.315
 2580SOL    HW1 8639   2.779   3.600   6.242
 2580SOL    HW2 8640   2.674   3.720   6.278
 2581SOL     OW 8641   0.829   5.184   1.262
 2581SOL    HW1 8642   0.842   5.262   1.200
 2581SOL    HW2 8643   0.805   5.103   1.209
 2582SOL     OW 8644   0.648   4.100   2.279
 2582SOL    HW1 8645   0.607   4.121   2.190
 2582SOL    HW2 8646   0.740   4.064   2.265
 2583SOL     OW 8647   0.782   1.511   0.393
 2583SOL    HW1 8648   0.740   1.459   0.318
 2583SOL    HW2 8649   0.862   1.560   0.358
 2584SOL     OW 8650   4.384   4.988   6.568
 2584SOL    HW1 8651   4.470   5.035   6.583
 2584SOL    HW2 8652   4.311   5.055   6.552
 2585SOL     OW 8653   4.246   2.709   6.814
 2585SOL    HW1 8654   4.342   2.725   6.793
 2585SOL    HW2 8655   4.237   2.621   6.862
 2586SOL     OW 8656   3.612   1.448   3.075
 2586SOL    HW1 8657   3.560   1.374   3.118
 2586SOL    HW2 8658   3.610   1.436   2.976
 2587SOL     OW 8659   0.312   0.707   3.235
 2587SOL    HW1 8660   0.385   0.767   3.267
 2587SOL    HW2 8661   0.350   0.618   3.210
 2588SOL     OW 8662   5.038   0.816   6.820
 2588SOL    HW1 8663   5.123   0.864   6.843
 2588SOL    HW2 8664   5.005   0.847   6.731
 2589SOL     OW 8665   0.782   6.374   5.889
 2589SOL    HW1 8666   0.872   6.341   5.918
 2589SOL    HW2 8667   0.729   6.298   5.853
 2590SOL     OW 8668   3.547   5.584   1.132
 2590SOL    HW1 8669   3.599   5.513   1.083
 2590SOL    HW2 8670   3.609   5.658   1.159
 2591SOL     OW 8671   6.983   4.595   3.159
 2591SOL    HW1 8672   6.999   4.517   3.099
 2591SOL    HW2 8673   6.928   4.664   3.111
 2592SOL     OW 8674   3.476   5.967   0.002
 2592SOL    HW1 8675   3.391   5.921   6.996
 2592SOL    HW2 8676   3.545   5.952   6.952
 2593SOL     OW 8677   3.742   5.457   0.979
 2593SOL    HW1 8678   3.735   5.461   0.880
 2593SOL    HW2 8679   3.810   5.388   1.005
 2594SOL     OW 8680   2.333   4.352   6.584
 2594SOL    HW1 8681   2.233   4.346   6.585
 2594SOL    HW2 8682   2.371   4.269   6.542
 2595SOL     OW 8683   6.836   0.904   3.738
 2595SOL    HW1 8684   6.817   0.821   3.685
 2595SOL    HW2 8685   6.754   0.961   3.741
 2596SOL     OW 8686   3.267   2.088   1.633
 2596SOL    HW1 8687   3.323   2.037   1.699
 2596SOL    HW2 8688   3.310   2.176   1.614
 2597SOL     OW 8689   1.067   4.942   5.558
 2597SOL    HW1 8690   1.156   4.903   5.535
 2597SOL    HW2 8691   1.039   4.912   5.649
 2598SOL     OW 8692   6.607   1.175   3.255
 2598SOL    HW1 8693   6.612   1.232   3.337
 2598SOL    HW2 8694   6.614   1.078   3.281
 2599SOL     OW 8695   1.721   6.304   1.221
 2599SOL    HW1 8696   1.725   6.281   1.318
 2599SOL    HW2 8697   1.652   6.248   1.176
 2600SOL     OW 8698   5.622   2.800   4.916
 2600SOL    HW1 8699   5.613   2.898   4.900
 2600SOL    HW2 8700   5.577   2.750   4.842
 2601SOL     OW 8701   1.605   1.523   2.280
 2601SOL    HW1 8702   1.596   1.528   2.380
 2601SOL    HW2 8703   1.515   1.519   2.238
 2602SOL     OW 8704   1.539   4.985   5.040
 2602SOL    HW1 8705   1.546   4.962   5.137
 2602SOL    HW2 8706   1.600   4.926   4.987
 2603SOL     OW 8707   2.990   1.153   4.031
 2603SOL    HW1 8708   3.013   1.240   3.988
 2603SOL    HW2 8709   3.020   1.154   4.127
 2604SOL     OW 8710   5.106   2.053   2.402
 2604SOL    HW1 8711   5.026   2.086   2.351
 2604SOL    HW2 8712   5.180   2.119   2.393
 2605SOL     OW 8713   2.087   3.473   3.466
 2605SOL    HW1 8714   2.097   3.381   3.430
 2605SOL    HW2 8715   2.084   3.538   3.390
 2606SOL     OW 8716   5.609   4.914   1.692
 2606SOL    HW1 8717   5.678   4.938   1.760
 2606SOL    HW2 8718   5.540   4.854   1.733
 2607SOL     OW 8719   1.086   1.532   2.034
 2607SOL    HW1 8720   1.118   1.612   1.982
 2607SOL    HW2 8721   1.062   1.458   1.971
 2608SOL     OW 8722   4.458   4.633   0.212
 2608SOL    HW1 8723   4.540   4.686   0.232
 2608SOL    HW2 8724   4.468   4.588   0.124
 2609SOL     OW 8725   6.237   0.936   1.725
 2609SOL    HW1 8726   6.325   0.963   1.686
 2609SOL    HW2 8727   6.253   0.884   1.809
 2610SOL     OW 8728   0.648   4.454   4.584
 2610SOL    HW1 8729   0.607   4.390   4.649
 2610SOL    HW2 8730   0.748   4.448   4.590
 2611SOL     OW 8731   4.286   6.051   1.030
 2611SOL    HW1 8732   4.363   6.021   0.973
 2611SOL    HW2 8733   4.201   6.040   0.979
 2612SOL     OW 8734   6.500   0.041   4.615
 2612SOL    HW1 8735   6.553   0.109   4.563
 2612SOL    HW2 8736   6.406   0.039   4.581
 2613SOL     OW 8737   2.257   5.771   6.063
 2613SOL    HW1 8738   2.196   5.850   6.062
 2613SOL    HW2 8739   2.203   5.687   6.056
 2614SOL     OW 8740   6.396   1.873   0.538
 2614SOL    HW1 8741   6.335   1.952   0.541
 2614SOL    HW2 8742   6.461   1.879   0.613
 2615SOL     OW 8743   0.926   2.741   2.500
 2615SOL    HW1 8744   1.018   2.751   2.461
 2615SOL    HW2 8745   0.928   2.762   2.598
 2616SOL     OW 8746   2.787   2.743   5.800
 2616SOL    HW1 8747   2.732   2.817   5.840
 2616SOL    HW2 8748   2.789   2.753   5.701
 2617SOL     OW 8749   4.418   0.180   0.814
 2617SOL    HW1 8750   4.413   0.227   0.902
 2617SOL    HW2 8751   4.485   0.226   0.755
 2618SOL     OW 8752   6.492   0.379   3.475
 2618SOL    HW1 8753   6.444   0.330   3.548
 2618SOL    HW2 8754   6.590   0.364   3.484
 2619SOL     OW 8755   4.635   2.140   1.900
 2619SOL    HW1 8756   4.550   2.117   1.853
 2619SOL    HW2 8757   4.628   2.233   1.938
 2620SOL     OW 8758   6.549   6.480   3.686
 2620SOL    HW1 8759   6.624   6.448   3.628
 2620SOL    HW2 8760   6.561   6.443   3.778
 2621SOL     OW 8761   1.221   5.202   1.737
 2621SOL    HW1 8762   1.139   5.215   1.792
 2621SOL    HW2 8763   1.301   5.229   1.789
 2622SOL     OW 8764   1.248   3.929   5.802
 2622SOL    HW1 8765   1.324   3.987   5.831
 2622SOL    HW2 8766   1.230   3.942   5.705
 2623SOL     OW 8767   0.304   0.764   5.512
 2623SOL    HW1 8768   0.304   0.853   5.558
 2623SOL    HW2 8769   0.211   0.731   5.503
 2624SOL     OW 8770   0.539   1.182   4.657
 2624SOL    HW1 8771   0.459   1.122   4.660
 2624SOL    HW2 8772   0.573   1.188   4.563
 2625SOL     OW 8773   2.508   3.643   5.391
 2625SOL    HW1 8774   2.578   3.589   5.438
 2625SOL    HW2 8775   2.430   3.584   5.367
 2626SOL     OW 8776   6.760   0.378   6.245
 2626SOL    HW1 8777   6.787   0.471   6.271
 2626SOL    HW2 8778   6.801   0.354   6.157
 2627SOL     OW 8779   1.113   1.319   6.285
 2627SOL    HW1 8780   1.053   1.269   6.222
 2627SOL    HW2 8781   1.197   1.267   6.300
 2628SOL     OW 8782   2.129   4.071   5.770
 2628SOL    HW1 8783   2.119   3.995   5.834
 2628SOL    HW2 8784   2.038   4.101   5.740
 2629SOL     OW 8785   3.772   2.958   2.321
 2629SOL    HW1 8786   3.779   2.963   2.221
 2629SOL    HW2 8787   3.862   2.974   2.361
 2630SOL     OW 8788   3.617   1.661   2.551
 2630SOL    HW1 8789   3.679   1.718   2.606
 2630SOL    HW2 8790   3.671   1.604   2.489
 2631SOL     OW 8791   5.404   0.522   6.066
 2631SOL    HW1 8792   5.405   0.439   6.010
 2631SOL    HW2 8793   5.412   0.497   6.162
 2632SOL     OW 8794   5.181   3.127   0.747
 2632SOL    HW1 8795   5.163   3.030   0.764
 2632SOL    HW2 8796   5.211   3.171   0.831
 2633SOL     OW 8797   0.541   1.626   4.459
 2633SOL    HW1 8798   0.480   1.680   4.517
 2633SOL    HW2 8799   0.504   1.533   4.449
 2634SOL     OW 8800   0.564   5.458   3.892
 2634SOL    HW1 8801   0.632   5.428   3.825
 2634SOL    HW2 8802   0.568   5.400   3.972
 2635SOL     OW 8803   0.192   5.923   4.520
 2635SOL    HW1 8804   0.134   5.845   4.542
 2635SOL    HW2 8805   0.160   5.967   4.436
 2636SOL     OW 8806   4.282   0.340   5.703
 2636SOL    HW1 8807   4.332   0.424   5.682
 2636SOL    HW2 8808   4.342   0.261   5.692
 2637SOL     OW 8809   6.396   2.163   3.306
 2637SOL    HW1 8810   6.447   2.224   3.368
 2637SOL    HW2 8811   6.356   2.217   3.232
 2638SOL     OW 8812   6.957   6.910   4.244
 2638SOL    HW1 8813   6.876   6.910   4.184
 2638SOL    HW2 8814   0.012   6.865   4.197
 2639SOL     OW 8815   0.274   6.241   0.478
 2639SOL    HW1 8816   0.308   6.229   0.385
 2639SOL    HW2 8817   0.212   6.320   0.481
 2640SOL     OW 8818   6.570   6.528   5.325
 2640SOL    HW1 8819   6.644   6.522   5.259
 2640SOL    HW2 8820   6.581   6.457   5.394
 2641SOL     OW 8821   5.781   2.998   2.280
 2641SOL    HW1 8822   5.816   2.965   2.368
 2641SOL    HW2 8823   5.850   2.982   2.209
 2642SOL     OW 8824   6.088   0.726   3.746
 2642SOL    HW1 8825   6.175   0.749   3.704
 2642SOL    HW2 8826   6.088   0.629   3.771
 2643SOL     OW 8827   1.436   3.491   3.623
 2643SOL    HW1 8828   1.360   3.555   3.636
 2643SOL    HW2 8829   1.445   3.469   3.525
 2644SOL     OW 8830   5.017   5.149   4.568
 2644SOL    HW1 8831   5.071   5.231   4.587
 2644SOL    HW2 8832   4.941   5.143   4.632
 2645SOL     OW 8833   4.363   6.017   3.350
 2645SOL    HW1 8834   4.439   5.959   3.319
 2645SOL    HW2 8835   4.287   6.009   3.286
 2646SOL     OW 8836   6.388   1.807   6.994
 2646SOL    HW1 8837   6.404   1.830   0.069
 2646SOL    HW2 8838   6.386   1.891   6.940
 2647SOL     OW 8839   6.517   0.117   1.890
 2647SOL    HW1 8840   6.605   0.160   1.870
 2647SOL    HW2 8841   6.476   0.085   1.804
 2648SOL     OW 8842   0.841   6.569   4.124
 2648SOL    HW1 8843   0.815   6.545   4.218
 2648SOL    HW2 8844   0.859   6.485   4.073
 2649SOL     OW 8845   6.560   3.428   0.995
 2649SOL    HW1 8846   6.614   3.357   0.949
 2649SOL    HW2 8847   6.478   3.449   0.941
 2650SOL     OW 8848   1.811   4.958   3.597
 2650SOL    HW1 8849   1.759   4.873   3.591
 2650SOL    HW2 8850   1.805   4.994   3.690
 2651SOL     OW 8851   2.692   1.887   1.244
 2651SOL    HW1 8852   2.604   1.841   1.235
 2651SOL    HW2 8853   2.754   1.858   1.171
 2652SOL     OW 8854   4.242   3.047   5.308
 2652SOL    HW1 8855   4.209   3.135   5.273
 2652SOL    HW2 8856   4.341   3.050   5.319
 2653SOL     OW 8857   4.410   6.560   6.011
 2653SOL    HW1 8858   4.369   6.514   6.090
 2653SOL    HW2 8859   4.405   6.659   6.025
 2654SOL     OW 8860   4.476   6.914   1.525
 2654SOL    HW1 8861   4.511   7.006   1.543
 2654SOL    HW2 8862   4.511   6.882   1.436
 2655SOL     OW 8863   5.463   6.075   3.731
 2655SOL    HW1 8864   5.458   6.142   3.805
 2655SOL    HW2 8865   5.462   6.122   3.643
 2656SOL     OW 8866   3.751   4.902   4.582
 2656SOL    HW1 8867   3.736   4.869   4.489
 2656SOL    HW2 8868   3.847   4.924   4.594
 2657SOL     OW 8869   1.822   4.229   6.642
 2657SOL    HW1 8870   1.876   4.226   6.558
 2657SOL    HW2 8871   1.881   4.208   6.720
 2658SOL     OW 8872   5.374   4.772   0.222
 2658SOL    HW1 8873   5.413   4.721   0.298
 2658SOL    HW2 8874   5.434   4.849   0.199
 2659SOL     OW 8875   4.967   3.181   4.842
 2659SOL    HW1 8876   4.958   3.121   4.920
 2659SOL    HW2 8877   4.884   3.178   4.787
 2660SOL     OW 8878   1.429   0.449   1.688
 2660SOL    HW1 8879   1.511   0.394   1.702
 2660SOL    HW2 8880   1.360   0.426   1.756
 2661SOL     OW 8881   2.354   6.808   1.203
 2661SOL    HW1 8882   2.296   6.812   1.122
 2661SOL    HW2 8883   2.381   6.714   1.220
 2662SOL     OW 8884   3.385   6.716   5.133
 2662SOL    HW1 8885   3.414   6.764   5.050
 2662SOL    HW2 8886   3.324   6.641   5.109
 2663SOL     OW 8887   4.215   3.949   6.884
 2663SOL    HW1 8888   4.277   3.957   6.806
 2663SOL    HW2 8889   4.199   4.040   6.923
 2664SOL     OW 8890   4.469   3.066   5.607
 2664SOL    HW1 8891   4.437   2.988   5.661
 2664SOL    HW2 8892   4.400   3.138   5.609
 2665SOL     OW 8893   2.667   3.303   5.441
 2665SOL    HW1 8894   2.697   3.247   5.364
 2665SOL    HW2 8895   2.588   3.260   5.484
 2666SOL     OW 8896   1.353   4.955   1.723
 2666SOL    HW1 8897   1.275   4.894   1.737
 2666SOL    HW2 8898   1.320   5.049   1.711
 2667SOL     OW 8899   1.452   5.474   4.034
 2667SOL    HW1 8900   1.548   5.464   4.060
 2667SOL    HW2 8901   1.396   5.480   4.116
 2668SOL     OW 8902   6.606   2.621   4.817
 2668SOL    HW1 8903   6.662   2.609   4.735
 2668SOL    HW2 8904   6.665   2.631   4.897
 2669SOL     OW 8905   2.810   5.257   6.054
 2669SOL    HW1 8906   2.886   5.244   6.117
 2669SOL    HW2 8907   2.836   5.227   5.962
 2670SOL     OW 8908   6.186   3.124   4.863
 2670SOL    HW1 8909   6.170   3.070   4.946
 2670SOL    HW2 8910   6.282   3.151   4.860
 2671SOL     OW 8911   4.290   5.478   0.042
 2671SOL    HW1 8912   4.219   5.463   6.994
 2671SOL    HW2 8913   4.321   5.389   0.077
 2672SOL     OW 8914   3.169   6.097   0.648
 2672SOL    HW1 8915   3.090   6.036   0.644
 2672SOL    HW2 8916   3.152   6.168   0.716
 2673SOL     OW 8917   6.249   2.142   1.923
 2673SOL    HW1 8918   6.165   2.088   1.927
 2673SOL    HW2 8919   6.229   2.237   1.948
 2674SOL     OW 8920   1.238   4.464   4.400
 2674SOL    HW1 8921   1.336   4.446   4.389
 2674SOL    HW2 8922   1.191   4.453   4.313
 2675SOL     OW 8923   6.561   6.299   3.949
 2675SOL    HW1 8924   6.612   6.372   3.995
 2675SOL    HW2 8925   6.481   6.275   4.003
 2676SOL     OW 8926   3.416   3.050   1.240
 2676SOL    HW1 8927   3.416   2.951   1.255
 2676SOL    HW2 8928   3.325   3.087   1.258
 2677SOL     OW 8929   2.824   4.046   0.812
 2677SOL    HW1 8930   2.797   3.967   0.756
 2677SOL    HW2 8931   2.866   4.115   0.754
 2678SOL     OW 8932   0.548   2.537   2.801
 2678SOL    HW1 8933   0.647   2.535   2.805
 2678SOL    HW2 8934   0.517   2.479   2.725
 2679SOL     OW 8935   2.125   5.034   2.703
 2679SOL    HW1 8936   2.209   5.030   2.649
 2679SOL    HW2 8937   2.049   5.063   2.644
 2680SOL     OW 8938   1.185   1.943   0.859
 2680SOL    HW1 8939   1.216   1.855   0.822
 2680SOL    HW2 8940   1.257   2.011   0.846
 2681SOL     OW 8941   1.245   2.383   4.809
 2681SOL    HW1 8942   1.167   2.441   4.829
 2681SOL    HW2 8943   1.252   2.368   4.710
 2682SOL     OW 8944   4.842   3.980   3.993
 2682SOL    HW1 8945   4.913   4.019   3.935
 2682SOL    HW2 8946   4.779   4.052   4.021
 2683SOL     OW 8947   2.650   4.631   2.134
 2683SOL    HW1 8948   2.570   4.600   2.083
 2683SOL    HW2 8949   2.728   4.637   2.072
 2684SOL     OW 8950   4.369   7.002   2.755
 2684SOL    HW1 8951   4.454   6.950   2.763
 2684SOL    HW2 8952   4.292   6.946   2.786
 2685SOL     OW 8953   5.755   5.785   5.707
 2685SOL    HW1 8954   5.767   5.704   5.649
 2685SOL    HW2 8955   5.844   5.815   5.740
 2686SOL     OW 8956   1.317   1.840   5.412
 2686SOL    HW1 8957   1.349   1.767   5.474
 2686SOL    HW2 8958   1.249   1.896   5.459
 2687SOL     OW 8959   4.490   5.662   1.091
 2687SOL    HW1 8960   4.394   5.659   1.063
 2687SOL    HW2 8961   4.512   5.579   1.143
 2688SOL     OW 8962   2.609   2.297   0.365
 2688SOL    HW1 8963   2.622   2.379   0.420
 2688SOL    HW2 8964   2.650   2.310   0.275
 2689SOL     OW 8965   6.985   3.610   2.002
 2689SOL    HW1 8966   0.004   3.522   2.027
 2689SOL    HW2 8967   6.999   3.675   2.077
 2690SOL     OW 8968   3.111   3.397   5.618
 2690SOL    HW1 8969   3.169   3.358   5.689
 2690SOL    HW2 8970   3.018   3.359   5.627
 2691SOL     OW 8971   0.299   5.074   3.771
 2691SOL    HW1 8972   0.241   5.032   3.702
 2691SOL    HW2 8973   0.349   5.003   3.821
 2692SOL     OW 8974   2.788   6.596   3.618
 2692SOL    HW1 8975   2.716   6.617   3.684
 2692SOL    HW2 8976   2.870   6.650   3.640
 2693SOL     OW 8977   2.797   4.819   3.986
 2693SOL    HW1 8978   2.839   4.822   3.895
 2693SOL    HW2 8979   2.704   4.856   3.981
 2694SOL     OW 8980   3.982   6.998   3.260
 2694SOL    HW1 8981   4.026   6.909   3.248
 2694SOL    HW2 8982   4.021   0.023   3.339
 2695SOL     OW 8983   6.030   0.426   3.183
 2695SOL    HW1 8984   6.071   0.378   3.260
 2695SOL    HW2 8985   6.092   0.496   3.150
 2696SOL     OW 8986   3.833   3.379   5.896
 2696SOL    HW1 8987   3.859   3.284   5.878
 2696SOL    HW2 8988   3.914   3.430   5.924
 2697SOL     OW 8989   3.625   1.682   3.203
 2697SOL    HW1 8990   3.638   1.614   3.131
 2697SOL    HW2 8991   3.545   1.738   3.182
 2698SOL     OW 8992   1.640   4.161   0.516
 2698SOL    HW1 8993   1.701   4.141   0.440
 2698SOL    HW2 8994   1.548   4.178   0.481
 2699SOL     OW 8995   2.822   5.604   1.224
 2699SOL    HW1 8996   2.781   5.695   1.213
 2699SOL    HW2 8997   2.920   5.613   1.237
 2700SOL     OW 8998   2.926   1.913   1.017
 2700SOL    HW1 8999   2.995   1.854   1.057
 2700SOL    HW2 9000   2.948   2.009   1.036
 2701SOL     OW 9001   4.857   2.085   6.144
 2701SOL    HW1 9002   4.773   2.033   6.156
 2701SOL    HW2 9003   4.921   2.062   6.218
 2702SOL     OW 9004   1.144   2.613   3.593
 2702SOL    HW1 9005   1.126   2.660   3.506
 2702SOL    HW2 9006   1.083   2.535   3.601
 2703SOL     OW 9007   0.718   5.931   0.923
 2703SOL    HW1 9008   0.748   5.884   0.840
 2703SOL    HW2 9009   0.651   6.001   0.900
 2704SOL     OW 9010   6.237   6.197   2.023
 2704SOL    HW1 9011   6.308   6.128   2.005
 2704SOL    HW2 9012   6.206   6.236   1.936
 2705SOL     OW 9013   6.437   0.185   5.144
 2705SOL    HW1 9014   6.489   0.108   5.106
 2705SOL    HW2 9015   6.478   0.213   5.231
 2706SOL     OW 9016   6.545   4.550   3.274
 2706SOL    HW1 9017   6.567   4.474   3.213
 2706SOL    HW2 9018   6.541   4.635   3.221
 2707SOL     OW 9019   3.456   0.102   4.316
 2707SOL    HW1 9020   3.487   0.186   4.273
 2707SOL    HW2 9021   3.534   0.057   4.361
 2708SOL     OW 9022   6.462   2.697   1.218
 2708SOL    HW1 9023   6.529   2.644   1.165
 2708SOL    HW2 9024   6.507   2.739   1.296
 2709SOL     OW 9025   5.262   6.745   0.060
 2709SOL    HW1 9026   5.235   6.839   0.078
 2709SOL    HW2 9027   5.286   6.734   6.984
 2710SOL     OW 9028   1.199   3.299   3.943
 2710SOL    HW1 9029   1.153   3.372   3.993
 2710SOL    HW2 9030   1.153   3.286   3.854
 2711SOL     OW 9031   2.742   0.723   4.000
 2711SOL    HW1 9032   2.655   0.721   4.049
 2711SOL    HW2 9033   2.755   0.636   3.953
 2712SOL     OW 9034   2.663   5.418   1.872
 2712SOL    HW1 9035   2.598   5.391   1.801
 2712SOL    HW2 9036   2.625   5.395   1.962
 2713SOL     OW 9037   2.475   3.482   6.226
 2713SOL    HW1 9038   2.437   3.494   6.318
 2713SOL    HW2 9039   2.567   3.444   6.233
 2714SOL     OW 9040   4.139   2.765   0.062
 2714SOL    HW1 9041   4.144   2.864   0.078
 2714SOL    HW2 9042   4.198   2.741   7.006
 2715SOL     OW 9043   5.058   2.412   0.466
 2715SOL    HW1 9044   5.127   2.466   0.420
 2715SOL    HW2 9045   5.070   2.420   0.565
 2716SOL     OW 9046   5.113   3.527   4.292
 2716SOL    HW1 9047   5.041   3.516   4.223
 2716SOL    HW2 9048   5.075   3.575   4.371
 2717SOL     OW 9049   0.703   6.921   1.836
 2717SOL    HW1 9050   0.636   6.995   1.832
 2717SOL    HW2 9051   0.712   6.889   1.931
 2718SOL     OW 9052   1.269   1.540   5.513
 2718SOL    HW1 9053   1.219   1.477   5.573
 2718SOL    HW2 9054   1.357   1.563   5.555
 2719SOL     OW 9055   0.898   5.079   1.501
 2719SOL    HW1 9056   0.883   5.120   1.411
 2719SOL    HW2 9057   0.811   5.074   1.550
 2720SOL     OW 9058   1.196   0.540   2.268
 2720SOL    HW1 9059   1.102   0.541   2.235
 2720SOL    HW2 9060   1.197   0.546   2.367
 2721SOL     OW 9061   2.967   6.293   2.985
 2721SOL    HW1 9062   3.000   6.221   2.924
 2721SOL    HW2 9063   3.002   6.278   3.077
 2722SOL     OW 9064   5.732   5.248   6.767
 2722SOL    HW1 9065   5.783   5.287   6.844
 2722SOL    HW2 9066   5.687   5.163   6.797
 2723SOL     OW 9067   1.415   5.910   6.835
 2723SOL    HW1 9068   1.366   5.986   6.793
 2723SOL    HW2 9069   1.376   5.823   6.806
 2724SOL     OW 9070   1.585   6.520   6.632
 2724SOL    HW1 9071   1.577   6.433   6.681
 2724SOL    HW2 9072   1.511   6.527   6.565
 2725SOL     OW 9073   5.213   4.718   4.792
 2725SOL    HW1 9074   5.172   4.693   4.879
 2725SOL    HW2 9075   5.302   4.761   4.808
 2726SOL     OW 9076   0.246   2.517   2.128
 2726SOL    HW1 9077   0.320   2.470   2.176
 2726SOL    HW2 9078   0.267   2.614   2.121
 2727SOL     OW 9079   0.470   4.531   4.374
 2727SOL    HW1 9080   0.550   4.507   4.429
 2727SOL    HW2 9081   0.388   4.488   4.413
 2728SOL     OW 9082   4.460   6.293   5.561
 2728SOL    HW1 9083   4.425   6.295   5.468
 2728SOL    HW2 9084   4.528   6.365   5.573
 2729SOL     OW 9085   6.928   6.507   0.807
 2729SOL    HW1 9086   6.856   6.464   0.752
 2729SOL    HW2 9087   7.017   6.471   0.781
 2730SOL     OW 9088   1.604   5.864   1.834
 2730SOL    HW1 9089   1.546   5.908   1.766
 2730SOL    HW2 9090   1.560   5.781   1.868
 2731SOL     OW 9091   2.902   3.492   3.370
 2731SOL    HW1 9092   2.917   3.408   3.319
 2731SOL    HW2 9093   2.911   3.570   3.308
 2732SOL     OW 9094   5.395   1.833   0.749
 2732SOL    HW1 9095   5.340   1.882   0.682
 2732SOL    HW2 9096   5.461   1.774   0.701
 2733SOL     OW 9097   6.551   1.640   5.065
 2733SOL    HW1 9098   6.461   1.598   5.078
 2733SOL    HW2 9099   6.540   1.739   5.055
 2734SOL     OW 9100   3.040   5.364   0.957
 2734SOL    HW1 9101   3.076   5.326   1.042
 2734SOL    HW2 9102   3.103   5.433   0.921
 2735SOL     OW 9103   1.595   2.575   2.005
 2735SOL    HW1 9104   1.593   2.487   1.957
 2735SOL    HW2 9105   1.514   2.583   2.064
 2736SOL     OW 9106   6.991   6.198   4.684
 2736SOL    HW1 9107   6.925   6.126   4.704
 2736SOL    HW2 9108   0.060   6.171   4.718
 2737SOL     OW 9109   2.845   3.803   5.642
 2737SOL    HW1 9110   2.758   3.834   5.604
 2737SOL    HW2 9111   2.881   3.728   5.587
 2738SOL     OW 9112   5.270   5.936   1.984
 2738SOL    HW1 9113   5.240   5.943   2.079
 2738SOL    HW2 9114   5.342   5.867   1.977
 2739SOL     OW 9115   1.191   4.821   0.693
 2739SOL    HW1 9116   1.241   4.833   0.778
 2739SOL    HW2 9117   1.232   4.877   0.621
 2740SOL     OW 9118   6.654   4.846   1.196
 2740SOL    HW1 9119   6.711   4.770   1.227
 2740SOL    HW2 9120   6.560   4.815   1.184
 2741SOL     OW 9121   6.534   0.708   4.325
 2741SOL    HW1 9122   6.595   0.700   4.247
 2741SOL    HW2 9123   6.448   0.661   4.305
 2742SOL     OW 9124   1.852   4.924   0.441
 2742SOL    HW1 9125   1.877   4.970   0.527
 2742SOL    HW2 9126   1.916   4.850   0.423
 2743SOL     OW 9127   0.537   4.385   2.739
 2743SOL    HW1 9128   0.567   4.410   2.647
 2743SOL    HW2 9129   0.438   4.380   2.741
 2744SOL     OW 9130   4.497   2.701   0.370
 2744SOL    HW1 9131   4.577   2.663   0.324
 2744SOL    HW2 9132   4.438   2.628   0.403
 2745SOL     OW 9133   7.018   1.013   4.639
 2745SOL    HW1 9134   6.988   0.976   4.551
 2745SOL    HW2 9135   6.947   1.073   4.676
 2746SOL     OW 9136   1.000   2.624   5.159
 2746SOL    HW1 9137   1.079   2.570   5.187
 2746SOL    HW2 9138   0.956   2.664   5.239
 2747SOL     OW 9139   4.862   5.455   6.798
 2747SOL    HW1 9140   4.910   5.538   6.825
 2747SOL    HW2 9141   4.923   5.396   6.746
 2748SOL     OW 9142   4.472   1.431   2.806
 2748SOL    HW1 9143   4.536   1.437   2.883
 2748SOL    HW2 9144   4.450   1.335   2.788
 2749SOL     OW 9145   6.747   4.546   1.018
 2749SOL    HW1 9146   6.812   4.472   1.000
 2749SOL    HW2 9147   6.758   4.579   1.112
 2750SOL     OW 9148   2.186   4.119   1.656
 2750SOL    HW1 9149   2.163   4.137   1.561
 2750SOL    HW2 9150   2.143   4.034   1.686
 2751SOL     OW 9151   1.271   2.786   1.343
 2751SOL    HW1 9152   1.228   2.749   1.426
 2751SOL    HW2 9153   1.350   2.841   1.370
 2752SOL     OW 9154   3.400   4.851   5.766
 2752SOL    HW1 9155   3.496   4.878   5.773
 2752SOL    HW2 9156   3.355   4.866   5.854
 2753SOL     OW 9157   6.891   6.714   4.764
 2753SOL    HW1 9158   6.929   6.731   4.673
 2753SOL    HW2 9159   6.965   6.717   4.832
 2754SOL     OW 9160   0.500   0.288   1.020
 2754SOL    HW1 9161   0.538   0.319   1.107
 2754SOL    HW2 9162   0.558   0.217   0.981
 2755SOL     OW 9163   3.521   6.734   2.318
 2755SOL    HW1 9164   3.586   6.657   2.318
 2755SOL    HW2 9165   3.569   6.818   2.292
 2756SOL     OW 9166   4.997   5.660   6.887
 2756SOL    HW1 9167   4.932   5.682   6.960
 2756SOL    HW2 9168   4.977   5.716   6.807
 2757SOL     OW 9169   2.537   6.391   0.267
 2757SOL    HW1 9170   2.499   6.299   0.270
 2757SOL    HW2 9171   2.507   6.437   0.184
 2758SOL     OW 9172   3.945   6.765   3.776
 2758SOL    HW1 9173   4.019   6.724   3.723
 2758SOL    HW2 9174   3.979   6.845   3.825
 2759SOL     OW 9175   5.430   6.282   5.778
 2759SOL    HW1 9176   5.391   6.287   5.870
 2759SOL    HW2 9177   5.528   6.269   5.785
 2760SOL     OW 9178   7.019   5.887   1.749
 2760SOL    HW1 9179   0.096   5.896   1.769
 2760SOL    HW2 9180   7.005   5.812   1.684
 2761SOL     OW 9181   1.993   5.240   4.527
 2761SOL    HW1 9182   1.950   5.242   4.617
 2761SOL    HW2 9183   2.075   5.183   4.530
 2762SOL     OW 9184   1.469   1.125   5.572
 2762SOL    HW1 9185   1.546   1.179   5.605
 2762SOL    HW2 9186   1.484   1.100   5.476
 2763SOL     OW 9187   4.899   1.644   3.565
 2763SOL    HW1 9188   4.849   1.629   3.650
 2763SOL    HW2 9189   4.918   1.742   3.554
 2764SOL     OW 9190   5.779   1.116   1.282
 2764SOL    HW1 9191   5.681   1.129   1.301
 2764SOL    HW2 9192   5.831   1.188   1.327
 2765SOL     OW 9193   5.736   0.452   0.964
 2765SOL    HW1 9194   5.686   0.373   1.000
 2765SOL    HW2 9195   5.833   0.442   0.984
 2766SOL     OW 9196   4.278   2.059   0.234
 2766SOL    HW1 9197   4.253   1.976   0.285
 2766SOL    HW2 9198   4.291   2.135   0.297
 2767SOL     OW 9199   6.987   5.440   0.410
 2767SOL    HW1 9200   6.931   5.382   0.351
 2767SOL    HW2 9201   6.935   5.523   0.433
 2768SOL     OW 9202   4.606   0.439   0.865
 2768SOL    HW1 9203   4.699   0.424   0.897
 2768SOL    HW2 9204   4.607   0.454   0.766
 2769SOL     OW 9205   0.595   4.041   4.380
 2769SOL    HW1 9206   0.663   4.022   4.451
 2769SOL    HW2 9207   0.633   4.102   4.312
 2770SOL     OW 9208   3.100   5.464   5.910
 2770SOL    HW1 9209   3.160   5.534   5.950
 2770SOL    HW2 9210   3.045   5.505   5.838
 2771SOL     OW 9211   6.542   0.714   3.089
 2771SOL    HW1 9212   6.538   0.656   3.170
 2771SOL    HW2 9213   6.632   0.757   3.083
 2772SOL     OW 9214   4.197   1.891   0.731
 2772SOL    HW1 9215   4.108   1.853   0.754
 2772SOL    HW2 9216   4.205   1.984   0.768
 2773SOL     OW 9217   5.925   2.151   5.504
 2773SOL    HW1 9218   5.898   2.247   5.503
 2773SOL    HW2 9219   6.021   2.144   5.532
 2774SOL     OW 9220   5.797   3.510   3.119
 2774SOL    HW1 9221   5.828   3.603   3.140
 2774SOL    HW2 9222   5.742   3.476   3.195
 2775SOL     OW 9223   6.741   5.530   7.020
 2775SOL    HW1 9224   6.794   5.466   6.963
 2775SOL    HW2 9225   6.648   5.495   0.011
 2776SOL     OW 9226   4.283   4.885   5.824
 2776SOL    HW1 9227   4.214   4.890   5.897
 2776SOL    HW2 9228   4.253   4.939   5.746
 2777SOL     OW 9229   2.903   1.294   1.988
 2777SOL    HW1 9230   2.822   1.243   1.958
 2777SOL    HW2 9231   2.883   1.392   1.986
 2778SOL     OW 9232   1.238   0.165   5.663
 2778SOL    HW1 9233   1.266   0.124   5.576
 2778SOL    HW2 9234   1.221   0.093   5.730
 2779SOL     OW 9235   4.969   6.092   0.793
 2779SOL    HW1 9236   4.997   6.167   0.853
 2779SOL    HW2 9237   4.884   6.052   0.827
 2780SOL     OW 9238   6.319   6.396   6.873
 2780SOL    HW1 9239   6.309   6.451   6.956
 2780SOL    HW2 9240   6.243   6.415   6.811
 2781SOL     OW 9241   5.216   6.291   1.652
 2781SOL    HW1 9242   5.142   6.226   1.632
 2781SOL    HW2 9243   5.184   6.384   1.634
 2782SOL     OW 9244   3.945   1.842   5.479
 2782SOL    HW1 9245   3.925   1.778   5.553
 2782SOL    HW2 9246   3.944   1.794   5.392
 2783SOL     OW 9247   5.086   4.121   3.934
 2783SOL    HW1 9248   5.124   4.212   3.918
 2783SOL    HW2 9249   5.121   4.057   3.865
 2784SOL     OW 9250   3.764   1.355   0.992
 2784SOL    HW1 9251   3.731   1.318   1.079
 2784SOL    HW2 9252   3.847   1.306   0.964
 2785SOL     OW 9253   4.981   1.397   0.959
 2785SOL    HW1 9254   4.887   1.378   0.931
 2785SOL    HW2 9255   4.981   1.460   1.037
 2786SOL     OW 9256   4.845   6.042   1.838
 2786SOL    HW1 9257   4.788   6.023   1.917
 2786SOL    HW2 9258   4.916   5.972   1.831
 2787SOL     OW 9259   3.383   1.886   6.682
 2787SOL    HW1 9260   3.369   1.933   6.770
 2787SOL    HW2 9261   3.313   1.816   6.671
 2788SOL     OW 9262   2.360   4.636   6.033
 2788SOL    HW1 9263   2.325   4.561   6.089
 2788SOL    HW2 9264   2.420   4.599   5.962
 2789SOL     OW 9265   2.161   2.248   3.341
 2789SOL    HW1 9266   2.197   2.325   3.289
 2789SOL    HW2 9267   2.175   2.265   3.439
 2790SOL     OW 9268   3.177   5.914   2.027
 2790SOL    HW1 9269   3.119   5.861   2.088
 2790SOL    HW2 9270   3.122   5.950   1.951
 2791SOL     OW 9271   1.286   3.928   3.356
 2791SOL    HW1 9272   1.282   3.942   3.455
 2791SOL    HW2 9273   1.194   3.940   3.318
 2792SOL     OW 9274   1.240   6.788   3.942
 2792SOL    HW1 9275   1.255   6.732   3.860
 2792SOL    HW2 9276   1.323   6.837   3.965
 2793SOL     OW 9277   4.854   3.686   2.849
 2793SOL    HW1 9278   4.930   3.695   2.785
 2793SOL    HW2 9279   4.848   3.768   2.906
 2794SOL     OW 9280   0.409   3.047   0.163
 2794SOL    HW1 9281   0.311   3.045   0.144
 2794SOL    HW2 9282   0.430   2.985   0.239
 2795SOL     OW 9283   1.915   2.722   0.690
 2795SOL    HW1 9284   2.013   2.737   0.675
 2795SOL    HW2 9285   1.882   2.650   0.629
 2796SOL     OW 9286   6.652   5.548   2.454
 2796SOL    HW1 9287   6.665   5.597   2.540
 2796SOL    HW2 9288   6.741   5.525   2.415
 2797SOL     OW 9289   5.749   5.154   4.605
 2797SOL    HW1 9290   5.776   5.236   4.553
 2797SOL    HW2 9291   5.785   5.160   4.698
 2798SOL     OW 9292   0.527   5.546   1.620
 2798SOL    HW1 9293   0.595   5.477   1.598
 2798SOL    HW2 9294   0.572   5.626   1.661
 2799SOL     OW 9295   6.542   6.748   0.139
 2799SOL    HW1 9296   6.445   6.721   0.137
 2799SOL    HW2 9297   6.584   6.713   0.223
 2800SOL     OW 9298   4.490   5.227   0.129
 2800SOL    HW1 9299   4.540   5.208   0.214
 2800SOL    HW2 9300   4.554   5.259   0.060
 2801SOL     OW 9301   5.702   5.211   5.181
 2801SOL    HW1 9302   5.628   5.251   5.127
 2801SOL    HW2 9303   5.693   5.239   5.276
 2802SOL     OW 9304   4.607   1.412   5.409
 2802SOL    HW1 9305   4.577   1.456   5.324
 2802SOL    HW2 9306   4.693   1.453   5.440
 2803SOL     OW 9307   3.749   5.904   6.267
 2803SOL    HW1 9308   3.765   5.989   6.218
 2803SOL    HW2 9309   3.651   5.885   6.269
 2804SOL     OW 9310   0.173   4.706   4.839
 2804SOL    HW1 9311   0.115   4.635   4.800
 2804SOL    HW2 9312   0.215   4.672   4.924
 2805SOL     OW 9313   5.319   3.101   2.020
 2805SOL    HW1 9314   5.236   3.047   2.036
 2805SOL    HW2 9315   5.297   3.198   2.023
 2806SOL     OW 9316   6.446   5.110   5.032
 2806SOL    HW1 9317   6.486   5.039   5.091
 2806SOL    HW2 9318   6.367   5.150   5.078
 2807SOL     OW 9319   4.816   5.606   3.294
 2807SOL    HW1 9320   4.858   5.634   3.208
 2807SOL    HW2 9321   4.821   5.681   3.360
 2808SOL     OW 9322   5.344   3.756   2.591
 2808SOL    HW1 9323   5.301   3.834   2.636
 2808SOL    HW2 9324   5.305   3.744   2.499
 2809SOL     OW 9325   6.182   3.069   1.206
 2809SOL    HW1 9326   6.252   3.137   1.180
 2809SOL    HW2 9327   6.199   2.984   1.155
 2810SOL     OW 9328   3.167   5.824   4.064
 2810SOL    HW1 9329   3.212   5.806   4.152
 2810SOL    HW2 9330   3.235   5.846   3.995
 2811SOL     OW 9331   1.248   1.435   3.494
 2811SOL    HW1 9332   1.335   1.400   3.458
 2811SOL    HW2 9333   1.256   1.534   3.508
 2812SOL     OW 9334   4.950   4.077   6.768
 2812SOL    HW1 9335   4.926   4.007   6.835
 2812SOL    HW2 9336   4.871   4.094   6.708
 2813SOL     OW 9337   6.482   6.950   5.769
 2813SOL    HW1 9338   6.394   6.967   5.725
 2813SOL    HW2 9339   6.546   6.914   5.701
 2814SOL     OW 9340   4.587   3.395   6.261
 2814SOL    HW1 9341   4.665   3.333   6.269
 2814SOL    HW2 9342   4.580   3.428   6.167
 2815SOL     OW 9343   6.022   0.463   5.625
 2815SOL    HW1 9344   6.102   0.462   5.685
 2815SOL    HW2 9345   5.941   0.488   5.677
 2816SOL     OW 9346   6.620   5.389   3.673
 2816SOL    HW1 9347   6.614   5.390   3.773
 2816SOL    HW2 9348   6.678   5.313   3.644
 2817SOL     OW 9349   2.717   6.936   1.289
 2817SOL    HW1 9350   2.785   7.004   1.263
 2817SOL    HW2 9351   2.627   6.964   1.255
 2818SOL     OW 9352   0.029   0.579   0.580
 2818SOL    HW1 9353   6.961   0.533   0.569
 2818SOL    HW2 9354   0.040   0.648   0.509
 2819SOL     OW 9355   0.706   1.301   1.370
 2819SOL    HW1 9356   0.740   1.254   1.289
 2819SOL    HW2 9357   0.615   1.266   1.393
 2820SOL     OW 9358   0.896   2.133   3.097
 2820SOL    HW1 9359   0.912   2.064   3.027
 2820SOL    HW2 9360   0.799   2.133   3.122
 2821SOL     OW 9361   3.970   3.423   0.265
 2821SOL    HW1 9362   3.985   3.506   0.318
 2821SOL    HW2 9363   3.924   3.446   0.179
 2822SOL     OW 9364   4.173   1.582   6.945
 2822SOL    HW1 9365   4.101   1.632   6.993
 2822SOL    HW2 9366   4.244   1.646   6.916
 2823SOL     OW 9367   4.338   6.421   0.539
 2823SOL    HW1 9368   4.371   6.328   0.555
 2823SOL    HW2 9369   4.311   6.431   0.443
 2824SOL     OW 9370   2.526   0.907   3.280
 2824SOL    HW1 9371   2.470   0.976   3.326
 2824SOL    HW2 9372   2.616   0.947   3.258
 2825SOL     OW 9373   6.543   0.105   6.912
 2825SOL    HW1 9374   6.529   0.059   6.825
 2825SOL    HW2 9375   6.584   0.195   6.897
 2826SOL     OW 9376   4.877   0.869   0.026
 2826SOL    HW1 9377   4.820   0.936   6.999
 2826SOL    HW2 9378   4.905   0.797   6.983
 2827SOL     OW 9379   6.956   0.566   5.325
 2827SOL    HW1 9380   6.887   0.495   5.310
 2827SOL    HW2 9381   6.914   0.644   5.371
 2828SOL     OW 9382   3.248   0.564   6.960
 2828SOL    HW1 9383   3.210   0.488   7.013
 2828SOL    HW2 9384   3.173   0.616   6.920
 2829SOL     OW 9385   3.436   3.650   5.290
 2829SOL    HW1 9386   3.373   3.674   5.216
 2829SOL    HW2 9387   3.385   3.633   5.374
 2830SOL     OW 9388   1.450   3.252   6.078
 2830SOL    HW1 9389   1.385   3.326   6.088
 2830SOL    HW2 9390   1.525   3.280   6.018
 2831SOL     OW 9391   0.802   5.726   3.657
 2831SOL    HW1 9392   0.885   5.692   3.613
 2831SOL    HW2 9393   0.722   5.682   3.615
 2832SOL     OW 9394   1.296   1.551   2.352
 2832SOL    HW1 9395   1.364   1.561   2.425
 2832SOL    HW2 9396   1.205   1.543   2.391
 2833SOL     OW 9397   4.132   1.837   2.212
 2833SOL    HW1 9398   4.135   1.878   2.303
 2833SOL    HW2 9399   4.037   1.837   2.179
 2834SOL     OW 9400   3.303   5.416   6.666
 2834SOL    HW1 9401   3.283   5.468   6.583
 2834SOL    HW2 9402   3.342   5.327   6.640
 2835SOL     OW 9403   7.008   0.293   1.538
 2835SOL    HW1 9404   6.940   0.259   1.602
 2835SOL    HW2 9405   6.963   0.329   1.457
 2836SOL     OW 9406   5.906   0.511   2.234
 2836SOL    HW1 9407   5.982   0.575   2.220
 2836SOL    HW2 9408   5.931   0.447   2.307
 2837SOL     OW 9409   5.562   4.158   2.827
 2837SOL    HW1 9410   5.578   4.142   2.730
 2837SOL    HW2 9411   5.580   4.075   2.878
 2838SOL     OW 9412   2.222   4.384   1.067
 2838SOL    HW1 9413   2.241   4.457   1.001
 2838SOL    HW2 9414   2.307   4.339   1.091
 2839SOL     OW 9415   0.042   1.764   1.669
 2839SOL    HW1 9416   7.012   1.845   1.639
 2839SOL    HW2 9417   0.047   1.698   1.593
 2840SOL     OW 9418   2.126   0.791   3.363
 2840SOL    HW1 9419   2.105   0.693   3.362
 2840SOL    HW2 9420   2.167   0.816   3.450
 2841SOL     OW 9421   0.212   0.789   6.149
 2841SOL    HW1 9422   0.135   0.726   6.146
 2841SOL    HW2 9423   0.292   0.742   6.186
 2842SOL     OW 9424   6.865   3.857   3.858
 2842SOL    HW1 9425   6.917   3.771   3.858
 2842SOL    HW2 9426   6.768   3.836   3.845
 2843SOL     OW 9427   2.714   1.457   3.144
 2843SOL    HW1 9428   2.670   1.413   3.222
 2843SOL    HW2 9429   2.727   1.554   3.163
 2844SOL     OW 9430   0.033   5.416   0.013
 2844SOL    HW1 9431   0.000   5.510   7.018
 2844SOL    HW2 9432   0.117   5.419   0.067
 2845SOL     OW 9433   6.471   3.047   1.381
 2845SOL    HW1 9434   6.475   3.055   1.480
 2845SOL    HW2 9435   6.419   2.965   1.356
 2846SOL     OW 9436   4.292   0.820   6.340
 2846SOL    HW1 9437   4.249   0.730   6.343
 2846SOL    HW2 9438   4.250   0.879   6.408
 2847SOL     OW 9439   5.092   3.716   3.909
 2847SOL    HW1 9440   5.022   3.742   3.843
 2847SOL    HW2 9441   5.180   3.755   3.881
 2848SOL     OW 9442   1.372   3.172   5.804
 2848SOL    HW1 9443   1.418   3.221   5.731
 2848SOL    HW2 9444   1.419   3.190   5.891
 2849SOL     OW 9445   4.065   5.988   0.870
 2849SOL    HW1 9446   3.989   6.026   0.818
 2849SOL    HW2 9447   4.121   5.929   0.811
 2850SOL     OW 9448   2.109   0.433   2.062
 2850SOL    HW1 9449   2.069   0.520   2.032
 2850SOL    HW2 9450   2.148   0.443   2.153
 2851SOL     OW 9451   6.452   1.647   5.633
 2851SOL    HW1 9452   6.491   1.623   5.544
 2851SOL    HW2 9453   6.362   1.605   5.642
 2852SOL     OW 9454   5.515   4.915   6.821
 2852SOL    HW1 9455   5.570   4.844   6.866
 2852SOL    HW2 9456   5.556   4.938   6.733
 2853SOL     OW 9457   1.639   3.043   6.805
 2853SOL    HW1 9458   1.709   3.038   6.876
 2853SOL    HW2 9459   1.665   2.983   6.729
 2854SOL     OW 9460   3.988   1.307   5.098
 2854SOL    HW1 9461   4.076   1.311   5.146
 2854SOL    HW2 9462   3.924   1.251   5.151
 2855SOL     OW 9463   2.693   1.633   6.885
 2855SOL    HW1 9464   2.726   1.581   6.807
 2855SOL    HW2 9465   2.650   1.718   6.853
 2856SOL     OW 9466   1.417   2.954   6.051
 2856SOL    HW1 9467   1.433   3.046   6.016
 2856SOL    HW2 9468   1.452   2.887   5.986
 2857SOL     OW 9469   2.988   1.685   2.017
 2857SOL    HW1 9470   3.010   1.749   1.943
 2857SOL    HW2 9471   3.057   1.691   2.088
 2858SOL     OW 9472   4.783   4.037   2.665
 2858SOL    HW1 9473   4.761   4.119   2.614
 2858SOL    HW2 9474   4.726   3.961   2.633
 2859SOL     OW 9475   4.715   1.915   6.767
 2859SOL    HW1 9476   4.764   1.828   6.754
 2859SOL    HW2 9477   4.714   1.965   6.680
 2860SOL     OW 9478   3.501   1.934   1.476
 2860SOL    HW1 9479   3.532   1.944   1.570
 2860SOL    HW2 9480   3.555   1.863   1.430
 2861SOL     OW 9481   3.825   3.875   5.419
 2861SOL    HW1 9482   3.797   3.783   5.391
 2861SOL    HW2 9483   3.745   3.935   5.422
 2862SOL     OW 9484   5.235   1.604   3.149
 2862SOL    HW1 9485   5.217   1.515   3.106
 2862SOL    HW2 9486   5.290   1.660   3.087
 2863SOL     OW 9487   5.414   0.977   6.859
 2863SOL    HW1 9488   5.446   0.885   6.840
 2863SOL    HW2 9489   5.492   1.038   6.871
 2864SOL     OW 9490   4.324   1.758   1.467
 2864SOL    HW1 9491   4.371   1.750   1.379
 2864SOL    HW2 9492   4.383   1.724   1.540
 2865SOL     OW 9493   4.422   4.094   6.362
 2865SOL    HW1 9494   4.470   4.006   6.368
 2865SOL    HW2 9495   4.412   4.120   6.266
 2866SOL     OW 9496   6.564   5.403   0.585
 2866SOL    HW1 9497   6.632   5.333   0.605
 2866SOL    HW2 9498   6.515   5.428   0.669
 2867SOL     OW 9499   5.886   4.067   2.650
 2867SOL    HW1 9500   5.873   4.023   2.739
 2867SOL    HW2 9501   5.952   4.015   2.597
 2868SOL     OW 9502   0.332   1.837   5.452
 2868SOL    HW1 9503   0.367   1.752   5.491
 2868SOL    HW2 9504   0.290   1.892   5.523
 2869SOL     OW 9505   6.329   0.725   2.927
 2869SOL    HW1 9506   6.407   0.724   2.990
 2869SOL    HW2 9507   6.288   0.634   2.923
 2870SOL     OW 9508   0.133   1.423   4.456
 2870SOL    HW1 9509   0.121   1.381   4.546
 2870SOL    HW2 9510   0.229   1.415   4.428
 2871SOL     OW 9511   0.359   1.838   0.325
 2871SOL    HW1 9512   0.319   1.809   0.412
 2871SOL    HW2 9513   0.415   1.919   0.339
 2872SOL     OW 9514   2.729   1.091   3.198
 2872SOL    HW1 9515   2.705   1.079   3.101
 2872SOL    HW2 9516   2.774   1.179   3.210
 2873SOL     OW 9517   0.018   4.674   2.859
 2873SOL    HW1 9518   0.017   4.702   2.763
 2873SOL    HW2 9519   0.100   4.621   2.877
 2874SOL     OW 9520   3.610   6.616   3.484
 2874SOL    HW1 9521   3.686   6.680   3.491
 2874SOL    HW2 9522   3.528   6.657   3.525
 2875SOL     OW 9523   5.148   6.784   0.540
 2875SOL    HW1 9524   5.088   6.705   0.551
 2875SOL    HW2 9525   5.209   6.768   0.463
 2876SOL     OW 9526   1.079   6.957   1.875
 2876SOL    HW1 9527   1.149   6.948   1.946
 2876SOL    HW2 9528   1.008   7.021   1.907
 2877SOL     OW 9529   3.200   2.545   5.369
 2877SOL    HW1 9530   3.167   2.482   5.298
 2877SOL    HW2 9531   3.297   2.564   5.353
 2878SOL     OW 9532   4.874   4.753   4.476
 2878SOL    HW1 9533   4.942   4.681   4.462
 2878SOL    HW2 9534   4.885   4.793   4.567
 2879SOL     OW 9535   5.350   4.840   0.549
 2879SOL    HW1 9536   5.253   4.833   0.526
 2879SOL    HW2 9537   5.389   4.748   0.556
 2880SOL     OW 9538   5.979   0.136   1.643
 2880SOL    HW1 9539   5.910   0.126   1.572
 2880SOL    HW2 9540   5.935   0.171   1.727
 2881SOL     OW 9541   5.292   6.027   6.901
 2881SOL    HW1 9542   5.389   6.045   6.916
 2881SOL    HW2 9543   5.245   6.017   6.988
 2882SOL     OW 9544   0.518   4.109   2.726
 2882SOL    HW1 9545   0.604   4.087   2.680
 2882SOL    HW2 9546   0.516   4.207   2.747
 2883SOL     OW 9547   6.067   0.467   3.783
 2883SOL    HW1 9548   5.988   0.507   3.736
 2883SOL    HW2 9549   6.048   0.370   3.802
 2884SOL     OW 9550   0.738   6.196   3.151
 2884SOL    HW1 9551   0.672   6.125   3.178
 2884SOL    HW2 9552   0.688   6.281   3.132
 2885SOL     OW 9553   0.774   2.951   2.436
 2885SOL    HW1 9554   0.817   2.870   2.476
 2885SOL    HW2 9555   0.845   3.012   2.401
 2886SOL     OW 9556   2.564   4.230   5.781
 2886SOL    HW1 9557   2.563   4.247   5.682
 2886SOL    HW2 9558   2.653   4.194   5.807
 2887SOL     OW 9559   0.675   0.333   4.411
 2887SOL    HW1 9560   0.601   0.312   4.475
 2887SOL    HW2 9561   0.705   0.427   4.424
 2888SOL     OW 9562   0.574   4.345   6.992
 2888SOL    HW1 9563   0.592   4.443   6.999
 2888SOL    HW2 9564   0.476   4.330   6.979
 2889SOL     OW 9565   1.707   0.160   2.021
 2889SOL    HW1 9566   1.802   0.152   2.052
 2889SOL    HW2 9567   1.706   0.200   1.929
 2890SOL     OW 9568   2.773   6.383   0.670
 2890SOL    HW1 9569   2.798   6.442   0.747
 2890SOL    HW2 9570   2.827   6.299   0.673
 2891SOL     OW 9571   1.183   4.308   3.430
 2891SOL    HW1 9572   1.116   4.288   3.502
 2891SOL    HW2 9573   1.137   4.315   3.342
 2892SOL     OW 9574   5.412   3.673   0.027
 2892SOL    HW1 9575   5.347   3.692   6.974
 2892SOL    HW2 9576   5.390   3.586   0.069
 2893SOL     OW 9577   0.387   6.080   4.635
 2893SOL    HW1 9578   0.374   6.145   4.560
 2893SOL    HW2 9579   0.326   6.001   4.621
 2894SOL     OW 9580   2.317   2.379   1.256
 2894SOL    HW1 9581   2.284   2.384   1.351
 2894SOL    HW2 9582   2.261   2.313   1.205
 2895SOL     OW 9583   4.562   2.314   5.916
 2895SOL    HW1 9584   4.561   2.267   6.005
 2895SOL    HW2 9585   4.653   2.351   5.899
 2896SOL     OW 9586   3.986   5.268   6.397
 2896SOL    HW1 9587   3.974   5.173   6.426
 2896SOL    HW2 9588   3.920   5.290   6.325
 2897SOL     OW 9589   3.396   4.916   3.378
 2897SOL    HW1 9590   3.427   5.007   3.353
 2897SOL    HW2 9591   3.422   4.851   3.307
 2898SOL     OW 9592   3.796   5.580   3.951
 2898SOL    HW1 9593   3.791   5.678   3.968
 2898SOL    HW2 9594   3.800   5.530   4.038
 2899SOL     OW 9595   0.563   1.907   0.710
 2899SOL    HW1 9596   0.587   1.989   0.657
 2899SOL    HW2 9597   0.625   1.833   0.686
 2900SOL     OW 9598   2.126   4.535   5.254
 2900SOL    HW1 9599   2.168   4.453   5.291
 2900SOL    HW2 9600   2.028   4.535   5.275
 2901SOL     OW 9601   2.201   6.185   3.886
 2901SOL    HW1 9602   2.178   6.239   3.967
 2901SOL    HW2 9603   2.285   6.133   3.903
 2902SOL     OW 9604   4.680   6.735   2.151
 2902SOL    HW1 9605   4.590   6.691   2.154
 2902SOL    HW2 9606   4.751   6.666   2.140
 2903SOL     OW 9607   3.799   0.666   0.648
 2903SOL    HW1 9608   3.782   0.762   0.626
 2903SOL    HW2 9609   3.717   0.626   0.690
 2904SOL     OW 9610   2.241   3.946   5.359
 2904SOL    HW1 9611   2.193   4.026   5.324
 2904SOL    HW2 9612   2.328   3.935   5.311
 2905SOL     OW 9613   1.476   2.462   3.901
 2905SOL    HW1 9614   1.460   2.560   3.891
 2905SOL    HW2 9615   1.572   2.442   3.882
 2906SOL     OW 9616   4.618   6.025   2.481
 2906SOL    HW1 9617   4.636   5.995   2.387
 2906SOL    HW2 9618   4.693   6.082   2.512
 2907SOL     OW 9619   0.745   1.825   3.763
 2907SOL    HW1 9620   0.816   1.849   3.697
 2907SOL    HW2 9621   0.786   1.775   3.839
 2908SOL     OW 9622   4.458   6.146   4.249
 2908SOL    HW1 9623   4.501   6.086   4.317
 2908SOL    HW2 9624   4.392   6.205   4.294
 2909SOL     OW 9625   1.326   6.601   3.429
 2909SOL    HW1 9626   1.282   6.523   3.385
 2909SOL    HW2 9627   1.307   6.684   3.377
 2910SOL     OW 9628   4.564   6.686   4.663
 2910SOL    HW1 9629   4.617   6.642   4.591
 2910SOL    HW2 9630   4.540   6.619   4.733
 2911SOL     OW 9631   1.449   5.421   3.551
 2911SOL    HW1 9632   1.463   5.350   3.482
 2911SOL    HW2 9633   1.435   5.378   3.640
 2912SOL     OW 9634   4.915   0.165   6.857
 2912SOL    HW1 9635   4.897   0.067   6.857
 2912SOL    HW2 9636   4.879   0.206   6.940
 2913SOL     OW 9637   2.436   4.355   3.224
 2913SOL    HW1 9638   2.406   4.414   3.149
 2913SOL    HW2 9639   2.515   4.397   3.270
 2914SOL     OW 9640   5.700   6.247   5.822
 2914SOL    HW1 9641   5.696   6.263   5.920
 2914SOL    HW2 9642   5.757   6.317   5.779
 2915SOL     OW 9643   5.641   1.786   4.807
 2915SOL    HW1 9644   5.658   1.853   4.878
 2915SOL    HW2 9645   5.638   1.831   4.718
 2916SOL     OW 9646   0.615   6.376   6.628
 2916SOL    HW1 9647   0.559   6.423   6.696
 2916SOL    HW2 9648   0.650   6.290   6.666
 2917SOL     OW 9649   3.531   6.805   2.590
 2917SOL    HW1 9650   3.510   6.805   2.493
 2917SOL    HW2 9651   3.566   6.894   2.617
 2918SOL     OW 9652   6.889   4.822   3.817
 2918SOL    HW1 9653   6.967   4.776   3.859
 2918SOL    HW2 9654   6.852   4.890   3.880
 2919SOL     OW 9655   6.431   1.174   0.921
 2919SOL    HW1 9656   6.493   1.252   0.907
 2919SOL    HW2 9657   6.363   1.172   0.848
 2920SOL     OW 9658   2.781   2.075   1.859
 2920SOL    HW1 9659   2.686   2.050   1.879
 2920SOL    HW2 9660   2.818   2.129   1.934
 2921SOL     OW 9661   1.373   0.787   3.230
 2921SOL    HW1 9662   1.331   0.856   3.171
 2921SOL    HW2 9663   1.326   0.700   3.219
 2922SOL     OW 9664   5.172   0.520   0.460
 2922SOL    HW1 9665   5.158   0.536   0.558
 2922SOL    HW2 9666   5.198   0.606   0.416
 2923SOL     OW 9667   6.943   4.967   2.247
 2923SOL    HW1 9668   6.961   4.967   2.149
 2923SOL    HW2 9669   6.871   5.033   2.268
 2924SOL     OW 9670   6.943   2.000   6.023
 2924SOL    HW1 9671   7.000   2.082   6.019
 2924SOL    HW2 9672   6.904   1.982   5.933
 2925SOL     OW 9673   4.381   1.166   2.722
 2925SOL    HW1 9674   4.407   1.079   2.680
 2925SOL    HW2 9675   4.281   1.174   2.723
 2926SOL     OW 9676   6.696   1.214   4.400
 2926SOL    HW1 9677   6.760   1.197   4.326
 2926SOL    HW2 9678   6.670   1.127   4.443
 2927SOL     OW 9679   1.080   2.341   2.589
 2927SOL    HW1 9680   1.137   2.377   2.514
 2927SOL    HW2 9681   1.029   2.262   2.556
 2928SOL     OW 9682   0.320   1.869   6.347
 2928SOL    HW1 9683   0.330   1.966   6.329
 2928SOL    HW2 9684   0.281   1.823   6.267
 2929SOL     OW 9685   0.859   1.676   6.737
 2929SOL    HW1 9686   0.921   1.744   6.777
 2929SOL    HW2 9687   0.793   1.722   6.678
 2930SOL     OW 9688   4.544   6.254   4.827
 2930SOL    HW1 9689   4.637   6.261   4.791
 2930SOL    HW2 9690   4.514   6.344   4.860
 2931SOL     OW 9691   5.618   4.730   0.021
 2931SOL    HW1 9692   5.623   4.760   0.116
 2931SOL    HW2 9693   5.535   4.674   0.009
 2932SOL     OW 9694   0.513   5.445   1.115
 2932SOL    HW1 9695   0.517   5.384   1.194
 2932SOL    HW2 9696   0.418   5.462   1.090
 2933SOL     OW 9697   6.005   4.565   3.540
 2933SOL    HW1 9698   6.104   4.551   3.537
 2933SOL    HW2 9699   5.986   4.664   3.541
 2934SOL     OW 9700   4.738   1.052   6.901
 2934SOL    HW1 9701   4.826   1.096   6.918
 2934SOL    HW2 9702   4.665   1.108   6.941
 2935SOL     OW 9703   6.582   3.104   1.142
 2935SOL    HW1 9704   6.546   3.108   1.235
 2935SOL    HW2 9705   6.626   3.191   1.119
 2936SOL     OW 9706   3.792   5.527   1.923
 2936SOL    HW1 9707   3.697   5.556   1.909
 2936SOL    HW2 9708   3.807   5.439   1.878
 2937SOL     OW 9709   4.508   4.364   0.333
 2937SOL    HW1 9710   4.452   4.326   0.406
 2937SOL    HW2 9711   4.489   4.462   0.324
 2938SOL     OW 9712   4.460   5.454   6.729
 2938SOL    HW1 9713   4.445   5.403   6.643
 2938SOL    HW2 9714   4.490   5.391   6.800
 2939SOL     OW 9715   1.017   0.947   3.858
 2939SOL    HW1 9716   1.000   1.037   3.900
 2939SOL    HW2 9717   1.061   0.960   3.769
 2940SOL     OW 9718   5.984   5.857   6.252
 2940SOL    HW1 9719   5.894   5.871   6.212
 2940SOL    HW2 9720   6.045   5.817   6.183
 2941SOL     OW 9721   1.869   3.325   4.104
 2941SOL    HW1 9722   1.954   3.290   4.063
 2941SOL    HW2 9723   1.859   3.422   4.084
 2942SOL     OW 9724   3.276   2.494   0.922
 2942SOL    HW1 9725   3.364   2.460   0.957
 2942SOL    HW2 9726   3.292   2.553   0.843
 2943SOL     OW 9727   5.059   4.766   3.033
 2943SOL    HW1 9728   5.087   4.761   3.129
 2943SOL    HW2 9729   4.984   4.702   3.016
 2944SOL     OW 9730   2.779   5.521   5.443
 2944SOL    HW1 9731   2.846   5.546   5.373
 2944SOL    HW2 9732   2.726   5.601   5.470
 2945SOL     OW 9733   3.363   4.103   3.309
 2945SOL    HW1 9734   3.435   4.091   3.241
 2945SOL    HW2 9735   3.403   4.132   3.396
 2946SOL     OW 9736   0.880   5.448   6.739
 2946SOL    HW1 9737   0.853   5.356   6.711
 2946SOL    HW2 9738   0.839   5.469   6.828
 2947SOL     OW 9739   0.294   3.599   0.167
 2947SOL    HW1 9740   0.237   3.654   0.106
 2947SOL    HW2 9741   0.307   3.508   0.128
 2948SOL     OW 9742   0.184   4.444   5.855
 2948SOL    HW1 9743   0.253   4.420   5.786
 2948SOL    HW2 9744   0.221   4.514   5.916
 2949SOL     OW 9745   2.664   5.280   0.663
 2949SOL    HW1 9746   2.670   5.217   0.585
 2949SOL    HW2 9747   2.629   5.368   0.632
 2950SOL     OW 9748   5.217   3.539   4.613
 2950SOL    HW1 9749   5.154   3.470   4.580
 2950SOL    HW2 9750   5.166   3.618   4.647
 2951SOL     OW 9751   5.976   1.692   1.015
 2951SOL    HW1 9752   6.064   1.667   1.055
 2951SOL    HW2 9753   5.986   1.777   0.963
 2952SOL     OW 9754   0.964   5.062   5.197
 2952SOL    HW1 9755   1.037   5.109   5.246
 2952SOL    HW2 9756   0.952   5.103   5.106
 2953SOL     OW 9757   5.163   3.566   3.182
 2953SOL    HW1 9758   5.234   3.634   3.166
 2953SOL    HW2 9759   5.201   3.490   3.236
 2954SOL     OW 9760   0.354   5.889   2.067
 2954SOL    HW1 9761   0.281   5.824   2.047
 2954SOL    HW2 9762   0.413   5.852   2.138
 2955SOL     OW 9763   1.071   3.666   1.690
 2955SOL    HW1 9764   1.122   3.746   1.660
 2955SOL    HW2 9765   1.046   3.611   1.610
 2956SOL     OW 9766   5.853   6.682   3.398
 2956SOL    HW1 9767   5.894   6.591   3.399
 2956SOL    HW2 9768   5.754   6.674   3.410
 2957SOL     OW 9769   6.374   3.168   2.300
 2957SOL    HW1 9770   6.389   3.074   2.270
 2957SOL    HW2 9771   6.459   3.220   2.292
 2958SOL     OW 9772   2.373   4.404   4.607
 2958SOL    HW1 9773   2.416   4.444   4.687
 2958SOL    HW2 9774   2.344   4.311   4.627
 2959SOL     OW 9775   5.013   4.639   0.614
 2959SOL    HW1 9776   4.941   4.620   0.548
 2959SOL    HW2 9777   5.004   4.733   0.647
 2960SOL     OW 9778   3.992   6.964   6.329
 2960SOL    HW1 9779   4.066   6.931   6.387
 2960SOL    HW2 9780   4.023   0.025   6.279
 2961SOL     OW 9781   4.912   3.224   3.376
 2961SOL    HW1 9782   4.869   3.142   3.413
 2961SOL    HW2 9783   4.844   3.277   3.325
 2962SOL     OW 9784   3.970   0.993   3.281
 2962SOL    HW1 9785   4.015   0.971   3.194
 2962SOL    HW2 9786   3.891   1.052   3.263
 2963SOL     OW 9787   2.397   0.722   6.381
 2963SOL    HW1 9788   2.424   0.636   6.423
 2963SOL    HW2 9789   2.390   0.709   6.282
 2964SOL     OW 9790   0.323   6.931   2.879
 2964SOL    HW1 9791   0.384   6.944   2.957
 2964SOL    HW2 9792   0.365   6.972   2.798
 2965SOL     OW 9793   6.493   0.957   4.902
 2965SOL    HW1 9794   6.556   0.919   4.835
 2965SOL    HW2 9795   6.532   0.948   4.994
 2966SOL     OW 9796   6.761   5.931   4.083
 2966SOL    HW1 9797   6.671   5.938   4.041
 2966SOL    HW2 9798   6.809   5.851   4.046
 2967SOL     OW 9799   5.801   1.375   4.912
 2967SOL    HW1 9800   5.852   1.298   4.873
 2967SOL    HW2 9801   5.703   1.353   4.912
 2968SOL     OW 9802   0.322   3.321   6.296
 2968SOL    HW1 9803   0.418   3.297   6.294
 2968SOL    HW2 9804   0.294   3.356   6.207
 2969SOL     OW 9805   5.724   1.020   4.568
 2969SOL    HW1 9806   5.768   1.042   4.482
 2969SOL    HW2 9807   5.718   0.921   4.579
 2970SOL     OW 9808   1.296   4.407   6.069
 2970SOL    HW1 9809   1.221   4.387   6.007
 2970SOL    HW2 9810   1.378   4.428   6.017
 2971SOL     OW 9811   5.595   4.275   6.174
 2971SOL    HW1 9812   5.686   4.235   6.185
 2971SOL    HW2 9813   5.544   4.266   6.259
 2972SOL     OW 9814   6.226   4.792   6.429
 2972SOL    HW1 9815   6.306   4.847   6.454
 2972SOL    HW2 9816   6.249   4.695   6.436
 2973SOL     OW 9817   5.941   1.305   3.939
 2973SOL    HW1 9818   5.878   1.228   3.933
 2973SOL    HW2 9819   5.926   1.367   3.862
 2974SOL     OW 9820   0.785   4.210   2.962
 2974SOL    HW1 9821   0.831   4.215   3.051
 2974SOL    HW2 9822   0.776   4.115   2.934
 2975SOL     OW 9823   6.741   2.361   4.899
 2975SOL    HW1 9824   6.699   2.313   4.976
 2975SOL    HW2 9825   6.766   2.454   4.927
 2976SOL     OW 9826   4.372   2.325   3.115
 2976SOL    HW1 9827   4.322   2.239   3.123
 2976SOL    HW2 9828   4.452   2.312   3.057
 2977SOL     OW 9829   2.147   6.941   3.512
 2977SOL    HW1 9830   2.100   6.862   3.552
 2977SOL    HW2 9831   2.079   7.003   3.473
 2978SOL     OW 9832   4.225   4.617   6.848
 2978SOL    HW1 9833   4.170   4.700   6.851
 2978SOL    HW2 9834   4.226   4.581   6.755
 2979SOL     OW 9835   4.608   1.103   4.287
 2979SOL    HW1 9836   4.527   1.074   4.337
 2979SOL    HW2 9837   4.613   1.203   4.285
 2980SOL     OW 9838   1.552   5.957   3.984
 2980SOL    HW1 9839   1.478   6.024   3.977
 2980SOL    HW2 9840   1.532   5.878   3.927
 2981SOL     OW 9841   1.829   1.118   6.163
 2981SOL    HW1 9842   1.762   1.046   6.146
 2981SOL    HW2 9843   1.887   1.093   6.240
 2982SOL     OW 9844   3.631   6.098   3.154
 2982SOL    HW1 9845   3.578   6.039   3.216
 2982SOL    HW2 9846   3.715   6.051   3.127
 2983SOL     OW 9847   1.039   1.571   3.966
 2983SOL    HW1 9848   1.029   1.573   3.867
 2983SOL    HW2 9849   0.955   1.533   4.007
 2984SOL     OW 9850   5.221   5.776   1.589
 2984SOL    HW1 9851   5.225   5.829   1.505
 2984SOL    HW2 9852   5.167   5.693   1.574
 2985SOL     OW 9853   1.417   2.435   5.773
 2985SOL    HW1 9854   1.511   2.407   5.754
 2985SOL    HW2 9855   1.392   2.406   5.866
 2986SOL     OW 9856   2.602   3.582   5.674
 2986SOL    HW1 9857   2.650   3.631   5.747
 2986SOL    HW2 9858   2.668   3.550   5.606
 2987SOL     OW 9859   5.827   1.571   4.184
 2987SOL    HW1 9860   5.830   1.597   4.281
 2987SOL    HW2 9861   5.893   1.498   4.167
 2988SOL     OW 9862   0.497   6.375   2.964
 2988SOL    HW1 9863   0.540   6.417   3.043
 2988SOL    HW2 9864   0.564   6.364   2.891
 2989SOL     OW 9865   6.810   6.146   6.937
 2989SOL    HW1 9866   6.722   6.192   6.932
 2989SOL    HW2 9867   6.796   6.048   6.954
 2990SOL     OW 9868   4.751   2.177   4.679
 2990SOL    HW1 9869   4.800   2.261   4.657
 2990SOL    HW2 9870   4.756   2.161   4.777
 2991SOL     OW 9871   6.170   3.917   6.065
 2991SOL    HW1 9872   6.179   3.986   6.136
 2991SOL    HW2 9873   6.178   3.959   5.975
 2992SOL     OW 9874   2.382   5.266   5.708
 2992SOL    HW1 9875   2.442   5.286   5.631
 2992SOL    HW2 9876   2.404   5.326   5.784
 2993SOL     OW 9877   0.318   5.380   1.346
 2993SOL    HW1 9878   0.349   5.317   1.417
 2993SOL    HW2 9879   0.225   5.356   1.319
 2994SOL     OW 9880   3.754   6.551   0.459
 2994SOL    HW1 9881   3.735   6.644   0.428
 2994SOL    HW2 9882   3.853   6.534   0.455
 2995SOL     OW 9883   2.040   2.914   0.008
 2995SOL    HW1 9884   1.965   2.866   0.054
 2995SOL    HW2 9885   2.120   2.855   0.005
 2996SOL     OW 9886   1.890   6.809   4.346
 2996SOL    HW1 9887   1.935   6.867   4.278
 2996SOL    HW2 9888   1.819   6.755   4.300
 2997SOL     OW 9889   5.177   0.599   2.480
 2997SOL    HW1 9890   5.164   0.622   2.383
 2997SOL    HW2 9891   5.219   0.676   2.527
 2998SOL     OW 9892   4.819   6.970   4.344
 2998SOL    HW1 9893   4.884   0.016   4.380
 2998SOL    HW2 9894   4.754   7.016   4.284
 2999SOL     OW 9895   3.121   4.887   4.378
 2999SOL    HW1 9896   3.098   4.894   4.475
 2999SOL    HW2 9897   3.039   4.865   4.326
 3000SOL     OW 9898   1.944   3.798   0.246
 3000SOL    HW1 9899   1.879   3.783   0.172
 3000SOL    HW2 9900   1.899   3.783   0.334
 3001SOL     OW 9901   5.463   6.126   6.111
 3001SOL    HW1 9902   5.396   6.141   6.039
 3001SOL    HW2 9903   5.549   6.170   6.086
 3002SOL     OW 9904   3.752   0.330   6.399
 3002SOL    HW1 9905   3.708   0.293   6.317
 3002SOL    HW2 9906   3.730   0.427   6.408
 3003SOL     OW 9907   2.398   6.732   6.970
 3003SOL    HW1 9908   2.434   6.789   0.023
 3003SOL    HW2 9909   2.366   6.645   7.009
 3004SOL     OW 9910   1.323   4.980   3.261
 3004SOL    HW1 9911   1.229   4.985   3.226
 3004SOL    HW2 9912   1.321   4.981   3.361
 3005SOL     OW 9913   3.288   2.398   6.584
 3005SOL    HW1 9914   3.251   2.347   6.506
 3005SOL    HW2 9915   3.214   2.445   6.631
 3006SOL     OW 9916   5.195   2.186   6.145
 3006SOL    HW1 9917   5.144   2.136   6.215
 3006SOL    HW2 9918   5.172   2.149   6.055
 3007SOL     OW 9919   5.656   5.732   1.335
 3007SOL    HW1 9920   5.626   5.767   1.247
 3007SOL    HW2 9921   5.695   5.806   1.389
 3008SOL     OW 9922   3.699   1.059   6.438
 3008SOL    HW1 9923   3.624   1.028   6.380
 3008SOL    HW2 9924   3.670   1.140   6.489
 3009SOL     OW 9925   0.869   1.022   2.696
 3009SOL    HW1 9926   0.776   1.043   2.668
 3009SOL    HW2 9927   0.928   1.018   2.615
 3010SOL     OW 9928   3.309   6.302   3.405
 3010SOL    HW1 9929   3.219   6.345   3.402
 3010SOL    HW2 9930   3.364   6.343   3.478
 3011SOL     OW 9931   5.210   1.250   1.299
 3011SOL    HW1 9932   5.260   1.262   1.213
 3011SOL    HW2 9933   5.113   1.236   1.280
 3012SOL     OW 9934   1.236   3.796   5.291
 3012SOL    HW1 9935   1.259   3.702   5.315
 3012SOL    HW2 9936   1.137   3.804   5.278
 3013SOL     OW 9937   5.390   5.799   4.707
 3013SOL    HW1 9938   5.456   5.772   4.636
 3013SOL    HW2 9939   5.342   5.882   4.678
 3014SOL     OW 9940   4.771   3.066   4.657
 3014SOL    HW1 9941   4.688   3.031   4.701
 3014SOL    HW2 9942   4.806   2.997   4.593
 3015SOL     OW 9943   2.783   2.387   6.884
 3015SOL    HW1 9944   2.764   2.462   6.821
 3015SOL    HW2 9945   2.880   2.363   6.879
 3016SOL     OW 9946   3.217   6.305   4.299
 3016SOL    HW1 9947   3.141   6.253   4.338
 3016SOL    HW2 9948   3.216   6.398   4.336
 3017SOL     OW 9949   0.336   5.472   2.128
 3017SOL    HW1 9950   0.333   5.478   2.227
 3017SOL    HW2 9951   0.414   5.417   2.100
 3018SOL     OW 9952   2.032   6.913   5.486
 3018SOL    HW1 9953   2.078   6.878   5.404
 3018SOL    HW2 9954   1.960   6.977   5.459
 3019SOL     OW 9955   1.074   0.167   6.923
 3019SOL    HW1 9956   0.995   0.128   6.876
 3019SOL    HW2 9957   1.054   0.262   6.947
 3020SOL     OW 9958   4.184   3.409   1.958
 3020SOL    HW1 9959   4.255   3.422   2.027
 3020SOL    HW2 9960   4.181   3.488   1.897
 3021SOL     OW 9961   2.979   0.002   6.818
 3021SOL    HW1 9962   3.055   0.003   6.883
 3021SOL    HW2 9963   2.948   0.096   6.802
 3022SOL     OW 9964   4.196   4.984   4.377
 3022SOL    HW1 9965   4.182   5.054   4.307
 3022SOL    HW2 9966   4.244   4.906   4.337
 3023SOL     OW 9967   4.178   0.255   2.681
 3023SOL    HW1 9968   4.161   0.184   2.749
 3023SOL    HW2 9969   4.276   0.269   2.671
 3024SOL     OW 9970   4.155   6.140   5.494
 3024SOL    HW1 9971   4.223   6.184   5.436
 3024SOL    HW2 9972   4.195   6.060   5.537
 3025SOL     OW 9973   3.386   0.898   0.205
 3025SOL    HW1 9974   3.338   0.951   0.136
 3025SOL    HW2 9975   3.337   0.904   0.292
 3026SOL     OW 9976   1.362   1.432   0.851
 3026SOL    HW1 9977   1.461   1.419   0.854
 3026SOL    HW2 9978   1.318   1.361   0.906
 3027SOL     OW 9979   3.962   0.681   2.911
 3027SOL    HW1 9980   3.975   0.760   2.850
 3027SOL    HW2 9981   3.978   0.597   2.859
 3028SOL     OW 9982   1.194   4.265   5.613
 3028SOL    HW1 9983   1.267   4.318   5.570
 3028SOL    HW2 9984   1.166   4.191   5.552
 3029SOL     OW 9985   7.015   2.771   5.102
 3029SOL    HW1 9986   0.069   2.755   5.039
 3029SOL    HW2 9987   0.027   2.823   5.181
 3030SOL     OW 9988   0.771   2.771   5.836
 3030SOL    HW1 9989   0.760   2.678   5.803
 3030SOL    HW2 9990   0.804   2.769   5.931
 3031SOL     OW 9991   0.713   2.861   0.907
 3031SOL    HW1 9992   0.638   2.800   0.881
 3031SOL    HW2 9993   0.689   2.955   0.884
 3032SOL     OW 9994   4.268   6.266   1.808
 3032SOL    HW1 9995   4.177   6.275   1.849
 3032SOL    HW2 9996   4.261   6.210   1.725
 3033SOL     OW 9997   6.964   1.963   1.511
 3033SOL    HW1 9998   7.007   2.025   1.445
 3033SOL    HW2 9999   6.902   1.901   1.463
 3034SOL     OW10000   1.766   5.453   3.621
 3034SOL    HW110001   1.800   5.453   3.715
 3034SOL    HW210002   1.668   5.473   3.621
 3035SOL     OW10003   6.857   3.069   0.370
 3035SOL    HW110004   6.850   3.169   0.368
 3035SOL    HW210005   6.765   3.029   0.365
 3036SOL     OW10006   1.407   2.785   6.914
 3036SOL    HW110007   1.459   2.717   6.862
 3036SOL    HW210008   1.381   2.860   6.853
 3037SOL     OW10009   0.425   6.085   5.313
 3037SOL    HW110010   0.481   6.046   5.240
 3037SOL    HW210011   0.336   6.039   5.315
 3038SOL     OW10012   6.016   5.945   5.666
 3038SOL    HW110013   6.025   5.951   5.766
 3038SOL    HW210014   6.053   6.028   5.624
 3039SOL     OW10015   6.903   3.860   1.391
 3039SOL    HW110016   6.882   3.903   1.478
 3039SOL    HW210017   7.001   3.869   1.371
 3040SOL     OW10018   3.892   3.399   6.210
 3040SOL    HW110019   3.972   3.340   6.218
 3040SOL    HW210020   3.872   3.416   6.113
 3041SOL     OW10021   2.260   2.959   4.502
 3041SOL    HW110022   2.350   2.988   4.534
 3041SOL    HW210023   2.254   2.860   4.503
 3042SOL     OW10024   4.862   6.531   2.161
 3042SOL    HW110025   4.886   6.444   2.117
 3042SOL    HW210026   4.946   6.580   2.185
 3043SOL     OW10027   1.181   5.737   1.832
 3043SOL    HW110028   1.143   5.820   1.790
 3043SOL    HW210029   1.108   5.672   1.848
 3044SOL     OW10030   3.215   3.558   5.875
 3044SOL    HW110031   3.263   3.638   5.838
 3044SOL    HW210032   3.239   3.477   5.821
 3045SOL     OW10033   4.905   1.620   2.932
 3045SOL    HW110034   4.839   1.569   2.878
 3045SOL    HW210035   4.956   1.557   2.991
 3046SOL     OW10036   2.482   1.353   6.761
 3046SOL    HW110037   2.559   1.403   6.800
 3046SOL    HW210038   2.514   1.295   6.686
 3047SOL     OW10039   5.174   0.088   2.672
 3047SOL    HW110040   5.095   0.147   2.681
 3047SOL    HW210041   5.258   0.142   2.683
 3048SOL     OW10042   3.815   2.522   1.657
 3048SOL    HW110043   3.768   2.589   1.600
 3048SOL    HW210044   3.753   2.487   1.726
 3049SOL     OW10045   0.870   6.650   1.503
 3049SOL    HW110046   0.806   6.686   1.435
 3049SOL    HW210047   0.821   6.628   1.587
 3050SOL     OW10048   3.351   0.904   2.120
 3050SOL    HW110049   3.292   0.980   2.094
 3050SOL    HW210050   3.389   0.862   2.037
 3051SOL     OW10051   2.020   4.209   0.425
 3051SOL    HW110052   2.037   4.307   0.433
 3051SOL    HW210053   1.941   4.193   0.366
 3052SOL     OW10054   5.309   6.991   2.446
 3052SOL    HW110055   5.275   6.898   2.434
 3052SOL    HW210056   5.235   0.028   2.482
 3053SOL     OW10057   0.075   1.601   0.038
 3053SOL    HW110058   0.172   1.605   0.017
 3053SOL    HW210059   0.038   1.694   0.041
 3054SOL     OW10060   6.702   2.123   1.246
 3054SOL    HW110061   6.759   2.169   1.315
 3054SOL    HW210062   6.665   2.191   1.182
 3055SOL     OW10063   5.279   0.148   3.957
 3055SOL    HW110064   5.187   0.152   3.995
 3055SOL    HW210065   5.306   0.053   3.944
 3056SOL     OW10066   6.192   1.094   5.543
 3056SOL    HW110067   6.221   1.082   5.638
 3056SOL    HW210068   6.113   1.036   5.524
 3057SOL     OW10069   3.735   6.290   3.672
 3057SOL    HW110070   3.712   6.251   3.583
 3057SOL    HW210071   3.703   6.229   3.745
 3058SOL     OW10072   6.921   5.537   0.707
 3058SOL    HW110073   6.931   5.598   0.786
 3058SOL    HW210074   6.877   5.587   0.632
 3059SOL     OW10075   2.565   2.035   4.247
 3059SOL    HW110076   2.507   1.977   4.191
 3059SOL    HW210077   2.524   2.125   4.256
 3060SOL     OW10078   0.527   5.311   0.034
 3060SOL    HW110079   0.583   5.364   6.991
 3060SOL    HW210080   0.448   5.366   0.062
 3061SOL     OW10081   5.818   0.234   5.167
 3061SOL    HW110082   5.864   0.303   5.111
 3061SOL    HW210083   5.841   0.250   5.263
 3062SOL     OW10084   1.239   6.813   0.231
 3062SOL    HW110085   1.162   6.756   0.200
 3062SOL    HW210086   1.291   6.844   0.151
 3063SOL     OW10087   2.666   5.480   1.507
 3063SOL    HW110088   2.594   5.439   1.564
 3063SOL    HW210089   2.658   5.445   1.414
 3064SOL     OW10090   5.650   4.102   3.365
 3064SOL    HW110091   5.737   4.053   3.359
 3064SOL    HW210092   5.576   4.037   3.378
 3065SOL     OW10093   2.685   1.108   0.057
 3065SOL    HW110094   2.651   1.040   7.013
 3065SOL    HW210095   2.649   1.198   0.032
 3066SOL     OW10096   5.459   5.027   1.303
 3066SOL    HW110097   5.441   4.957   1.373
 3066SOL    HW210098   5.374   5.073   1.279
 3067SOL     OW10099   3.665   2.233   5.588
 3067SOL    HW110100   3.618   2.281   5.514
 3067SOL    HW210101   3.764   2.242   5.576
 3068SOL     OW10102   6.434   6.465   1.797
 3068SOL    HW110103   6.451   6.460   1.896
 3068SOL    HW210104   6.516   6.435   1.748
 3069SOL     OW10105   6.311   6.317   2.268
 3069SOL    HW110106   6.273   6.274   2.186
 3069SOL    HW210107   6.402   6.280   2.286
 3070SOL     OW10108   1.244   1.021   1.994
 3070SOL    HW110109   1.277   1.046   2.085
 3070SOL    HW210110   1.304   0.950   1.956
 3071SOL     OW10111   6.413   6.061   3.042
 3071SOL    HW110112   6.338   6.123   3.019
 3071SOL    HW210113   6.381   5.966   3.040
 3072SOL     OW10114   1.592   0.186   6.974
 3072SOL    HW110115   1.579   0.229   0.043
 3072SOL    HW210116   1.502   0.165   6.935
 3073SOL     OW10117   6.362   2.455   4.851
 3073SOL    HW110118   6.292   2.440   4.782
 3073SOL    HW210119   6.435   2.512   4.813
 3074SOL     OW10120   5.926   3.361   0.837
 3074SOL    HW110121   5.962   3.438   0.785
 3074SOL    HW210122   5.940   3.376   0.934
 3075SOL     OW10123   2.300   5.895   1.824
 3075SOL    HW110124   2.241   5.960   1.776
 3075SOL    HW210125   2.383   5.879   1.770
 3076SOL     OW10126   7.001   0.655   4.130
 3076SOL    HW110127   6.993   0.557   4.151
 3076SOL    HW210128   0.021   0.703   4.207
 3077SOL     OW10129   4.691   5.927   2.252
 3077SOL    HW110130   4.781   5.894   2.279
 3077SOL    HW210131   4.688   5.936   2.152
 3078SOL     OW10132   1.226   3.322   1.900
 3078SOL    HW110133   1.271   3.400   1.944
 3078SOL    HW210134   1.147   3.295   1.955
 3079SOL     OW10135   2.299   1.759   4.329
 3079SOL    HW110136   2.293   1.798   4.421
 3079SOL    HW210137   2.209   1.725   4.301
 3080SOL     OW10138   4.837   3.898   3.513
 3080SOL    HW110139   4.837   3.979   3.455
 3080SOL    HW210140   4.827   3.816   3.456
 3081SOL     OW10141   0.769   2.734   6.172
 3081SOL    HW110142   0.816   2.683   6.243
 3081SOL    HW210143   0.812   2.824   6.161
 3082SOL     OW10144   2.839   0.151   4.121
 3082SOL    HW110145   2.860   0.248   4.129
 3082SOL    HW210146   2.898   0.098   4.181
 3083SOL     OW10147   3.985   6.351   3.166
 3083SOL    HW110148   4.036   6.432   3.194
 3083SOL    HW210149   3.922   6.373   3.092
 3084SOL     OW10150   5.449   4.056   5.192
 3084SOL    HW110151   5.537   4.013   5.171
 3084SOL    HW210152   5.375   3.999   5.156
 3085SOL     OW10153   6.939   4.599   1.753
 3085SOL    HW110154   6.892   4.572   1.838
 3085SOL    HW210155   6.917   4.534   1.681
 3086SOL     OW10156   3.953   2.116   1.959
 3086SOL    HW110157   3.856   2.137   1.974
 3086SOL    HW210158   3.967   2.017   1.972
 3087SOL     OW10159   0.485   5.310   4.203
 3087SOL    HW110160   0.477   5.368   4.284
 3087SOL    HW210161   0.515   5.219   4.229
 3088SOL     OW10162   2.655   4.785   5.821
 3088SOL    HW110163   2.598   4.864   5.842
 3088SOL    HW210164   2.598   4.703   5.817
 3089SOL     OW10165   1.079   3.654   0.340
 3089SOL    HW110166   1.064   3.586   0.268
 3089SOL    HW210167   1.106   3.741   0.298
 3090SOL     OW10168   1.896   1.954   2.107
 3090SOL    HW110169   1.829   1.888   2.075
 3090SOL    HW210170   1.983   1.908   2.125
 3091SOL     OW10171   1.738   0.626   1.056
 3091SOL    HW110172   1.686   0.710   1.074
 3091SOL    HW210173   1.685   0.547   1.087
 3092SOL     OW10174   5.277   6.332   0.684
 3092SOL    HW110175   5.280   6.395   0.761
 3092SOL    HW210176   5.183   6.321   0.652
 3093SOL     OW10177   5.256   6.272   5.987
 3093SOL    HW110178   5.225   6.365   5.968
 3093SOL    HW210179   5.180   6.217   6.022
 3094SOL     OW10180   2.522   6.454   4.258
 3094SOL    HW110181   2.483   6.413   4.341
 3094SOL    HW210182   2.454   6.514   4.216
 3095SOL     OW10183   2.102   5.531   5.974
 3095SOL    HW110184   2.017   5.538   6.027
 3095SOL    HW210185   2.165   5.469   6.020
 3096SOL     OW10186   1.593   6.382   4.916
 3096SOL    HW110187   1.603   6.390   4.817
 3096SOL    HW210188   1.630   6.294   4.947
 3097SOL     OW10189   6.708   2.633   0.782
 3097SOL    HW110190   6.728   2.571   0.707
 3097SOL    HW210191   6.611   2.627   0.806
 3098SOL     OW10192   2.977   3.176   1.092
 3098SOL    HW110193   2.997   3.078   1.102
 3098SOL    HW210194   3.044   3.229   1.143
 3099SOL     OW10195   0.643   6.841   3.561
 3099SOL    HW110196   0.545   6.824   3.572
 3099SOL    HW210197   0.691   6.812   3.644
 3100SOL     OW10198   6.515   6.545   4.661
 3100SOL    HW110199   6.415   6.551   4.666
 3100SOL    HW210200   6.554   6.568   4.750
 3101SOL     OW10201   4.887   6.645   6.008
 3101SOL    HW110202   4.870   6.738   5.975
 3101SOL    HW210203   4.811   6.586   5.981
 3102SOL     OW10204   0.487   4.381   2.325
 3102SOL    HW110205   0.507   4.457   2.388
 3102SOL    HW210206   0.554   4.309   2.338
 3103SOL     OW10207   3.524   0.262   2.186
 3103SOL    HW110208   3.450   0.196   2.196
 3103SOL    HW210209   3.518   0.306   2.096
 3104SOL     OW10210   5.383   6.626   5.211
 3104SOL    HW110211   5.336   6.595   5.294
 3104SOL    HW210212   5.337   6.708   5.176
 3105SOL     OW10213   6.329   4.546   2.033
 3105SOL    HW110214   6.284   4.627   2.072
 3105SOL    HW210215   6.268   4.467   2.040
 3106SOL     OW10216   5.752   1.742   2.494
 3106SOL    HW110217   5.679   1.798   2.532
 3106SOL    HW210218   5.780   1.779   2.406
 3107SOL     OW10219   3.970   1.096   4.190
 3107SOL    HW110220   3.971   0.996   4.193
 3107SOL    HW210221   3.931   1.131   4.275
 3108SOL     OW10222   0.754   6.928   4.105
 3108SOL    HW110223   0.767   6.953   4.201
 3108SOL    HW210224   0.830   6.871   4.075
 3109SOL     OW10225   5.365   6.485   2.234
 3109SOL    HW110226   5.290   6.546   2.259
 3109SOL    HW210227   5.391   6.502   2.139
 3110SOL     OW10228   1.922   2.271   3.580
 3110SOL    HW110229   1.907   2.185   3.532
 3110SOL    HW210230   1.972   2.254   3.665
 3111SOL     OW10231   5.934   6.154   3.925
 3111SOL    HW110232   5.985   6.226   3.971
 3111SOL    HW210233   5.990   6.115   3.852
 3112SOL     OW10234   4.878   2.364   6.457
 3112SOL    HW110235   4.781   2.389   6.460
 3112SOL    HW210236   4.932   2.445   6.435
 3113SOL     OW10237   1.822   6.003   3.961
 3113SOL    HW110238   1.870   5.915   3.963
 3113SOL    HW210239   1.724   5.987   3.969
 3114SOL     OW10240   4.286   2.228   0.485
 3114SOL    HW110241   4.225   2.208   0.562
 3114SOL    HW210242   4.367   2.169   0.491
 3115SOL     OW10243   4.199   3.155   6.513
 3115SOL    HW110244   4.120   3.209   6.538
 3115SOL    HW210245   4.190   3.063   6.551
 3116SOL     OW10246   0.093   3.073   0.350
 3116SOL    HW110247   7.015   3.060   0.352
 3116SOL    HW210248   0.115   3.161   0.309
 3117SOL     OW10249   4.299   3.524   5.493
 3117SOL    HW110250   4.345   3.556   5.410
 3117SOL    HW210251   4.216   3.474   5.467
 3118SOL     OW10252   0.140   4.483   0.911
 3118SOL    HW110253   0.182   4.486   0.820
 3118SOL    HW210254   0.189   4.544   0.973
 3119SOL     OW10255   1.912   3.670   5.619
 3119SOL    HW110256   2.007   3.658   5.592
 3119SOL    HW210257   1.907   3.713   5.709
 3120SOL     OW10258   2.966   6.712   4.380
 3120SOL    HW110259   2.890   6.695   4.318
 3120SOL    HW210260   3.049   6.670   4.345
 3121SOL     OW10261   6.634   1.802   3.059
 3121SOL    HW110262   6.601   1.776   2.969
 3121SOL    HW210263   6.646   1.720   3.115
 3122SOL     OW10264   3.359   6.497   5.785
 3122SOL    HW110265   3.408   6.468   5.702
 3122SOL    HW210266   3.424   6.541   5.847
 3123SOL     OW10267   4.329   1.603   4.055
 3123SOL    HW110268   4.409   1.629   4.109
 3123SOL    HW210269   4.325   1.659   3.972
 3124SOL     OW10270   4.390   6.445   4.546
 3124SOL    HW110271   4.349   6.372   4.601
 3124SOL    HW210272   4.323   6.518   4.531
 3125SOL     OW10273   6.476   1.970   5.054
 3125SOL    HW110274   6.425   2.048   5.018
 3125SOL    HW210275   6.445   1.950   5.147
 3126SOL     OW10276   4.240   4.658   6.256
 3126SOL    HW110277   4.177   4.724   6.215
 3126SOL    HW210278   4.205   4.565   6.243
 3127SOL     OW10279   1.039   3.372   3.715
 3127SOL    HW110280   1.070   3.464   3.740
 3127SOL    HW210281   0.940   3.367   3.726
 3128SOL     OW10282   1.977   0.585   6.604
 3128SOL    HW110283   2.051   0.592   6.671
 3128SOL    HW210284   2.000   0.642   6.525
 3129SOL     OW10285   0.562   4.023   6.726
 3129SOL    HW110286   0.482   3.987   6.775
 3129SOL    HW210287   0.589   4.110   6.767
 3130SOL     OW10288   1.817   4.586   1.669
 3130SOL    HW110289   1.752   4.657   1.696
 3130SOL    HW210290   1.807   4.568   1.571
 3131SOL     OW10291   6.982   2.883   1.487
 3131SOL    HW110292   6.981   2.811   1.418
 3131SOL    HW210293   7.009   2.845   1.575
 3132SOL     OW10294   4.576   5.150   5.542
 3132SOL    HW110295   4.615   5.060   5.520
 3132SOL    HW210296   4.526   5.144   5.629
 3133SOL     OW10297   3.679   2.090   3.960
 3133SOL    HW110298   3.587   2.091   4.000
 3133SOL    HW210299   3.743   2.050   4.026
 3134SOL     OW10300   4.463   4.557   1.525
 3134SOL    HW110301   4.556   4.550   1.489
 3134SOL    HW210302   4.446   4.650   1.556
 3135SOL     OW10303   5.113   0.460   5.425
 3135SOL    HW110304   5.183   0.528   5.404
 3135SOL    HW210305   5.151   0.368   5.415
 3136SOL     OW10306   5.367   0.591   0.826
 3136SOL    HW110307   5.389   0.594   0.923
 3136SOL    HW210308   5.293   0.655   0.807
 3137SOL     OW10309   6.164   0.736   3.182
 3137SOL    HW110310   6.127   0.823   3.215
 3137SOL    HW210311   6.169   0.736   3.083
 3138SOL     OW10312   6.086   3.167   4.019
 3138SOL    HW110313   5.996   3.209   4.033
 3138SOL    HW210314   6.089   3.078   4.064
 3139SOL     OW10315   5.046   6.585   0.290
 3139SOL    HW110316   4.960   6.536   0.275
 3139SOL    HW210317   5.106   6.529   0.347
 3140SOL     OW10318   6.112   7.015   6.579
 3140SOL    HW110319   6.036   6.966   6.536
 3140SOL    HW210320   6.115   0.087   6.545
 3141SOL     OW10321   6.785   6.070   6.222
 3141SOL    HW110322   6.814   6.142   6.285
 3141SOL    HW210323   6.841   5.988   6.237
 3142SOL     OW10324   4.210   6.563   1.830
 3142SOL    HW110325   4.171   6.621   1.758
 3142SOL    HW210326   4.224   6.471   1.794
 3143SOL     OW10327   6.974   1.643   6.703
 3143SOL    HW110328   7.017   1.554   6.719
 3143SOL    HW210329   6.887   1.647   6.754
 3144SOL     OW10330   4.210   4.003   1.128
 3144SOL    HW110331   4.283   4.045   1.181
 3144SOL    HW210332   4.131   4.064   1.126
 3145SOL     OW10333   1.722   5.240   2.169
 3145SOL    HW110334   1.650   5.190   2.217
 3145SOL    HW210335   1.800   5.253   2.230
 3146SOL     OW10336   1.559   0.194   2.537
 3146SOL    HW110337   1.578   0.101   2.506
 3146SOL    HW210338   1.476   0.194   2.593
 3147SOL     OW10339   2.780   4.887   0.332
 3147SOL    HW110340   2.704   4.912   0.272
 3147SOL    HW210341   2.800   4.963   0.394
 3148SOL     OW10342   4.954   5.905   4.719
 3148SOL    HW110343   4.873   5.864   4.675
 3148SOL    HW210344   4.979   5.849   4.799
 3149SOL     OW10345   2.555   0.803   5.333
 3149SOL    HW110346   2.578   0.866   5.259
 3149SOL    HW210347   2.459   0.815   5.359
 3150SOL     OW10348   6.933   6.160   4.080
 3150SOL    HW110349   6.895   6.221   4.149
 3150SOL    HW210350   6.873   6.081   4.067
 3151SOL     OW10351   4.191   1.449   6.569
 3151SOL    HW110352   4.185   1.400   6.656
 3151SOL    HW210353   4.138   1.401   6.499
 3152SOL     OW10354   1.330   5.778   1.039
 3152SOL    HW110355   1.418   5.786   0.994
 3152SOL    HW210356   1.321   5.687   1.080
 3153SOL     OW10357   6.652   4.371   2.157
 3153SOL    HW110358   6.594   4.384   2.076
 3153SOL    HW210359   6.663   4.458   2.204
 3154SOL     OW10360   6.828   1.231   0.084
 3154SOL    HW110361   6.875   1.188   0.162
 3154SOL    HW210362   6.885   1.305   0.048
 3155SOL     OW10363   6.782   4.617   1.287
 3155SOL    HW110364   6.763   4.557   1.365
 3155SOL    HW210365   6.879   4.641   1.287
 3156SOL     OW10366   3.284   3.353   3.282
 3156SOL    HW110367   3.199   3.302   3.266
 3156SOL    HW210368   3.356   3.289   3.309
 3157SOL     OW10369   1.983   2.904   5.034
 3157SOL    HW110370   1.902   2.922   4.977
 3157SOL    HW210371   2.062   2.890   4.974
 3158SOL     OW10372   4.168   6.901   2.232
 3158SOL    HW110373   4.181   6.919   2.329
 3158SOL    HW210374   4.242   6.945   2.180
 3159SOL     OW10375   5.981   1.462   0.309
 3159SOL    HW110376   5.982   1.434   0.405
 3159SOL    HW210377   5.973   1.562   0.303
 3160SOL     OW10378   0.420   6.299   4.902
 3160SOL    HW110379   0.326   6.276   4.877
 3160SOL    HW210380   0.423   6.336   4.994
 3161SOL     OW10381   2.171   1.659   3.730
 3161SOL    HW110382   2.232   1.683   3.655
 3161SOL    HW210383   2.169   1.560   3.741
 3162SOL     OW10384   1.323   6.483   1.677
 3162SOL    HW110385   1.294   6.549   1.746
 3162SOL    HW210386   1.384   6.528   1.612
 3163SOL     OW10387   3.537   1.976   6.441
 3163SOL    HW110388   3.478   1.967   6.522
 3163SOL    HW210389   3.591   1.893   6.429
 3164SOL     OW10390   4.499   4.161   1.481
 3164SOL    HW110391   4.586   4.114   1.498
 3164SOL    HW210392   4.452   4.176   1.568
 3165SOL     OW10393   0.889   5.850   1.111
 3165SOL    HW110394   0.842   5.890   1.033
 3165SOL    HW210395   0.826   5.789   1.160
 3166SOL     OW10396   4.605   0.662   6.040
 3166SOL    HW110397   4.611   0.759   6.065
 3166SOL    HW210398   4.678   0.639   5.977
 3167SOL     OW10399   6.706   3.839   1.182
 3167SOL    HW110400   6.775   3.856   1.252
 3167SOL    HW210401   6.615   3.842   1.223
 3168SOL     OW10402   4.861   2.949   6.413
 3168SOL    HW110403   4.849   2.898   6.328
 3168SOL    HW210404   4.856   2.885   6.490
 3169SOL     OW10405   2.108   3.313   4.890
 3169SOL    HW110406   2.119   3.237   4.826
 3169SOL    HW210407   2.133   3.399   4.845
 3170SOL     OW10408   4.407   0.957   1.605
 3170SOL    HW110409   4.463   0.880   1.635
 3170SOL    HW210410   4.352   0.990   1.682
 3171SOL     OW10411   0.322   6.567   1.300
 3171SOL    HW110412   0.224   6.574   1.281
 3171SOL    HW210413   0.365   6.509   1.231
 3172SOL     OW10414   0.602   5.033   5.973
 3172SOL    HW110415   0.586   4.953   5.915
 3172SOL    HW210416   0.574   5.116   5.924
 3173SOL     OW10417   3.395   1.964   1.109
 3173SOL    HW110418   3.359   2.021   1.035
 3173SOL    HW210419   3.412   1.872   1.075
 3174SOL     OW10420   2.710   2.612   6.207
 3174SOL    HW110421   2.701   2.562   6.121
 3174SOL    HW210422   2.638   2.682   6.212
 3175SOL     OW10423   0.481   6.619   0.804
 3175SOL    HW110424   0.560   6.607   0.744
 3175SOL    HW210425   0.496   6.567   0.888
 3176SOL     OW10426   2.152   4.965   5.033
 3176SOL    HW110427   2.154   4.868   5.008
 3176SOL    HW210428   2.180   5.020   4.954
 3177SOL     OW10429   4.912   4.836   4.770
 3177SOL    HW110430   4.990   4.879   4.817
 3177SOL    HW210431   4.847   4.801   4.838
 3178SOL     OW10432   6.784   2.600   0.124
 3178SOL    HW110433   6.850   2.618   0.197
 3178SOL    HW210434   6.831   2.595   0.036
 3179SOL     OW10435   1.677   2.846   2.510
 3179SOL    HW110436   1.707   2.807   2.423
 3179SOL    HW210437   1.748   2.833   2.579
 3180SOL     OW10438   4.611   0.216   0.341
 3180SOL    HW110439   4.630   0.290   0.276
 3180SOL    HW210440   4.515   0.190   0.335
 3181SOL     OW10441   1.214   1.152   3.205
 3181SOL    HW110442   1.312   1.148   3.225
 3181SOL    HW210443   1.188   1.246   3.181
 3182SOL     OW10444   1.847   1.371   5.419
 3182SOL    HW110445   1.822   1.448   5.361
 3182SOL    HW210446   1.944   1.350   5.408
 3183SOL     OW10447   4.854   3.802   1.281
 3183SOL    HW110448   4.804   3.884   1.254
 3183SOL    HW210449   4.860   3.798   1.381
 3184SOL     OW10450   1.492   2.451   3.107
 3184SOL    HW110451   1.424   2.524   3.097
 3184SOL    HW210452   1.583   2.492   3.117
 3185SOL     OW10453   5.895   0.208   6.491
 3185SOL    HW110454   5.889   0.289   6.433
 3185SOL    HW210455   5.939   0.232   6.578
 3186SOL     OW10456   3.924   2.149   2.615
 3186SOL    HW110457   3.964   2.168   2.526
 3186SOL    HW210458   3.826   2.131   2.605
 3187SOL     OW10459   4.758   4.534   0.389
 3187SOL    HW110460   4.694   4.462   0.416
 3187SOL    HW210461   4.771   4.532   0.290
 3188SOL     OW10462   3.492   6.588   4.608
 3188SOL    HW110463   3.432   6.581   4.688
 3188SOL    HW210464   3.583   6.616   4.637
 3189SOL     OW10465   1.992   1.217   2.285
 3189SOL    HW110466   2.022   1.309   2.311
 3189SOL    HW210467   1.897   1.221   2.253
 3190SOL     OW10468   0.474   5.857   1.485
 3190SOL    HW110469   0.413   5.780   1.468
 3190SOL    HW210470   0.429   5.942   1.456
 3191SOL     OW10471   4.418   6.628   0.711
 3191SOL    HW110472   4.382   6.550   0.661
 3191SOL    HW210473   4.352   6.703   0.708
 3192SOL     OW10474   6.993   2.292   1.148
 3192SOL    HW110475   7.000   2.194   1.132
 3192SOL    HW210476   0.060   2.335   1.127
 3193SOL     OW10477   4.469   1.420   5.916
 3193SOL    HW110478   4.455   1.439   5.819
 3193SOL    HW210479   4.560   1.381   5.930
 3194SOL     OW10480   1.064   3.490   5.914
 3194SOL    HW110481   0.975   3.525   5.943
 3194SOL    HW210482   1.053   3.401   5.871
 3195SOL     OW10483   2.139   2.749   2.543
 3195SOL    HW110484   2.177   2.794   2.625
 3195SOL    HW210485   2.144   2.812   2.466
 3196SOL     OW10486   6.931   0.482   5.003
 3196SOL    HW110487   6.882   0.550   5.058
 3196SOL    HW210488   7.017   0.457   5.049
 3197SOL     OW10489   1.873   6.074   3.477
 3197SOL    HW110490   1.925   6.083   3.562
 3197SOL    HW210491   1.832   6.162   3.453
 3198SOL     OW10492   6.617   2.365   5.971
 3198SOL    HW110493   6.524   2.401   5.958
 3198SOL    HW210494   6.614   2.282   6.025
 3199SOL     OW10495   4.611   2.895   1.651
 3199SOL    HW110496   4.685   2.829   1.661
 3199SOL    HW210497   4.598   2.943   1.738
 3200SOL     OW10498   0.260   2.047   2.088
 3200SOL    HW110499   0.357   2.037   2.109
 3200SOL    HW210500   0.231   1.974   2.026
 3201SOL     OW10501   5.296   4.440   4.764
 3201SOL    HW110502   5.369   4.393   4.814
 3201SOL    HW210503   5.276   4.527   4.809
 3202SOL     OW10504   1.151   4.782   1.753
 3202SOL    HW110505   1.125   4.803   1.848
 3202SOL    HW210506   1.183   4.688   1.748
 3203SOL     OW10507   5.368   1.611   0.446
 3203SOL    HW110508   5.284   1.666   0.452
 3203SOL    HW210509   5.432   1.655   0.383
 3204SOL     OW10510   5.083   5.929   1.776
 3204SOL    HW110511   5.120   5.862   1.712
 3204SOL    HW210512   5.142   5.936   1.857
 3205SOL     OW10513   0.460   3.723   6.570
 3205SOL    HW110514   0.541   3.719   6.629
 3205SOL    HW210515   0.473   3.796   6.502
 3206SOL     OW10516   6.825   6.538   6.036
 3206SOL    HW110517   6.821   6.455   5.981
 3206SOL    HW210518   6.913   6.583   6.023
 3207SOL     OW10519   0.090   1.411   5.897
 3207SOL    HW110520   0.030   1.491   5.899
 3207SOL    HW210521   0.062   1.347   5.968
 3208SOL     OW10522   4.844   6.101   5.666
 3208SOL    HW110523   4.866   6.184   5.615
 3208SOL    HW210524   4.750   6.073   5.645
 3209SOL     OW10525   3.240   5.467   3.514
 3209SOL    HW110526   3.318   5.406   3.507
 3209SOL    HW210527   3.156   5.413   3.520
 3210SOL     OW10528   0.741   3.803   2.127
 3210SOL    HW110529   0.752   3.710   2.163
 3210SOL    HW210530   0.645   3.830   2.133
 3211SOL     OW10531   2.640   3.590   1.042
 3211SOL    HW110532   2.636   3.690   1.046
 3211SOL    HW210533   2.720   3.563   0.988
 3212SOL     OW10534   3.725   1.273   6.625
 3212SOL    HW110535   3.771   1.339   6.565
 3212SOL    HW210536   3.731   1.304   6.720
 3213SOL     OW10537   6.078   5.474   2.690
 3213SOL    HW110538   6.015   5.548   2.667
 3213SOL    HW210539   6.027   5.392   2.714
 3214SOL     OW10540   5.212   5.659   0.127
 3214SOL    HW110541   5.217   5.632   0.031
 3214SOL    HW210542   5.117   5.653   0.158
 3215SOL     OW10543   0.029   3.367   1.431
 3215SOL    HW110544   0.006   3.390   1.525
 3215SOL    HW210545   0.058   3.449   1.382
 3216SOL     OW10546   5.410   5.991   1.686
 3216SOL    HW110547   5.312   5.991   1.665
 3216SOL    HW210548   5.439   5.899   1.710
 3217SOL     OW10549   0.890   5.392   2.575
 3217SOL    HW110550   0.809   5.446   2.596
 3217SOL    HW210551   0.867   5.322   2.507
 3218SOL     OW10552   3.695   6.629   3.796
 3218SOL    HW110553   3.778   6.669   3.836
 3218SOL    HW210554   3.719   6.576   3.715
 3219SOL     OW10555   0.084   1.666   2.943
 3219SOL    HW110556   0.109   1.759   2.968
 3219SOL    HW210557   7.013   1.666   2.904
 3220SOL     OW10558   6.561   5.711   5.918
 3220SOL    HW110559   6.549   5.793   5.974
 3220SOL    HW210560   6.540   5.732   5.823
 3221SOL     OW10561   3.256   0.301   2.511
 3221SOL    HW110562   3.242   0.245   2.429
 3221SOL    HW210563   3.326   0.370   2.492
 3222SOL     OW10564   4.967   2.166   3.759
 3222SOL    HW110565   5.020   2.174   3.843
 3222SOL    HW210566   5.007   2.096   3.700
 3223SOL     OW10567   1.548   5.231   6.527
 3223SOL    HW110568   1.634   5.203   6.485
 3223SOL    HW210569   1.490   5.151   6.543
 3224SOL     OW10570   3.788   4.970   6.362
 3224SOL    HW110571   3.800   5.010   6.271
 3224SOL    HW210572   3.757   4.875   6.353
 3225SOL     OW10573   4.411   2.588   5.510
 3225SOL    HW110574   4.413   2.575   5.609
 3225SOL    HW210575   4.486   2.649   5.483
 3226SOL     OW10576   1.728   1.811   5.114
 3226SOL    HW110577   1.781   1.857   5.186
 3226SOL    HW210578   1.744   1.856   5.027
 3227SOL     OW10579   3.399   1.969   6.197
 3227SOL    HW110580   3.462   1.961   6.274
 3227SOL    HW210581   3.450   1.959   6.112
 3228SOL     OW10582   5.348   3.418   4.282
 3228SOL    HW110583   5.387   3.427   4.190
 3228SOL    HW210584   5.253   3.449   4.281
 3229SOL     OW10585   3.457   1.705   5.605
 3229SOL    HW110586   3.488   1.795   5.574
 3229SOL    HW210587   3.536   1.646   5.621
 3230SOL     OW10588   1.126   2.467   4.159
 3230SOL    HW110589   1.073   2.523   4.095
 3230SOL    HW210590   1.195   2.523   4.204
 3231SOL     OW10591   3.457   6.256   2.243
 3231SOL    HW110592   3.427   6.166   2.210
 3231SOL    HW210593   3.458   6.255   2.343
 3232SOL     OW10594   4.381   5.066   3.785
 3232SOL    HW110595   4.283   5.049   3.780
 3232SOL    HW210596   4.417   5.034   3.873
 3233SOL     OW10597   2.224   3.295   1.170
 3233SOL    HW110598   2.254   3.254   1.257
 3233SOL    HW210599   2.288   3.367   1.143
 3234SOL     OW10600   7.020   2.756   0.481
 3234SOL    HW110601   0.090   2.772   0.442
 3234SOL    HW210602   7.021   2.778   0.578
 3235SOL     OW10603   4.881   6.282   1.252
 3235SOL    HW110604   4.957   6.217   1.256
 3235SOL    HW210605   4.909   6.363   1.200
 3236SOL     OW10606   1.624   3.527   1.266
 3236SOL    HW110607   1.639   3.436   1.304
 3236SOL    HW210608   1.529   3.554   1.279
 3237SOL     OW10609   5.702   1.217   3.605
 3237SOL    HW110610   5.649   1.197   3.688
 3237SOL    HW210611   5.655   1.176   3.527
 3238SOL     OW10612   0.051   4.957   0.122
 3238SOL    HW110613   0.109   4.877   0.133
 3238SOL    HW210614   0.107   5.040   0.118
 3239SOL     OW10615   6.250   1.418   0.475
 3239SOL    HW110616   6.279   1.358   0.400
 3239SOL    HW210617   6.160   1.389   0.508
 3240SOL     OW10618   1.297   6.291   5.040
 3240SOL    HW110619   1.233   6.348   5.091
 3240SOL    HW210620   1.296   6.317   4.944
 3241SOL     OW10621   5.507   1.644   4.348
 3241SOL    HW110622   5.423   1.616   4.395
 3241SOL    HW210623   5.506   1.609   4.254
 3242SOL     OW10624   3.539   4.973   1.190
 3242SOL    HW110625   3.608   5.031   1.148
 3242SOL    HW210626   3.549   4.879   1.157
 3243SOL     OW10627   6.010   5.460   0.215
 3243SOL    HW110628   5.920   5.435   0.252
 3243SOL    HW210629   6.068   5.379   0.210
 3244SOL     OW10630   4.739   5.375   6.547
 3244SOL    HW110631   4.779   5.387   6.638
 3244SOL    HW210632   4.806   5.402   6.478
 3245SOL     OW10633   5.021   2.257   5.781
 3245SOL    HW110634   5.082   2.335   5.795
 3245SOL    HW210635   5.055   2.179   5.834
 3246SOL     OW10636   6.264   0.466   3.011
 3246SOL    HW110637   6.303   0.443   3.101
 3246SOL    HW210638   6.326   0.434   2.939
 3247SOL     OW10639   0.053   5.182   3.021
 3247SOL    HW110640   0.075   5.129   3.103
 3247SOL    HW210641   7.013   5.129   2.962
 3248SOL     OW10642   5.784   3.213   1.771
 3248SOL    HW110643   5.834   3.143   1.720
 3248SOL    HW210644   5.848   3.265   1.827
 3249SOL     OW10645   3.952   3.771   5.671
 3249SOL    HW110646   4.052   3.762   5.678
 3249SOL    HW210647   3.929   3.844   5.607
 3250SOL     OW10648   5.489   0.597   2.613
 3250SOL    HW110649   5.573   0.642   2.642
 3250SOL    HW210650   5.436   0.659   2.556
 3251SOL     OW10651   3.982   0.949   2.777
 3251SOL    HW110652   4.024   1.034   2.808
 3251SOL    HW210653   4.053   0.888   2.742
 3252SOL     OW10654   3.088   1.049   2.045
 3252SOL    HW110655   3.055   1.143   2.034
 3252SOL    HW210656   3.035   0.989   1.985
 3253SOL     OW10657   4.882   3.582   2.534
 3253SOL    HW110658   4.946   3.513   2.500
 3253SOL    HW210659   4.826   3.541   2.607
 3254SOL     OW10660   4.006   5.046   4.823
 3254SOL    HW110661   4.018   5.016   4.729
 3254SOL    HW210662   3.919   5.011   4.858
 3255SOL     OW10663   4.679   6.078   1.600
 3255SOL    HW110664   4.724   6.157   1.559
 3255SOL    HW210665   4.716   6.061   1.691
 3256SOL     OW10666   5.326   0.485   6.625
 3256SOL    HW110667   5.396   0.414   6.632
 3256SOL    HW210668   5.287   0.484   6.533
 3257SOL     OW10669   1.100   1.947   1.356
 3257SOL    HW110670   1.158   1.913   1.282
 3257SOL    HW210671   1.059   1.870   1.405
 3258SOL     OW10672   4.449   5.624   2.520
 3258SOL    HW110673   4.544   5.645   2.543
 3258SOL    HW210674   4.431   5.527   2.538
 3259SOL     OW10675   4.703   6.114   4.113
 3259SOL    HW110676   4.786   6.146   4.158
 3259SOL    HW210677   4.625   6.128   4.174
 3260SOL     OW10678   2.039   2.510   1.744
 3260SOL    HW110679   2.114   2.459   1.787
 3260SOL    HW210680   2.047   2.607   1.766
 3261SOL     OW10681   4.415   6.167   0.257
 3261SOL    HW110682   4.505   6.137   0.288
 3261SOL    HW210683   4.394   6.125   0.169
 3262SOL     OW10684   3.686   1.799   2.225
 3262SOL    HW110685   3.710   1.757   2.313
 3262SOL    HW210686   3.590   1.829   2.228
 3263SOL     OW10687   4.840   0.491   3.744
 3263SOL    HW110688   4.864   0.588   3.740
 3263SOL    HW210689   4.913   0.437   3.702
 3264SOL     OW10690   0.761   4.535   0.292
 3264SOL    HW110691   0.807   4.447   0.291
 3264SOL    HW210692   0.663   4.523   0.275
 3265SOL     OW10693   4.200   2.082   5.857
 3265SOL    HW110694   4.183   2.121   5.947
 3265SOL    HW210695   4.113   2.050   5.818
 3266SOL     OW10696   0.950   2.767   0.244
 3266SOL    HW110697   0.975   2.679   0.284
 3266SOL    HW210698   1.018   2.836   0.270
 3267SOL     OW10699   3.431   2.559   0.457
 3267SOL    HW110700   3.448   2.476   0.509
 3267SOL    HW210701   3.348   2.549   0.403
 3268SOL     OW10702   0.954   3.790   6.615
 3268SOL    HW110703   0.973   3.708   6.560
 3268SOL    HW210704   0.986   3.871   6.566
 3269SOL     OW10705   4.397   5.259   1.684
 3269SOL    HW110706   4.320   5.322   1.691
 3269SOL    HW210707   4.410   5.211   1.770
 3270SOL     OW10708   1.546   5.323   5.089
 3270SOL    HW110709   1.517   5.418   5.102
 3270SOL    HW210710   1.515   5.268   5.167
 3271SOL     OW10711   5.409   3.304   2.480
 3271SOL    HW110712   5.319   3.287   2.439
 3271SOL    HW210713   5.397   3.338   2.573
 3272SOL     OW10714   3.511   4.756   0.759
 3272SOL    HW110715   3.543   4.703   0.681
 3272SOL    HW210716   3.450   4.829   0.728
 3273SOL     OW10717   0.819   6.466   2.125
 3273SOL    HW110718   0.779   6.505   2.208
 3273SOL    HW210719   0.764   6.490   2.046
 3274SOL     OW10720   3.706   2.120   6.915
 3274SOL    HW110721   3.751   2.193   6.863
 3274SOL    HW210722   3.681   2.046   6.853
 3275SOL     OW10723   1.716   0.565   7.011
 3275SOL    HW110724   1.697   0.656   0.029
 3275SOL    HW210725   1.777   0.515   0.051
 3276SOL     OW10726   3.086   4.894   6.324
 3276SOL    HW110727   3.074   4.799   6.353
 3276SOL    HW210728   3.084   4.899   6.224
 3277SOL     OW10729   5.623   6.698   6.161
 3277SOL    HW110730   5.663   6.790   6.156
 3277SOL    HW210731   5.691   6.631   6.132
 3278SOL     OW10732   6.545   1.265   5.738
 3278SOL    HW110733   6.630   1.288   5.785
 3278SOL    HW210734   6.469   1.312   5.782
 3279SOL     OW10735   0.435   1.241   1.101
 3279SOL    HW110736   0.527   1.203   1.099
 3279SOL    HW210737   0.438   1.334   1.139
 3280SOL     OW10738   3.056   5.380   6.199
 3280SOL    HW110739   3.106   5.309   6.150
 3280SOL    HW210740   3.027   5.451   6.134
 3281SOL     OW10741   1.662   5.184   1.218
 3281SOL    HW110742   1.575   5.148   1.184
 3281SOL    HW210743   1.730   5.183   1.144
 3282SOL     OW10744   2.367   5.212   4.383
 3282SOL    HW110745   2.442   5.171   4.332
 3282SOL    HW210746   2.366   5.311   4.367
 3283SOL     OW10747   3.089   1.318   1.794
 3283SOL    HW110748   3.121   1.224   1.784
 3283SOL    HW210749   3.050   1.331   1.885
 3284SOL     OW10750   5.947   6.846   6.405
 3284SOL    HW110751   5.869   6.807   6.454
 3284SOL    HW210752   6.005   6.772   6.370
 3285SOL     OW10753   6.293   3.293   3.438
 3285SOL    HW110754   6.294   3.207   3.491
 3285SOL    HW210755   6.200   3.310   3.405
 3286SOL     OW10756   3.992   3.375   3.735
 3286SOL    HW110757   3.996   3.345   3.831
 3286SOL    HW210758   4.017   3.299   3.676
 3287SOL     OW10759   1.193   5.916   0.473
 3287SOL    HW110760   1.206   5.826   0.514
 3287SOL    HW210761   1.160   5.980   0.543
 3288SOL     OW10762   0.826   5.188   6.684
 3288SOL    HW110763   0.840   5.108   6.626
 3288SOL    HW210764   0.783   5.160   6.770
 3289SOL     OW10765   2.033   6.711   5.698
 3289SOL    HW110766   2.049   6.783   5.631
 3289SOL    HW210767   2.033   6.751   5.790
 3290SOL     OW10768   0.431   6.660   2.082
 3290SOL    HW110769   0.458   6.669   2.177
 3290SOL    HW210770   0.513   6.650   2.025
 3291SOL     OW10771   1.192   6.602   6.743
 3291SOL    HW110772   1.151   6.683   6.702
 3291SOL    HW210773   1.232   6.626   6.832
 3292SOL     OW10774   0.332   1.583   6.958
 3292SOL    HW110775   0.348   1.603   6.861
 3292SOL    HW210776   0.284   1.496   6.966
 3293SOL     OW10777   6.469   2.756   3.084
 3293SOL    HW110778   6.562   2.768   3.120
 3293SOL    HW210779   6.440   2.840   3.038
 3294SOL     OW10780   6.863   0.345   5.986
 3294SOL    HW110781   6.780   0.341   5.930
 3294SOL    HW210782   6.925   0.413   5.948
 3295SOL     OW10783   2.340   2.627   0.868
 3295SOL    HW110784   2.381   2.549   0.821
 3295SOL    HW210785   2.245   2.605   0.891
 3296SOL     OW10786   2.494   6.545   1.219
 3296SOL    HW110787   2.477   6.501   1.131
 3296SOL    HW210788   2.590   6.573   1.224
 3297SOL     OW10789   2.644   1.118   4.657
 3297SOL    HW110790   2.715   1.048   4.651
 3297SOL    HW210791   2.666   1.194   4.596
 3298SOL     OW10792   6.153   2.853   3.300
 3298SOL    HW110793   6.251   2.870   3.285
 3298SOL    HW210794   6.135   2.849   3.399
 3299SOL     OW10795   1.980   6.724   3.608
 3299SOL    HW110796   2.046   6.683   3.670
 3299SOL    HW210797   1.909   6.771   3.661
 3300SOL     OW10798   6.812   0.044   6.089
 3300SOL    HW110799   6.896   7.011   6.098
 3300SOL    HW210800   6.836   0.138   6.065
 3301SOL     OW10801   2.223   4.267   3.539
 3301SOL    HW110802   2.296   4.335   3.531
 3301SOL    HW210803   2.227   4.205   3.461
 3302SOL     OW10804   1.496   5.757   4.615
 3302SOL    HW110805   1.572   5.821   4.608
 3302SOL    HW210806   1.431   5.789   4.684
 3303SOL     OW10807   3.419   2.959   1.601
 3303SOL    HW110808   3.334   2.907   1.607
 3303SOL    HW210809   3.460   2.948   1.511
 3304SOL     OW10810   1.409   5.247   3.347
 3304SOL    HW110811   1.323   5.296   3.330
 3304SOL    HW210812   1.409   5.161   3.296
 3305SOL     OW10813   2.887   1.908   2.688
 3305SOL    HW110814   2.973   1.928   2.735
 3305SOL    HW210815   2.872   1.810   2.687
 3306SOL     OW10816   2.400   4.920   3.799
 3306SOL    HW110817   2.458   4.894   3.722
 3306SOL    HW210818   2.309   4.944   3.765
 3307SOL     OW10819   0.849   5.793   6.234
 3307SOL    HW110820   0.822   5.886   6.207
 3307SOL    HW210821   0.884   5.744   6.153
 3308SOL     OW10822   4.721   5.929   6.255
 3308SOL    HW110823   4.793   5.888   6.199
 3308SOL    HW210824   4.652   5.970   6.196
 3309SOL     OW10825   0.640   5.416   2.702
 3309SOL    HW110826   0.675   5.425   2.796
 3309SOL    HW210827   0.543   5.440   2.701
 3310SOL     OW10828   6.657   3.890   3.540
 3310SOL    HW110829   6.622   3.830   3.613
 3310SOL    HW210830   6.628   3.984   3.558
 3311SOL     OW10831   2.988   4.906   1.345
 3311SOL    HW110832   2.992   4.814   1.306
 3311SOL    HW210833   2.970   4.973   1.273
 3312SOL     OW10834   2.693   4.277   6.210
 3312SOL    HW110835   2.761   4.208   6.187
 3312SOL    HW210836   2.731   4.368   6.195
 3313SOL     OW10837   0.351   5.174   2.444
 3313SOL    HW110838   0.270   5.133   2.485
 3313SOL    HW210839   0.430   5.159   2.503
 3314SOL     OW10840   1.848   2.559   5.247
 3314SOL    HW110841   1.886   2.482   5.196
 3314SOL    HW210842   1.771   2.598   5.196
 3315SOL     OW10843   6.664   2.900   4.293
 3315SOL    HW110844   6.681   2.802   4.289
 3315SOL    HW210845   6.749   2.949   4.314
 3316SOL     OW10846   3.396   1.347   5.809
 3316SOL    HW110847   3.408   1.443   5.786
 3316SOL    HW210848   3.485   1.304   5.821
 3317SOL     OW10849   4.888   2.953   2.196
 3317SOL    HW110850   4.849   2.998   2.115
 3317SOL    HW210851   4.872   3.010   2.277
 3318SOL     OW10852   2.969   6.827   0.370
 3318SOL    HW110853   2.954   6.739   0.415
 3318SOL    HW210854   3.064   6.855   0.381
 3319SOL     OW10855   6.410   6.753   3.719
 3319SOL    HW110856   6.323   6.704   3.728
 3319SOL    HW210857   6.485   6.692   3.743
 3320SOL     OW10858   5.521   1.154   5.682
 3320SOL    HW110859   5.476   1.106   5.607
 3320SOL    HW210860   5.452   1.189   5.745
 3321SOL     OW10861   3.095   2.532   1.549
 3321SOL    HW110862   3.192   2.534   1.526
 3321SOL    HW210863   3.068   2.439   1.575
 3322SOL     OW10864   5.137   2.669   1.937
 3322SOL    HW110865   5.224   2.705   1.972
 3322SOL    HW210866   5.076   2.649   2.014
 3323SOL     OW10867   1.942   3.699   6.645
 3323SOL    HW110868   1.923   3.714   6.741
 3323SOL    HW210869   1.859   3.667   6.599
 3324SOL     OW10870   0.794   3.714   0.236
 3324SOL    HW110871   0.713   3.699   0.180
 3324SOL    HW210872   0.841   3.627   0.252
 3325SOL     OW10873   2.054   3.176   6.954
 3325SOL    HW110874   2.121   3.198   6.883
 3325SOL    HW210875   2.046   3.077   6.963
 3326SOL     OW10876   4.944   1.775   1.722
 3326SOL    HW110877   4.851   1.760   1.690
 3326SOL    HW210878   4.966   1.873   1.716
 3327SOL     OW10879   2.891   6.078   0.967
 3327SOL    HW110880   2.796   6.051   0.953
 3327SOL    HW210881   2.926   6.037   1.051
 3328SOL     OW10882   4.633   1.176   2.804
 3328SOL    HW110883   4.603   1.173   2.899
 3328SOL    HW210884   4.553   1.166   2.744
 3329SOL     OW10885   4.221   0.181   5.375
 3329SOL    HW110886   4.137   0.219   5.337
 3329SOL    HW210887   4.300   0.222   5.329
 3330SOL     OW10888   5.570   6.282   2.225
 3330SOL    HW110889   5.650   6.299   2.282
 3330SOL    HW210890   5.503   6.355   2.238
 3331SOL     OW10891   1.504   3.578   2.396
 3331SOL    HW110892   1.548   3.600   2.483
 3331SOL    HW210893   1.468   3.484   2.401
 3332SOL     OW10894   6.470   4.210   0.069
 3332SOL    HW110895   6.494   4.116   0.047
 3332SOL    HW210896   6.546   4.254   0.116
 3333SOL     OW10897   2.640   3.631   6.973
 3333SOL    HW110898   2.579   3.572   6.921
 3333SOL    HW210899   2.692   3.576   0.018
 3334SOL     OW10900   2.054   3.232   1.967
 3334SOL    HW110901   2.018   3.324   1.949
 3334SOL    HW210902   2.118   3.207   1.895
 3335SOL     OW10903   4.508   5.963   6.097
 3335SOL    HW110904   4.415   5.987   6.126
 3335SOL    HW210905   4.545   6.037   6.041
 3336SOL     OW10906   2.057   0.390   4.515
 3336SOL    HW110907   2.112   0.332   4.576
 3336SOL    HW210908   2.039   0.477   4.560
 3337SOL     OW10909   3.253   3.656   1.386
 3337SOL    HW110910   3.195   3.601   1.446
 3337SOL    HW210911   3.312   3.714   1.441
 3338SOL     OW10912   0.288   2.471   1.733
 3338SOL    HW110913   0.219   2.453   1.803
 3338SOL    HW210914   0.379   2.457   1.771
 3339SOL     OW10915   1.587   6.925   6.403
 3339SOL    HW110916   1.582   0.004   6.397
 3339SOL    HW210917   1.495   6.886   6.399
 3340SOL     OW10918   4.222   0.871   4.142
 3340SOL    HW110919   4.202   0.965   4.169
 3340SOL    HW210920   4.213   0.811   4.221
 3341SOL     OW10921   2.292   4.394   3.869
 3341SOL    HW110922   2.251   4.380   3.779
 3341SOL    HW210923   2.366   4.460   3.862
 3342SOL     OW10924   0.498   0.446   2.597
 3342SOL    HW110925   0.428   0.451   2.527
 3342SOL    HW210926   0.581   0.492   2.565
 3343SOL     OW10927   5.358   5.166   6.255
 3343SOL    HW110928   5.286   5.234   6.240
 3343SOL    HW210929   5.331   5.080   6.213
 3344SOL     OW10930   6.275   3.119   3.831
 3344SOL    HW110931   6.201   3.125   3.899
 3344SOL    HW210932   6.351   3.068   3.869
 3345SOL     OW10933   0.798   3.915   6.371
 3345SOL    HW110934   0.701   3.898   6.392
 3345SOL    HW210935   0.846   3.828   6.360
 3346SOL     OW10936   1.611   1.222   6.990
 3346SOL    HW110937   1.622   1.271   6.904
 3346SOL    HW210938   1.518   1.236   0.004
 3347SOL     OW10939   1.761   2.649   6.381
 3347SOL    HW110940   1.828   2.690   6.318
 3347SOL    HW210941   1.676   2.702   6.378
 3348SOL     OW10942   4.418   3.650   5.290
 3348SOL    HW110943   4.498   3.594   5.270
 3348SOL    HW210944   4.350   3.638   5.218
 3349SOL     OW10945   2.610   4.935   3.598
 3349SOL    HW110946   2.707   4.961   3.606
 3349SOL    HW210947   2.569   4.984   3.521
 3350SOL     OW10948   0.610   3.002   5.818
 3350SOL    HW110949   0.676   2.927   5.818
 3350SOL    HW210950   0.633   3.066   5.891
 3351SOL     OW10951   4.911   1.245   1.380
 3351SOL    HW110952   4.818   1.209   1.376
 3351SOL    HW210953   4.969   1.180   1.429
 3352SOL     OW10954   5.415   2.354   0.982
 3352SOL    HW110955   5.499   2.406   0.995
 3352SOL    HW210956   5.404   2.288   1.056
 3353SOL     OW10957   2.317   6.460   0.527
 3353SOL    HW110958   2.397   6.400   0.531
 3353SOL    HW210959   2.246   6.426   0.589
 3354SOL     OW10960   3.959   2.671   5.318
 3354SOL    HW110961   4.009   2.601   5.267
 3354SOL    HW210962   4.024   2.734   5.361
 3355SOL     OW10963   2.180   1.469   5.992
 3355SOL    HW110964   2.161   1.525   6.073
 3355SOL    HW210965   2.135   1.381   6.002
 3356SOL     OW10966   0.947   6.433   6.474
 3356SOL    HW110967   0.972   6.339   6.450
 3356SOL    HW210968   0.925   6.483   6.391
 3357SOL     OW10969   3.286   3.306   1.486
 3357SOL    HW110970   3.317   3.260   1.569
 3357SOL    HW210971   3.360   3.361   1.448
 3358SOL     OW10972   5.340   1.024   3.322
 3358SOL    HW110973   5.313   0.958   3.253
 3358SOL    HW210974   5.284   1.107   3.313
 3359SOL     OW10975   0.226   5.732   3.446
 3359SOL    HW110976   0.192   5.698   3.534
 3359SOL    HW210977   0.188   5.676   3.372
 3360SOL     OW10978   0.935   2.168   6.161
 3360SOL    HW110979   1.006   2.198   6.225
 3360SOL    HW210980   0.862   2.236   6.158
 3361SOL     OW10981   1.002   0.163   4.389
 3361SOL    HW110982   1.059   0.226   4.441
 3361SOL    HW210983   1.056   0.082   4.363
 3362SOL     OW10984   3.672   1.372   2.533
 3362SOL    HW110985   3.747   1.309   2.515
 3362SOL    HW210986   3.608   1.332   2.598
 3363SOL     OW10987   6.997   3.138   1.724
 3363SOL    HW110988   0.021   3.122   1.636
 3363SOL    HW210989   6.926   3.208   1.714
 3364SOL     OW10990   2.021   4.268   2.967
 3364SOL    HW110991   1.953   4.331   3.006
 3364SOL    HW210992   2.011   4.266   2.867
 3365SOL     OW10993   0.877   2.564   4.646
 3365SOL    HW110994   0.833   2.646   4.684
 3365SOL    HW210995   0.922   2.588   4.560
 3366SOL     OW10996   6.200   4.828   3.617
 3366SOL    HW110997   6.257   4.833   3.534
 3366SOL    HW210998   6.104   4.834   3.591
 3367SOL     OW10999   3.013   3.156   2.842
 3367SOL    HW111000   2.931   3.105   2.870
 3367SOL    HW211001   2.992   3.211   2.761
 3368SOL     OW11002   0.519   5.581   6.582
 3368SOL    HW111003   0.574   5.501   6.559
 3368SOL    HW211004   0.424   5.554   6.595
 3369SOL     OW11005   4.535   2.170   1.549
 3369SOL    HW111006   4.488   2.130   1.628
 3369SOL    HW211007   4.605   2.106   1.516
 3370SOL     OW11008   6.076   6.542   1.746
 3370SOL    HW111009   6.156   6.600   1.757
 3370SOL    HW211010   6.044   6.546   1.651
 3371SOL     OW11011   2.281   3.658   1.734
 3371SOL    HW111012   2.298   3.578   1.792
 3371SOL    HW211013   2.218   3.633   1.660
 3372SOL     OW11014   0.072   2.379   7.010
 3372SOL    HW111015   0.162   2.419   0.008
 3372SOL    HW211016   0.056   2.303   0.052
 3373SOL     OW11017   0.160   2.113   3.704
 3373SOL    HW111018   0.221   2.192   3.695
 3373SOL    HW211019   0.065   2.144   3.702
 3374SOL     OW11020   1.155   0.724   3.890
 3374SOL    HW111021   1.103   0.663   3.949
 3374SOL    HW211022   1.109   0.813   3.885
 3375SOL     OW11023   6.692   4.406   0.682
 3375SOL    HW111024   6.737   4.332   0.731
 3375SOL    HW211025   6.593   4.391   0.681
 3376SOL     OW11026   3.098   3.257   4.690
 3376SOL    HW111027   3.134   3.165   4.676
 3376SOL    HW211028   3.172   3.318   4.716
 3377SOL     OW11029   6.621   4.917   5.193
 3377SOL    HW111030   6.651   4.902   5.287
 3377SOL    HW211031   6.582   4.833   5.157
 3378SOL     OW11032   0.852   6.992   6.812
 3378SOL    HW111033   0.763   6.947   6.822
 3378SOL    HW211034   0.857   0.013   6.721
 3379SOL     OW11035   0.771   2.741   4.893
 3379SOL    HW111036   0.737   2.660   4.941
 3379SOL    HW211037   0.842   2.785   4.948
 3380SOL     OW11038   4.200   5.352   5.049
 3380SOL    HW111039   4.135   5.343   4.973
 3380SOL    HW211040   4.255   5.435   5.036
 3381SOL     OW11041   6.741   3.202   1.420
 3381SOL    HW111042   6.791   3.236   1.340
 3381SOL    HW211043   6.720   3.105   1.408
 3382SOL     OW11044   0.367   2.826   1.049
 3382SOL    HW111045   0.361   2.888   1.127
 3382SOL    HW211046   0.309   2.747   1.065
 3383SOL     OW11047   3.541   5.097   0.779
 3383SOL    HW111048   3.576   5.057   0.694
 3383SOL    HW211049   3.445   5.122   0.767
 3384SOL     OW11050   2.642   4.241   0.658
 3384SOL    HW111051   2.740   4.259   0.656
 3384SOL    HW211052   2.626   4.142   0.654
 3385SOL     OW11053   6.566   3.539   4.148
 3385SOL    HW111054   6.501   3.583   4.085
 3385SOL    HW211055   6.650   3.593   4.153
 3386SOL     OW11056   6.196   4.587   6.796
 3386SOL    HW111057   6.167   4.683   6.798
 3386SOL    HW211058   6.243   4.567   6.710
 3387SOL     OW11059   4.917   0.513   2.902
 3387SOL    HW111060   4.823   0.529   2.932
 3387SOL    HW211061   4.918   0.503   2.802
 3388SOL     OW11062   5.366   4.113   2.453
 3388SOL    HW111063   5.459   4.093   2.483
 3388SOL    HW211064   5.367   4.138   2.356
 3389SOL     OW11065   6.485   5.519   6.443
 3389SOL    HW111066   6.538   5.564   6.514
 3389SOL    HW211067   6.388   5.536   6.458
 3390SOL     OW11068   4.010   6.517   6.707
 3390SOL    HW111069   3.990   6.611   6.735
 3390SOL    HW211070   3.925   6.466   6.696
 3391SOL     OW11071   5.161   2.058   3.056
 3391SOL    HW111072   5.205   2.118   3.123
 3391SOL    HW211073   5.091   2.109   3.006
 3392SOL     OW11074   3.207   0.208   3.860
 3392SOL    HW111075   3.123   0.253   3.830
 3392SOL    HW211076   3.268   0.277   3.900
 3393SOL     OW11077   5.866   6.421   0.319
 3393SOL    HW111078   5.783   6.458   0.277
 3393SOL    HW211079   5.924   6.380   0.248
 3394SOL     OW11080   4.118   4.474   0.476
 3394SOL    HW111081   4.169   4.394   0.447
 3394SOL    HW211082   4.162   4.557   0.442
 3395SOL     OW11083   4.889   1.872   2.829
 3395SOL    HW111084   4.822   1.860   2.756
 3395SOL    HW211085   4.897   1.787   2.882
 3396SOL     OW11086   5.879   1.750   3.778
 3396SOL    HW111087   5.890   1.845   3.748
 3396SOL    HW211088   5.873   1.747   3.878
 3397SOL     OW11089   3.272   5.507   6.391
 3397SOL    HW111090   3.359   5.458   6.394
 3397SOL    HW211091   3.207   5.458   6.334
 3398SOL     OW11092   0.666   0.207   5.255
 3398SOL    HW111093   0.726   0.134   5.288
 3398SOL    HW211094   0.719   0.271   5.199
 3399SOL     OW11095   6.559   4.706   2.769
 3399SOL    HW111096   6.530   4.620   2.810
 3399SOL    HW211097   6.485   4.742   2.713
 3400SOL     OW11098   6.241   3.484   0.101
 3400SOL    HW111099   6.274   3.482   0.195
 3400SOL    HW211100   6.260   3.396   0.057
 3401SOL     OW11101   6.040   3.795   6.381
 3401SOL    HW111102   6.090   3.758   6.302
 3401SOL    HW211103   6.016   3.891   6.363
 3402SOL     OW11104   6.121   5.473   0.931
 3402SOL    HW111105   6.194   5.482   0.998
 3402SOL    HW211106   6.077   5.562   0.916
 3403SOL     OW11107   4.955   5.447   6.072
 3403SOL    HW111108   4.866   5.406   6.050
 3403SOL    HW211109   4.997   5.482   5.988
 3404SOL     OW11110   4.735   2.913   6.706
 3404SOL    HW111111   4.697   3.002   6.680
 3404SOL    HW211112   4.695   2.885   6.794
 3405SOL     OW11113   5.603   4.524   6.276
 3405SOL    HW111114   5.671   4.501   6.346
 3405SOL    HW211115   5.613   4.462   6.198
 3406SOL     OW11116   1.775   3.619   2.255
 3406SOL    HW111117   1.848   3.655   2.313
 3406SOL    HW211118   1.688   3.623   2.305
 3407SOL     OW11119   2.748   4.218   0.090
 3407SOL    HW111120   2.667   4.179   0.046
 3407SOL    HW211121   2.725   4.250   0.181
 3408SOL     OW11122   4.915   2.860   4.864
 3408SOL    HW111123   4.911   2.927   4.790
 3408SOL    HW211124   4.980   2.892   4.934
 3409SOL     OW11125   3.817   6.130   0.699
 3409SOL    HW111126   3.764   6.204   0.658
 3409SOL    HW211127   3.763   6.046   0.699
 3410SOL     OW11128   5.642   6.262   2.836
 3410SOL    HW111129   5.558   6.314   2.822
 3410SOL    HW211130   5.655   6.247   2.934
 3411SOL     OW11131   0.248   2.863   0.424
 3411SOL    HW111132   0.195   2.942   0.394
 3411SOL    HW211133   0.343   2.890   0.438
 3412SOL     OW11134   5.162   3.647   1.288
 3412SOL    HW111135   5.123   3.708   1.219
 3412SOL    HW211136   5.219   3.700   1.352
 3413SOL     OW11137   6.197   1.950   6.766
 3413SOL    HW111138   6.293   1.955   6.737
 3413SOL    HW211139   6.175   2.029   6.822
 3414SOL     OW11140   3.055   1.640   5.474
 3414SOL    HW111141   3.109   1.668   5.395
 3414SOL    HW211142   3.078   1.698   5.552
 3415SOL     OW11143   2.541   2.435   4.061
 3415SOL    HW111144   2.597   2.352   4.060
 3415SOL    HW211145   2.508   2.453   3.968
 3416SOL     OW11146   5.987   0.269   6.733
 3416SOL    HW111147   6.083   0.246   6.749
 3416SOL    HW211148   5.948   0.310   6.815
 3417SOL     OW11149   0.117   6.683   2.719
 3417SOL    HW111150   0.196   6.679   2.781
 3417SOL    HW211151   0.122   6.766   2.664
 3418SOL     OW11152   3.684   5.971   3.621
 3418SOL    HW111153   3.631   5.894   3.658
 3418SOL    HW211154   3.710   6.031   3.697
 3419SOL     OW11155   3.852   5.386   6.198
 3419SOL    HW111156   3.806   5.336   6.124
 3419SOL    HW211157   3.806   5.474   6.212
 3420SOL     OW11158   5.451   2.966   4.369
 3420SOL    HW111159   5.509   2.888   4.391
 3420SOL    HW211160   5.355   2.939   4.375
 3421SOL     OW11161   5.662   1.882   2.990
 3421SOL    HW111162   5.628   1.954   2.929
 3421SOL    HW211163   5.724   1.823   2.939
 3422SOL     OW11164   2.619   0.662   0.792
 3422SOL    HW111165   2.644   0.652   0.696
 3422SOL    HW211166   2.551   0.593   0.816
 3423SOL     OW11167   0.199   4.235   6.056
 3423SOL    HW111168   0.248   4.287   6.125
 3423SOL    HW211169   0.174   4.295   5.980
 3424SOL     OW11170   3.324   0.618   1.424
 3424SOL    HW111171   3.382   0.693   1.456
 3424SOL    HW211172   3.275   0.648   1.342
 3425SOL     OW11173   4.688   4.616   1.944
 3425SOL    HW111174   4.646   4.554   1.878
 3425SOL    HW211175   4.739   4.564   2.012
 3426SOL     OW11176   5.067   2.994   6.930
 3426SOL    HW111177   5.141   2.969   6.993
 3426SOL    HW211178   5.064   3.093   6.919
 3427SOL     OW11179   0.551   2.438   1.744
 3427SOL    HW111180   0.642   2.471   1.715
 3427SOL    HW211181   0.522   2.364   1.683
 3428SOL     OW11182   4.494   4.600   6.365
 3428SOL    HW111183   4.414   4.640   6.321
 3428SOL    HW211184   4.576   4.649   6.334
 3429SOL     OW11185   0.695   1.467   0.888
 3429SOL    HW111186   0.748   1.427   0.813
 3429SOL    HW211187   0.757   1.497   0.961
 3430SOL     OW11188   2.463   5.469   5.948
 3430SOL    HW111189   2.548   5.423   5.975
 3430SOL    HW211190   2.386   5.429   5.998
 3431SOL     OW11191   1.909   6.910   1.861
 3431SOL    HW111192   1.973   6.838   1.835
 3431SOL    HW211193   1.899   6.911   1.961
 3432SOL     OW11194   2.609   4.966   6.423
 3432SOL    HW111195   2.554   4.896   6.377
 3432SOL    HW211196   2.557   5.002   6.501
 3433SOL     OW11197   1.630   1.321   6.134
 3433SOL    HW111198   1.632   1.387   6.060
 3433SOL    HW211199   1.715   1.268   6.135
 3434SOL     OW11200   3.816   1.806   1.688
 3434SOL    HW111201   3.745   1.871   1.717
 3434SOL    HW211202   3.883   1.852   1.631
 3435SOL     OW11203   3.047   0.954   0.326
 3435SOL    HW111204   3.027   1.013   0.248
 3435SOL    HW211205   3.002   0.866   0.312
 3436SOL     OW11206   3.513   5.505   0.369
 3436SOL    HW111207   3.601   5.459   0.368
 3436SOL    HW211208   3.466   5.485   0.455
 3437SOL     OW11209   2.072   6.817   5.953
 3437SOL    HW111210   2.163   6.839   5.989
 3437SOL    HW211211   2.020   6.768   6.022
 3438SOL     OW11212   0.556   4.057   1.255
 3438SOL    HW111213   0.626   3.998   1.213
 3438SOL    HW211214   0.539   4.027   1.349
 3439SOL     OW11215   3.317   6.119   3.740
 3439SOL    HW111216   3.220   6.125   3.719
 3439SOL    HW211217   3.362   6.205   3.715
 3440SOL     OW11218   4.138   3.281   3.053
 3440SOL    HW111219   4.171   3.189   3.073
 3440SOL    HW211220   4.088   3.316   3.132
 3441SOL     OW11221   0.657   6.031   6.541
 3441SOL    HW111222   0.665   5.933   6.557
 3441SOL    HW211223   0.683   6.081   6.624
 3442SOL     OW11224   3.088   3.517   0.617
 3442SOL    HW111225   3.181   3.550   0.633
 3442SOL    HW211226   3.022   3.585   0.650
 3443SOL     OW11227   3.401   6.028   2.115
 3443SOL    HW111228   3.478   5.964   2.113
 3443SOL    HW211229   3.316   5.980   2.094
 3444SOL     OW11230   5.151   5.329   1.379
 3444SOL    HW111231   5.234   5.314   1.433
 3444SOL    HW211232   5.071   5.308   1.435
 3445SOL     OW11233   7.010   5.162   4.124
 3445SOL    HW111234   6.969   5.166   4.214
 3445SOL    HW211235   0.089   5.156   4.133
 3446SOL     OW11236   5.439   0.515   1.377
 3446SOL    HW111237   5.532   0.481   1.389
 3446SOL    HW211238   5.435   0.612   1.402
 3447SOL     OW11239   5.051   0.314   0.296
 3447SOL    HW111240   5.068   0.376   0.372
 3447SOL    HW211241   4.986   0.243   0.324
 3448SOL     OW11242   3.035   6.352   6.085
 3448SOL    HW111243   2.937   6.367   6.092
 3448SOL    HW211244   3.072   6.411   6.013
 3449SOL     OW11245   6.060   5.177   4.763
 3449SOL    HW111246   6.078   5.109   4.835
 3449SOL    HW211247   6.045   5.266   4.806
 3450SOL     OW11248   1.445   1.370   6.600
 3450SOL    HW111249   1.404   1.283   6.630
 3450SOL    HW211250   1.522   1.393   6.660
 3451SOL     OW11251   1.359   5.909   0.179
 3451SOL    HW111252   1.426   5.845   0.141
 3451SOL    HW211253   1.334   5.882   0.272
 3452SOL     OW11254   5.804   0.544   5.760
 3452SOL    HW111255   5.724   0.546   5.699
 3452SOL    HW211256   5.816   0.633   5.802
 3453SOL     OW11257   5.697   5.652   6.086
 3453SOL    HW111258   5.786   5.634   6.043
 3453SOL    HW211259   5.625   5.604   6.035
 3454SOL     OW11260   1.309   3.802   4.737
 3454SOL    HW111261   1.408   3.799   4.722
 3454SOL    HW211262   1.290   3.810   4.835
 3455SOL     OW11263   2.424   1.490   5.065
 3455SOL    HW111264   2.402   1.413   5.125
 3455SOL    HW211265   2.521   1.485   5.040
 3456SOL     OW11266   4.392   4.537   2.013
 3456SOL    HW111267   4.457   4.465   2.033
 3456SOL    HW211268   4.369   4.537   1.916
 3457SOL     OW11269   4.288   5.014   4.632
 3457SOL    HW111270   4.210   5.007   4.693
 3457SOL    HW211271   4.256   5.015   4.537
 3458SOL     OW11272   4.591   1.947   2.345
 3458SOL    HW111273   4.566   1.854   2.370
 3458SOL    HW211274   4.589   1.957   2.245
 3459SOL     OW11275   5.377   1.907   3.360
 3459SOL    HW111276   5.284   1.943   3.349
 3459SOL    HW211277   5.373   1.807   3.363
 3460SOL     OW11278   3.152   1.760   5.691
 3460SOL    HW111279   3.127   1.854   5.715
 3460SOL    HW211280   3.239   1.761   5.641
 3461SOL     OW11281   6.000   4.396   6.878
 3461SOL    HW111282   5.935   4.471   6.880
 3461SOL    HW211283   6.076   4.420   6.817
 3462SOL     OW11284   0.821   3.858   5.422
 3462SOL    HW111285   0.840   3.895   5.513
 3462SOL    HW211286   0.729   3.819   5.422
 3463SOL     OW11287   0.924   4.239   0.932
 3463SOL    HW111288   0.949   4.323   0.884
 3463SOL    HW211289   0.899   4.260   1.026
 3464SOL     OW11290   0.248   4.398   6.301
 3464SOL    HW111291   0.286   4.471   6.245
 3464SOL    HW211292   0.151   4.416   6.319
 3465SOL     OW11293   2.316   2.056   2.135
 3465SOL    HW111294   2.282   1.966   2.109
 3465SOL    HW211295   2.360   2.050   2.225
 3466SOL     OW11296   6.911   5.847   6.276
 3466SOL    HW111297   6.847   5.789   6.326
 3466SOL    HW211298   7.004   5.824   6.303
 3467SOL     OW11299   1.585   1.945   6.749
 3467SOL    HW111300   1.526   1.920   6.672
 3467SOL    HW211301   1.537   1.929   6.835
 3468SOL     OW11302   3.362   5.349   2.882
 3468SOL    HW111303   3.296   5.292   2.835
 3468SOL    HW211304   3.439   5.293   2.912
 3469SOL     OW11305   6.650   1.794   3.985
 3469SOL    HW111306   6.628   1.814   3.889
 3469SOL    HW211307   6.624   1.872   4.042
 3470SOL     OW11308   6.797   5.018   0.906
 3470SOL    HW111309   6.889   5.019   0.944
 3470SOL    HW211310   6.734   5.063   0.970
 3471SOL     OW11311   4.687   5.298   4.704
 3471SOL    HW111312   4.592   5.269   4.698
 3471SOL    HW211313   4.743   5.222   4.737
 3472SOL     OW11314   2.466   0.586   3.807
 3472SOL    HW111315   2.506   0.635   3.729
 3472SOL    HW211316   2.533   0.524   3.846
 3473SOL     OW11317   5.577   1.452   5.992
 3473SOL    HW111318   5.530   1.513   5.927
 3473SOL    HW211319   5.653   1.500   6.034
 3474SOL     OW11320   2.782   5.055   1.739
 3474SOL    HW111321   2.772   5.138   1.684
 3474SOL    HW211322   2.700   4.999   1.731
 3475SOL     OW11323   1.322   6.535   4.320
 3475SOL    HW111324   1.253   6.548   4.390
 3475SOL    HW211325   1.413   6.529   4.362
 3476SOL     OW11326   3.660   0.524   4.409
 3476SOL    HW111327   3.639   0.583   4.331
 3476SOL    HW211328   3.758   0.531   4.430
 3477SOL     OW11329   3.012   5.606   1.585
 3477SOL    HW111330   3.012   5.507   1.601
 3477SOL    HW211331   2.921   5.643   1.603
 3478SOL     OW11332   2.762   6.116   5.854
 3478SOL    HW111333   2.707   6.123   5.938
 3478SOL    HW211334   2.741   6.193   5.794
 3479SOL     OW11335   0.436   6.972   3.166
 3479SOL    HW111336   0.482   0.040   3.168
 3479SOL    HW211337   0.352   6.976   3.220
 3480SOL     OW11338   6.651   0.979   4.625
 3480SOL    HW111339   6.581   0.976   4.553
 3480SOL    HW211340   6.679   0.886   4.648
 3481SOL     OW11341   4.588   6.604   6.560
 3481SOL    HW111342   4.636   6.677   6.609
 3481SOL    HW211343   4.651   6.556   6.500
 3482SOL     OW11344   5.255   1.296   1.026
 3482SOL    HW111345   5.317   1.373   1.009
 3482SOL    HW211346   5.175   1.304   0.967
 3483SOL     OW11347   3.310   0.559   0.679
 3483SOL    HW111348   3.408   0.540   0.686
 3483SOL    HW211349   3.259   0.473   0.681
 3484SOL     OW11350   2.931   3.269   2.343
 3484SOL    HW111351   2.990   3.271   2.423
 3484SOL    HW211352   2.956   3.191   2.285
 3485SOL     OW11353   1.485   0.814   5.129
 3485SOL    HW111354   1.547   0.872   5.076
 3485SOL    HW211355   1.538   0.755   5.190
 3486SOL     OW11356   3.653   1.363   1.914
 3486SOL    HW111357   3.659   1.303   1.994
 3486SOL    HW211358   3.560   1.360   1.877
 3487SOL     OW11359   5.446   1.423   6.437
 3487SOL    HW111360   5.387   1.499   6.463
 3487SOL    HW211361   5.393   1.357   6.383
 3488SOL     OW11362   5.765   3.071   4.143
 3488SOL    HW111363   5.759   3.109   4.235
 3488SOL    HW211364   5.688   3.103   4.088
 3489SOL     OW11365   3.357   6.925   0.127
 3489SOL    HW111366   3.411   6.852   0.087
 3489SOL    HW211367   3.414   7.006   0.140
 3490SOL     OW11368   4.657   4.259   0.140
 3490SOL    HW111369   4.610   4.305   0.216
 3490SOL    HW211370   4.694   4.172   0.172
 3491SOL     OW11371   6.775   2.984   5.991
 3491SOL    HW111372   6.777   3.076   5.953
 3491SOL    HW211373   6.709   2.928   5.942
 3492SOL     OW11374   0.728   5.706   0.705
 3492SOL    HW111375   0.655   5.650   0.745
 3492SOL    HW211376   0.805   5.647   0.679
 3493SOL     OW11377   6.333   5.006   6.918
 3493SOL    HW111378   6.384   5.058   6.849
 3493SOL    HW211379   6.392   4.988   6.997
 3494SOL     OW11380   4.500   6.985   0.563
 3494SOL    HW111381   4.451   0.047   0.538
 3494SOL    HW211382   4.435   6.914   0.588
 3495SOL     OW11383   4.650   4.559   2.519
 3495SOL    HW111384   4.561   4.541   2.477
 3495SOL    HW211385   4.721   4.507   2.471
 3496SOL     OW11386   1.022   3.218   1.314
 3496SOL    HW111387   0.942   3.158   1.327
 3496SOL    HW211388   1.097   3.165   1.273
 3497SOL     OW11389   3.796   0.628   3.103
 3497SOL    HW111390   3.750   0.714   3.124
 3497SOL    HW211391   3.876   0.647   3.046
 3498SOL     OW11392   3.313   2.135   0.904
 3498SOL    HW111393   3.241   2.188   0.948
 3498SOL    HW211394   3.298   2.134   0.805
 3499SOL     OW11395   5.806   3.008   4.603
 3499SOL    HW111396   5.872   2.952   4.654
 3499SOL    HW211397   5.838   3.103   4.602
 3500SOL     OW11398   6.659   4.330   6.319
 3500SOL    HW111399   6.583   4.355   6.258
 3500SOL    HW211400   6.745   4.333   6.268
 3501SOL     OW11401   0.366   4.892   4.782
 3501SOL    HW111402   0.287   4.844   4.820
 3501SOL    HW211403   0.362   4.890   4.683
 3502SOL     OW11404   0.114   2.370   1.932
 3502SOL    HW111405   0.035   2.332   1.981
 3502SOL    HW211406   0.175   2.415   1.997
 3503SOL     OW11407   5.215   5.582   5.335
 3503SOL    HW111408   5.232   5.653   5.403
 3503SOL    HW211409   5.206   5.623   5.245
 3504SOL     OW11410   2.721   2.796   1.144
 3504SOL    HW111411   2.627   2.762   1.153
 3504SOL    HW211412   2.775   2.766   1.223
 3505SOL     OW11413   5.425   5.408   5.360
 3505SOL    HW111414   5.495   5.465   5.317
 3505SOL    HW211415   5.340   5.460   5.367
 3506SOL     OW11416   4.008   5.394   4.577
 3506SOL    HW111417   4.035   5.384   4.673
 3506SOL    HW211418   3.925   5.341   4.561
 3507SOL     OW11419   1.728   0.593   6.736
 3507SOL    HW111420   1.818   0.612   6.698
 3507SOL    HW211421   1.736   0.575   6.834
 3508SOL     OW11422   4.322   2.145   6.610
 3508SOL    HW111423   4.293   2.104   6.697
 3508SOL    HW211424   4.258   2.118   6.538
 3509SOL     OW11425   5.592   5.752   6.946
 3509SOL    HW111426   5.570   5.720   0.017
 3509SOL    HW211427   5.690   5.743   6.930
 3510SOL     OW11428   1.674   2.787   1.867
 3510SOL    HW111429   1.720   2.861   1.915
 3510SOL    HW211430   1.653   2.713   1.931
 3511SOL     OW11431   1.719   3.609   6.536
 3511SOL    HW111432   1.734   3.555   6.453
 3511SOL    HW211433   1.653   3.681   6.518
 3512SOL     OW11434   0.914   4.706   0.623
 3512SOL    HW111435   0.979   4.768   0.668
 3512SOL    HW211436   0.914   4.618   0.670
 3513SOL     OW11437   6.158   4.193   0.519
 3513SOL    HW111438   6.103   4.255   0.576
 3513SOL    HW211439   6.184   4.113   0.573
 3514SOL     OW11440   0.533   0.533   1.611
 3514SOL    HW111441   0.515   0.484   1.697
 3514SOL    HW211442   0.484   0.620   1.613
 3515SOL     OW11443   3.326   6.011   2.483
 3515SOL    HW111444   3.265   5.959   2.542
 3515SOL    HW211445   3.408   6.036   2.534
 3516SOL     OW11446   3.872   0.842   0.942
 3516SOL    HW111447   3.907   0.935   0.929
 3516SOL    HW211448   3.787   0.830   0.892
 3517SOL     OW11449   0.624   1.338   0.157
 3517SOL    HW111450   0.586   1.321   0.066
 3517SOL    HW211451   0.612   1.257   0.215
 3518SOL     OW11452   4.746   4.223   5.708
 3518SOL    HW111453   4.711   4.306   5.666
 3518SOL    HW211454   4.680   4.149   5.696
 3519SOL     OW11455   1.187   0.725   6.435
 3519SOL    HW111456   1.164   0.778   6.516
 3519SOL    HW211457   1.153   0.631   6.444
 3520SOL     OW11458   3.557   4.774   1.487
 3520SOL    HW111459   3.536   4.860   1.439
 3520SOL    HW211460   3.630   4.791   1.554
 3521SOL     OW11461   5.839   2.958   1.086
 3521SOL    HW111462   5.860   2.873   1.038
 3521SOL    HW211463   5.812   2.937   1.180
 3522SOL     OW11464   3.165   5.421   2.202
 3522SOL    HW111465   3.179   5.491   2.132
 3522SOL    HW211466   3.193   5.332   2.166
 3523SOL     OW11467   3.093   4.701   5.263
 3523SOL    HW111468   3.035   4.626   5.229
 3523SOL    HW211469   3.188   4.684   5.237
 3524SOL     OW11470   3.032   0.833   1.480
 3524SOL    HW111471   3.113   0.785   1.514
 3524SOL    HW211472   2.998   0.895   1.552
 3525SOL     OW11473   0.734   3.423   2.291
 3525SOL    HW111474   0.766   3.428   2.196
 3525SOL    HW211475   0.813   3.423   2.352
 3526SOL     OW11476   1.465   0.480   4.219
 3526SOL    HW111477   1.422   0.418   4.154
 3526SOL    HW211478   1.540   0.530   4.175
 3527SOL     OW11479   5.000   2.780   5.608
 3527SOL    HW111480   4.991   2.686   5.641
 3527SOL    HW211481   5.057   2.832   5.672
 3528SOL     OW11482   0.853   6.505   3.695
 3528SOL    HW111483   0.821   6.586   3.743
 3528SOL    HW211484   0.835   6.514   3.597
 3529SOL     OW11485   3.775   6.638   5.568
 3529SOL    HW111486   3.720   6.661   5.488
 3529SOL    HW211487   3.868   6.614   5.539
 3530SOL     OW11488   2.326   5.630   2.768
 3530SOL    HW111489   2.256   5.662   2.833
 3530SOL    HW211490   2.301   5.539   2.734
 3531SOL     OW11491   5.786   3.660   0.405
 3531SOL    HW111492   5.698   3.698   0.432
 3531SOL    HW211493   5.772   3.593   0.332
 3532SOL     OW11494   2.851   0.409   6.823
 3532SOL    HW111495   2.806   0.329   6.862
 3532SOL    HW211496   2.782   0.478   6.800
 3533SOL     OW11497   1.276   2.080   3.709
 3533SOL    HW111498   1.372   2.095   3.732
 3533SOL    HW211499   1.250   1.986   3.732
 3534SOL     OW11500   5.644   1.542   5.416
 3534SOL    HW111501   5.552   1.515   5.445
 3534SOL    HW211502   5.654   1.523   5.318
 3535SOL     OW11503   6.694   5.930   0.459
 3535SOL    HW111504   6.708   6.004   0.393
 3535SOL    HW211505   6.597   5.907   0.463
 3536SOL     OW11506   1.808   3.372   3.446
 3536SOL    HW111507   1.842   3.291   3.494
 3536SOL    HW211508   1.841   3.454   3.493
 3537SOL     OW11509   2.447   5.007   0.442
 3537SOL    HW111510   2.422   5.038   0.351
 3537SOL    HW211511   2.384   5.047   0.509
 3538SOL     OW11512   3.533   0.985   4.163
 3538SOL    HW111513   3.495   1.059   4.219
 3538SOL    HW211514   3.618   1.016   4.120
 3539SOL     OW11515   6.270   3.292   5.577
 3539SOL    HW111516   6.255   3.385   5.544
 3539SOL    HW211517   6.290   3.232   5.500
 3540SOL     OW11518   2.045   2.945   6.675
 3540SOL    HW111519   2.056   2.872   6.608
 3540SOL    HW211520   2.051   2.906   6.767
 3541SOL     OW11521   2.589   2.749   0.580
 3541SOL    HW111522   2.527   2.806   0.634
 3541SOL    HW211523   2.648   2.807   0.524
 3542SOL     OW11524   5.450   2.256   0.008
 3542SOL    HW111525   5.356   2.242   6.999
 3542SOL    HW211526   5.493   2.328   6.975
 3543SOL     OW11527   1.334   3.661   3.253
 3543SOL    HW111528   1.329   3.758   3.277
 3543SOL    HW211529   1.257   3.637   3.195
 3544SOL     OW11530   2.965   4.310   6.972
 3544SOL    HW111531   2.873   4.305   7.011
 3544SOL    HW211532   2.990   4.221   6.933
 3545SOL     OW11533   3.994   5.080   0.445
 3545SOL    HW111534   3.929   5.132   0.501
 3545SOL    HW211535   4.045   5.017   0.503
 3546SOL     OW11536   6.265   4.553   3.430
 3546SOL    HW111537   6.250   4.651   3.420
 3546SOL    HW211538   6.357   4.529   3.399
 3547SOL     OW11539   6.745   3.275   4.420
 3547SOL    HW111540   6.651   3.255   4.391
 3547SOL    HW211541   6.748   3.283   4.519
 3548SOL     OW11542   5.081   1.025   5.783
 3548SOL    HW111543   5.162   1.081   5.774
 3548SOL    HW211544   5.001   1.084   5.798
 3549SOL     OW11545   2.301   5.059   6.496
 3549SOL    HW111546   2.354   5.077   6.579
 3549SOL    HW211547   2.285   4.960   6.488
 3550SOL     OW11548   5.576   2.433   5.174
 3550SOL    HW111549   5.526   2.517   5.154
 3550SOL    HW211550   5.534   2.356   5.127
 3551SOL     OW11551   3.338   1.939   5.056
 3551SOL    HW111552   3.238   1.931   5.066
 3551SOL    HW211553   3.373   2.004   5.124
 3552SOL     OW11554   6.365   5.377   2.204
 3552SOL    HW111555   6.382   5.278   2.203
 3552SOL    HW211556   6.324   5.402   2.292
 3553SOL     OW11557   3.214   5.764   6.348
 3553SOL    HW111558   3.240   5.673   6.381
 3553SOL    HW211559   3.150   5.755   6.272
 3554SOL     OW11560   3.839   4.104   0.666
 3554SOL    HW111561   3.744   4.097   0.635
 3554SOL    HW211562   3.898   4.050   0.607
 3555SOL     OW11563   2.290   2.200   4.485
 3555SOL    HW111564   2.288   2.197   4.385
 3555SOL    HW211565   2.268   2.110   4.522
 3556SOL     OW11566   4.002   1.258   4.423
 3556SOL    HW111567   3.974   1.352   4.444
 3556SOL    HW211568   4.086   1.259   4.370
 3557SOL     OW11569   0.454   7.020   2.667
 3557SOL    HW111570   0.520   6.959   2.623
 3557SOL    HW211571   0.499   0.084   2.694
 3558SOL     OW11572   2.691   5.550   0.742
 3558SOL    HW111573   2.686   5.504   0.831
 3558SOL    HW211574   2.677   5.648   0.754
 3559SOL     OW11575   2.835   0.303   5.079
 3559SOL    HW111576   2.747   0.296   5.126
 3559SOL    HW211577   2.886   0.218   5.093
 3560SOL     OW11578   1.501   4.792   4.298
 3560SOL    HW111579   1.525   4.786   4.395
 3560SOL    HW211580   1.435   4.720   4.275
 3561SOL     OW11581   5.729   4.600   5.749
 3561SOL    HW111582   5.780   4.516   5.735
 3561SOL    HW211583   5.679   4.596   5.835
 3562SOL     OW11584   3.462   1.665   4.093
 3562SOL    HW111585   3.421   1.574   4.102
 3562SOL    HW211586   3.520   1.684   4.173
 3563SOL     OW11587   5.724   2.114   6.545
 3563SOL    HW111588   5.704   2.208   6.517
 3563SOL    HW211589   5.822   2.106   6.565
 3564SOL     OW11590   0.526   4.877   2.883
 3564SOL    HW111591   0.535   4.855   2.786
 3564SOL    HW211592   0.545   4.795   2.937
 3565SOL     OW11593   3.740   4.862   2.533
 3565SOL    HW111594   3.758   4.862   2.435
 3565SOL    HW211595   3.716   4.770   2.563
 3566SOL     OW11596   6.598   0.997   5.665
 3566SOL    HW111597   6.562   1.086   5.694
 3566SOL    HW211598   6.546   0.964   5.587
 3567SOL     OW11599   0.253   2.872   6.257
 3567SOL    HW111600   0.235   2.960   6.302
 3567SOL    HW211601   0.270   2.887   6.160
 3568SOL     OW11602   6.617   3.950   5.644
 3568SOL    HW111603   6.526   3.927   5.608
 3568SOL    HW211604   6.625   4.049   5.652
 3569SOL     OW11605   2.555   2.015   5.211
 3569SOL    HW111606   2.529   1.922   5.185
 3569SOL    HW211607   2.481   2.078   5.189
 3570SOL     OW11608   4.728   0.364   6.053
 3570SOL    HW111609   4.697   0.280   6.097
 3570SOL    HW211610   4.706   0.443   6.110
 3571SOL     OW11611   0.295   5.647   6.997
 3571SOL    HW111612   0.369   5.636   6.930
 3571SOL    HW211613   0.240   5.726   6.973
 3572SOL     OW11614   5.546   3.691   4.005
 3572SOL    HW111615   5.587   3.746   4.079
 3572SOL    HW211616   5.616   3.631   3.966
 3573SOL     OW11617   0.439   4.541   4.119
 3573SOL    HW111618   0.510   4.530   4.050
 3573SOL    HW211619   0.479   4.538   4.210
 3574SOL     OW11620   0.462   4.829   0.049
 3574SOL    HW111621   0.492   4.821   0.144
 3574SOL    HW211622   0.537   4.803   7.010
 3575SOL     OW11623   5.615   5.046   3.642
 3575SOL    HW111624   5.656   5.071   3.554
 3575SOL    HW211625   5.616   4.947   3.652
 3576SOL     OW11626   1.989   1.686   6.004
 3576SOL    HW111627   2.065   1.630   5.972
 3576SOL    HW211628   1.987   1.772   5.953
 3577SOL     OW11629   1.541   2.614   6.742
 3577SOL    HW111630   1.622   2.671   6.752
 3577SOL    HW211631   1.557   2.525   6.786
 3578SOL     OW11632   3.738   3.223   6.873
 3578SOL    HW111633   3.655   3.269   6.840
 3578SOL    HW211634   3.715   3.130   6.903
 3579SOL     OW11635   0.122   3.788   4.416
 3579SOL    HW111636   0.043   3.742   4.376
 3579SOL    HW211637   0.161   3.731   4.488
 3580SOL     OW11638   5.886   1.613   1.420
 3580SOL    HW111639   5.835   1.666   1.488
 3580SOL    HW211640   5.963   1.666   1.386
 3581SOL     OW11641   6.161   0.863   4.036
 3581SOL    HW111642   6.075   0.814   4.021
 3581SOL    HW211643   6.151   0.959   4.008
 3582SOL     OW11644   0.683   2.342   6.066
 3582SOL    HW111645   0.637   2.419   6.021
 3582SOL    HW211646   0.703   2.271   5.998
 3583SOL     OW11647   0.745   4.119   7.005
 3583SOL    HW111648   0.681   4.195   7.018
 3583SOL    HW211649   0.754   4.069   0.070
 3584SOL     OW11650   5.927   6.110   6.353
 3584SOL    HW111651   6.022   6.138   6.364
 3584SOL    HW211652   5.923   6.015   6.324
 3585SOL     OW11653   3.535   5.651   5.252
 3585SOL    HW111654   3.511   5.658   5.155
 3585SOL    HW211655   3.524   5.741   5.295
 3586SOL     OW11656   6.724   2.097   5.285
 3586SOL    HW111657   6.667   2.144   5.217
 3586SOL    HW211658   6.679   2.013   5.315
 3587SOL     OW11659   2.633   5.255   0.286
 3587SOL    HW111660   2.705   5.218   0.345
 3587SOL    HW211661   2.616   5.190   0.211
 3588SOL     OW11662   1.101   3.229   5.776
 3588SOL    HW111663   1.050   3.146   5.800
 3588SOL    HW211664   1.199   3.213   5.792
 3589SOL     OW11665   3.974   1.510   3.840
 3589SOL    HW111666   3.964   1.600   3.883
 3589SOL    HW211667   4.009   1.445   3.908
 3590SOL     OW11668   0.010   4.390   6.441
 3590SOL    HW111669   6.993   4.400   6.533
 3590SOL    HW211670   6.969   4.335   6.385
 3591SOL     OW11671   4.949   3.472   6.552
 3591SOL    HW111672   4.916   3.538   6.619
 3591SOL    HW211673   4.901   3.385   6.563
 3592SOL     OW11674   5.640   3.967   2.989
 3592SOL    HW111675   5.673   4.058   3.014
 3592SOL    HW211676   5.647   3.906   3.068
 3593SOL     OW11677   2.067   5.985   4.645
 3593SOL    HW111678   2.016   5.900   4.660
 3593SOL    HW211679   2.003   6.062   4.644
 3594SOL     OW11680   3.804   0.612   2.576
 3594SOL    HW111681   3.743   0.668   2.521
 3594SOL    HW211682   3.753   0.572   2.652
 3595SOL     OW11683   1.769   6.154   6.468
 3595SOL    HW111684   1.813   6.066   6.486
 3595SOL    HW211685   1.673   6.139   6.444
 3596SOL     OW11686   6.554   2.062   3.124
 3596SOL    HW111687   6.575   1.965   3.120
 3596SOL    HW211688   6.497   2.080   3.205
 3597SOL     OW11689   2.782   6.826   5.021
 3597SOL    HW111690   2.717   6.815   4.945
 3597SOL    HW211691   2.755   6.767   5.096
 3598SOL     OW11692   1.353   0.385   5.821
 3598SOL    HW111693   1.301   0.392   5.906
 3598SOL    HW211694   1.328   0.300   5.774
 3599SOL     OW11695   0.835   2.158   5.588
 3599SOL    HW111696   0.810   2.105   5.507
 3599SOL    HW211697   0.918   2.120   5.629
 3600SOL     OW11698   0.406   3.223   1.097
 3600SOL    HW111699   0.349   3.190   1.172
 3600SOL    HW211700   0.393   3.164   1.017
 3601SOL     OW11701   6.542   3.991   0.254
 3601SOL    HW111702   6.446   3.961   0.257
 3601SOL    HW211703   6.586   3.954   0.173
 3602SOL     OW11704   1.544   1.392   1.169
 3602SOL    HW111705   1.632   1.409   1.214
 3602SOL    HW211706   1.557   1.394   1.070
 3603SOL     OW11707   3.259   6.558   3.798
 3603SOL    HW111708   3.314   6.641   3.802
 3603SOL    HW211709   3.247   6.521   3.890
 3604SOL     OW11710   6.280   4.637   3.840
 3604SOL    HW111711   6.227   4.700   3.898
 3604SOL    HW211712   6.282   4.672   3.746
 3605SOL     OW11713   6.017   4.745   5.910
 3605SOL    HW111714   6.050   4.683   5.982
 3605SOL    HW211715   6.034   4.840   5.938
 3606SOL     OW11716   6.466   4.992   5.600
 3606SOL    HW111717   6.549   5.044   5.579
 3606SOL    HW211718   6.400   5.052   5.646
 3607SOL     OW11719   5.360   6.506   0.869
 3607SOL    HW111720   5.412   6.555   0.799
 3607SOL    HW211721   5.407   6.512   0.957
 3608SOL     OW11722   6.895   1.839   1.901
 3608SOL    HW111723   6.962   1.816   1.831
 3608SOL    HW211724   6.941   1.884   1.978
 3609SOL     OW11725   0.231   0.336   4.104
 3609SOL    HW111726   0.226   0.359   4.007
 3609SOL    HW211727   0.158   0.383   4.154
 3610SOL     OW11728   0.511   0.482   5.872
 3610SOL    HW111729   0.566   0.475   5.789
 3610SOL    HW211730   0.564   0.447   5.950
 3611SOL     OW11731   3.841   5.233   5.295
 3611SOL    HW111732   3.780   5.309   5.317
 3611SOL    HW211733   3.856   5.177   5.376
 3612SOL     OW11734   6.241   0.445   5.779
 3612SOL    HW111735   6.325   0.500   5.781
 3612SOL    HW211736   6.234   0.393   5.864
 3613SOL     OW11737   5.641   5.171   1.514
 3613SOL    HW111738   5.632   5.086   1.567
 3613SOL    HW211739   5.555   5.189   1.466
 3614SOL     OW11740   3.386   3.398   3.020
 3614SOL    HW111741   3.374   3.406   3.119
 3614SOL    HW211742   3.331   3.467   2.973
 3615SOL     OW11743   5.884   6.092   6.054
 3615SOL    HW111744   5.823   6.013   6.067
 3615SOL    HW211745   5.884   6.148   6.136
 3616SOL     OW11746   6.974   1.697   6.440
 3616SOL    HW111747   6.951   1.787   6.404
 3616SOL    HW211748   6.965   1.697   6.539
 3617SOL     OW11749   5.577   1.210   6.880
 3617SOL    HW111750   5.581   1.284   6.812
 3617SOL    HW211751   5.594   1.248   6.971
 3618SOL     OW11752   1.971   2.045   5.655
 3618SOL    HW111753   1.907   2.112   5.616
 3618SOL    HW211754   2.051   2.037   5.595
 3619SOL     OW11755   6.064   2.543   4.017
 3619SOL    HW111756   6.055   2.476   3.943
 3619SOL    HW211757   5.974   2.585   4.034
 3620SOL     OW11758   5.910   5.616   5.934
 3620SOL    HW111759   6.008   5.623   5.953
 3620SOL    HW211760   5.894   5.558   5.855
 3621SOL     OW11761   3.076   2.000   5.791
 3621SOL    HW111762   3.007   2.069   5.770
 3621SOL    HW211763   3.091   1.996   5.890
 3622SOL     OW11764   2.583   1.980   3.164
 3622SOL    HW111765   2.560   2.055   3.102
 3622SOL    HW211766   2.662   1.930   3.128
 3623SOL     OW11767   5.457   6.266   3.991
 3623SOL    HW111768   5.486   6.196   4.056
 3623SOL    HW211769   5.536   6.297   3.938
 3624SOL     OW11770   2.230   0.394   2.310
 3624SOL    HW111771   2.143   0.355   2.337
 3624SOL    HW211772   2.238   0.487   2.346
 3625SOL     OW11773   5.952   3.004   0.010
 3625SOL    HW111774   5.982   2.970   6.942
 3625SOL    HW211775   6.003   2.959   0.083
 3626SOL     OW11776   1.726   3.602   5.406
 3626SOL    HW111777   1.759   3.619   5.313
 3626SOL    HW211778   1.792   3.638   5.472
 3627SOL     OW11779   3.745   2.957   3.511
 3627SOL    HW111780   3.779   2.964   3.417
 3627SOL    HW211781   3.690   2.874   3.521
 3628SOL     OW11782   2.142   6.770   1.378
 3628SOL    HW111783   2.093   6.698   1.329
 3628SOL    HW211784   2.233   6.781   1.337
 3629SOL     OW11785   6.623   2.112   3.856
 3629SOL    HW111786   6.562   2.140   3.782
 3629SOL    HW211787   6.570   2.064   3.926
 3630SOL     OW11788   5.540   2.755   3.320
 3630SOL    HW111789   5.616   2.764   3.383
 3630SOL    HW211790   5.536   2.836   3.261
 3631SOL     OW11791   1.869   6.702   3.951
 3631SOL    HW111792   1.814   6.758   3.889
 3631SOL    HW211793   1.907   6.760   4.023
 3632SOL     OW11794   5.387   0.354   0.499
 3632SOL    HW111795   5.444   0.415   0.553
 3632SOL    HW211796   5.305   0.403   0.468
 3633SOL     OW11797   3.226   1.640   5.917
 3633SOL    HW111798   3.253   1.688   5.833
 3633SOL    HW211799   3.128   1.620   5.914
 3634SOL     OW11800   0.257   5.254   5.650
 3634SOL    HW111801   0.176   5.235   5.594
 3634SOL    HW211802   0.298   5.168   5.680
 3635SOL     OW11803   2.474   0.267   6.272
 3635SOL    HW111804   2.390   0.276   6.325
 3635SOL    HW211805   2.538   0.340   6.299
 3636SOL     OW11806   0.715   5.772   6.612
 3636SOL    HW111807   0.805   5.762   6.655
 3636SOL    HW211808   0.670   5.683   6.607
 3637SOL     OW11809   6.499   2.183   1.417
 3637SOL    HW111810   6.552   2.133   1.348
 3637SOL    HW211811   6.546   2.270   1.437
 3638SOL     OW11812   6.949   4.571   4.186
 3638SOL    HW111813   6.951   4.669   4.202
 3638SOL    HW211814   0.005   4.545   4.128
 3639SOL     OW11815   4.073   3.861   0.717
 3639SOL    HW111816   4.168   3.875   0.747
 3639SOL    HW211817   4.025   3.805   0.784
 3640SOL     OW11818   3.515   0.062   6.808
 3640SOL    HW111819   3.527   6.983   6.807
 3640SOL    HW211820   3.556   0.100   6.725
 3641SOL     OW11821   4.848   2.962   3.876
 3641SOL    HW111822   4.930   3.017   3.892
 3641SOL    HW211823   4.831   2.956   3.778
 3642SOL     OW11824   4.913   1.140   0.216
 3642SOL    HW111825   4.984   1.209   0.207
 3642SOL    HW211826   4.955   1.049   0.219
 3643SOL     OW11827   3.031   5.755   4.676
 3643SOL    HW111828   3.022   5.818   4.753
 3643SOL    HW211829   3.067   5.668   4.708
 3644SOL     OW11830   6.938   1.195   1.708
 3644SOL    HW111831   7.004   1.120   1.708
 3644SOL    HW211832   6.940   1.241   1.619
 3645SOL     OW11833   6.773   1.580   4.073
 3645SOL    HW111834   6.744   1.500   4.020
 3645SOL    HW211835   6.727   1.661   4.038
 3646SOL     OW11836   6.634   4.225   6.585
 3646SOL    HW111837   6.698   4.149   6.598
 3646SOL    HW211838   6.658   4.274   6.501
 3647SOL     OW11839   2.471   3.425   0.079
 3647SOL    HW111840   2.376   3.394   0.085
 3647SOL    HW211841   2.475   3.524   0.085
 3648SOL     OW11842   2.989   4.963   3.081
 3648SOL    HW111843   2.954   5.056   3.067
 3648SOL    HW211844   3.082   4.956   3.045
 3649SOL     OW11845   4.928   2.921   1.600
 3649SOL    HW111846   4.918   2.918   1.699
 3649SOL    HW211847   4.881   3.001   1.563
 3650SOL     OW11848   0.013   4.988   0.485
 3650SOL    HW111849   0.089   4.927   0.464
 3650SOL    HW211850   6.954   4.961   0.432
 3651SOL     OW11851   0.405   6.535   3.664
 3651SOL    HW111852   0.325   6.475   3.669
 3651SOL    HW211853   0.483   6.490   3.708
 3652SOL     OW11854   6.002   6.512   3.178
 3652SOL    HW111855   6.029   6.417   3.166
 3652SOL    HW211856   6.075   6.571   3.143
 3653SOL     OW11857   0.071   0.670   3.672
 3653SOL    HW111858   0.080   0.768   3.658
 3653SOL    HW211859   0.002   0.653   3.742
 3654SOL     OW11860   2.542   5.891   0.503
 3654SOL    HW111861   2.456   5.861   0.544
 3654SOL    HW211862   2.592   5.948   0.568
 3655SOL     OW11863   1.726   0.187   3.308
 3655SOL    HW111864   1.663   0.229   3.374
 3655SOL    HW211865   1.814   0.171   3.352
 3656SOL     OW11866   0.935   3.469   2.465
 3656SOL    HW111867   0.907   3.455   2.560
 3656SOL    HW211868   0.950   3.566   2.449
 3657SOL     OW11869   5.170   5.372   6.223
 3657SOL    HW111870   5.215   5.460   6.238
 3657SOL    HW211871   5.089   5.385   6.166
 3658SOL     OW11872   1.720   6.334   3.798
 3658SOL    HW111873   1.769   6.310   3.881
 3658SOL    HW211874   1.779   6.390   3.740
 3659SOL     OW11875   2.579   3.228   5.946
 3659SOL    HW111876   2.514   3.282   5.891
 3659SOL    HW211877   2.594   3.273   6.034
 3660SOL     OW11878   4.631   0.339   2.902
 3660SOL    HW111879   4.685   0.305   2.979
 3660SOL    HW211880   4.542   0.293   2.902
 3661SOL     OW11881   4.769   1.642   5.520
 3661SOL    HW111882   4.834   1.655   5.595
 3661SOL    HW211883   4.698   1.713   5.523
 3662SOL     OW11884   4.311   0.676   3.540
 3662SOL    HW111885   4.242   0.741   3.573
 3662SOL    HW211886   4.354   0.631   3.618
 3663SOL     OW11887   2.031   1.843   0.425
 3663SOL    HW111888   2.106   1.907   0.407
 3663SOL    HW211889   2.027   1.775   0.352
 3664SOL     OW11890   4.831   2.031   1.697
 3664SOL    HW111891   4.898   2.096   1.661
 3664SOL    HW211892   4.776   2.076   1.768
 3665SOL     OW11893   1.402   6.261   5.601
 3665SOL    HW111894   1.426   6.169   5.631
 3665SOL    HW211895   1.433   6.327   5.671
 3666SOL     OW11896   1.829   3.767   3.087
 3666SOL    HW111897   1.757   3.836   3.083
 3666SOL    HW211898   1.795   3.687   3.137
 3667SOL     OW11899   6.994   0.592   0.848
 3667SOL    HW111900   7.015   0.619   0.754
 3667SOL    HW211901   6.962   0.672   0.899
 3668SOL     OW11902   1.747   1.054   2.258
 3668SOL    HW111903   1.813   0.993   2.213
 3668SOL    HW211904   1.686   1.092   2.189
 3669SOL     OW11905   6.185   1.323   3.569
 3669SOL    HW111906   6.098   1.278   3.550
 3669SOL    HW211907   6.260   1.260   3.549
 3670SOL     OW11908   1.849   4.566   0.271
 3670SOL    HW111909   1.875   4.508   0.348
 3670SOL    HW211910   1.907   4.545   0.192
 3671SOL     OW11911   6.213   0.428   4.011
 3671SOL    HW111912   6.161   0.385   4.084
 3671SOL    HW211913   6.153   0.445   3.933
 3672SOL     OW11914   5.382   2.510   1.585
 3672SOL    HW111915   5.386   2.610   1.588
 3672SOL    HW211916   5.323   2.477   1.658
 3673SOL     OW11917   3.764   6.968   6.525
 3673SOL    HW111918   3.702   6.890   6.537
 3673SOL    HW211919   3.839   6.942   6.464
 3674SOL     OW11920   0.387   0.094   5.197
 3674SOL    HW111921   0.317   0.066   5.262
 3674SOL    HW211922   0.474   0.103   5.244
 3675SOL     OW11923   1.608   3.163   4.894
 3675SOL    HW111924   1.555   3.230   4.947
 3675SOL    HW211925   1.688   3.207   4.855
 3676SOL     OW11926   4.948   4.494   4.665
 3676SOL    HW111927   4.978   4.513   4.758
 3676SOL    HW211928   4.984   4.564   4.603
 3677SOL     OW11929   1.896   6.536   3.147
 3677SOL    HW111930   1.951   6.555   3.066
 3677SOL    HW211931   1.896   6.617   3.207
 3678SOL     OW11932   0.818   3.718   4.354
 3678SOL    HW111933   0.857   3.807   4.377
 3678SOL    HW211934   0.788   3.672   4.438
 3679SOL     OW11935   1.721   0.409   3.125
 3679SOL    HW111936   1.778   0.398   3.044
 3679SOL    HW211937   1.715   0.322   3.174
 3680SOL     OW11938   5.886   2.226   2.811
 3680SOL    HW111939   5.899   2.325   2.818
 3680SOL    HW211940   5.883   2.186   2.903
 3681SOL     OW11941   0.653   0.549   5.242
 3681SOL    HW111942   0.740   0.569   5.196
 3681SOL    HW211943   0.671   0.516   5.335
 3682SOL     OW11944   5.259   2.381   6.751
 3682SOL    HW111945   5.284   2.296   6.798
 3682SOL    HW211946   5.193   2.361   6.678
 3683SOL     OW11947   6.875   6.611   3.335
 3683SOL    HW111948   6.938   6.651   3.268
 3683SOL    HW211949   6.795   6.574   3.288
 3684SOL     OW11950   1.252   4.433   7.006
 3684SOL    HW111951   1.240   4.530   0.007
 3684SOL    HW211952   1.338   4.400   0.023
 3685SOL     OW11953   6.410   6.594   6.227
 3685SOL    HW111954   6.394   6.692   6.212
 3685SOL    HW211955   6.502   6.570   6.196
 3686SOL     OW11956   6.392   6.358   3.116
 3686SOL    HW111957   6.347   6.404   3.192
 3686SOL    HW211958   6.323   6.321   3.054
 3687SOL     OW11959   3.705   5.998   5.577
 3687SOL    HW111960   3.747   5.909   5.560
 3687SOL    HW211961   3.727   6.061   5.503
 3688SOL     OW11962   7.003   3.086   6.322
 3688SOL    HW111963   0.069   3.083   6.372
 3688SOL    HW211964   6.995   3.005   6.264
 3689SOL     OW11965   2.075   0.923   6.944
 3689SOL    HW111966   2.049   0.878   0.009
 3689SOL    HW211967   2.079   0.855   6.871
 3690SOL     OW11968   4.387   6.735   6.741
 3690SOL    HW111969   4.429   6.668   6.680
 3690SOL    HW211970   4.381   6.698   6.833
 3691SOL     OW11971   3.059   2.463   6.984
 3691SOL    HW111972   3.142   2.510   7.013
 3691SOL    HW211973   2.981   2.498   0.015
 3692SOL     OW11974   0.763   6.005   5.173
 3692SOL    HW111975   0.784   6.072   5.101
 3692SOL    HW211976   0.670   5.970   5.159
 3693SOL     OW11977   2.281   2.837   2.764
 3693SOL    HW111978   2.234   2.760   2.806
 3693SOL    HW211979   2.377   2.813   2.748
 3694SOL     OW11980   1.550   5.320   2.698
 3694SOL    HW111981   1.585   5.299   2.789
 3694SOL    HW211982   1.469   5.264   2.680
 3695SOL     OW11983   6.431   2.896   2.231
 3695SOL    HW111984   6.491   2.845   2.293
 3695SOL    HW211985   6.437   2.857   2.140
 3696SOL     OW11986   3.024   5.914   4.943
 3696SOL    HW111987   2.990   5.908   5.038
 3696SOL    HW211988   3.101   5.977   4.939
 3697SOL     OW11989   0.251   6.120   3.719
 3697SOL    HW111990   0.225   6.150   3.811
 3697SOL    HW211991   0.233   6.193   3.654
 3698SOL     OW11992   2.478   6.991   5.074
 3698SOL    HW111993   2.523   6.987   5.164
 3698SOL    HW211994   2.541   6.956   5.005
 3699SOL     OW11995   0.414   3.433   3.368
 3699SOL    HW111996   0.334   3.388   3.329
 3699SOL    HW211997   0.464   3.480   3.295
 3700SOL     OW11998   0.147   0.487   4.483
 3700SOL    HW111999   0.194   0.570   4.513
 3700SOL    HW212000   0.080   0.459   4.552
 3701SOL     OW12001   0.506   0.584   3.486
 3701SOL    HW112002   0.522   0.502   3.539
 3701SOL    HW212003   0.495   0.560   3.389
 3702SOL     OW12004   5.716   6.410   2.408
 3702SOL    HW112005   5.653   6.345   2.450
 3702SOL    HW212006   5.675   6.501   2.410
 3703SOL     OW12007   4.234   2.047   6.360
 3703SOL    HW112008   4.261   1.954   6.337
 3703SOL    HW212009   4.241   2.105   6.279
 3704SOL     OW12010   3.561   1.385   0.838
 3704SOL    HW112011   3.638   1.380   0.902
 3704SOL    HW212012   3.587   1.436   0.757
 3705SOL     OW12013   5.153   5.736   3.857
 3705SOL    HW112014   5.108   5.716   3.944
 3705SOL    HW212015   5.177   5.833   3.853
 3706SOL     OW12016   1.495   3.464   5.270
 3706SOL    HW112017   1.404   3.483   5.307
 3706SOL    HW212018   1.558   3.536   5.297
 3707SOL     OW12019   5.868   3.729   5.564
 3707SOL    HW112020   5.836   3.823   5.577
 3707SOL    HW212021   5.797   3.675   5.520
 3708SOL     OW12022   6.665   0.883   6.386
 3708SOL    HW112023   6.668   0.937   6.302
 3708SOL    HW212024   6.729   0.921   6.453
 3709SOL     OW12025   3.568   0.525   0.809
 3709SOL    HW112026   3.608   0.489   0.893
 3709SOL    HW212027   3.544   0.621   0.822
 3710SOL     OW12028   0.018   5.804   0.305
 3710SOL    HW112029   0.040   5.887   0.355
 3710SOL    HW212030   6.958   5.761   0.347
 3711SOL     OW12031   6.817   6.390   2.312
 3711SOL    HW112032   6.813   6.389   2.212
 3711SOL    HW212033   6.912   6.399   2.342
 3712SOL     OW12034   6.993   6.535   6.784
 3712SOL    HW112035   6.965   6.607   6.721
 3712SOL    HW212036   6.949   6.550   6.873
 3713SOL     OW12037   1.940   6.236   4.442
 3713SOL    HW112038   1.924   6.280   4.530
 3713SOL    HW212039   1.852   6.222   4.396
 3714SOL     OW12040   4.761   4.956   5.143
 3714SOL    HW112041   4.836   4.939   5.208
 3714SOL    HW212042   4.733   5.051   5.150
 3715SOL     OW12043   6.101   3.746   3.153
 3715SOL    HW112044   6.183   3.689   3.145
 3715SOL    HW212045   6.045   3.713   3.229
 3716SOL     OW12046   5.913   6.492   4.979
 3716SOL    HW112047   5.846   6.563   4.958
 3716SOL    HW212048   6.004   6.521   4.950
 3717SOL     OW12049   5.476   5.469   6.126
 3717SOL    HW112050   5.393   5.521   6.105
 3717SOL    HW212051   5.512   5.498   6.215
 3718SOL     OW12052   2.188   0.602   6.863
 3718SOL    HW112053   2.190   0.605   6.963
 3718SOL    HW212054   2.191   0.507   6.833
 3719SOL     OW12055   5.403   4.561   0.847
 3719SOL    HW112056   5.500   4.548   0.829
 3719SOL    HW212057   5.349   4.520   0.773
 3720SOL     OW12058   6.554   1.875   5.342
 3720SOL    HW112059   6.469   1.841   5.302
 3720SOL    HW212060   6.612   1.797   5.369
 3721SOL     OW12061   5.476   4.567   1.179
 3721SOL    HW112062   5.492   4.479   1.135
 3721SOL    HW212063   5.423   4.626   1.118
 3722SOL     OW12064   6.201   6.887   1.600
 3722SOL    HW112065   6.105   6.865   1.620
 3722SOL    HW212066   6.259   6.814   1.636
 3723SOL     OW12067   6.224   6.318   1.776
 3723SOL    HW112068   6.155   6.382   1.742
 3723SOL    HW212069   6.309   6.367   1.793
 3724SOL     OW12070   1.732   5.137   6.326
 3724SOL    HW112071   1.804   5.111   6.262
 3724SOL    HW212072   1.643   5.124   6.282
 3725SOL     OW12073   5.637   5.313   0.231
 3725SOL    HW112074   5.629   5.267   0.320
 3725SOL    HW212075   5.554   5.367   0.215
 3726SOL     OW12076   6.457   5.793   0.456
 3726SOL    HW112077   6.464   5.760   0.361
 3726SOL    HW212078   6.361   5.809   0.479
 3727SOL     OW12079   6.627   1.897   5.976
 3727SOL    HW112080   6.638   1.963   6.050
 3727SOL    HW212081   6.701   1.908   5.910
 3728SOL     OW12082   1.229   4.074   0.251
 3728SOL    HW112083   1.234   3.977   0.228
 3728SOL    HW212084   1.182   4.123   0.177
 3729SOL     OW12085   1.017   2.171   3.632
 3729SOL    HW112086   1.107   2.160   3.674
 3729SOL    HW212087   0.990   2.085   3.588
 3730SOL     OW12088   2.477   5.449   6.399
 3730SOL    HW112089   2.458   5.538   6.356
 3730SOL    HW212090   2.515   5.387   6.331
 3731SOL     OW12091   4.864   0.400   0.951
 3731SOL    HW112092   4.889   0.364   0.862
 3731SOL    HW212093   4.866   0.500   0.948
 3732SOL     OW12094   1.647   2.202   6.357
 3732SOL    HW112095   1.732   2.167   6.319
 3732SOL    HW212096   1.667   2.270   6.428
 3733SOL     OW12097   1.492   3.676   1.664
 3733SOL    HW112098   1.523   3.739   1.592
 3733SOL    HW212099   1.522   3.584   1.643
 3734SOL     OW12100   4.737   1.147   1.822
 3734SOL    HW112101   4.645   1.149   1.860
 3734SOL    HW212102   4.779   1.058   1.843
 3735SOL     OW12103   2.096   0.529   3.382
 3735SOL    HW112104   2.080   0.450   3.322
 3735SOL    HW212105   2.168   0.508   3.447
 3736SOL     OW12106   6.430   2.598   0.796
 3736SOL    HW112107   6.377   2.682   0.803
 3736SOL    HW212108   6.369   2.519   0.804
 3737SOL     OW12109   4.918   0.760   3.700
 3737SOL    HW112110   4.905   0.804   3.789
 3737SOL    HW212111   4.872   0.813   3.629
 3738SOL     OW12112   6.910   5.514   2.372
 3738SOL    HW112113   6.956   5.596   2.338
 3738SOL    HW212114   6.942   5.493   2.464
 3739SOL     OW12115   2.738   4.798   1.429
 3739SOL    HW112116   2.829   4.761   1.409
 3739SOL    HW212117   2.725   4.802   1.528
 3740SOL     OW12118   5.504   6.955   0.278
 3740SOL    HW112119   5.473   6.965   0.184
 3740SOL    HW212120   5.515   0.025   0.320
 3741SOL     OW12121   4.814   3.191   1.559
 3741SOL    HW112122   4.882   3.249   1.513
 3741SOL    HW212123   4.821   3.205   1.658
 3742SOL     OW12124   2.599   1.814   6.279
 3742SOL    HW112125   2.583   1.913   6.279
 3742SOL    HW212126   2.694   1.796   6.305
 3743SOL     OW12127   5.467   3.868   1.021
 3743SOL    HW112128   5.540   3.931   0.996
 3743SOL    HW212129   5.505   3.793   1.076
 3744SOL     OW12130   0.675   6.163   2.763
 3744SOL    HW112131   0.586   6.117   2.764
 3744SOL    HW212132   0.737   6.114   2.702
 3745SOL     OW12133   3.900   5.148   2.158
 3745SOL    HW112134   3.901   5.065   2.103
 3745SOL    HW212135   3.982   5.203   2.137
 3746SOL     OW12136   5.125   1.740   2.728
 3746SOL    HW112137   5.190   1.810   2.700
 3746SOL    HW212138   5.035   1.781   2.743
 3747SOL     OW12139   2.899   0.305   5.544
 3747SOL    HW112140   2.804   0.296   5.512
 3747SOL    HW212141   2.918   0.401   5.565
 3748SOL     OW12142   5.361   0.480   1.726
 3748SOL    HW112143   5.369   0.407   1.794
 3748SOL    HW212144   5.432   0.548   1.742
 3749SOL     OW12145   1.704   6.650   4.216
 3749SOL    HW112146   1.633   6.714   4.245
 3749SOL    HW212147   1.685   6.619   4.123
 3750SOL     OW12148   1.504   3.757   0.712
 3750SOL    HW112149   1.488   3.699   0.632
 3750SOL    HW212150   1.591   3.805   0.700
 3751SOL     OW12151   6.689   3.551   2.159
 3751SOL    HW112152   6.754   3.522   2.089
 3751SOL    HW212153   6.628   3.621   2.122
 3752SOL     OW12154   5.197   0.438   6.854
 3752SOL    HW112155   5.098   0.431   6.843
 3752SOL    HW212156   5.237   0.475   6.770
 3753SOL     OW12157   6.313   0.772   5.636
 3753SOL    HW112158   6.398   0.737   5.674
 3753SOL    HW212159   6.281   0.850   5.689
 3754SOL     OW12160   2.316   0.291   1.568
 3754SOL    HW112161   2.379   0.268   1.493
 3754SOL    HW212162   2.227   0.251   1.549
 3755SOL     OW12163   4.396   5.166   4.987
 3755SOL    HW112164   4.389   5.175   4.888
 3755SOL    HW212165   4.337   5.233   5.032
 3756SOL     OW12166   2.624   5.218   6.820
 3756SOL    HW112167   2.658   5.312   6.822
 3756SOL    HW212168   2.687   5.158   6.869
 3757SOL     OW12169   6.210   5.102   1.884
 3757SOL    HW112170   6.146   5.179   1.885
 3757SOL    HW212171   6.185   5.039   1.810
 3758SOL     OW12172   2.154   1.237   4.335
 3758SOL    HW112173   2.097   1.155   4.328
 3758SOL    HW212174   2.143   1.277   4.426
 3759SOL     OW12175   4.186   6.952   5.274
 3759SOL    HW112176   4.198   0.018   5.321
 3759SOL    HW212177   4.246   6.883   5.316
 3760SOL     OW12178   0.737   1.714   4.038
 3760SOL    HW112179   0.728   1.615   4.047
 3760SOL    HW212180   0.805   1.747   4.104
 3761SOL     OW12181   6.573   1.041   5.188
 3761SOL    HW112182   6.514   1.119   5.167
 3761SOL    HW212183   6.541   0.998   5.273
 3762SOL     OW12184   1.613   4.144   1.237
 3762SOL    HW112185   1.605   4.208   1.314
 3762SOL    HW212186   1.521   4.115   1.208
 3763SOL     OW12187   6.710   3.708   0.136
 3763SOL    HW112188   6.712   3.789   0.077
 3763SOL    HW212189   6.615   3.681   0.152
 3764SOL     OW12190   1.653   6.947   2.490
 3764SOL    HW112191   1.698   6.925   2.403
 3764SOL    HW212192   1.669   6.872   2.554
 3765SOL     OW12193   5.889   1.348   1.371
 3765SOL    HW112194   5.862   1.435   1.412
 3765SOL    HW212195   5.987   1.349   1.352
 3766SOL     OW12196   2.266   2.266   4.225
 3766SOL    HW112197   2.175   2.297   4.197
 3766SOL    HW212198   2.331   2.341   4.214
 3767SOL     OW12199   2.947   4.130   6.307
 3767SOL    HW112200   2.975   4.040   6.276
 3767SOL    HW212201   2.941   4.131   6.407
 3768SOL     OW12202   0.563   6.919   4.847
 3768SOL    HW112203   0.657   6.920   4.880
 3768SOL    HW212204   0.544   7.003   4.796
 3769SOL     OW12205   6.116   5.194   5.100
 3769SOL    HW112206   6.081   5.113   5.053
 3769SOL    HW212207   6.041   5.258   5.116
 3770SOL     OW12208   1.199   0.973   0.097
 3770SOL    HW112209   1.275   0.949   0.036
 3770SOL    HW212210   1.235   1.010   0.182
 3771SOL     OW12211   5.423   4.211   6.387
 3771SOL    HW112212   5.356   4.272   6.428
 3771SOL    HW212213   5.415   4.120   6.428
 3772SOL     OW12214   0.833   0.394   0.102
 3772SOL    HW112215   0.853   0.412   0.198
 3772SOL    HW212216   0.831   0.295   0.085
 3773SOL     OW12217   6.605   3.184   5.303
 3773SOL    HW112218   6.649   3.121   5.239
 3773SOL    HW212219   6.633   3.160   5.396
 3774SOL     OW12220   5.504   5.736   1.767
 3774SOL    HW112221   5.603   5.752   1.767
 3774SOL    HW212222   5.468   5.750   1.859
 3775SOL     OW12223   4.151   5.225   3.363
 3775SOL    HW112224   4.173   5.161   3.289
 3775SOL    HW212225   4.063   5.269   3.344
 3776SOL     OW12226   3.890   2.142   6.528
 3776SOL    HW112227   3.889   2.136   6.429
 3776SOL    HW212228   3.843   2.225   6.558
 3777SOL     OW12229   2.493   5.267   3.882
 3777SOL    HW112230   2.523   5.209   3.957
 3777SOL    HW212231   2.492   5.363   3.912
 3778SOL     OW12232   2.349   5.920   3.423
 3778SOL    HW112233   2.377   5.840   3.369
 3778SOL    HW212234   2.255   5.944   3.400
 3779SOL     OW12235   0.500   5.060   0.870
 3779SOL    HW112236   0.564   5.058   0.946
 3779SOL    HW212237   0.464   5.153   0.859
 3780SOL     OW12238   6.567   3.806   4.627
 3780SOL    HW112239   6.572   3.722   4.572
 3780SOL    HW212240   6.483   3.805   4.680
 3781SOL     OW12241   0.295   0.101   4.224
 3781SOL    HW112242   0.277   0.197   4.198
 3781SOL    HW212243   0.378   0.096   4.279
 3782SOL     OW12244   3.341   0.015   2.757
 3782SOL    HW112245   3.369   0.028   2.662
 3782SOL    HW212246   3.255   6.986   2.760
 3783SOL     OW12247   6.340   5.681   3.787
 3783SOL    HW112248   6.318   5.768   3.831
 3783SOL    HW212249   6.400   5.628   3.847
 3784SOL     OW12250   5.372   3.012   2.627
 3784SOL    HW112251   5.301   3.075   2.657
 3784SOL    HW212252   5.459   3.061   2.618
 3785SOL     OW12253   1.305   3.221   4.765
 3785SOL    HW112254   1.317   3.260   4.856
 3785SOL    HW212255   1.258   3.287   4.706
 3786SOL     OW12256   2.268   4.143   3.270
 3786SOL    HW112257   2.229   4.117   3.182
 3786SOL    HW212258   2.329   4.222   3.258
 3787SOL     OW12259   5.625   0.515   2.215
 3787SOL    HW112260   5.721   0.514   2.244
 3787SOL    HW212261   5.577   0.589   2.262
 3788SOL     OW12262   6.236   4.076   5.029
 3788SOL    HW112263   6.184   4.160   5.047
 3788SOL    HW212264   6.224   4.050   4.933
 3789SOL     OW12265   0.435   3.825   3.325
 3789SOL    HW112266   0.349   3.814   3.274
 3789SOL    HW212267   0.506   3.768   3.283
 3790SOL     OW12268   0.908   4.580   6.103
 3790SOL    HW112269   0.999   4.593   6.144
 3790SOL    HW212270   0.858   4.667   6.106
 3791SOL     OW12271   5.248   2.047   6.614
 3791SOL    HW112272   5.188   2.127   6.619
 3791SOL    HW212273   5.193   1.964   6.627
 3792SOL     OW12274   1.553   1.741   4.049
 3792SOL    HW112275   1.558   1.736   3.949
 3792SOL    HW212276   1.458   1.755   4.077
 3793SOL     OW12277   4.867   6.562   1.671
 3793SOL    HW112278   4.960   6.545   1.703
 3793SOL    HW212279   4.848   6.660   1.673
 3794SOL     OW12280   2.817   3.113   1.610
 3794SOL    HW112281   2.803   3.020   1.645
 3794SOL    HW212282   2.733   3.145   1.566
 3795SOL     OW12283   4.078   5.574   1.308
 3795SOL    HW112284   4.177   5.565   1.299
 3795SOL    HW212285   4.058   5.647   1.373
 3796SOL     OW12286   4.376   2.094   1.786
 3796SOL    HW112287   4.316   2.158   1.834
 3796SOL    HW212288   4.320   2.029   1.735
 3797SOL     OW12289   0.810   3.512   3.360
 3797SOL    HW112290   0.874   3.435   3.366
 3797SOL    HW212291   0.845   3.579   3.295
 3798SOL     OW12292   2.851   6.396   2.548
 3798SOL    HW112293   2.789   6.319   2.531
 3798SOL    HW212294   2.861   6.451   2.465
 3799SOL     OW12295   6.959   3.038   3.613
 3799SOL    HW112296   0.023   3.071   3.571
 3799SOL    HW212297   6.967   2.940   3.631
 3800SOL     OW12298   5.349   1.871   3.621
 3800SOL    HW112299   5.367   1.898   3.527
 3800SOL    HW212300   5.435   1.871   3.672
 3801SOL     OW12301   5.969   6.736   2.292
 3801SOL    HW112302   5.990   6.639   2.274
 3801SOL    HW212303   5.896   6.766   2.231
 3802SOL     OW12304   0.709   1.438   2.068
 3802SOL    HW112305   0.760   1.413   1.986
 3802SOL    HW212306   0.738   1.528   2.099
 3803SOL     OW12307   4.047   3.394   3.295
 3803SOL    HW112308   4.100   3.434   3.370
 3803SOL    HW212309   3.961   3.445   3.284
 3804SOL     OW12310   4.223   1.643   3.755
 3804SOL    HW112311   4.246   1.685   3.667
 3804SOL    HW212312   4.144   1.584   3.744
 3805SOL     OW12313   1.687   2.569   1.662
 3805SOL    HW112314   1.729   2.646   1.711
 3805SOL    HW212315   1.706   2.484   1.712
 3806SOL     OW12316   3.659   3.632   5.447
 3806SOL    HW112317   3.688   3.544   5.484
 3806SOL    HW212318   3.578   3.620   5.390
 3807SOL     OW12319   2.449   5.337   3.502
 3807SOL    HW112320   2.361   5.334   3.550
 3807SOL    HW212321   2.444   5.282   3.419
 3808SOL     OW12322   4.191   0.895   6.918
 3808SOL    HW112323   4.156   0.926   6.830
 3808SOL    HW212324   4.179   0.796   6.925
 3809SOL     OW12325   5.482   2.828   1.225
 3809SOL    HW112326   5.498   2.924   1.204
 3809SOL    HW212327   5.567   2.786   1.258
 3810SOL     OW12328   6.119   2.810   3.547
 3810SOL    HW112329   6.081   2.719   3.532
 3810SOL    HW212330   6.187   2.806   3.620
 3811SOL     OW12331   0.249   6.563   4.829
 3811SOL    HW112332   0.302   6.616   4.762
 3811SOL    HW212333   0.303   6.485   4.860
 3812SOL     OW12334   3.383   4.656   5.582
 3812SOL    HW112335   3.407   4.729   5.646
 3812SOL    HW212336   3.324   4.589   5.629
 3813SOL     OW12337   6.041   3.604   0.466
 3813SOL    HW112338   5.956   3.635   0.424
 3813SOL    HW212339   6.030   3.601   0.565
 3814SOL     OW12340   6.926   0.009   4.660
 3814SOL    HW112341   6.861   6.983   4.600
 3814SOL    HW212342   7.018   6.996   4.643
 3815SOL     OW12343   4.061   2.956   0.833
 3815SOL    HW112344   3.974   2.937   0.880
 3815SOL    HW212345   4.044   3.016   0.755
 3816SOL     OW12346   1.050   4.971   6.369
 3816SOL    HW112347   1.070   5.068   6.374
 3816SOL    HW212348   1.135   4.919   6.369
 3817SOL     OW12349   4.911   3.706   2.258
 3817SOL    HW112350   4.893   3.804   2.254
 3817SOL    HW212351   4.891   3.672   2.350
 3818SOL     OW12352   6.333   1.066   0.388
 3818SOL    HW112353   6.302   1.136   0.324
 3818SOL    HW212354   6.424   1.089   0.422
 3819SOL     OW12355   6.062   4.572   2.677
 3819SOL    HW112356   6.141   4.512   2.671
 3819SOL    HW212357   5.989   4.537   2.618
 3820SOL     OW12358   5.463   0.279   4.122
 3820SOL    HW112359   5.510   0.365   4.102
 3820SOL    HW212360   5.412   0.250   4.042
 3821SOL     OW12361   1.248   0.607   1.546
 3821SOL    HW112362   1.299   0.634   1.464
 3821SOL    HW212363   1.311   0.570   1.614
 3822SOL     OW12364   1.879   6.723   0.174
 3822SOL    HW112365   1.972   6.746   0.147
 3822SOL    HW212366   1.858   6.630   0.144
 3823SOL     OW12367   3.563   3.476   6.413
 3823SOL    HW112368   3.645   3.485   6.469
 3823SOL    HW212369   3.566   3.389   6.364
 3824SOL     OW12370   0.709   2.494   0.696
 3824SOL    HW112371   0.694   2.566   0.629
 3824SOL    HW212372   0.766   2.422   0.655
 3825SOL     OW12373   0.726   4.773   6.962
 3825SOL    HW112374   0.782   4.790   0.021
 3825SOL    HW212375   0.784   4.750   6.884
 3826SOL     OW12376   0.463   3.469   1.005
 3826SOL    HW112377   0.451   3.380   1.050
 3826SOL    HW212378   0.561   3.490   1.000
 3827SOL     OW12379   1.162   0.842   1.312
 3827SOL    HW112380   1.149   0.865   1.216
 3827SOL    HW212381   1.124   0.751   1.330
 3828SOL     OW12382   3.428   3.775   3.589
 3828SOL    HW112383   3.443   3.873   3.594
 3828SOL    HW212384   3.470   3.731   3.669
 3829SOL     OW12385   0.647   4.802   1.823
 3829SOL    HW112386   0.548   4.812   1.836
 3829SOL    HW212387   0.667   4.792   1.725
 3830SOL     OW12388   0.716   1.473   5.685
 3830SOL    HW112389   0.749   1.427   5.603
 3830SOL    HW212390   0.708   1.408   5.760
 3831SOL     OW12391   4.557   2.434   2.278
 3831SOL    HW112392   4.565   2.499   2.354
 3831SOL    HW212393   4.466   2.441   2.238
 3832SOL     OW12394   6.804   0.448   2.561
 3832SOL    HW112395   6.727   0.384   2.555
 3832SOL    HW212396   6.777   0.528   2.614
 3833SOL     OW12397   0.460   5.823   6.441
 3833SOL    HW112398   0.396   5.757   6.403
 3833SOL    HW212399   0.527   5.776   6.499
 3834SOL     OW12400   3.580   4.181   0.596
 3834SOL    HW112401   3.501   4.134   0.637
 3834SOL    HW212402   3.550   4.267   0.555
 3835SOL     OW12403   4.070   6.195   4.906
 3835SOL    HW112404   4.100   6.127   4.973
 3835SOL    HW212405   4.140   6.203   4.835
 3836SOL     OW12406   6.944   4.992   5.734
 3836SOL    HW112407   6.914   5.088   5.730
 3836SOL    HW212408   6.866   4.933   5.750
 3837SOL     OW12409   4.542   4.402   5.668
 3837SOL    HW112410   4.469   4.334   5.676
 3837SOL    HW212411   4.534   4.469   5.742
 3838SOL     OW12412   1.029   2.677   4.002
 3838SOL    HW112413   0.952   2.671   3.938
 3838SOL    HW212414   1.032   2.768   4.042
 3839SOL     OW12415   5.453   1.567   2.740
 3839SOL    HW112416   5.372   1.511   2.759
 3839SOL    HW212417   5.469   1.629   2.817
 3840SOL     OW12418   2.970   1.057   6.164
 3840SOL    HW112419   3.013   1.126   6.223
 3840SOL    HW212420   2.875   1.081   6.149
 3841SOL     OW12421   0.344   3.117   4.297
 3841SOL    HW112422   0.357   3.093   4.201
 3841SOL    HW212423   0.400   3.057   4.354
 3842SOL     OW12424   1.742   2.555   3.153
 3842SOL    HW112425   1.782   2.639   3.190
 3842SOL    HW212426   1.805   2.515   3.086
 3843SOL     OW12427   5.606   3.753   2.523
 3843SOL    HW112428   5.508   3.753   2.541
 3843SOL    HW212429   5.640   3.659   2.523
 3844SOL     OW12430   1.085   3.169   5.370
 3844SOL    HW112431   1.169   3.121   5.345
 3844SOL    HW212432   1.007   3.106   5.363
 3845SOL     OW12433   3.420   4.448   5.873
 3845SOL    HW112434   3.372   4.386   5.935
 3845SOL    HW212435   3.382   4.440   5.781
 3846SOL     OW12436   1.094   4.644   3.702
 3846SOL    HW112437   1.133   4.566   3.749
 3846SOL    HW212438   1.074   4.717   3.768
 3847SOL     OW12439   5.241   2.985   4.739
 3847SOL    HW112440   5.328   2.947   4.710
 3847SOL    HW212441   5.218   3.064   4.682
 3848SOL     OW12442   4.753   4.895   3.166
 3848SOL    HW112443   4.791   4.982   3.199
 3848SOL    HW212444   4.794   4.819   3.218
 3849SOL     OW12445   0.787   1.545   6.196
 3849SOL    HW112446   0.835   1.587   6.273
 3849SOL    HW212447   0.854   1.498   6.138
 3850SOL     OW12448   3.011   3.304   1.640
 3850SOL    HW112449   2.946   3.229   1.628
 3850SOL    HW212450   3.101   3.276   1.607
 3851SOL     OW12451   0.701   3.931   3.348
 3851SOL    HW112452   0.624   3.884   3.392
 3851SOL    HW212453   0.686   3.932   3.249
 3852SOL     OW12454   4.150   6.523   3.976
 3852SOL    HW112455   4.069   6.465   3.964
 3852SOL    HW212456   4.201   6.527   3.891
 3853SOL     OW12457   0.742   4.032   3.891
 3853SOL    HW112458   0.786   4.016   3.979
 3853SOL    HW212459   0.772   3.964   3.825
 3854SOL     OW12460   1.582   2.254   2.950
 3854SOL    HW112461   1.549   2.319   3.019
 3854SOL    HW212462   1.602   2.303   2.865
 3855SOL     OW12463   4.753   6.500   6.346
 3855SOL    HW112464   4.742   6.421   6.286
 3855SOL    HW212465   4.763   6.582   6.291
 3856SOL     OW12466   6.615   0.318   5.855
 3856SOL    HW112467   6.549   0.288   5.923
 3856SOL    HW212468   6.573   0.314   5.764
 3857SOL     OW12469   0.888   6.219   6.163
 3857SOL    HW112470   0.791   6.204   6.177
 3857SOL    HW212471   0.937   6.203   6.249
 3858SOL     OW12472   2.315   0.809   5.464
 3858SOL    HW112473   2.272   0.738   5.520
 3858SOL    HW212474   2.249   0.845   5.398
 3859SOL     OW12475   5.606   1.585   1.608
 3859SOL    HW112476   5.583   1.540   1.521
 3859SOL    HW212477   5.528   1.639   1.639
 3860SOL     OW12478   1.843   1.807   4.070
 3860SOL    HW112479   1.870   1.711   4.063
 3860SOL    HW212480   1.752   1.814   4.111
 3861SOL     OW12481   4.376   5.560   3.715
 3861SOL    HW112482   4.473   5.571   3.692
 3861SOL    HW212483   4.329   5.519   3.637
 3862SOL     OW12484   0.401   0.626   4.804
 3862SOL    HW112485   0.467   0.701   4.807
 3862SOL    HW212486   0.448   0.540   4.821
 3863SOL     OW12487   5.850   2.344   0.084
 3863SOL    HW112488   5.772   2.367   0.025
 3863SOL    HW212489   5.858   2.412   0.157
 3864SOL     OW12490   1.905   1.056   5.906
 3864SOL    HW112491   1.875   1.062   6.001
 3864SOL    HW212492   1.826   1.041   5.847
 3865SOL     OW12493   4.287   0.735   0.692
 3865SOL    HW112494   4.357   0.724   0.763
 3865SOL    HW212495   4.212   0.671   0.709
 3866SOL     OW12496   4.356   0.097   0.148
 3866SOL    HW112497   4.379   0.001   0.132
 3866SOL    HW212498   4.382   0.151   0.069
 3867SOL     OW12499   0.449   5.826   4.456
 3867SOL    HW112500   0.522   5.861   4.515
 3867SOL    HW212501   0.370   5.887   4.460
 3868SOL     OW12502   2.975   6.865   0.680
 3868SOL    HW112503   2.967   6.846   0.582
 3868SOL    HW212504   2.954   6.782   0.731
 3869SOL     OW12505   6.338   3.384   4.589
 3869SOL    HW112506   6.338   3.436   4.503
 3869SOL    HW212507   6.413   3.418   4.647
 3870SOL     OW12508   6.139   6.636   6.965
 3870SOL    HW112509   6.089   6.630   6.878
 3870SOL    HW212510   6.219   6.695   6.953
 3871SOL     OW12511   3.872   1.523   3.056
 3871SOL    HW112512   3.780   1.494   3.083
 3871SOL    HW212513   3.939   1.457   3.092
 3872SOL     OW12514   3.900   3.036   3.959
 3872SOL    HW112515   3.965   3.112   3.955
 3872SOL    HW212516   3.886   3.010   4.054
 3873SOL     OW12517   6.573   3.528   1.289
 3873SOL    HW112518   6.663   3.554   1.323
 3873SOL    HW212519   6.581   3.456   1.220
 3874SOL     OW12520   4.811   6.083   6.586
 3874SOL    HW112521   4.859   6.135   6.657
 3874SOL    HW212522   4.747   6.019   6.629
 3875SOL     OW12523   2.213   2.925   2.348
 3875SOL    HW112524   2.163   2.951   2.266
 3875SOL    HW212525   2.309   2.910   2.324
 3876SOL     OW12526   4.145   5.977   1.301
 3876SOL    HW112527   4.157   5.918   1.380
 3876SOL    HW212528   4.206   6.056   1.308
 3877SOL     OW12529   5.527   2.510   0.627
 3877SOL    HW112530   5.460   2.583   0.640
 3877SOL    HW212531   5.612   2.550   0.593
 3878SOL     OW12532   3.468   0.069   4.692
 3878SOL    HW112533   3.415   0.152   4.674
 3878SOL    HW212534   3.414   7.010   4.664
 3879SOL     OW12535   5.894   5.015   0.663
 3879SOL    HW112536   5.898   5.109   0.695
 3879SOL    HW212537   5.800   4.994   0.635
 3880SOL     OW12538   6.083   5.076   4.142
 3880SOL    HW112539   6.034   4.990   4.155
 3880SOL    HW212540   6.104   5.117   4.230
 3881SOL     OW12541   1.639   3.297   1.930
 3881SOL    HW112542   1.667   3.332   1.840
 3881SOL    HW212543   1.547   3.258   1.923
 3882SOL     OW12544   1.408   0.962   5.781
 3882SOL    HW112545   1.325   0.909   5.766
 3882SOL    HW212546   1.423   1.023   5.703
 3883SOL     OW12547   4.592   1.176   3.076
 3883SOL    HW112548   4.599   1.096   3.135
 3883SOL    HW212549   4.572   1.257   3.132
 3884SOL     OW12550   0.662   5.678   2.433
 3884SOL    HW112551   0.735   5.706   2.370
 3884SOL    HW212552   0.657   5.742   2.509
 3885SOL     OW12553   5.774   6.595   2.847
 3885SOL    HW112554   5.702   6.660   2.823
 3885SOL    HW212555   5.756   6.506   2.805
 3886SOL     OW12556   5.539   5.320   4.959
 3886SOL    HW112557   5.457   5.329   4.903
 3886SOL    HW212558   5.576   5.411   4.980
 3887SOL     OW12559   0.741   0.626   0.045
 3887SOL    HW112560   0.793   0.699   0.089
 3887SOL    HW212561   0.786   0.538   0.061
 3888SOL     OW12562   6.703   0.685   5.170
 3888SOL    HW112563   6.729   0.749   5.098
 3888SOL    HW212564   6.619   0.717   5.214
 3889SOL     OW12565   0.055   3.706   0.446
 3889SOL    HW112566   0.024   3.714   0.352
 3889SOL    HW212567   0.151   3.731   0.452
 3890SOL     OW12568   6.016   5.846   3.593
 3890SOL    HW112569   6.083   5.792   3.544
 3890SOL    HW212570   5.923   5.817   3.568
 3891SOL     OW12571   6.237   4.819   4.381
 3891SOL    HW112572   6.160   4.783   4.329
 3891SOL    HW212573   6.205   4.849   4.471
 3892SOL     OW12574   6.858   2.257   1.673
 3892SOL    HW112575   6.937   2.216   1.719
 3892SOL    HW212576   6.809   2.186   1.622
 3893SOL     OW12577   4.692   4.779   0.540
 3893SOL    HW112578   4.661   4.792   0.446
 3893SOL    HW212579   4.713   4.683   0.556
 3894SOL     OW12580   3.877   1.803   0.644
 3894SOL    HW112581   3.888   1.867   0.568
 3894SOL    HW212582   3.912   1.713   0.617
 3895SOL     OW12583   1.302   0.606   5.322
 3895SOL    HW112584   1.235   0.659   5.374
 3895SOL    HW212585   1.394   0.628   5.353
 3896SOL     OW12586   6.611   0.745   6.023
 3896SOL    HW112587   6.516   0.728   6.051
 3896SOL    HW212588   6.636   0.838   6.050
 3897SOL     OW12589   3.230   5.506   2.652
 3897SOL    HW112590   3.194   5.459   2.732
 3897SOL    HW212591   3.279   5.589   2.681
 3898SOL     OW12592   2.861   3.683   5.143
 3898SOL    HW112593   2.862   3.728   5.053
 3898SOL    HW212594   2.786   3.720   5.198
 3899SOL     OW12595   5.773   0.206   4.848
 3899SOL    HW112596   5.692   0.252   4.812
 3899SOL    HW212597   5.776   0.218   4.947
 3900SOL     OW12598   4.913   3.585   4.096
 3900SOL    HW112599   4.984   3.627   4.039
 3900SOL    HW212600   4.883   3.500   4.053
 3901SOL     OW12601   2.714   0.334   6.075
 3901SOL    HW112602   2.808   0.311   6.099
 3901SOL    HW212603   2.699   0.315   5.978
 3902SOL     OW12604   5.226   3.771   1.968
 3902SOL    HW112605   5.297   3.768   1.898
 3902SOL    HW212606   5.238   3.853   2.024
 3903SOL     OW12607   3.759   6.208   6.516
 3903SOL    HW112608   3.694   6.133   6.517
 3903SOL    HW212609   3.803   6.213   6.427
 3904SOL     OW12610   2.307   1.169   4.947
 3904SOL    HW112611   2.272   1.083   4.985
 3904SOL    HW212612   2.231   1.225   4.915
 3905SOL     OW12613   6.951   7.005   6.349
 3905SOL    HW112614   7.000   6.926   6.311
 3905SOL    HW212615   6.856   6.980   6.366
 3906SOL     OW12616   4.136   5.138   5.799
 3906SOL    HW112617   4.067   5.081   5.753
 3906SOL    HW212618   4.154   5.219   5.744
 3907SOL     OW12619   5.254   0.168   5.110
 3907SOL    HW112620   5.184   0.120   5.058
 3907SOL    HW212621   5.284   0.111   5.186
 3908SOL     OW12622   1.119   1.461   0.684
 3908SOL    HW112623   1.123   1.438   0.587
 3908SOL    HW212624   1.204   1.436   0.728
 3909SOL     OW12625   0.093   5.190   5.410
 3909SOL    HW112626   0.002   5.188   5.368
 3909SOL    HW212627   0.162   5.196   5.338
 3910SOL     OW12628   3.518   3.761   1.876
 3910SOL    HW112629   3.573   3.717   1.947
 3910SOL    HW212630   3.578   3.810   1.813
 3911SOL     OW12631   4.474   0.937   0.013
 3911SOL    HW112632   4.502   1.032   0.023
 3911SOL    HW212633   4.397   0.931   6.970
 3912SOL     OW12634   3.915   0.036   6.001
 3912SOL    HW112635   3.901   0.062   5.905
 3912SOL    HW212636   3.843   6.993   6.029
 3913SOL     OW12637   2.489   6.719   5.826
 3913SOL    HW112638   2.450   6.726   5.735
 3913SOL    HW212639   2.441   6.647   5.878
 3914SOL     OW12640   4.343   1.024   0.653
 3914SOL    HW112641   4.358   1.067   0.742
 3914SOL    HW212642   4.326   0.927   0.665
 3915SOL     OW12643   3.324   5.663   2.385
 3915SOL    HW112644   3.340   5.735   2.453
 3915SOL    HW212645   3.228   5.636   2.387
 3916SOL     OW12646   1.487   5.710   3.881
 3916SOL    HW112647   1.471   5.638   3.949
 3916SOL    HW212648   1.547   5.675   3.810
 3917SOL     OW12649   1.202   4.927   0.184
 3917SOL    HW112650   1.179   4.831   0.198
 3917SOL    HW212651   1.144   4.965   0.112
 3918SOL     OW12652   4.785   0.225   2.355
 3918SOL    HW112653   4.754   0.191   2.444
 3918SOL    HW212654   4.885   0.227   2.353
 3919SOL     OW12655   2.577   5.693   6.532
 3919SOL    HW112656   2.636   5.651   6.463
 3919SOL    HW212657   2.568   5.791   6.512
 3920SOL     OW12658   2.769   3.126   0.200
 3920SOL    HW112659   2.849   3.183   0.182
 3920SOL    HW212660   2.702   3.139   0.126
 3921SOL     OW12661   6.866   3.317   1.193
 3921SOL    HW112662   6.928   3.318   1.115
 3921SOL    HW212663   6.899   3.381   1.263
 3922SOL     OW12664   6.071   4.318   1.195
 3922SOL    HW112665   6.168   4.335   1.210
 3922SOL    HW212666   6.017   4.366   1.265
 3923SOL     OW12667   6.736   1.608   6.854
 3923SOL    HW112668   6.772   1.645   6.940
 3923SOL    HW212669   6.661   1.545   6.873
 3924SOL     OW12670   0.352   5.101   2.890
 3924SOL    HW112671   0.324   5.138   2.978
 3924SOL    HW212672   0.409   5.020   2.904
 3925SOL     OW12673   3.953   4.568   1.034
 3925SOL    HW112674   3.891   4.642   1.059
 3925SOL    HW212675   3.922   4.482   1.075
 3926SOL     OW12676   6.803   5.519   2.949
 3926SOL    HW112677   6.901   5.498   2.955
 3926SOL    HW212678   6.781   5.589   3.017
 3927SOL     OW12679   6.870   3.746   3.489
 3927SOL    HW112680   6.853   3.663   3.541
 3927SOL    HW212681   6.803   3.816   3.513
 3928SOL     OW12682   2.711   5.448   5.769
 3928SOL    HW112683   2.682   5.480   5.679
 3928SOL    HW212684   2.667   5.504   5.840
 3929SOL     OW12685   0.663   1.813   5.678
 3929SOL    HW112686   0.618   1.890   5.723
 3929SOL    HW212687   0.670   1.736   5.742
 3930SOL     OW12688   2.456   1.409   4.086
 3930SOL    HW112689   2.507   1.456   4.013
 3930SOL    HW212690   2.491   1.438   4.175
 3931SOL     OW12691   1.726   2.001   2.922
 3931SOL    HW112692   1.664   2.079   2.933
 3931SOL    HW212693   1.769   1.979   3.009
 3932SOL     OW12694   1.942   3.952   2.631
 3932SOL    HW112695   2.017   3.886   2.624
 3932SOL    HW212696   1.871   3.916   2.691
 3933SOL     OW12697   2.228   6.859   0.206
 3933SOL    HW112698   2.129   6.874   0.206
 3933SOL    HW212699   2.247   6.761   0.203
 3934SOL     OW12700   6.845   0.816   0.927
 3934SOL    HW112701   6.895   0.872   0.993
 3934SOL    HW212702   6.760   0.863   0.902
 3935SOL     OW12703   2.023   6.965   6.881
 3935SOL    HW112704   2.079   0.017   6.920
 3935SOL    HW212705   1.928   6.977   6.911
 3936SOL     OW12706   6.802   5.219   5.698
 3936SOL    HW112707   6.742   5.183   5.626
 3936SOL    HW212708   6.825   5.314   5.678
 3937SOL     OW12709   0.129   0.264   2.156
 3937SOL    HW112710   0.217   0.306   2.178
 3937SOL    HW212711   0.080   0.242   2.241
 3938SOL     OW12712   6.959   1.775   3.755
 3938SOL    HW112713   6.953   1.869   3.720
 3938SOL    HW212714   6.978   1.778   3.854
 3939SOL     OW12715   3.006   1.884   1.825
 3939SOL    HW112716   3.066   1.959   1.853
 3939SOL    HW212717   2.913   1.902   1.857
 3940SOL     OW12718   4.312   5.565   2.033
 3940SOL    HW112719   4.297   5.565   2.132
 3940SOL    HW212720   4.225   5.546   1.987
 3941SOL     OW12721   5.061   1.178   6.071
 3941SOL    HW112722   5.050   1.248   6.141
 3941SOL    HW212723   5.149   1.131   6.084
 3942SOL     OW12724   0.034   0.222   6.312
 3942SOL    HW112725   0.119   0.215   6.260
 3942SOL    HW212726   7.015   0.131   6.322
 3943SOL     OW12727   1.394   3.993   3.012
 3943SOL    HW112728   1.387   4.086   2.975
 3943SOL    HW212729   1.415   3.999   3.110
 3944SOL     OW12730   5.739   3.437   5.810
 3944SOL    HW112731   5.646   3.462   5.836
 3944SOL    HW212732   5.737   3.378   5.730
 3945SOL     OW12733   0.847   2.596   1.999
 3945SOL    HW112734   0.849   2.683   2.048
 3945SOL    HW212735   0.761   2.548   2.018
 3946SOL     OW12736   5.858   5.403   5.766
 3946SOL    HW112737   5.841   5.365   5.857
 3946SOL    HW212738   5.894   5.332   5.705
 3947SOL     OW12739   6.253   4.883   1.236
 3947SOL    HW112740   6.184   4.955   1.237
 3947SOL    HW212741   6.313   4.895   1.157
 3948SOL     OW12742   0.789   5.418   1.560
 3948SOL    HW112743   0.812   5.326   1.525
 3948SOL    HW212744   0.838   5.486   1.506
 3949SOL     OW12745   5.842   0.484   2.966
 3949SOL    HW112746   5.914   0.456   3.031
 3949SOL    HW212747   5.808   0.574   2.991
 3950SOL     OW12748   3.019   4.258   1.655
 3950SOL    HW112749   3.109   4.301   1.647
 3950SOL    HW212750   2.957   4.321   1.704
 3951SOL     OW12751   0.057   0.132   0.964
 3951SOL    HW112752   7.010   0.199   0.933
 3951SOL    HW212753   0.144   0.179   0.979
 3952SOL     OW12754   6.676   3.991   3.232
 3952SOL    HW112755   6.695   3.990   3.330
 3952SOL    HW212756   6.577   3.993   3.218
 3953SOL     OW12757   4.019   4.322   0.730
 3953SOL    HW112758   3.984   4.385   0.660
 3953SOL    HW212759   3.985   4.230   0.711
 3954SOL     OW12760   5.613   5.585   4.974
 3954SOL    HW112761   5.635   5.609   5.068
 3954SOL    HW212762   5.514   5.591   4.961
 3955SOL     OW12763   3.528   5.921   6.032
 3955SOL    HW112764   3.562   6.015   6.022
 3955SOL    HW212765   3.530   5.875   5.944
 3956SOL     OW12766   0.225   1.111   2.733
 3956SOL    HW112767   0.192   1.051   2.805
 3956SOL    HW212768   0.267   1.192   2.773
 3957SOL     OW12769   5.033   6.784   3.511
 3957SOL    HW112770   4.948   6.834   3.497
 3957SOL    HW212771   5.059   6.786   3.607
 3958SOL     OW12772   5.507   0.796   5.919
 3958SOL    HW112773   5.487   0.795   5.821
 3958SOL    HW212774   5.440   0.740   5.968
 3959SOL     OW12775   4.084   6.339   1.308
 3959SOL    HW112776   4.173   6.296   1.322
 3959SOL    HW212777   4.054   6.324   1.214
 3960SOL     OW12778   4.240   1.345   6.816
 3960SOL    HW112779   4.163   1.282   6.822
 3960SOL    HW212780   4.228   1.419   6.883
 3961SOL     OW12781   5.711   2.577   1.647
 3961SOL    HW112782   5.647   2.513   1.690
 3961SOL    HW212783   5.660   2.652   1.606
 3962SOL     OW12784   1.846   4.776   0.005
 3962SOL    HW112785   1.799   4.844   0.061
 3962SOL    HW212786   1.941   4.767   0.035
 3963SOL     OW12787   4.791   4.078   4.556
 3963SOL    HW112788   4.772   4.125   4.470
 3963SOL    HW212789   4.822   3.985   4.537
 3964SOL     OW12790   4.633   4.790   3.722
 3964SOL    HW112791   4.611   4.692   3.732
 3964SOL    HW212792   4.635   4.833   3.812
 3965SOL     OW12793   4.249   3.193   5.984
 3965SOL    HW112794   4.207   3.129   5.920
 3965SOL    HW212795   4.344   3.166   6.000
 3966SOL     OW12796   5.720   5.773   0.402
 3966SOL    HW112797   5.714   5.873   0.396
 3966SOL    HW212798   5.636   5.736   0.440
 3967SOL     OW12799   1.371   4.315   2.482
 3967SOL    HW112800   1.463   4.281   2.460
 3967SOL    HW212801   1.371   4.350   2.575
 3968SOL     OW12802   5.983   0.110   1.316
 3968SOL    HW112803   6.051   0.037   1.318
 3968SOL    HW212804   5.912   0.092   1.383
 3969SOL     OW12805   1.870   3.642   2.857
 3969SOL    HW112806   1.801   3.685   2.799
 3969SOL    HW212807   1.881   3.694   2.941
 3970SOL     OW12808   5.802   5.916   4.021
 3970SOL    HW112809   5.854   5.836   3.990
 3970SOL    HW212810   5.851   6.000   3.996
 3971SOL     OW12811   2.746   5.221   2.157
 3971SOL    HW112812   2.785   5.292   2.215
 3971SOL    HW212813   2.654   5.249   2.128
 3972SOL     OW12814   1.166   5.386   0.886
 3972SOL    HW112815   1.119   5.302   0.911
 3972SOL    HW212816   1.099   5.460   0.876
 3973SOL     OW12817   0.949   4.219   6.206
 3973SOL    HW112818   0.905   4.253   6.123
 3973SOL    HW212819   1.013   4.147   6.183
 3974SOL     OW12820   1.001   0.659   4.836
 3974SOL    HW112821   1.039   0.726   4.901
 3974SOL    HW212822   1.003   0.568   4.878
 3975SOL     OW12823   5.024   7.015   6.003
 3975SOL    HW112824   4.945   6.960   5.978
 3975SOL    HW212825   5.108   6.970   5.972
 3976SOL     OW12826   1.528   5.451   2.091
 3976SOL    HW112827   1.589   5.398   2.149
 3976SOL    HW212828   1.486   5.391   2.023
 3977SOL     OW12829   2.760   4.427   5.884
 3977SOL    HW112830   2.816   4.345   5.875
 3977SOL    HW212831   2.814   4.507   5.860
 3978SOL     OW12832   5.489   6.767   4.825
 3978SOL    HW112833   5.530   6.800   4.740
 3978SOL    HW212834   5.410   6.710   4.804
 3979SOL     OW12835   2.940   5.873   1.435
 3979SOL    HW112836   3.015   5.848   1.497
 3979SOL    HW212837   2.862   5.813   1.452
 3980SOL     OW12838   0.176   5.800   6.632
 3980SOL    HW112839   0.159   5.817   6.534
 3980SOL    HW212840   0.125   5.719   6.660
 3981SOL     OW12841   2.004   1.544   0.438
 3981SOL    HW112842   2.063   1.470   0.405
 3981SOL    HW212843   1.968   1.595   0.360
 3982SOL     OW12844   1.903   0.220   4.163
 3982SOL    HW112845   1.825   0.179   4.211
 3982SOL    HW212846   1.924   0.165   4.082
 3983SOL     OW12847   4.742   5.374   4.403
 3983SOL    HW112848   4.744   5.302   4.472
 3983SOL    HW212849   4.664   5.434   4.420
 3984SOL     OW12850   0.353   0.638   2.192
 3984SOL    HW112851   0.446   0.666   2.215
 3984SOL    HW212852   0.321   0.571   2.259
 3985SOL     OW12853   3.379   4.655   6.316
 3985SOL    HW112854   3.397   4.753   6.326
 3985SOL    HW212855   3.368   4.614   6.407
 3986SOL     OW12856   6.415   2.062   2.711
 3986SOL    HW112857   6.388   2.150   2.750
 3986SOL    HW212858   6.408   1.991   2.781
 3987SOL     OW12859   2.856   5.303   4.139
 3987SOL    HW112860   2.800   5.258   4.209
 3987SOL    HW212861   2.945   5.258   4.132
 3988SOL     OW12862   4.074   3.526   6.853
 3988SOL    HW112863   4.084   3.608   6.909
 3988SOL    HW212864   4.114   3.543   6.762
 3989SOL     OW12865   6.737   2.156   6.668
 3989SOL    HW112866   6.756   2.063   6.700
 3989SOL    HW212867   6.714   2.215   6.746
 3990SOL     OW12868   5.506   2.349   2.779
 3990SOL    HW112869   5.546   2.318   2.866
 3990SOL    HW212870   5.554   2.430   2.747
 3991SOL     OW12871   5.941   1.177   2.141
 3991SOL    HW112872   5.985   1.092   2.113
 3991SOL    HW212873   5.847   1.178   2.108
 3992SOL     OW12874   3.427   2.244   6.815
 3992SOL    HW112875   3.513   2.242   6.865
 3992SOL    HW212876   3.428   2.318   6.749
 3993SOL     OW12877   0.637   2.108   3.166
 3993SOL    HW112878   0.639   2.130   3.263
 3993SOL    HW212879   0.571   2.034   3.150
 3994SOL     OW12880   0.239   1.072   6.357
 3994SOL    HW112881   0.166   1.031   6.302
 3994SOL    HW212882   0.295   0.999   6.397
 3995SOL     OW12883   1.751   4.030   4.441
 3995SOL    HW112884   1.829   3.972   4.415
 3995SOL    HW212885   1.718   4.079   4.360
 3996SOL     OW12886   1.112   1.205   4.499
 3996SOL    HW112887   1.031   1.187   4.554
 3996SOL    HW212888   1.193   1.210   4.558
 3997SOL     OW12889   5.347   1.458   3.558
 3997SOL    HW112890   5.264   1.487   3.605
 3997SOL    HW212891   5.396   1.391   3.614
 3998SOL     OW12892   4.124   1.546   2.915
 3998SOL    HW112893   4.124   1.518   2.819
 3998SOL    HW212894   4.032   1.536   2.952
 3999SOL     OW12895   5.723   3.369   3.925
 3999SOL    HW112896   5.804   3.339   3.975
 3999SOL    HW212897   5.697   3.298   3.858
 4000SOL     OW12898   3.195   5.577   3.168
 4000SOL    HW112899   3.156   5.639   3.100
 4000SOL    HW212900   3.152   5.594   3.257
 4001SOL     OW12901   2.874   1.940   4.052
 4001SOL    HW112902   2.887   2.006   4.126
 4001SOL    HW212903   2.842   1.987   3.970
 4002SOL     OW12904   3.035   2.616   0.598
 4002SOL    HW112905   3.123   2.619   0.646
 4002SOL    HW212906   3.047   2.571   0.509
 4003SOL     OW12907   3.185   6.131   4.893
 4003SOL    HW112908   3.190   6.194   4.815
 4003SOL    HW212909   3.161   6.183   4.975
 4004SOL     OW12910   5.702   2.399   3.543
 4004SOL    HW112911   5.613   2.361   3.566
 4004SOL    HW212912   5.729   2.369   3.451
 4005SOL     OW12913   5.313   5.706   0.682
 4005SOL    HW112914   5.371   5.774   0.727
 4005SOL    HW212915   5.283   5.638   0.748
 4006SOL     OW12916   3.679   5.435   3.105
 4006SOL    HW112917   3.771   5.451   3.070
 4006SOL    HW212918   3.683   5.414   3.203
 4007SOL     OW12919   1.054   2.633   1.834
 4007SOL    HW112920   1.136   2.594   1.876
 4007SOL    HW212921   0.982   2.639   1.903
 4008SOL     OW12922   3.597   2.069   3.702
 4008SOL    HW112923   3.556   1.979   3.692
 4008SOL    HW212924   3.613   2.089   3.799
 4009SOL     OW12925   5.686   2.929   0.742
 4009SOL    HW112926   5.600   2.950   0.788
 4009SOL    HW212927   5.755   2.998   0.766
 4010SOL     OW12928   2.518   2.822   1.748
 4010SOL    HW112929   2.486   2.777   1.665
 4010SOL    HW212930   2.463   2.903   1.766
 4011SOL     OW12931   0.236   1.051   1.869
 4011SOL    HW112932   0.270   1.058   1.963
 4011SOL    HW212933   0.230   1.143   1.829
 4012SOL     OW12934   3.933   5.496   1.623
 4012SOL    HW112935   3.920   5.595   1.619
 4012SOL    HW212936   3.843   5.451   1.619
 4013SOL     OW12937   3.007   6.439   6.922
 4013SOL    HW112938   3.092   6.386   6.920
 4013SOL    HW212939   3.012   6.515   6.857
 4014SOL     OW12940   3.754   6.234   3.374
 4014SOL    HW112941   3.708   6.190   3.297
 4014SOL    HW212942   3.796   6.320   3.344
 4015SOL     OW12943   4.869   5.149   6.230
 4015SOL    HW112944   4.823   5.231   6.196
 4015SOL    HW212945   4.801   5.081   6.257
 4016SOL     OW12946   2.121   6.129   6.787
 4016SOL    HW112947   2.109   6.069   6.866
 4016SOL    HW212948   2.176   6.083   6.718
 4017SOL     OW12949   0.409   6.335   1.161
 4017SOL    HW112950   0.319   6.293   1.179
 4017SOL    HW212951   0.480   6.282   1.208
 4018SOL     OW12952   5.041   6.189   3.314
 4018SOL    HW112953   4.969   6.217   3.250
 4018SOL    HW212954   5.048   6.257   3.387
 4019SOL     OW12955   5.853   3.867   2.841
 4019SOL    HW112956   5.840   3.775   2.805
 4019SOL    HW212957   5.768   3.900   2.881
 4020SOL     OW12958   5.621   2.422   6.189
 4020SOL    HW112959   5.616   2.519   6.210
 4020SOL    HW212960   5.625   2.409   6.090
 4021SOL     OW12961   3.822   3.699   6.141
 4021SOL    HW112962   3.900   3.728   6.086
 4021SOL    HW212963   3.854   3.651   6.223
 4022SOL     OW12964   4.046   0.141   0.156
 4022SOL    HW112965   4.137   0.101   0.164
 4022SOL    HW212966   4.054   0.241   0.150
 4023SOL     OW12967   6.313   1.774   5.263
 4023SOL    HW112968   6.218   1.803   5.251
 4023SOL    HW212969   6.318   1.675   5.270
 4024SOL     OW12970   3.650   6.150   3.866
 4024SOL    HW112971   3.559   6.137   3.906
 4024SOL    HW212972   3.718   6.156   3.938
 4025SOL     OW12973   0.962   6.005   4.473
 4025SOL    HW112974   1.000   5.961   4.554
 4025SOL    HW212975   0.960   5.939   4.398
 4026SOL     OW12976   6.575   6.042   4.467
 4026SOL    HW112977   6.484   6.018   4.431
 4026SOL    HW212978   6.626   5.958   4.485
 4027SOL     OW12979   3.716   4.096   2.084
 4027SOL    HW112980   3.735   4.087   1.986
 4027SOL    HW212981   3.619   4.114   2.098
 4028SOL     OW12982   1.352   2.293   4.086
 4028SOL    HW112983   1.273   2.329   4.136
 4028SOL    HW212984   1.379   2.359   4.016
 4029SOL     OW12985   1.593   4.119   6.679
 4029SOL    HW112986   1.675   4.175   6.683
 4029SOL    HW212987   1.611   4.038   6.623
 4030SOL     OW12988   1.276   1.992   5.969
 4030SOL    HW112989   1.249   1.932   6.045
 4030SOL    HW212990   1.286   1.938   5.886
 4031SOL     OW12991   4.807   6.184   3.136
 4031SOL    HW112992   4.852   6.170   3.047
 4031SOL    HW212993   4.787   6.095   3.177
 4032SOL     OW12994   5.652   0.284   2.973
 4032SOL    HW112995   5.710   0.203   2.985
 4032SOL    HW212996   5.710   0.362   2.949
 4033SOL     OW12997   3.218   3.021   2.946
 4033SOL    HW112998   3.266   2.957   2.887
 4033SOL    HW212999   3.158   3.079   2.890
 4034SOL     OW13000   5.618   1.844   5.255
 4034SOL    HW113001   5.586   1.853   5.350
 4034SOL    HW213002   5.575   1.764   5.213
 4035SOL     OW13003   6.425   3.795   1.292
 4035SOL    HW113004   6.484   3.716   1.310
 4035SOL    HW213005   6.357   3.803   1.365
 4036SOL     OW13006   5.470   6.522   3.242
 4036SOL    HW113007   5.472   6.567   3.332
 4036SOL    HW213008   5.564   6.510   3.210
 4037SOL     OW13009   1.751   2.261   0.911
 4037SOL    HW113010   1.663   2.290   0.948
 4037SOL    HW213011   1.820   2.262   0.984
 4038SOL     OW13012   5.177   4.841   1.904
 4038SOL    HW113013   5.115   4.763   1.906
 4038SOL    HW213014   5.144   4.908   1.837
 4039SOL     OW13015   5.241   5.230   1.120
 4039SOL    HW113016   5.208   5.284   1.197
 4039SOL    HW213017   5.321   5.275   1.080
 4040SOL     OW13018   2.851   6.355   0.309
 4040SOL    HW113019   2.761   6.351   0.265
 4040SOL    HW213020   2.869   6.448   0.340
 4041SOL     OW13021   1.803   5.632   1.946
 4041SOL    HW113022   1.730   5.565   1.958
 4041SOL    HW213023   1.833   5.664   2.036
 4042SOL     OW13024   6.136   4.021   3.189
 4042SOL    HW113025   6.144   3.950   3.119
 4042SOL    HW213026   6.168   3.986   3.277
 4043SOL     OW13027   5.351   2.272   4.176
 4043SOL    HW113028   5.412   2.338   4.131
 4043SOL    HW213029   5.275   2.250   4.115
 4044SOL     OW13030   4.854   0.857   4.650
 4044SOL    HW113031   4.940   0.813   4.624
 4044SOL    HW213032   4.861   0.892   4.743
 4045SOL     OW13033   2.746   4.253   6.492
 4045SOL    HW113034   2.712   4.263   6.398
 4045SOL    HW213035   2.795   4.165   6.500
 4046SOL     OW13036   0.618   2.154   3.433
 4046SOL    HW113037   0.646   2.161   3.528
 4046SOL    HW213038   0.541   2.216   3.416
 4047SOL     OW13039   2.803   2.581   0.745
 4047SOL    HW113040   2.887   2.588   0.690
 4047SOL    HW213041   2.772   2.673   0.769
 4048SOL     OW13042   5.670   1.065   1.740
 4048SOL    HW113043   5.595   1.084   1.677
 4048SOL    HW213044   5.753   1.109   1.707
 4049SOL     OW13045   6.304   6.481   6.562
 4049SOL    HW113046   6.266   6.570   6.535
 4049SOL    HW213047   6.357   6.444   6.487
 4050SOL     OW13048   1.573   7.019   0.422
 4050SOL    HW113049   1.603   6.931   0.386
 4050SOL    HW213050   1.640   0.069   0.399
 4051SOL     OW13051   3.102   3.228   6.670
 4051SOL    HW113052   3.062   3.295   6.733
 4051SOL    HW213053   3.173   3.271   6.616
 4052SOL     OW13054   1.171   0.248   1.331
 4052SOL    HW113055   1.111   0.303   1.272
 4052SOL    HW213056   1.119   0.215   1.410
 4053SOL     OW13057   3.102   5.141   4.165
 4053SOL    HW113058   3.134   5.099   4.249
 4053SOL    HW213059   3.165   5.214   4.137
 4054SOL     OW13060   2.109   2.985   1.058
 4054SOL    HW113061   2.079   2.976   0.963
 4054SOL    HW213062   2.185   3.050   1.062
 4055SOL     OW13063   2.895   3.255   5.571
 4055SOL    HW113064   2.853   3.257   5.661
 4055SOL    HW213065   2.825   3.263   5.501
 4056SOL     OW13066   4.183   2.897   6.629
 4056SOL    HW113067   4.196   2.826   6.698
 4056SOL    HW213068   4.184   2.856   6.538
 4057SOL     OW13069   5.078   3.110   0.309
 4057SOL    HW113070   5.113   3.152   0.393
 4057SOL    HW213071   5.065   3.181   0.239
 4058SOL     OW13072   1.272   1.468   4.006
 4058SOL    HW113073   1.283   1.474   4.106
 4058SOL    HW213074   1.180   1.496   3.981
 4059SOL     OW13075   2.222   2.138   2.915
 4059SOL    HW113076   2.178   2.096   2.994
 4059SOL    HW213077   2.321   2.139   2.928
 4060SOL     OW13078   3.710   4.857   5.218
 4060SOL    HW113079   3.788   4.855   5.281
 4060SOL    HW213080   3.743   4.876   5.125
 4061SOL     OW13081   3.415   4.596   1.631
 4061SOL    HW113082   3.464   4.586   1.718
 4061SOL    HW213083   3.473   4.645   1.566
 4062SOL     OW13084   4.253   1.776   2.942
 4062SOL    HW113085   4.222   1.681   2.934
 4062SOL    HW213086   4.279   1.794   3.037
 4063SOL     OW13087   4.258   6.563   5.269
 4063SOL    HW113088   4.282   6.625   5.193
 4063SOL    HW213089   4.225   6.616   5.346
 4064SOL     OW13090   2.404   6.917   2.584
 4064SOL    HW113091   2.316   6.920   2.537
 4064SOL    HW213092   2.443   6.825   2.576
 4065SOL     OW13093   1.138   6.774   0.484
 4065SOL    HW113094   1.179   6.795   0.395
 4065SOL    HW213095   1.163   6.682   0.512
 4066SOL     OW13096   5.407   4.760   2.491
 4066SOL    HW113097   5.414   4.776   2.392
 4066SOL    HW213098   5.365   4.671   2.508
 4067SOL     OW13099   5.937   2.720   2.308
 4067SOL    HW113100   5.913   2.646   2.371
 4067SOL    HW213101   6.037   2.726   2.299
 4068SOL     OW13102   4.555   0.494   4.645
 4068SOL    HW113103   4.577   0.466   4.552
 4068SOL    HW213104   4.558   0.414   4.705
 4069SOL     OW13105   4.680   3.422   6.922
 4069SOL    HW113106   4.718   3.473   6.844
 4069SOL    HW213107   4.605   3.364   6.890
 4070SOL     OW13108   1.634   3.430   2.984
 4070SOL    HW113109   1.681   3.488   3.050
 4070SOL    HW213110   1.700   3.365   2.945
 4071SOL     OW13111   1.547   1.100   5.281
 4071SOL    HW113112   1.453   1.093   5.247
 4071SOL    HW213113   1.602   1.151   5.214
 4072SOL     OW13114   1.777   6.783   4.640
 4072SOL    HW113115   1.798   6.803   4.544
 4072SOL    HW213116   1.822   6.851   4.698
 4073SOL     OW13117   2.721   5.526   6.072
 4073SOL    HW113118   2.754   5.575   6.153
 4073SOL    HW213119   2.754   5.431   6.076
 4074SOL     OW13120   1.059   3.003   1.812
 4074SOL    HW113121   1.008   2.946   1.748
 4074SOL    HW213122   1.127   3.056   1.763
 4075SOL     OW13123   4.821   2.462   2.778
 4075SOL    HW113124   4.860   2.500   2.694
 4075SOL    HW213125   4.886   2.472   2.852
 4076SOL     OW13126   2.330   3.956   5.606
 4076SOL    HW113127   2.263   4.004   5.662
 4076SOL    HW213128   2.292   3.940   5.514
 4077SOL     OW13129   2.660   6.044   1.415
 4077SOL    HW113130   2.755   6.038   1.446
 4077SOL    HW213131   2.630   5.955   1.381
 4078SOL     OW13132   6.123   5.415   1.894
 4078SOL    HW113133   6.140   5.462   1.980
 4078SOL    HW213134   6.138   5.478   1.818
 4079SOL     OW13135   1.455   0.555   3.009
 4079SOL    HW113136   1.435   0.652   2.995
 4079SOL    HW213137   1.550   0.545   3.039
 4080SOL     OW13138   2.492   3.533   6.776
 4080SOL    HW113139   2.506   3.583   6.691
 4080SOL    HW213140   2.445   3.447   6.757
 4081SOL     OW13141   1.696   0.892   4.497
 4081SOL    HW113142   1.717   0.989   4.507
 4081SOL    HW213143   1.607   0.880   4.454
 4082SOL     OW13144   1.498   1.823   7.017
 4082SOL    HW113145   1.521   1.893   0.063
 4082SOL    HW213146   1.410   1.844   6.976
 4083SOL     OW13147   5.799   4.206   3.810
 4083SOL    HW113148   5.722   4.205   3.746
 4083SOL    HW213149   5.882   4.234   3.762
 4084SOL     OW13150   4.909   3.215   3.072
 4084SOL    HW113151   4.925   3.207   3.170
 4084SOL    HW213152   4.942   3.304   3.040
 4085SOL     OW13153   2.731   5.092   1.392
 4085SOL    HW113154   2.800   5.152   1.351
 4085SOL    HW213155   2.762   4.997   1.388
 4086SOL     OW13156   0.136   4.786   0.749
 4086SOL    HW113157   0.219   4.766   0.697
 4086SOL    HW213158   0.103   4.877   0.725
 4087SOL     OW13159   2.625   1.307   2.947
 4087SOL    HW113160   2.685   1.341   3.019
 4087SOL    HW213161   2.537   1.353   2.951
 4088SOL     OW13162   6.135   1.166   5.046
 4088SOL    HW113163   6.102   1.153   4.952
 4088SOL    HW213164   6.059   1.191   5.105
 4089SOL     OW13165   0.367   5.590   4.587
 4089SOL    HW113166   0.399   5.677   4.549
 4089SOL    HW213167   0.292   5.555   4.531
 4090SOL     OW13168   1.788   6.090   5.233
 4090SOL    HW113169   1.716   6.156   5.212
 4090SOL    HW213170   1.755   6.025   5.301
 4091SOL     OW13171   0.888   5.384   0.258
 4091SOL    HW113172   0.840   5.335   0.329
 4091SOL    HW213173   0.899   5.480   0.285
 4092SOL     OW13174   5.171   3.266   3.964
 4092SOL    HW113175   5.205   3.287   4.057
 4092SOL    HW213176   5.229   3.314   3.897
 4093SOL     OW13177   5.618   6.129   1.756
 4093SOL    HW113178   5.544   6.077   1.713
 4093SOL    HW213179   5.596   6.147   1.852
 4094SOL     OW13180   1.348   4.737   6.961
 4094SOL    HW113181   1.379   4.769   0.030
 4094SOL    HW213182   1.279   4.800   6.925
 4095SOL     OW13183   0.733   3.130   0.413
 4095SOL    HW113184   0.828   3.161   0.420
 4095SOL    HW213185   0.672   3.209   0.419
 4096SOL     OW13186   2.062   0.750   6.397
 4096SOL    HW113187   2.017   0.834   6.365
 4096SOL    HW213188   2.161   0.759   6.386
 4097SOL     OW13189   5.890   4.388   5.672
 4097SOL    HW113190   5.926   4.302   5.706
 4097SOL    HW213191   5.942   4.416   5.591
 4098SOL     OW13192   2.183   2.789   1.644
 4098SOL    HW113193   2.273   2.765   1.608
 4098SOL    HW213194   2.145   2.865   1.593
 4099SOL     OW13195   3.571   5.072   0.266
 4099SOL    HW113196   3.532   5.125   0.190
 4099SOL    HW213197   3.659   5.035   0.239
 4100SOL     OW13198   1.163   0.911   4.199
 4100SOL    HW113199   1.148   0.827   4.250
 4100SOL    HW213200   1.250   0.906   4.151
 4101SOL     OW13201   7.018   0.844   6.467
 4101SOL    HW113202   0.001   0.851   6.367
 4101SOL    HW213203   0.019   0.932   6.508
 4102SOL     OW13204   2.110   0.890   0.796
 4102SOL    HW113205   2.150   0.942   0.871
 4102SOL    HW213206   2.032   0.837   0.829
 4103SOL     OW13207   0.250   6.790   1.943
 4103SOL    HW113208   0.206   6.849   2.010
 4103SOL    HW213209   0.320   6.735   1.987
 4104SOL     OW13210   0.101   5.063   3.310
 4104SOL    HW113211   0.172   5.133   3.301
 4104SOL    HW213212   0.145   4.974   3.321
 4105SOL     OW13213   4.861   1.381   2.056
 4105SOL    HW113214   4.899   1.412   1.970
 4105SOL    HW213215   4.860   1.281   2.058
 4106SOL     OW13216   0.300   1.900   3.810
 4106SOL    HW113217   0.260   1.980   3.764
 4106SOL    HW213218   0.321   1.923   3.905
 4107SOL     OW13219   0.421   5.924   6.693
 4107SOL    HW113220   0.334   5.875   6.702
 4107SOL    HW213221   0.456   5.912   6.600
 4108SOL     OW13222   0.759   5.605   4.517
 4108SOL    HW113223   0.795   5.514   4.535
 4108SOL    HW213224   0.672   5.598   4.469
 4109SOL     OW13225   5.444   6.251   3.507
 4109SOL    HW113226   5.401   6.337   3.536
 4109SOL    HW213227   5.402   6.221   3.421
 4110SOL     OW13228   3.971   2.948   6.193
 4110SOL    HW113229   3.890   2.923   6.246
 4110SOL    HW213230   3.983   3.047   6.194
 4111SOL     OW13231   5.995   5.266   6.044
 4111SOL    HW113232   5.906   5.309   6.052
 4111SOL    HW213233   6.058   5.306   6.111
 4112SOL     OW13234   5.125   6.859   4.770
 4112SOL    HW113235   5.178   6.854   4.686
 4112SOL    HW213236   5.105   6.767   4.803
 4113SOL     OW13237   5.008   4.973   4.367
 4113SOL    HW113238   4.960   4.890   4.395
 4113SOL    HW213239   4.998   5.043   4.437
 4114SOL     OW13240   6.257   1.449   2.866
 4114SOL    HW113241   6.231   1.391   2.789
 4114SOL    HW213242   6.306   1.529   2.831
 4115SOL     OW13243   2.563   4.588   3.368
 4115SOL    HW113244   2.579   4.526   3.445
 4115SOL    HW213245   2.635   4.657   3.365
 4116SOL     OW13246   4.858   2.790   3.642
 4116SOL    HW113247   4.881   2.708   3.694
 4116SOL    HW213248   4.858   2.769   3.544
 4117SOL     OW13249   1.391   2.060   2.904
 4117SOL    HW113250   1.450   2.140   2.918
 4117SOL    HW213251   1.347   2.035   2.990
 4118SOL     OW13252   6.219   6.724   5.623
 4118SOL    HW113253   6.280   6.684   5.691
 4118SOL    HW213254   6.242   6.688   5.533
 4119SOL     OW13255   3.047   0.903   3.367
 4119SOL    HW113256   3.056   0.999   3.339
 4119SOL    HW213257   3.060   0.844   3.287
 4120SOL     OW13258   4.172   1.082   6.128
 4120SOL    HW113259   4.220   1.011   6.077
 4120SOL    HW213260   4.104   1.039   6.188
 4121SOL     OW13261   6.567   6.800   2.397
 4121SOL    HW113262   6.610   6.846   2.319
 4121SOL    HW213263   6.500   6.734   2.364
 4122SOL     OW13264   1.104   6.682   4.841
 4122SOL    HW113265   1.063   6.632   4.917
 4122SOL    HW213266   1.032   6.715   4.780
 4123SOL     OW13267   4.434   5.016   4.064
 4123SOL    HW113268   4.501   4.974   4.126
 4123SOL    HW213269   4.441   5.115   4.071
 4124SOL     OW13270   6.815   6.608   1.037
 4124SOL    HW113271   6.792   6.528   0.982
 4124SOL    HW213272   6.907   6.640   1.013
 4125SOL     OW13273   4.638   2.722   2.772
 4125SOL    HW113274   4.716   2.662   2.756
 4125SOL    HW213275   4.560   2.669   2.804
 4126SOL     OW13276   1.710   3.069   2.224
 4126SOL    HW113277   1.680   3.161   2.250
 4126SOL    HW213278   1.724   3.014   2.306
 4127SOL     OW13279   4.973   2.626   5.006
 4127SOL    HW113280   4.978   2.701   4.940
 4127SOL    HW213281   4.919   2.551   4.967
 4128SOL     OW13282   0.990   3.210   1.588
 4128SOL    HW113283   1.081   3.248   1.608
 4128SOL    HW213284   1.001   3.130   1.529
 4129SOL     OW13285   3.351   1.204   0.307
 4129SOL    HW113286   3.347   1.158   0.218
 4129SOL    HW213287   3.264   1.192   0.354
 4130SOL     OW13288   6.095   2.034   0.293
 4130SOL    HW113289   6.128   2.047   0.387
 4130SOL    HW213290   5.997   2.055   0.290
 4131SOL     OW13291   6.609   0.819   2.787
 4131SOL    HW113292   6.613   0.919   2.793
 4131SOL    HW213293   6.534   0.786   2.844
 4132SOL     OW13294   5.666   4.078   4.378
 4132SOL    HW113295   5.721   4.023   4.441
 4132SOL    HW213296   5.592   4.122   4.429
 4133SOL     OW13297   4.465   6.393   1.534
 4133SOL    HW113298   4.434   6.486   1.512
 4133SOL    HW213299   4.498   6.391   1.628
 4134SOL     OW13300   2.327   3.150   0.850
 4134SOL    HW113301   2.400   3.211   0.818
 4134SOL    HW213302   2.358   3.101   0.931
 4135SOL     OW13303   0.269   2.195   2.751
 4135SOL    HW113304   0.321   2.110   2.751
 4135SOL    HW213305   0.176   2.178   2.718
 4136SOL     OW13306   1.354   3.589   1.939
 4136SOL    HW113307   1.379   3.618   1.847
 4136SOL    HW213308   1.408   3.640   2.006
 4137SOL     OW13309   1.185   3.005   7.004
 4137SOL    HW113310   1.190   2.906   6.991
 4137SOL    HW213311   1.260   3.049   6.954
 4138SOL     OW13312   3.869   5.164   1.496
 4138SOL    HW113313   3.909   5.105   1.567
 4138SOL    HW213314   3.774   5.184   1.520
 4139SOL     OW13315   1.253   1.810   3.742
 4139SOL    HW113316   1.288   1.718   3.724
 4139SOL    HW213317   1.215   1.814   3.834
 4140SOL     OW13318   3.172   2.099   4.033
 4140SOL    HW113319   3.112   2.098   3.953
 4140SOL    HW213320   3.117   2.093   4.116
 4141SOL     OW13321   5.208   6.992   0.149
 4141SOL    HW113322   5.216   7.007   0.248
 4141SOL    HW213323   5.201   0.060   0.103
 4142SOL     OW13324   6.918   4.064   1.590
 4142SOL    HW113325   6.904   4.162   1.585
 4142SOL    HW213326   6.918   4.035   1.686
 4143SOL     OW13327   5.640   2.962   0.479
 4143SOL    HW113328   5.678   2.961   0.572
 4143SOL    HW213329   5.578   2.884   0.468
 4144SOL     OW13330   4.841   1.485   0.091
 4144SOL    HW113331   4.743   1.489   0.069
 4144SOL    HW213332   4.852   1.445   0.182
 4145SOL     OW13333   1.155   6.114   0.907
 4145SOL    HW113334   1.106   6.198   0.928
 4145SOL    HW213335   1.153   6.053   0.986
 4146SOL     OW13336   6.694   0.712   3.608
 4146SOL    HW113337   6.619   0.650   3.631
 4146SOL    HW213338   6.683   0.743   3.514
 4147SOL     OW13339   5.047   4.415   6.112
 4147SOL    HW113340   5.146   4.401   6.106
 4147SOL    HW213341   5.018   4.413   6.207
 4148SOL     OW13342   2.773   0.698   5.461
 4148SOL    HW113343   2.679   0.728   5.449
 4148SOL    HW213344   2.835   0.761   5.415
 4149SOL     OW13345   0.581   3.565   1.907
 4149SOL    HW113346   0.539   3.478   1.881
 4149SOL    HW213347   0.511   3.624   1.949
 4150SOL     OW13348   6.886   1.826   5.208
 4150SOL    HW113349   6.888   1.779   5.297
 4150SOL    HW213350   6.928   1.768   5.139
 4151SOL     OW13351   1.761   7.000   6.073
 4151SOL    HW113352   1.809   6.952   6.146
 4151SOL    HW213353   1.820   7.004   5.991
 4152SOL     OW13354   4.087   5.365   2.091
 4152SOL    HW113355   4.031   5.436   2.135
 4152SOL    HW213356   4.054   5.350   1.998
 4153SOL     OW13357   6.497   5.176   1.643
 4153SOL    HW113358   6.487   5.227   1.557
 4153SOL    HW213359   6.474   5.080   1.628
 4154SOL     OW13360   0.292   5.874   3.887
 4154SOL    HW113361   0.238   5.956   3.872
 4154SOL    HW213362   0.372   5.875   3.827
 4155SOL     OW13363   0.390   2.012   1.186
 4155SOL    HW113364   0.382   1.989   1.089
 4155SOL    HW213365   0.336   1.947   1.240
 4156SOL     OW13366   6.602   5.386   5.406
 4156SOL    HW113367   6.504   5.407   5.404
 4156SOL    HW213368   6.649   5.451   5.465
 4157SOL     OW13369   5.713   6.215   3.406
 4157SOL    HW113370   5.720   6.130   3.457
 4157SOL    HW213371   5.616   6.242   3.401
 4158SOL     OW13372   1.968   2.414   2.260
 4158SOL    HW113373   1.933   2.355   2.188
 4158SOL    HW213374   2.003   2.499   2.220
 4159SOL     OW13375   2.743   2.404   3.604
 4159SOL    HW113376   2.659   2.452   3.628
 4159SOL    HW213377   2.746   2.316   3.652
 4160SOL     OW13378   5.727   0.072   6.909
 4160SOL    HW113379   5.796   0.106   6.973
 4160SOL    HW213380   5.767   0.067   6.817
 4161SOL     OW13381   1.666   1.780   2.034
 4161SOL    HW113382   1.659   1.682   2.014
 4161SOL    HW213383   1.578   1.824   2.014
 4162SOL     OW13384   6.060   5.695   1.301
 4162SOL    HW113385   6.127   5.695   1.375
 4162SOL    HW213386   6.082   5.766   1.235
 4163SOL     OW13387   5.797   1.474   2.993
 4163SOL    HW113388   5.891   1.488   3.025
 4163SOL    HW213389   5.762   1.559   2.955
 4164SOL     OW13390   0.739   6.907   5.548
 4164SOL    HW113391   0.667   6.918   5.617
 4164SOL    HW213392   0.814   6.971   5.568
 4165SOL     OW13393   4.642   0.093   5.913
 4165SOL    HW113394   4.637   0.091   6.013
 4165SOL    HW213395   4.643   0.188   5.882
 4166SOL     OW13396   5.385   1.425   1.431
 4166SOL    HW113397   5.459   1.430   1.365
 4166SOL    HW213398   5.317   1.359   1.400
 4167SOL     OW13399   3.268   5.122   6.300
 4167SOL    HW113400   3.263   5.136   6.201
 4167SOL    HW213401   3.183   5.079   6.332
 4168SOL     OW13402   0.390   4.230   0.848
 4168SOL    HW113403   0.300   4.187   0.852
 4168SOL    HW213404   0.433   4.228   0.939
 4169SOL     OW13405   6.040   3.858   5.061
 4169SOL    HW113406   6.130   3.900   5.050
 4169SOL    HW213407   6.018   3.851   5.158
 4170SOL     OW13408   4.774   2.833   5.170
 4170SOL    HW113409   4.701   2.800   5.110
 4170SOL    HW213410   4.852   2.771   5.163
 4171SOL     OW13411   0.871   5.372   1.038
 4171SOL    HW113412   0.888   5.467   1.012
 4171SOL    HW213413   0.773   5.359   1.055
 4172SOL     OW13414   2.258   2.434   0.556
 4172SOL    HW113415   2.301   2.405   0.641
 4172SOL    HW213416   2.290   2.375   0.481
 4173SOL     OW13417   5.236   3.318   5.101
 4173SOL    HW113418   5.151   3.311   5.153
 4173SOL    HW213419   5.304   3.257   5.141
 4174SOL     OW13420   5.130   1.468   2.274
 4174SOL    HW113421   5.146   1.481   2.372
 4174SOL    HW213422   5.036   1.437   2.260
 4175SOL     OW13423   1.592   4.741   4.861
 4175SOL    HW113424   1.680   4.768   4.900
 4175SOL    HW213425   1.599   4.649   4.822
 4176SOL     OW13426   4.129   6.878   1.354
 4176SOL    HW113427   4.096   6.791   1.390
 4176SOL    HW213428   4.178   6.861   1.268
 4177SOL     OW13429   5.504   4.621   4.999
 4177SOL    HW113430   5.460   4.708   4.975
 4177SOL    HW213431   5.603   4.631   4.993
 4178SOL     OW13432   4.111   0.372   3.603
 4178SOL    HW113433   4.165   0.423   3.670
 4178SOL    HW213434   4.037   0.430   3.569
 4179SOL     OW13435   5.145   4.209   3.230
 4179SOL    HW113436   5.212   4.186   3.301
 4179SOL    HW213437   5.166   4.156   3.147
 4180SOL     OW13438   4.607   2.825   0.819
 4180SOL    HW113439   4.624   2.761   0.745
 4180SOL    HW213440   4.638   2.785   0.906
 4181SOL     OW13441   4.390   0.565   6.731
 4181SOL    HW113442   4.344   0.610   6.654
 4181SOL    HW213443   4.484   0.545   6.706
 4182SOL     OW13444   0.557   5.375   2.973
 4182SOL    HW113445   0.592   5.302   2.915
 4182SOL    HW213446   0.592   5.363   3.066
 4183SOL     OW13447   3.139   1.170   0.464
 4183SOL    HW113448   3.086   1.091   0.434
 4183SOL    HW213449   3.078   1.244   0.492
 4184SOL     OW13450   3.750   6.922   2.247
 4184SOL    HW113451   3.781   6.845   2.192
 4184SOL    HW213452   3.817   6.996   2.241
 4185SOL     OW13453   0.773   4.205   3.439
 4185SOL    HW113454   0.680   4.235   3.456
 4185SOL    HW213455   0.777   4.105   3.437
 4186SOL     OW13456   2.314   5.494   6.654
 4186SOL    HW113457   2.280   5.558   6.584
 4186SOL    HW213458   2.391   5.443   6.617
 4187SOL     OW13459   2.660   2.884   5.979
 4187SOL    HW113460   2.665   2.923   6.071
 4187SOL    HW213461   2.568   2.898   5.942
 4188SOL     OW13462   5.009   0.550   5.181
 4188SOL    HW113463   4.934   0.507   5.131
 4188SOL    HW213464   5.009   0.518   5.276
 4189SOL     OW13465   3.741   4.885   4.288
 4189SOL    HW113466   3.649   4.867   4.255
 4189SOL    HW213467   3.802   4.899   4.210
 4190SOL     OW13468   1.028   0.416   1.160
 4190SOL    HW113469   1.048   0.361   1.080
 4190SOL    HW213470   1.045   0.513   1.139
 4191SOL     OW13471   5.439   4.374   5.075
 4191SOL    HW113472   5.454   4.469   5.045
 4191SOL    HW213473   5.354   4.369   5.127
 4192SOL     OW13474   0.934   1.719   2.872
 4192SOL    HW113475   0.899   1.663   2.797
 4192SOL    HW213476   0.959   1.810   2.837
 4193SOL     OW13477   5.588   0.478   0.724
 4193SOL    HW113478   5.496   0.501   0.757
 4193SOL    HW213479   5.651   0.475   0.801
 4194SOL     OW13480   4.633   0.358   4.419
 4194SOL    HW113481   4.720   0.408   4.416
 4194SOL    HW213482   4.604   0.337   4.326
 4195SOL     OW13483   4.288   5.036   1.483
 4195SOL    HW113484   4.377   5.072   1.512
 4195SOL    HW213485   4.224   5.111   1.469
 4196SOL     OW13486   6.666   2.674   2.777
 4196SOL    HW113487   6.676   2.665   2.678
 4196SOL    HW213488   6.655   2.584   2.817
 4197SOL     OW13489   4.847   5.232   5.377
 4197SOL    HW113490   4.889   5.164   5.436
 4197SOL    HW213491   4.768   5.192   5.330
 4198SOL     OW13492   6.527   2.032   0.951
 4198SOL    HW113493   6.470   1.975   1.010
 4198SOL    HW213494   6.570   2.104   1.005
 4199SOL     OW13495   1.229   2.427   5.619
 4199SOL    HW113496   1.135   2.435   5.653
 4199SOL    HW213497   1.293   2.436   5.695
 4200SOL     OW13498   2.654   0.062   6.593
 4200SOL    HW113499   2.640   7.006   6.530
 4200SOL    HW213500   2.656   0.027   6.687
 4201SOL     OW13501   6.128   6.976   3.625
 4201SOL    HW113502   6.114   6.889   3.578
 4201SOL    HW213503   6.121   6.961   3.724
 4202SOL     OW13504   2.832   5.664   6.293
 4202SOL    HW113505   2.858   5.592   6.357
 4202SOL    HW213506   2.914   5.701   6.250
 4203SOL     OW13507   4.758   3.887   0.580
 4203SOL    HW113508   4.818   3.879   0.501
 4203SOL    HW213509   4.662   3.884   0.549
 4204SOL     OW13510   4.146   3.628   4.068
 4204SOL    HW113511   4.092   3.647   3.986
 4204SOL    HW213512   4.241   3.654   4.051
 4205SOL     OW13513   4.287   6.248   4.702
 4205SOL    HW113514   4.286   6.182   4.626
 4205SOL    HW213515   4.377   6.248   4.746
 4206SOL     OW13516   6.325   1.507   5.077
 4206SOL    HW113517   6.348   1.451   4.997
 4206SOL    HW213518   6.294   1.447   5.151
 4207SOL     OW13519   2.223   2.290   2.008
 4207SOL    HW113520   2.124   2.278   2.017
 4207SOL    HW213521   2.270   2.217   2.056
 4208SOL     OW13522   6.914   3.614   5.423
 4208SOL    HW113523   6.923   3.612   5.522
 4208SOL    HW213524   6.833   3.561   5.396
 4209SOL     OW13525   6.966   6.106   3.756
 4209SOL    HW113526   6.959   6.009   3.733
 4209SOL    HW213527   0.024   6.121   3.815
 4210SOL     OW13528   3.462   3.244   2.386
 4210SOL    HW113529   3.463   3.344   2.385
 4210SOL    HW213530   3.475   3.209   2.293
 4211SOL     OW13531   3.605   0.824   5.801
 4211SOL    HW113532   3.518   0.868   5.824
 4211SOL    HW213533   3.615   0.740   5.853
 4212SOL     OW13534   6.318   2.550   2.465
 4212SOL    HW113535   6.393   2.497   2.426
 4212SOL    HW213536   6.339   2.574   2.560
 4213SOL     OW13537   2.754   0.815   2.449
 4213SOL    HW113538   2.839   0.865   2.466
 4213SOL    HW213539   2.723   0.834   2.356
 4214SOL     OW13540   0.394   5.729   5.568
 4214SOL    HW113541   0.472   5.747   5.629
 4214SOL    HW213542   0.320   5.687   5.620
 4215SOL     OW13543   4.370   6.600   5.691
 4215SOL    HW113544   4.282   6.563   5.721
 4215SOL    HW213545   4.442   6.532   5.703
 4216SOL     OW13546   1.841   0.898   3.346
 4216SOL    HW113547   1.778   0.855   3.280
 4216SOL    HW213548   1.922   0.840   3.355
 4217SOL     OW13549   1.217   0.933   3.041
 4217SOL    HW113550   1.188   1.013   3.094
 4217SOL    HW213551   1.137   0.883   3.008
 4218SOL     OW13552   3.444   1.032   1.404
 4218SOL    HW113553   3.373   1.100   1.422
 4218SOL    HW213554   3.471   1.036   1.308
 4219SOL     OW13555   4.538   5.551   4.475
 4219SOL    HW113556   4.469   5.529   4.544
 4219SOL    HW213557   4.493   5.573   4.389
 4220SOL     OW13558   6.563   3.132   3.120
 4220SOL    HW113559   6.563   3.147   3.021
 4220SOL    HW213560   6.553   3.219   3.167
 4221SOL     OW13561   6.047   5.035   5.911
 4221SOL    HW113562   6.018   5.031   5.816
 4221SOL    HW213563   6.030   5.126   5.948
 4222SOL     OW13564   0.015   1.943   2.133
 4222SOL    HW113565   0.067   2.027   2.144
 4222SOL    HW213566   0.053   1.872   2.193
 4223SOL     OW13567   3.004   3.835   0.908
 4223SOL    HW113568   2.949   3.895   0.850
 4223SOL    HW213569   2.945   3.769   0.954
 4224SOL     OW13570   5.751   5.454   3.961
 4224SOL    HW113571   5.668   5.507   3.941
 4224SOL    HW213572   5.777   5.403   3.879
 4225SOL     OW13573   2.308   2.850   5.270
 4225SOL    HW113574   2.368   2.894   5.204
 4225SOL    HW213575   2.363   2.806   5.341
 4226SOL     OW13576   0.849   6.671   2.865
 4226SOL    HW113577   0.829   6.574   2.848
 4226SOL    HW213578   0.764   6.721   2.876
 4227SOL     OW13579   3.476   5.505   1.796
 4227SOL    HW113580   3.432   5.593   1.815
 4227SOL    HW213581   3.414   5.431   1.824
 4228SOL     OW13582   0.766   5.701   5.675
 4228SOL    HW113583   0.680   5.706   5.726
 4228SOL    HW213584   0.782   5.606   5.647
 4229SOL     OW13585   4.771   5.864   5.803
 4229SOL    HW113586   4.742   5.885   5.896
 4229SOL    HW213587   4.806   5.947   5.760
 4230SOL     OW13588   1.464   5.501   2.991
 4230SOL    HW113589   1.514   5.477   3.074
 4230SOL    HW213590   1.521   5.561   2.934
 4231SOL     OW13591   5.151   6.536   5.975
 4231SOL    HW113592   5.215   6.585   6.033
 4231SOL    HW213593   5.059   6.539   6.016
 4232SOL     OW13594   1.070   4.863   3.167
 4232SOL    HW113595   1.013   4.819   3.235
 4232SOL    HW213596   1.076   4.805   3.085
 4233SOL     OW13597   6.138   0.663   5.434
 4233SOL    HW113598   6.217   0.707   5.477
 4233SOL    HW213599   6.101   0.594   5.495
 4234SOL     OW13600   2.331   5.465   5.196
 4234SOL    HW113601   2.313   5.376   5.238
 4234SOL    HW213602   2.381   5.523   5.260
 4235SOL     OW13603   5.237   3.919   6.079
 4235SOL    HW113604   5.195   3.992   6.134
 4235SOL    HW213605   5.336   3.922   6.090
 4236SOL     OW13606   6.447   3.973   2.021
 4236SOL    HW113607   6.519   4.030   1.982
 4236SOL    HW213608   6.468   3.951   2.116
 4237SOL     OW13609   6.083   5.403   3.418
 4237SOL    HW113610   6.136   5.338   3.470
 4237SOL    HW213611   6.032   5.463   3.480
 4238SOL     OW13612   1.866   6.387   2.758
 4238SOL    HW113613   1.930   6.404   2.833
 4238SOL    HW213614   1.892   6.303   2.710
 4239SOL     OW13615   5.011   1.205   2.863
 4239SOL    HW113616   5.057   1.165   2.784
 4239SOL    HW213617   4.963   1.134   2.915
 4240SOL     OW13618   1.996   5.981   0.392
 4240SOL    HW113619   2.064   5.918   0.354
 4240SOL    HW213620   2.003   6.069   0.345
 4241SOL     OW13621   5.552   0.791   0.699
 4241SOL    HW113622   5.544   0.693   0.683
 4241SOL    HW213623   5.561   0.809   0.797
 4242SOL     OW13624   3.015   2.068   4.272
 4242SOL    HW113625   3.091   2.111   4.320
 4242SOL    HW213626   2.929   2.094   4.315
 4243SOL     OW13627   6.449   2.847   2.612
 4243SOL    HW113628   6.493   2.839   2.522
 4243SOL    HW213629   6.454   2.942   2.642
 4244SOL     OW13630   4.271   4.406   1.425
 4244SOL    HW113631   4.286   4.414   1.326
 4244SOL    HW213632   4.336   4.464   1.474
 4245SOL     OW13633   6.754   1.343   6.354
 4245SOL    HW113634   6.794   1.353   6.445
 4245SOL    HW213635   6.663   1.302   6.361
 4246SOL     OW13636   0.166   3.823   3.234
 4246SOL    HW113637   0.094   3.870   3.183
 4246SOL    HW213638   0.136   3.807   3.328
 4247SOL     OW13639   2.772   6.327   3.418
 4247SOL    HW113640   2.688   6.272   3.419
 4247SOL    HW213641   2.795   6.353   3.512
 4248SOL     OW13642   3.588   1.468   3.511
 4248SOL    HW113643   3.639   1.410   3.576
 4248SOL    HW213644   3.652   1.526   3.461
 4249SOL     OW13645   6.229   2.870   4.587
 4249SOL    HW113646   6.169   2.883   4.665
 4249SOL    HW213647   6.262   2.959   4.555
 4250SOL     OW13648   6.723   3.873   2.867
 4250SOL    HW113649   6.642   3.913   2.909
 4250SOL    HW213650   6.707   3.860   2.769
 4251SOL     OW13651   5.765   4.669   0.733
 4251SOL    HW113652   5.830   4.621   0.792
 4251SOL    HW213653   5.771   4.767   0.750
 4252SOL     OW13654   5.504   6.067   5.409
 4252SOL    HW113655   5.442   6.143   5.428
 4252SOL    HW213656   5.577   6.066   5.478
 4253SOL     OW13657   3.628   6.302   0.568
 4253SOL    HW113658   3.652   6.398   0.557
 4253SOL    HW213659   3.606   6.263   0.479
 4254SOL     OW13660   0.777   2.586   2.318
 4254SOL    HW113661   0.845   2.644   2.364
 4254SOL    HW213662   0.737   2.523   2.384
 4255SOL     OW13663   5.909   3.997   3.367
 4255SOL    HW113664   5.951   3.965   3.452
 4255SOL    HW213665   5.976   3.993   3.293
 4256SOL     OW13666   1.946   6.902   0.436
 4256SOL    HW113667   1.915   6.982   0.487
 4256SOL    HW213668   1.905   6.819   0.475
 4257SOL     OW13669   3.249   0.894   4.040
 4257SOL    HW113670   3.150   0.902   4.054
 4257SOL    HW213671   3.291   0.852   4.121
 4258SOL     OW13672   5.137   5.856   0.879
 4258SOL    HW113673   5.076   5.804   0.939
 4258SOL    HW213674   5.082   5.918   0.823
 4259SOL     OW13675   2.951   0.713   0.316
 4259SOL    HW113676   2.900   0.630   0.338
 4259SOL    HW213677   3.003   0.742   0.396
 4260SOL     OW13678   5.058   6.763   6.684
 4260SOL    HW113679   5.070   6.844   6.627
 4260SOL    HW213680   5.146   6.717   6.696
 4261SOL     OW13681   1.784   7.020   1.376
 4261SOL    HW113682   1.715   0.052   1.328
 4261SOL    HW213683   1.768   0.004   1.475
 4262SOL     OW13684   0.702   4.640   5.263
 4262SOL    HW113685   0.723   4.655   5.360
 4262SOL    HW213686   0.743   4.713   5.208
 4263SOL     OW13687   2.698   6.591   3.311
 4263SOL    HW113688   2.612   6.540   3.301
 4263SOL    HW213689   2.762   6.536   3.365
 4264SOL     OW13690   0.328   2.780   2.841
 4264SOL    HW113691   0.246   2.727   2.859
 4264SOL    HW213692   0.399   2.720   2.805
 4265SOL     OW13693   5.508   1.394   0.929
 4265SOL    HW113694   5.466   1.412   0.840
 4265SOL    HW213695   5.608   1.395   0.920
 4266SOL     OW13696   1.920   5.293   0.499
 4266SOL    HW113697   1.958   5.202   0.518
 4266SOL    HW213698   1.933   5.352   0.580
 4267SOL     OW13699   2.058   3.643   4.535
 4267SOL    HW113700   2.104   3.574   4.479
 4267SOL    HW213701   2.008   3.706   4.475
 4268SOL     OW13702   1.332   5.865   6.336
 4268SOL    HW113703   1.412   5.808   6.358
 4268SOL    HW213704   1.248   5.813   6.352
 4269SOL     OW13705   2.457   1.278   1.877
 4269SOL    HW113706   2.453   1.364   1.827
 4269SOL    HW213707   2.367   1.258   1.916
 4270SOL     OW13708   4.008   3.871   3.295
 4270SOL    HW113709   4.032   3.841   3.388
 4270SOL    HW213710   4.048   3.807   3.229
 4271SOL     OW13711   0.150   1.169   6.798
 4271SOL    HW113712   0.183   1.193   6.707
 4271SOL    HW213713   0.058   1.131   6.792
 4272SOL     OW13714   6.483   2.766   5.070
 4272SOL    HW113715   6.468   2.793   4.974
 4272SOL    HW213716   6.419   2.693   5.094
 4273SOL     OW13717   4.330   6.303   5.305
 4273SOL    HW113718   4.315   6.244   5.225
 4273SOL    HW213719   4.314   6.398   5.280
 4274SOL     OW13720   1.640   6.683   1.843
 4274SOL    HW113721   1.592   6.768   1.821
 4274SOL    HW213722   1.686   6.693   1.931
 4275SOL     OW13723   6.512   0.991   4.397
 4275SOL    HW113724   6.438   1.051   4.367
 4275SOL    HW213725   6.482   0.896   4.390
 4276SOL     OW13726   2.037   4.804   3.641
 4276SOL    HW113727   2.083   4.888   3.671
 4276SOL    HW213728   1.952   4.828   3.594
 4277SOL     OW13729   6.205   4.801   4.046
 4277SOL    HW113730   6.169   4.806   4.139
 4277SOL    HW213731   6.254   4.886   4.024
 4278SOL     OW13732   0.412   0.344   4.487
 4278SOL    HW113733   0.444   0.391   4.405
 4278SOL    HW213734   0.313   0.357   4.496
 4279SOL     OW13735   3.679   0.197   5.074
 4279SOL    HW113736   3.664   0.244   4.986
 4279SOL    HW213737   3.601   0.137   5.093
 4280SOL     OW13738   5.142   0.150   6.240
 4280SOL    HW113739   5.207   0.108   6.304
 4280SOL    HW213740   5.128   0.089   6.162
 4281SOL     OW13741   0.879   5.297   3.906
 4281SOL    HW113742   0.865   5.275   3.809
 4281SOL    HW213743   0.878   5.396   3.918
 4282SOL     OW13744   3.154   3.730   6.702
 4282SOL    HW113745   3.216   3.724   6.623
 4282SOL    HW213746   3.126   3.638   6.730
 4283SOL     OW13747   1.867   0.641   3.562
 4283SOL    HW113748   1.805   0.624   3.486
 4283SOL    HW213749   1.960   0.617   3.534
 4284SOL     OW13750   4.421   4.940   1.267
 4284SOL    HW113751   4.401   4.995   1.186
 4284SOL    HW213752   4.340   4.935   1.324
 4285SOL     OW13753   0.408   0.696   6.348
 4285SOL    HW113754   0.378   0.764   6.416
 4285SOL    HW213755   0.362   0.609   6.366
 4286SOL     OW13756   4.911   5.826   6.094
 4286SOL    HW113757   4.957   5.806   6.180
 4286SOL    HW213758   4.962   5.784   6.019
 4287SOL     OW13759   5.691   1.581   6.783
 4287SOL    HW113760   5.694   1.680   6.767
 4287SOL    HW213761   5.730   1.561   6.873
 4288SOL     OW13762   0.925   6.097   3.562
 4288SOL    HW113763   0.850   6.162   3.573
 4288SOL    HW213764   0.972   6.085   3.649
 4289SOL     OW13765   6.698   3.257   0.849
 4289SOL    HW113766   6.736   3.170   0.880
 4289SOL    HW213767   6.671   3.249   0.753
 4290SOL     OW13768   1.923   0.177   2.551
 4290SOL    HW113769   1.879   0.120   2.620
 4290SOL    HW213770   2.020   0.153   2.544
 4291SOL     OW13771   4.072   3.563   1.070
 4291SOL    HW113772   4.167   3.587   1.090
 4291SOL    HW213773   4.051   3.474   1.110
 4292SOL     OW13774   6.207   4.387   6.280
 4292SOL    HW113775   6.155   4.466   6.247
 4292SOL    HW213776   6.297   4.387   6.237
 4293SOL     OW13777   1.548   3.216   0.784
 4293SOL    HW113778   1.577   3.121   0.773
 4293SOL    HW213779   1.448   3.219   0.794
 4294SOL     OW13780   2.679   2.970   6.692
 4294SOL    HW113781   2.682   3.070   6.681
 4294SOL    HW213782   2.734   2.928   6.620
 4295SOL     OW13783   4.045   5.688   4.119
 4295SOL    HW113784   4.053   5.632   4.202
 4295SOL    HW213785   4.110   5.654   4.050
 4296SOL     OW13786   4.450   0.795   0.459
 4296SOL    HW113787   4.392   0.768   0.536
 4296SOL    HW213788   4.413   0.878   0.418
 4297SOL     OW13789   5.455   0.697   6.740
 4297SOL    HW113790   5.425   0.618   6.688
 4297SOL    HW213791   5.549   0.684   6.770
 4298SOL     OW13792   3.320   5.674   0.273
 4298SOL    HW113793   3.340   5.590   0.324
 4298SOL    HW213794   3.400   5.701   0.220
 4299SOL     OW13795   1.254   2.615   0.022
 4299SOL    HW113796   1.318   2.662   6.982
 4299SOL    HW213797   1.272   2.643   0.117
 4300SOL     OW13798   3.734   0.335   0.095
 4300SOL    HW113799   3.824   0.303   0.068
 4300SOL    HW213800   3.710   0.417   0.044
 4301SOL     OW13801   3.754   1.874   0.872
 4301SOL    HW113802   3.759   1.792   0.928
 4301SOL    HW213803   3.808   1.861   0.788
 4302SOL     OW13804   1.582   6.679   5.758
 4302SOL    HW113805   1.638   6.639   5.831
 4302SOL    HW213806   1.616   6.650   5.669
 4303SOL     OW13807   6.422   4.504   4.205
 4303SOL    HW113808   6.330   4.531   4.177
 4303SOL    HW213809   6.456   4.568   4.274
 4304SOL     OW13810   3.141   4.069   2.875
 4304SOL    HW113811   3.116   4.140   2.810
 4304SOL    HW213812   3.228   4.027   2.848
 4305SOL     OW13813   6.582   0.633   4.694
 4305SOL    HW113814   6.601   0.538   4.721
 4305SOL    HW213815   6.668   0.678   4.671
 4306SOL     OW13816   6.707   3.400   6.863
 4306SOL    HW113817   6.677   3.333   6.796
 4306SOL    HW213818   6.665   3.489   6.843
 4307SOL     OW13819   4.225   3.593   6.197
 4307SOL    HW113820   4.263   3.523   6.258
 4307SOL    HW213821   4.198   3.672   6.251
 4308SOL     OW13822   6.109   5.400   6.623
 4308SOL    HW113823   6.056   5.317   6.643
 4308SOL    HW213824   6.091   5.469   6.692
 4309SOL     OW13825   1.144   1.378   0.429
 4309SOL    HW113826   1.239   1.359   0.452
 4309SOL    HW213827   1.101   1.296   0.392
 4310SOL     OW13828   1.602   3.025   3.123
 4310SOL    HW113829   1.662   2.984   3.054
 4310SOL    HW213830   1.656   3.058   3.200
 4311SOL     OW13831   1.767   5.839   3.577
 4311SOL    HW113832   1.678   5.869   3.543
 4311SOL    HW213833   1.830   5.916   3.578
 4312SOL     OW13834   1.297   4.973   0.976
 4312SOL    HW113835   1.345   5.060   0.962
 4312SOL    HW213836   1.206   4.991   1.014
 4313SOL     OW13837   4.811   1.931   1.233
 4313SOL    HW113838   4.901   1.969   1.256
 4313SOL    HW213839   4.763   1.908   1.318
 4314SOL     OW13840   5.577   1.603   4.036
 4314SOL    HW113841   5.547   1.509   4.017
 4314SOL    HW213842   5.672   1.603   4.065
 4315SOL     OW13843   2.849   0.059   2.003
 4315SOL    HW113844   2.768   0.014   1.964
 4315SOL    HW213845   2.826   0.096   2.093
 4316SOL     OW13846   5.401   0.017   1.421
 4316SOL    HW113847   5.429   0.011   1.325
 4316SOL    HW213848   5.309   7.000   1.430
 4317SOL     OW13849   4.411   1.332   5.073
 4317SOL    HW113850   4.421   1.236   5.098
 4317SOL    HW213851   4.361   1.340   4.987
 4318SOL     OW13852   0.780   3.580   4.598
 4318SOL    HW113853   0.837   3.561   4.679
 4318SOL    HW213854   0.697   3.628   4.626
 4319SOL     OW13855   2.195   2.785   0.614
 4319SOL    HW113856   2.209   2.812   0.518
 4319SOL    HW213857   2.258   2.711   0.637
 4320SOL     OW13858   5.974   6.457   1.971
 4320SOL    HW113859   6.009   6.501   1.888
 4320SOL    HW213860   5.884   6.496   1.993
 4321SOL     OW13861   6.991   6.621   5.229
 4321SOL    HW113862   7.005   6.622   5.130
 4321SOL    HW213863   0.006   6.705   5.270
 4322SOL     OW13864   6.421   2.265   6.680
 4322SOL    HW113865   6.490   2.279   6.750
 4322SOL    HW213866   6.411   2.167   6.662
 4323SOL     OW13867   5.034   3.771   1.089
 4323SOL    HW113868   5.056   3.815   1.003
 4323SOL    HW213869   4.970   3.828   1.141
 4324SOL     OW13870   5.136   4.120   6.251
 4324SOL    HW113871   5.037   4.132   6.257
 4324SOL    HW213872   5.176   4.196   6.200
 4325SOL     OW13873   2.564   1.278   1.430
 4325SOL    HW113874   2.624   1.222   1.373
 4325SOL    HW213875   2.611   1.301   1.515
 4326SOL     OW13876   5.235   4.260   5.225
 4326SOL    HW113877   5.215   4.267   5.323
 4326SOL    HW213878   5.304   4.189   5.211
 4327SOL     OW13879   6.075   5.589   2.139
 4327SOL    HW113880   6.040   5.675   2.102
 4327SOL    HW213881   6.158   5.606   2.192
 4328SOL     OW13882   4.328   3.290   5.674
 4328SOL    HW113883   4.232   3.262   5.667
 4328SOL    HW213884   4.340   3.379   5.629
 4329SOL     OW13885   3.999   1.738   5.765
 4329SOL    HW113886   4.084   1.767   5.808
 4329SOL    HW213887   4.001   1.640   5.747
 4330SOL     OW13888   3.019   0.415   5.251
 4330SOL    HW113889   3.017   0.514   5.238
 4330SOL    HW213890   2.978   0.370   5.171
 4331SOL     OW13891   5.205   2.844   0.496
 4331SOL    HW113892   5.155   2.821   0.413
 4331SOL    HW213893   5.266   2.921   0.479
 4332SOL     OW13894   4.819   4.770   2.146
 4332SOL    HW113895   4.868   4.742   2.063
 4332SOL    HW213896   4.777   4.859   2.132
 4333SOL     OW13897   3.669   0.628   5.440
 4333SOL    HW113898   3.694   0.715   5.483
 4333SOL    HW213899   3.723   0.616   5.356
 4334SOL     OW13900   1.886   2.227   2.565
 4334SOL    HW113901   1.946   2.277   2.627
 4334SOL    HW213902   1.940   2.166   2.507
 4335SOL     OW13903   3.360   3.904   2.827
 4335SOL    HW113904   3.458   3.898   2.805
 4335SOL    HW213905   3.313   3.825   2.789
 4336SOL     OW13906   1.515   6.594   0.160
 4336SOL    HW113907   1.597   6.546   0.190
 4336SOL    HW213908   1.454   6.530   0.113
 4337SOL     OW13909   0.364   4.699   0.665
 4337SOL    HW113910   0.347   4.604   0.690
 4337SOL    HW213911   0.460   4.721   0.683
 4338SOL     OW13912   5.168   5.677   4.600
 4338SOL    HW113913   5.217   5.753   4.643
 4338SOL    HW213914   5.072   5.702   4.588
 4339SOL     OW13915   5.533   2.976   5.406
 4339SOL    HW113916   5.593   2.896   5.412
 4339SOL    HW213917   5.573   3.052   5.458
 4340SOL     OW13918   6.536   3.990   1.630
 4340SOL    HW113919   6.606   3.982   1.558
 4340SOL    HW213920   6.576   4.035   1.710
 4341SOL     OW13921   0.004   5.698   2.201
 4341SOL    HW113922   0.073   5.685   2.129
 4341SOL    HW213923   6.949   5.752   2.164
 4342SOL     OW13924   6.052   3.548   4.435
 4342SOL    HW113925   6.054   3.595   4.523
 4342SOL    HW213926   5.974   3.581   4.381
 4343SOL     OW13927   2.473   6.246   5.869
 4343SOL    HW113928   2.502   6.338   5.840
 4343SOL    HW213929   2.518   6.223   5.955
 4344SOL     OW13930   1.505   4.992   3.044
 4344SOL    HW113931   1.485   5.088   3.029
 4344SOL    HW213932   1.445   4.956   3.116
 4345SOL     OW13933   2.607   2.962   5.446
 4345SOL    HW113934   2.580   2.990   5.354
 4345SOL    HW213935   2.604   3.041   5.507
 4346SOL     OW13936   1.779   3.363   2.173
 4346SOL    HW113937   1.771   3.461   2.191
 4346SOL    HW213938   1.725   3.339   2.093
 4347SOL     OW13939   6.430   0.072   3.156
 4347SOL    HW113940   6.458   0.046   3.064
 4347SOL    HW213941   6.407   7.011   3.209
 4348SOL     OW13942   0.194   4.198   2.878
 4348SOL    HW113943   0.245   4.274   2.836
 4348SOL    HW213944   0.258   4.125   2.904
 4349SOL     OW13945   0.127   1.813   2.618
 4349SOL    HW113946   0.127   1.713   2.610
 4349SOL    HW213947   0.036   1.849   2.599
 4350SOL     OW13948   5.547   2.063   3.957
 4350SOL    HW113949   5.479   2.110   3.901
 4350SOL    HW213950   5.505   1.982   3.999
 4351SOL     OW13951   2.200   6.177   1.214
 4351SOL    HW113952   2.159   6.094   1.251
 4351SOL    HW213953   2.130   6.247   1.202
 4352SOL     OW13954   1.068   3.069   2.279
 4352SOL    HW113955   1.154   3.056   2.329
 4352SOL    HW213956   1.050   2.989   2.222
 4353SOL     OW13957   3.287   3.315   6.952
 4353SOL    HW113958   3.385   3.329   6.943
 4353SOL    HW213959   3.265   3.218   6.946
 4354SOL     OW13960   2.534   0.022   5.695
 4354SOL    HW113961   2.443   0.020   5.655
 4354SOL    HW213962   2.530   0.068   5.784
 4355SOL     OW13963   3.067   0.539   2.535
 4355SOL    HW113964   3.135   0.469   2.558
 4355SOL    HW213965   2.976   0.506   2.561
 4356SOL     OW13966   5.052   4.187   0.901
 4356SOL    HW113967   5.087   4.277   0.927
 4356SOL    HW213968   5.126   4.120   0.902
 4357SOL     OW13969   6.227   0.613   0.128
 4357SOL    HW113970   6.179   0.591   0.214
 4357SOL    HW213971   6.308   0.554   0.120
 4358SOL     OW13972   0.502   6.436   0.012
 4358SOL    HW113973   0.460   6.352   0.046
 4358SOL    HW213974   0.465   6.458   6.943
 4359SOL     OW13975   2.521   2.064   6.301
 4359SOL    HW113976   2.591   2.121   6.343
 4359SOL    HW213977   2.469   2.119   6.234
 4360SOL     OW13978   1.437   2.399   4.353
 4360SOL    HW113979   1.485   2.351   4.280
 4360SOL    HW213980   1.501   2.458   4.402
 4361SOL     OW13981   2.654   3.258   1.460
 4361SOL    HW113982   2.704   3.344   1.474
 4361SOL    HW213983   2.600   3.265   1.376
 4362SOL     OW13984   6.344   5.032   2.794
 4362SOL    HW113985   6.365   5.074   2.706
 4362SOL    HW213986   6.349   4.933   2.786
 4363SOL     OW13987   4.835   2.820   6.989
 4363SOL    HW113988   4.818   2.843   0.063
 4363SOL    HW213989   4.913   2.873   6.954
 4364SOL     OW13990   3.224   3.697   5.117
 4364SOL    HW113991   3.162   3.624   5.091
 4364SOL    HW213992   3.240   3.756   5.038
 4365SOL     OW13993   2.244   2.322   1.714
 4365SOL    HW113994   2.215   2.227   1.724
 4365SOL    HW213995   2.313   2.328   1.642
 4366SOL     OW13996   6.334   6.465   0.123
 4366SOL    HW113997   6.239   6.495   0.132
 4366SOL    HW213998   6.358   6.407   0.200
 4367SOL     OW13999   2.399   4.500   4.858
 4367SOL    HW114000   2.457   4.581   4.863
 4367SOL    HW214001   2.422   4.437   4.932
 4368SOL     OW14002   4.248   4.291   0.895
 4368SOL    HW114003   4.222   4.212   0.950
 4368SOL    HW214004   4.172   4.316   0.835
 4369SOL     OW14005   3.870   5.318   3.323
 4369SOL    HW114006   3.834   5.228   3.297
 4369SOL    HW214007   3.812   5.358   3.393
 4370SOL     OW14008   5.058   5.627   2.848
 4370SOL    HW114009   5.132   5.676   2.801
 4370SOL    HW214010   5.056   5.532   2.816
 4371SOL     OW14011   0.993   1.727   1.479
 4371SOL    HW114012   0.988   1.768   1.570
 4371SOL    HW214013   0.924   1.655   1.472
 4372SOL     OW14014   3.393   1.153   2.940
 4372SOL    HW114015   3.370   1.251   2.935
 4372SOL    HW214016   3.380   1.112   2.850
 4373SOL     OW14017   6.875   2.145   6.410
 4373SOL    HW114018   6.827   2.174   6.492
 4373SOL    HW214019   6.896   2.225   6.353
 4374SOL     OW14020   1.271   2.033   2.387
 4374SOL    HW114021   1.356   1.984   2.366
 4374SOL    HW214022   1.208   1.970   2.433
 4375SOL     OW14023   3.459   0.527   3.088
 4375SOL    HW114024   3.489   0.437   3.120
 4375SOL    HW214025   3.502   0.547   3.000
 4376SOL     OW14026   6.604   6.801   2.124
 4376SOL    HW114027   6.538   6.813   2.050
 4376SOL    HW214028   6.656   6.717   2.109
 4377SOL     OW14029   5.401   4.003   0.642
 4377SOL    HW114030   5.352   3.989   0.728
 4377SOL    HW214031   5.387   4.097   0.611
 4378SOL     OW14032   2.068   1.716   2.790
 4378SOL    HW114033   2.077   1.704   2.691
 4378SOL    HW214034   2.158   1.732   2.830
 4379SOL     OW14035   2.076   1.365   2.796
 4379SOL    HW114036   2.145   1.420   2.749
 4379SOL    HW214037   2.101   1.268   2.791
 4380SOL     OW14038   1.297   6.884   2.688
 4380SOL    HW114039   1.357   6.874   2.608
 4380SOL    HW214040   1.224   6.949   2.666
 4381SOL     OW14041   0.495   5.330   5.210
 4381SOL    HW114042   0.587   5.293   5.207
 4381SOL    HW214043   0.476   5.365   5.302
 4382SOL     OW14044   0.552   3.639   5.172
 4382SOL    HW114045   0.467   3.661   5.125
 4382SOL    HW214046   0.567   3.705   5.246
 4383SOL     OW14047   0.672   3.326   6.817
 4383SOL    HW114048   0.643   3.420   6.837
 4383SOL    HW214049   0.629   3.263   6.883
 4384SOL     OW14050   5.989   0.694   4.697
 4384SOL    HW114051   6.001   0.787   4.733
 4384SOL    HW214052   6.042   0.684   4.613
 4385SOL     OW14053   5.480   2.725   5.122
 4385SOL    HW114054   5.510   2.751   5.030
 4385SOL    HW214055   5.381   2.717   5.124
 4386SOL     OW14056   1.908   3.733   5.886
 4386SOL    HW114057   2.001   3.768   5.893
 4386SOL    HW214058   1.905   3.640   5.922
 4387SOL     OW14059   6.987   2.448   1.530
 4387SOL    HW114060   6.923   2.383   1.570
 4387SOL    HW214061   7.005   2.522   1.595
 4388SOL     OW14062   4.374   2.496   5.768
 4388SOL    HW114063   4.407   2.402   5.777
 4388SOL    HW214064   4.368   2.538   5.859
 4389SOL     OW14065   6.005   3.006   1.398
 4389SOL    HW114066   6.055   3.041   1.319
 4389SOL    HW214067   5.953   2.925   1.372
 4390SOL     OW14068   3.601   6.957   1.617
 4390SOL    HW114069   3.682   6.981   1.670
 4390SOL    HW214070   3.622   6.962   1.519
 4391SOL     OW14071   2.246   5.701   6.966
 4391SOL    HW114072   2.185   5.672   6.893
 4391SOL    HW214073   2.326   5.746   6.926
 4392SOL     OW14074   0.212   2.826   5.494
 4392SOL    HW114075   0.209   2.745   5.552
 4392SOL    HW214076   0.307   2.855   5.482
 4393SOL     OW14077   6.255   0.833   1.982
 4393SOL    HW114078   6.268   0.763   2.052
 4393SOL    HW214079   6.174   0.888   2.004
 4394SOL     OW14080   6.686   5.084   2.226
 4394SOL    HW114081   6.658   5.121   2.314
 4394SOL    HW214082   6.654   5.144   2.153
 4395SOL     OW14083   2.059   0.217   1.774
 4395SOL    HW114084   2.078   0.191   1.679
 4395SOL    HW214085   1.997   0.296   1.775
 4396SOL     OW14086   1.739   1.278   4.188
 4396SOL    HW114087   1.685   1.362   4.196
 4396SOL    HW214088   1.758   1.242   4.280
 4397SOL     OW14089   2.012   2.426   4.015
 4397SOL    HW114090   2.076   2.502   4.028
 4397SOL    HW214091   1.953   2.418   4.095
 4398SOL     OW14092   1.049   3.678   5.686
 4398SOL    HW114093   1.035   3.708   5.780
 4398SOL    HW214094   1.100   3.592   5.686
 4399SOL     OW14095   3.419   6.646   2.775
 4399SOL    HW114096   3.382   6.569   2.723
 4399SOL    HW214097   3.468   6.708   2.714
 4400SOL     OW14098   2.187   6.374   5.334
 4400SOL    HW114099   2.103   6.422   5.361
 4400SOL    HW214100   2.264   6.408   5.387
 4401SOL     OW14101   2.832   7.003   5.763
 4401SOL    HW114102   2.839   6.950   5.848
 4401SOL    HW214103   2.740   6.993   5.725
 4402SOL     OW14104   1.611   0.639   2.465
 4402SOL    HW114105   1.559   0.631   2.550
 4402SOL    HW214106   1.587   0.726   2.420
 4403SOL     OW14107   0.902   0.392   0.661
 4403SOL    HW114108   0.877   0.445   0.741
 4403SOL    HW214109   1.001   0.386   0.654
 4404SOL     OW14110   1.765   6.298   6.124
 4404SOL    HW114111   1.849   6.251   6.153
 4404SOL    HW214112   1.788   6.371   6.061
 4405SOL     OW14113   2.022   4.493   1.892
 4405SOL    HW114114   2.056   4.401   1.872
 4405SOL    HW214115   1.968   4.526   1.816
 4406SOL     OW14116   0.464   2.750   0.822
 4406SOL    HW114117   0.402   2.795   0.887
 4406SOL    HW214118   0.416   2.737   0.735
 4407SOL     OW14119   6.583   5.695   1.094
 4407SOL    HW114120   6.550   5.604   1.120
 4407SOL    HW214121   6.682   5.699   1.107
 4408SOL     OW14122   2.383   6.981   0.717
 4408SOL    HW114123   2.315   6.965   0.646
 4408SOL    HW214124   2.453   0.024   0.684
 4409SOL     OW14125   4.419   1.042   2.296
 4409SOL    HW114126   4.487   1.115   2.299
 4409SOL    HW214127   4.327   1.083   2.289
 4410SOL     OW14128   0.499   4.521   0.295
 4410SOL    HW114129   0.428   4.484   0.236
 4410SOL    HW214130   0.501   4.471   0.381
 4411SOL     OW14131   3.791   4.260   5.149
 4411SOL    HW114132   3.802   4.356   5.173
 4411SOL    HW214133   3.752   4.253   5.057
 4412SOL     OW14134   4.803   6.207   3.878
 4412SOL    HW114135   4.743   6.175   3.951
 4412SOL    HW214136   4.831   6.130   3.822
 4413SOL     OW14137   6.003   4.807   4.245
 4413SOL    HW114138   5.955   4.737   4.192
 4413SOL    HW214139   5.938   4.853   4.306
 4414SOL     OW14140   3.753   5.759   1.263
 4414SOL    HW114141   3.743   5.665   1.298
 4414SOL    HW214142   3.846   5.771   1.228
 4415SOL     OW14143   4.716   2.555   0.240
 4415SOL    HW114144   4.688   2.530   0.148
 4415SOL    HW214145   4.794   2.618   0.235
 4416SOL     OW14146   4.382   2.016   3.652
 4416SOL    HW114147   4.448   1.981   3.586
 4416SOL    HW214148   4.376   1.953   3.729
 4417SOL     OW14149   5.905   3.768   4.075
 4417SOL    HW114150   5.905   3.785   4.174
 4417SOL    HW214151   5.843   3.832   4.030
 4418SOL     OW14152   6.509   1.974   2.272
 4418SOL    HW114153   6.428   2.023   2.304
 4418SOL    HW214154   6.516   1.984   2.173
 4419SOL     OW14155   6.010   0.303   5.391
 4419SOL    HW114156   6.001   0.382   5.452
 4419SOL    HW214157   6.089   0.314   5.332
 4420SOL     OW14158   3.970   1.244   1.789
 4420SOL    HW114159   3.906   1.297   1.844
 4420SOL    HW214160   3.996   1.298   1.708
 4421SOL     OW14161   1.637   1.626   4.890
 4421SOL    HW114162   1.653   1.666   4.980
 4421SOL    HW214163   1.589   1.539   4.900
 4422SOL     OW14164   1.135   4.267   6.793
 4422SOL    HW114165   1.193   4.262   6.711
 4422SOL    HW214166   1.184   4.315   6.866
 4423SOL     OW14167   0.175   3.502   5.543
 4423SOL    HW114168   0.148   3.538   5.633
 4423SOL    HW214169   0.196   3.578   5.482
 4424SOL     OW14170   5.491   0.992   4.137
 4424SOL    HW114171   5.550   1.058   4.185
 4424SOL    HW214172   5.401   0.992   4.180
 4425SOL     OW14173   3.304   4.861   0.553
 4425SOL    HW114174   3.215   4.816   0.568
 4425SOL    HW214175   3.296   4.925   0.476
 4426SOL     OW14176   1.096   1.187   4.213
 4426SOL    HW114177   1.106   1.090   4.192
 4426SOL    HW214178   1.080   1.199   4.311
 4427SOL     OW14179   5.908   6.448   2.617
 4427SOL    HW114180   5.925   6.546   2.612
 4427SOL    HW214181   5.841   6.422   2.548
 4428SOL     OW14182   4.120   0.869   3.637
 4428SOL    HW114183   4.116   0.864   3.737
 4428SOL    HW214184   4.092   0.961   3.607
 4429SOL     OW14185   3.278   0.140   2.285
 4429SOL    HW114186   3.265   0.208   2.213
 4429SOL    HW214187   3.261   0.049   2.247
 4430SOL     OW14188   5.052   4.638   5.028
 4430SOL    HW114189   4.981   4.573   5.002
 4430SOL    HW214190   5.067   4.633   5.127
 4431SOL     OW14191   2.377   0.970   2.977
 4431SOL    HW114192   2.322   0.971   3.060
 4431SOL    HW214193   2.474   0.962   3.000
 4432SOL     OW14194   3.034   3.095   5.972
 4432SOL    HW114195   2.967   3.162   5.941
 4432SOL    HW214196   2.987   3.012   6.001
 4433SOL     OW14197   6.302   2.250   4.050
 4433SOL    HW114198   6.282   2.285   4.141
 4433SOL    HW214199   6.217   2.238   3.999
 4434SOL     OW14200   5.796   1.708   2.817
 4434SOL    HW114201   5.769   1.724   2.722
 4434SOL    HW214202   5.884   1.661   2.819
 4435SOL     OW14203   4.502   3.761   0.974
 4435SOL    HW114204   4.593   3.728   0.949
 4435SOL    HW214205   4.470   3.714   1.056
 4436SOL     OW14206   4.644   1.153   1.556
 4436SOL    HW114207   4.658   1.156   1.655
 4436SOL    HW214208   4.550   1.181   1.535
 4437SOL     OW14209   1.185   2.907   2.749
 4437SOL    HW114210   1.186   2.994   2.700
 4437SOL    HW214211   1.273   2.891   2.792
 4438SOL     OW14212   4.722   6.834   6.654
 4438SOL    HW114213   4.706   6.894   6.576
 4438SOL    HW214214   4.761   6.887   6.729
 4439SOL     OW14215   0.209   4.223   1.526
 4439SOL    HW114216   0.193   4.134   1.568
 4439SOL    HW214217   0.255   4.211   1.438
 4440SOL     OW14218   3.168   5.207   1.183
 4440SOL    HW114219   3.137   5.226   1.276
 4440SOL    HW214220   3.261   5.241   1.170
 4441SOL     OW14221   0.559   1.610   1.749
 4441SOL    HW114222   0.603   1.523   1.773
 4441SOL    HW214223   0.613   1.686   1.785
 4442SOL     OW14224   1.785   4.983   4.533
 4442SOL    HW114225   1.698   4.937   4.548
 4442SOL    HW214226   1.788   5.069   4.584
 4443SOL     OW14227   1.468   3.504   5.661
 4443SOL    HW114228   1.474   3.563   5.580
 4443SOL    HW214229   1.558   3.466   5.682
 4444SOL     OW14230   3.534   3.616   6.674
 4444SOL    HW114231   3.513   3.619   6.576
 4444SOL    HW214232   3.468   3.672   6.724
 4445SOL     OW14233   1.191   6.504   0.568
 4445SOL    HW114234   1.124   6.439   0.530
 4445SOL    HW214235   1.240   6.460   0.644
 4446SOL     OW14236   5.248   2.306   0.736
 4446SOL    HW114237   5.166   2.250   0.749
 4446SOL    HW214238   5.292   2.321   0.824
 4447SOL     OW14239   5.733   4.011   5.612
 4447SOL    HW114240   5.645   3.998   5.659
 4447SOL    HW214241   5.727   4.091   5.552
 4448SOL     OW14242   2.521   5.320   1.683
 4448SOL    HW114243   2.450   5.389   1.675
 4448SOL    HW214244   2.480   5.229   1.678
 4449SOL     OW14245   5.353   0.751   6.370
 4449SOL    HW114246   5.435   0.715   6.415
 4449SOL    HW214247   5.314   0.681   6.310
 4450SOL     OW14248   3.476   2.194   6.012
 4450SOL    HW114249   3.517   2.209   5.923
 4450SOL    HW214250   3.513   2.261   6.077
 4451SOL     OW14251   5.373   4.748   4.095
 4451SOL    HW114252   5.403   4.663   4.137
 4451SOL    HW214253   5.292   4.732   4.039
 4452SOL     OW14254   5.631   5.676   4.495
 4452SOL    HW114255   5.601   5.582   4.509
 4452SOL    HW214256   5.660   5.688   4.400
 4453SOL     OW14257   1.876   2.258   1.688
 4453SOL    HW114258   1.880   2.226   1.594
 4453SOL    HW214259   1.941   2.333   1.701
 4454SOL     OW14260   1.279   1.650   0.144
 4454SOL    HW114261   1.183   1.644   0.170
 4454SOL    HW214262   1.286   1.672   0.046
 4455SOL     OW14263   5.377   5.294   5.603
 4455SOL    HW114264   5.292   5.343   5.625
 4455SOL    HW214265   5.423   5.339   5.526
 4456SOL     OW14266   2.299   6.599   3.111
 4456SOL    HW114267   2.345   6.525   3.161
 4456SOL    HW214268   2.363   6.642   3.048
 4457SOL     OW14269   3.891   1.796   2.989
 4457SOL    HW114270   3.883   1.699   3.011
 4457SOL    HW214271   3.915   1.847   3.072
 4458SOL     OW14272   2.121   3.347   0.564
 4458SOL    HW114273   2.108   3.249   0.550
 4458SOL    HW214274   2.060   3.398   0.503
 4459SOL     OW14275   4.141   1.973   4.696
 4459SOL    HW114276   4.165   2.054   4.751
 4459SOL    HW214277   4.042   1.972   4.681
 4460SOL     OW14278   1.161   3.252   0.142
 4460SOL    HW114279   1.154   3.203   0.055
 4460SOL    HW214280   1.099   3.210   0.209
 4461SOL     OW14281   1.931   0.709   0.892
 4461SOL    HW114282   2.018   0.662   0.903
 4461SOL    HW214283   1.871   0.686   0.968
 4462SOL     OW14284   6.563   4.820   2.130
 4462SOL    HW114285   6.470   4.841   2.100
 4462SOL    HW214286   6.608   4.903   2.163
 4463SOL     OW14287   4.617   1.022   0.950
 4463SOL    HW114288   4.605   0.988   1.043
 4463SOL    HW214289   4.653   0.948   0.892
 4464SOL     OW14290   0.271   5.672   0.347
 4464SOL    HW114291   0.293   5.650   0.442
 4464SOL    HW214292   0.175   5.700   0.342
 4465SOL     OW14293   3.943   5.369   1.171
 4465SOL    HW114294   3.996   5.435   1.224
 4465SOL    HW214295   4.002   5.293   1.144
 4466SOL     OW14296   1.092   2.104   3.279
 4466SOL    HW114297   1.007   2.075   3.235
 4466SOL    HW214298   1.133   2.026   3.328
 4467SOL     OW14299   1.879   5.331   3.427
 4467SOL    HW114300   1.850   5.235   3.421
 4467SOL    HW214301   1.829   5.377   3.500
 4468SOL     OW14302   1.704   3.973   0.679
 4468SOL    HW114303   1.749   4.011   0.760
 4468SOL    HW214304   1.666   4.047   0.624
 4469SOL     OW14305   3.813   1.023   1.230
 4469SOL    HW114306   3.793   0.929   1.203
 4469SOL    HW214307   3.865   1.023   1.316
 4470SOL     OW14308   0.506   1.694   2.485
 4470SOL    HW114309   0.452   1.759   2.433
 4470SOL    HW214310   0.455   1.664   2.566
 4471SOL     OW14311   0.759   2.563   6.448
 4471SOL    HW114312   0.849   2.603   6.463
 4471SOL    HW214313   0.700   2.629   6.402
 4472SOL     OW14314   0.334   2.732   1.549
 4472SOL    HW114315   0.300   2.661   1.610
 4472SOL    HW214316   0.432   2.718   1.532
 4473SOL     OW14317   5.759   3.212   4.396
 4473SOL    HW114318   5.703   3.138   4.433
 4473SOL    HW214319   5.719   3.300   4.421
 4474SOL     OW14320   3.134   6.948   2.145
 4474SOL    HW114321   3.066   7.004   2.098
 4474SOL    HW214322   3.095   6.911   2.229
 4475SOL     OW14323   1.403   4.158   1.879
 4475SOL    HW114324   1.408   4.256   1.897
 4475SOL    HW214325   1.308   4.127   1.889
 4476SOL     OW14326   6.327   1.298   3.291
 4476SOL    HW114327   6.396   1.321   3.359
 4476SOL    HW214328   6.239   1.337   3.319
 4477SOL     OW14329   1.611   0.502   5.493
 4477SOL    HW114330   1.598   0.403   5.492
 4477SOL    HW214331   1.550   0.543   5.561
 4478SOL     OW14332   2.870   0.045   2.473
 4478SOL    HW114333   2.783   0.042   2.522
 4478SOL    HW214334   2.943   0.071   2.536
 4479SOL     OW14335   0.259   2.111   1.580
 4479SOL    HW114336   0.243   2.106   1.481
 4479SOL    HW214337   0.172   2.107   1.628
 4480SOL     OW14338   0.086   3.966   5.100
 4480SOL    HW114339   0.043   4.013   5.023
 4480SOL    HW214340   0.178   4.001   5.113
 4481SOL     OW14341   2.782   5.444   4.978
 4481SOL    HW114342   2.700   5.464   4.925
 4481SOL    HW214343   2.797   5.345   4.979
 4482SOL     OW14344   2.063   2.942   5.272
 4482SOL    HW114345   2.160   2.920   5.282
 4482SOL    HW214346   2.033   2.919   5.179
 4483SOL     OW14347   6.815   2.344   2.218
 4483SOL    HW114348   6.822   2.274   2.148
 4483SOL    HW214349   6.882   2.416   2.200
 4484SOL     OW14350   3.144   2.317   6.362
 4484SOL    HW114351   3.212   2.362   6.305
 4484SOL    HW214352   3.174   2.224   6.384
 4485SOL     OW14353   6.111   2.592   4.506
 4485SOL    HW114354   6.074   2.559   4.419
 4485SOL    HW214355   6.108   2.692   4.507
 4486SOL     OW14356   6.191   5.531   4.727
 4486SOL    HW114357   6.265   5.487   4.676
 4486SOL    HW214358   6.113   5.468   4.733
 4487SOL     OW14359   2.944   2.393   6.536
 4487SOL    HW114360   2.985   2.437   6.616
 4487SOL    HW214361   3.012   2.383   6.464
 4488SOL     OW14362   1.209   3.442   5.642
 4488SOL    HW114363   1.307   3.439   5.660
 4488SOL    HW214364   1.165   3.361   5.681
 4489SOL     OW14365   5.268   5.332   4.890
 4489SOL    HW114366   5.217   5.311   4.806
 4489SOL    HW214367   5.218   5.401   4.943
 4490SOL     OW14368   5.191   2.224   1.393
 4490SOL    HW114369   5.134   2.148   1.361
 4490SOL    HW214370   5.155   2.310   1.355
 4491SOL     OW14371   0.260   3.500   3.974
 4491SOL    HW114372   0.284   3.582   3.921
 4491SOL    HW214373   0.341   3.465   4.020
 4492SOL     OW14374   6.206   4.075   2.114
 4492SOL    HW114375   6.194   4.161   2.064
 4492SOL    HW214376   6.281   4.023   2.072
 4493SOL     OW14377   5.198   6.016   4.691
 4493SOL    HW114378   5.101   5.997   4.680
 4493SOL    HW214379   5.215   6.056   4.781
 4494SOL     OW14380   0.005   0.642   6.166
 4494SOL    HW114381   6.969   0.656   6.247
 4494SOL    HW214382   6.968   0.615   6.089
 4495SOL     OW14383   4.616   0.377   3.841
 4495SOL    HW114384   4.694   0.439   3.826
 4495SOL    HW214385   4.633   0.291   3.793
 4496SOL     OW14386   5.653   6.000   0.610
 4496SOL    HW114387   5.596   5.986   0.530
 4496SOL    HW214388   5.740   5.952   0.597
 4497SOL     OW14389   4.179   1.883   6.777
 4497SOL    HW114390   4.266   1.875   6.729
 4497SOL    HW214391   4.131   1.795   6.774
 4498SOL     OW14392   0.178   4.505   6.848
 4498SOL    HW114393   0.245   4.528   6.777
 4498SOL    HW214394   0.221   4.445   6.915
 4499SOL     OW14395   6.064   3.319   3.690
 4499SOL    HW114396   6.087   3.232   3.733
 4499SOL    HW214397   6.132   3.388   3.714
 4500SOL     OW14398   3.651   3.797   5.707
 4500SOL    HW114399   3.637   3.772   5.611
 4500SOL    HW214400   3.747   3.819   5.722
 4501SOL     OW14401   6.756   3.350   2.913
 4501SOL    HW114402   6.745   3.433   2.968
 4501SOL    HW214403   6.847   3.349   2.871
 4502SOL     OW14404   0.564   3.109   6.979
 4502SOL    HW114405   0.483   3.099   0.017
 4502SOL    HW214406   0.644   3.128   0.014
 4503SOL     OW14407   3.760   6.920   1.238
 4503SOL    HW114408   3.692   6.849   1.256
 4503SOL    HW214409   3.763   6.939   1.140
 4504SOL     OW14410   1.175   1.509   4.539
 4504SOL    HW114411   1.246   1.527   4.607
 4504SOL    HW214412   1.215   1.461   4.461
 4505SOL     OW14413   6.325   4.863   1.966
 4505SOL    HW114414   6.297   4.951   1.929
 4505SOL    HW214415   6.354   4.803   1.891
 4506SOL     OW14416   5.237   2.806   3.215
 4506SOL    HW114417   5.266   2.892   3.172
 4506SOL    HW214418   5.145   2.782   3.182
 4507SOL     OW14419   0.137   3.672   3.437
 4507SOL    HW114420   0.050   3.655   3.483
 4507SOL    HW214421   0.212   3.640   3.494
 4508SOL     OW14422   1.339   4.888   6.382
 4508SOL    HW114423   1.343   4.921   6.477
 4508SOL    HW214424   1.411   4.821   6.368
 4509SOL     OW14425   4.931   2.254   3.048
 4509SOL    HW114426   4.893   2.181   3.104
 4509SOL    HW214427   4.926   2.229   2.952
 4510SOL     OW14428   4.117   1.959   4.270
 4510SOL    HW114429   4.067   2.045   4.281
 4510SOL    HW214430   4.123   1.936   4.173
 4511SOL     OW14431   6.078   3.345   6.290
 4511SOL    HW114432   6.059   3.371   6.385
 4511SOL    HW214433   5.994   3.354   6.236
 4512SOL     OW14434   3.066   0.612   6.062
 4512SOL    HW114435   2.983   0.661   6.089
 4512SOL    HW214436   3.107   0.568   6.142
 4513SOL     OW14437   0.833   4.851   6.241
 4513SOL    HW114438   0.794   4.916   6.177
 4513SOL    HW214439   0.924   4.882   6.268
 4514SOL     OW14440   3.192   2.307   5.882
 4514SOL    HW114441   3.117   2.374   5.880
 4514SOL    HW214442   3.262   2.333   5.816
 4515SOL     OW14443   5.887   2.022   5.269
 4515SOL    HW114444   5.821   1.951   5.294
 4515SOL    HW214445   5.922   2.066   5.351
 4516SOL     OW14446   2.567   0.055   0.211
 4516SOL    HW114447   2.619   0.074   0.294
 4516SOL    HW214448   2.586   6.983   0.180
 4517SOL     OW14449   4.835   6.578   6.785
 4517SOL    HW114450   4.744   6.575   6.744
 4517SOL    HW214451   4.887   6.653   6.745
 4518SOL     OW14452   0.057   6.710   2.243
 4518SOL    HW114453   0.112   6.693   2.325
 4518SOL    HW214454   0.101   6.667   2.164
 4519SOL     OW14455   5.496   6.827   0.984
 4519SOL    HW114456   5.556   6.870   0.917
 4519SOL    HW214457   5.533   6.737   1.009
 4520SOL     OW14458   4.233   6.034   6.193
 4520SOL    HW114459   4.250   6.085   6.278
 4520SOL    HW214460   4.145   5.988   6.198
 4521SOL     OW14461   5.804   1.933   5.627
 4521SOL    HW114462   5.840   2.002   5.564
 4521SOL    HW214463   5.858   1.935   5.712
 4522SOL     OW14464   5.781   5.250   3.464
 4522SOL    HW114465   5.803   5.348   3.467
 4522SOL    HW214466   5.866   5.197   3.467
 4523SOL     OW14467   1.418   4.217   0.356
 4523SOL    HW114468   1.440   4.272   0.276
 4523SOL    HW214469   1.332   4.170   0.342
 4524SOL     OW14470   6.233   3.523   2.307
 4524SOL    HW114471   6.269   3.435   2.338
 4524SOL    HW214472   6.251   3.534   2.209
 4525SOL     OW14473   4.129   2.018   5.352
 4525SOL    HW114474   4.069   1.963   5.411
 4525SOL    HW214475   4.101   2.113   5.355
 4526SOL     OW14476   6.579   0.341   6.762
 4526SOL    HW114477   6.562   0.355   6.665
 4526SOL    HW214478   6.495   0.360   6.814
 4527SOL     OW14479   6.714   6.949   2.676
 4527SOL    HW114480   6.790   6.884   2.674
 4527SOL    HW214481   6.673   6.955   2.584
 4528SOL     OW14482   4.422   0.374   6.436
 4528SOL    HW114483   4.431   0.376   6.336
 4528SOL    HW214484   4.346   0.314   6.462
 4529SOL     OW14485   1.992   0.668   5.271
 4529SOL    HW114486   1.945   0.629   5.349
 4529SOL    HW214487   2.013   0.764   5.288
 4530SOL     OW14488   2.625   5.551   3.388
 4530SOL    HW114489   2.711   5.573   3.434
 4530SOL    HW214490   2.590   5.464   3.422
 4531SOL     OW14491   0.583   3.209   6.024
 4531SOL    HW114492   0.601   3.259   6.109
 4531SOL    HW214493   0.591   3.272   5.946
 4532SOL     OW14494   6.564   1.194   2.454
 4532SOL    HW114495   6.650   1.144   2.438
 4532SOL    HW214496   6.585   1.282   2.497
 4533SOL     OW14497   1.973   1.070   3.093
 4533SOL    HW114498   2.069   1.056   3.117
 4533SOL    HW214499   1.956   1.167   3.077
 4534SOL     OW14500   5.509   3.793   5.501
 4534SOL    HW114501   5.438   3.736   5.543
 4534SOL    HW214502   5.558   3.842   5.573
 4535SOL     OW14503   3.896   0.876   2.244
 4535SOL    HW114504   3.803   0.906   2.225
 4535SOL    HW214505   3.922   0.803   2.180
 4536SOL     OW14506   3.546   1.942   4.892
 4536SOL    HW114507   3.608   1.881   4.942
 4536SOL    HW214508   3.459   1.949   4.941
 4537SOL     OW14509   4.247   3.256   1.236
 4537SOL    HW114510   4.168   3.215   1.281
 4537SOL    HW214511   4.322   3.266   1.302
 4538SOL     OW14512   2.586   0.609   2.145
 4538SOL    HW114513   2.608   0.697   2.104
 4538SOL    HW214514   2.501   0.574   2.105
 4539SOL     OW14515   3.264   5.677   5.068
 4539SOL    HW114516   3.290   5.768   5.099
 4539SOL    HW214517   3.171   5.680   5.030
 4540SOL     OW14518   2.406   1.483   0.298
 4540SOL    HW114519   2.320   1.434   0.309
 4540SOL    HW214520   2.476   1.420   0.263
 4541SOL     OW14521   5.298   1.249   6.305
 4541SOL    HW114522   5.309   1.160   6.349
 4541SOL    HW214523   5.361   1.256   6.227
 4542SOL     OW14524   0.169   2.847   1.720
 4542SOL    HW114525   0.219   2.833   1.635
 4542SOL    HW214526   0.228   2.893   1.786
 4543SOL     OW14527   5.025   2.117   0.745
 4543SOL    HW114528   4.949   2.137   0.684
 4543SOL    HW214529   5.012   2.027   0.787
 4544SOL     OW14530   3.250   5.395   7.015
 4544SOL    HW114531   3.215   5.488   0.005
 4544SOL    HW214532   3.246   5.370   6.918
 4545SOL     OW14533   6.061   2.960   5.070
 4545SOL    HW114534   6.119   2.915   5.138
 4545SOL    HW214535   5.971   2.916   5.069
 4546SOL     OW14536   2.431   0.072   4.394
 4546SOL    HW114537   2.503   0.083   4.325
 4546SOL    HW214538   2.412   0.161   4.436
 4547SOL     OW14539   6.405   1.571   0.644
 4547SOL    HW114540   6.374   1.530   0.559
 4547SOL    HW214541   6.406   1.670   0.635
 4548SOL     OW14542   2.273   2.424   3.773
 4548SOL    HW114543   2.198   2.409   3.709
 4548SOL    HW214544   2.236   2.461   3.859
 4549SOL     OW14545   5.489   4.109   2.197
 4549SOL    HW114546   5.562   4.154   2.145
 4549SOL    HW214547   5.509   4.012   2.204
 4550SOL     OW14548   1.093   4.492   3.267
 4550SOL    HW114549   1.126   4.572   3.217
 4550SOL    HW214550   1.084   4.514   3.364
 4551SOL     OW14551   0.464   3.624   4.757
 4551SOL    HW114552   0.515   3.546   4.795
 4551SOL    HW214553   0.399   3.657   4.826
 4552SOL     OW14554   5.454   2.031   0.926
 4552SOL    HW114555   5.496   1.991   1.007
 4552SOL    HW214556   5.426   1.959   0.863
 4553SOL     OW14557   5.217   3.505   0.349
 4553SOL    HW114558   5.300   3.529   0.300
 4553SOL    HW214559   5.170   3.431   0.300
 4554SOL     OW14560   6.723   0.237   1.747
 4554SOL    HW114561   6.687   0.203   1.661
 4554SOL    HW214562   6.751   0.332   1.737
 4555SOL     OW14563   1.575   1.454   5.862
 4555SOL    HW114564   1.478   1.455   5.838
 4555SOL    HW214565   1.617   1.541   5.837
 4556SOL     OW14566   5.855   3.451   4.694
 4556SOL    HW114567   5.939   3.409   4.731
 4556SOL    HW214568   5.865   3.466   4.596
 4557SOL     OW14569   4.920   5.422   4.236
 4557SOL    HW114570   4.838   5.383   4.277
 4557SOL    HW214571   5.001   5.378   4.275
 4558SOL     OW14572   7.018   4.089   4.869
 4558SOL    HW114573   6.941   4.026   4.860
 4558SOL    HW214574   0.071   4.061   4.808
 4559SOL     OW14575   0.005   3.384   2.817
 4559SOL    HW114576   0.004   3.293   2.775
 4559SOL    HW214577   0.098   3.406   2.847
 4560SOL     OW14578   5.944   3.453   1.613
 4560SOL    HW114579   5.934   3.507   1.696
 4560SOL    HW214580   5.913   3.359   1.630
 4561SOL     OW14581   3.405   2.125   3.313
 4561SOL    HW114582   3.350   2.207   3.293
 4561SOL    HW214583   3.497   2.137   3.276
 4562SOL     OW14584   1.433   6.978   0.678
 4562SOL    HW114585   1.352   7.021   0.639
 4562SOL    HW214586   1.514   7.006   0.625
 4563SOL     OW14587   0.095   3.119   1.409
 4563SOL    HW114588   0.066   3.214   1.416
 4563SOL    HW214589   0.016   3.060   1.398
 4564SOL     OW14590   6.666   6.049   1.970
 4564SOL    HW114591   6.690   5.971   2.027
 4564SOL    HW214592   6.610   6.113   2.023
 4565SOL     OW14593   1.442   0.553   4.481
 4565SOL    HW114594   1.533   0.558   4.523
 4565SOL    HW214595   1.448   0.507   4.393
 4566SOL     OW14596   0.057   3.587   1.266
 4566SOL    HW114597   0.045   3.678   1.306
 4566SOL    HW214598   0.131   3.589   1.200
 4567SOL     OW14599   6.808   1.568   6.232
 4567SOL    HW114600   6.875   1.620   6.286
 4567SOL    HW214601   6.790   1.481   6.277
 4568SOL     OW14602   2.169   3.836   5.904
 4568SOL    HW114603   2.244   3.793   5.854
 4568SOL    HW214604   2.183   3.822   6.002
 4569SOL     OW14605   2.373   0.245   3.175
 4569SOL    HW114606   2.385   0.146   3.162
 4569SOL    HW214607   2.362   0.289   3.086
 4570SOL     OW14608   6.088   6.286   2.695
 4570SOL    HW114609   6.178   6.310   2.661
 4570SOL    HW214610   6.022   6.356   2.667
 4571SOL     OW14611   4.789   3.208   6.263
 4571SOL    HW114612   4.765   3.121   6.306
 4571SOL    HW214613   4.825   3.190   6.171
 4572SOL     OW14614   2.013   1.026   6.367
 4572SOL    HW114615   2.093   1.064   6.320
 4572SOL    HW214616   2.011   1.058   6.462
 4573SOL     OW14617   6.890   6.950   0.527
 4573SOL    HW114618   6.871   6.893   0.606
 4573SOL    HW214619   6.983   6.988   0.535
 4574SOL     OW14620   5.644   4.068   0.404
 4574SOL    HW114621   5.630   4.131   0.481
 4574SOL    HW214622   5.714   4.001   0.429
 4575SOL     OW14623   5.282   0.444   5.158
 4575SOL    HW114624   5.192   0.473   5.126
 4575SOL    HW214625   5.280   0.345   5.175
 4576SOL     OW14626   3.623   5.421   5.377
 4576SOL    HW114627   3.609   5.517   5.351
 4576SOL    HW214628   3.573   5.402   5.461
 4577SOL     OW14629   0.932   2.979   4.292
 4577SOL    HW114630   0.985   2.951   4.212
 4577SOL    HW214631   0.893   3.070   4.275
 4578SOL     OW14632   1.127   2.056   5.148
 4578SOL    HW114633   1.033   2.067   5.113
 4578SOL    HW214634   1.192   2.077   5.075
 4579SOL     OW14635   4.549   0.843   2.919
 4579SOL    HW114636   4.642   0.858   2.887
 4579SOL    HW214637   4.484   0.871   2.849
 4580SOL     OW14638   5.648   3.444   0.560
 4580SOL    HW114639   5.695   3.356   0.568
 4580SOL    HW214640   5.698   3.503   0.497
 4581SOL     OW14641   2.427   6.121   2.969
 4581SOL    HW114642   2.450   6.134   3.065
 4581SOL    HW214643   2.504   6.079   2.921
 4582SOL     OW14644   4.966   0.821   4.024
 4582SOL    HW114645   4.881   0.845   4.070
 4582SOL    HW214646   5.044   0.855   4.077
 4583SOL     OW14647   3.049   1.766   6.907
 4583SOL    HW114648   3.076   1.790   6.813
 4583SOL    HW214649   3.057   1.667   6.920
 4584SOL     OW14650   1.882   5.182   5.355
 4584SOL    HW114651   1.799   5.209   5.404
 4584SOL    HW214652   1.954   5.160   5.420
 4585SOL     OW14653   2.133   4.962   3.386
 4585SOL    HW114654   2.095   5.021   3.457
 4585SOL    HW214655   2.074   4.882   3.374
 4586SOL     OW14656   3.958   3.948   0.475
 4586SOL    HW114657   4.010   3.892   0.540
 4586SOL    HW214658   3.869   3.906   0.457
 4587SOL     OW14659   3.204   3.613   3.354
 4587SOL    HW114660   3.242   3.531   3.312
 4587SOL    HW214661   3.116   3.635   3.312
 4588SOL     OW14662   3.266   2.718   5.897
 4588SOL    HW114663   3.232   2.741   5.806
 4588SOL    HW214664   3.188   2.697   5.957
 4589SOL     OW14665   6.008   0.928   2.082
 4589SOL    HW114666   5.919   0.922   2.036
 4589SOL    HW214667   6.007   0.869   2.163
 4590SOL     OW14668   4.262   5.341   1.257
 4590SOL    HW114669   4.285   5.259   1.203
 4590SOL    HW214670   4.187   5.319   1.319
 4591SOL     OW14671   1.536   0.123   5.165
 4591SOL    HW114672   1.546   0.213   5.207
 4591SOL    HW214673   1.574   0.054   5.226
 4592SOL     OW14674   3.182   1.581   3.037
 4592SOL    HW114675   3.087   1.603   3.014
 4592SOL    HW214676   3.196   1.591   3.135
 4593SOL     OW14677   6.149   6.520   2.209
 4593SOL    HW114678   6.087   6.492   2.135
 4593SOL    HW214679   6.215   6.447   2.227
 4594SOL     OW14680   3.155   0.409   3.135
 4594SOL    HW114681   3.172   0.311   3.129
 4594SOL    HW214682   3.215   0.458   3.072
 4595SOL     OW14683   4.741   2.712   5.960
 4595SOL    HW114684   4.770   2.805   5.934
 4595SOL    HW214685   4.647   2.697   5.929
 4596SOL     OW14686   6.461   0.425   2.830
 4596SOL    HW114687   6.431   0.348   2.774
 4596SOL    HW214688   6.493   0.499   2.772
 4597SOL     OW14689   2.992   5.369   6.824
 4597SOL    HW114690   2.980   5.467   6.809
 4597SOL    HW214691   2.988   5.350   6.922
 4598SOL     OW14692   1.537   5.525   1.245
 4598SOL    HW114693   1.501   5.613   1.277
 4598SOL    HW214694   1.468   5.480   1.189
 4599SOL     OW14695   1.018   4.968   1.006
 4599SOL    HW114696   0.957   4.891   1.024
 4599SOL    HW214697   1.035   5.017   1.092
 4600SOL     OW14698   0.456   6.132   5.597
 4600SOL    HW114699   0.395   6.087   5.662
 4600SOL    HW214700   0.452   6.085   5.509
 4601SOL     OW14701   1.341   1.621   4.981
 4601SOL    HW114702   1.269   1.689   4.997
 4601SOL    HW214703   1.411   1.630   5.052
 4602SOL     OW14704   3.251   6.159   0.398
 4602SOL    HW114705   3.261   6.080   0.338
 4602SOL    HW214706   3.229   6.127   0.491
 4603SOL     OW14707   3.697   5.876   0.715
 4603SOL    HW114708   3.631   5.838   0.780
 4603SOL    HW214709   3.666   5.859   0.622
 4604SOL     OW14710   4.416   6.824   0.118
 4604SOL    HW114711   4.377   6.749   0.064
 4604SOL    HW214712   4.512   6.836   0.094
 4605SOL     OW14713   1.583   6.360   1.893
 4605SOL    HW114714   1.583   6.325   1.987
 4605SOL    HW214715   1.622   6.452   1.891
 4606SOL     OW14716   0.503   6.609   2.731
 4606SOL    HW114717   0.583   6.553   2.754
 4606SOL    HW214718   0.449   6.625   2.814
 4607SOL     OW14719   2.093   3.550   3.181
 4607SOL    HW114720   2.146   3.525   3.101
 4607SOL    HW214721   2.080   3.649   3.183
 4608SOL     OW14722   0.100   4.908   3.633
 4608SOL    HW114723   0.044   4.950   3.562
 4608SOL    HW214724   0.040   4.863   3.700
 4609SOL     OW14725   4.868   4.892   6.564
 4609SOL    HW114726   4.936   4.964   6.555
 4609SOL    HW214727   4.813   4.907   6.647
 4610SOL     OW14728   4.511   1.472   0.084
 4610SOL    HW114729   4.430   1.416   0.101
 4610SOL    HW214730   4.505   1.557   0.137
 4611SOL     OW14731   0.768   6.652   6.007
 4611SOL    HW114732   0.793   6.563   5.969
 4611SOL    HW214733   0.684   6.685   5.964
 4612SOL     OW14734   2.360   6.730   0.760
 4612SOL    HW114735   2.317   6.682   0.684
 4612SOL    HW214736   2.359   6.829   0.743
 4613SOL     OW14737   1.602   5.832   2.286
 4613SOL    HW114738   1.539   5.898   2.245
 4613SOL    HW214739   1.653   5.875   2.360
 4614SOL     OW14740   5.640   3.397   3.318
 4614SOL    HW114741   5.731   3.355   3.326
 4614SOL    HW214742   5.605   3.417   3.409
 4615SOL     OW14743   0.692   1.726   0.561
 4615SOL    HW114744   0.600   1.690   0.579
 4615SOL    HW214745   0.741   1.661   0.503
 4616SOL     OW14746   5.771   1.664   4.436
 4616SOL    HW114747   5.673   1.675   4.416
 4616SOL    HW214748   5.782   1.606   4.517
 4617SOL     OW14749   1.372   1.794   2.793
 4617SOL    HW114750   1.382   1.886   2.829
 4617SOL    HW214751   1.458   1.765   2.750
 4618SOL     OW14752   2.265   3.486   5.362
 4618SOL    HW114753   2.211   3.511   5.282
 4618SOL    HW214754   2.276   3.387   5.366
 4619SOL     OW14755   3.069   6.129   3.639
 4619SOL    HW114756   3.102   6.091   3.553
 4619SOL    HW214757   3.062   6.229   3.631
 4620SOL     OW14758   0.829   4.778   1.004
 4620SOL    HW114759   0.753   4.736   0.955
 4620SOL    HW214760   0.874   4.710   1.062
 4621SOL     OW14761   4.889   1.105   2.118
 4621SOL    HW114762   4.968   1.046   2.103
 4621SOL    HW214763   4.805   1.051   2.109
 4622SOL     OW14764   3.867   4.764   0.611
 4622SOL    HW114765   3.846   4.826   0.686
 4622SOL    HW214766   3.917   4.685   0.647
 4623SOL     OW14767   4.958   5.637   1.516
 4623SOL    HW114768   4.859   5.627   1.506
 4623SOL    HW214769   4.985   5.728   1.483
 4624SOL     OW14770   3.522   0.395   2.755
 4624SOL    HW114771   3.554   0.305   2.786
 4624SOL    HW214772   3.586   0.465   2.787
 4625SOL     OW14773   1.921   5.253   1.967
 4625SOL    HW114774   1.976   5.185   2.015
 4625SOL    HW214775   1.850   5.288   2.029
 4626SOL     OW14776   4.660   4.101   1.752
 4626SOL    HW114777   4.570   4.117   1.792
 4626SOL    HW214778   4.713   4.041   1.812
 4627SOL     OW14779   1.474   5.003   5.328
 4627SOL    HW114780   1.563   4.974   5.362
 4627SOL    HW214781   1.470   5.103   5.325
 4628SOL     OW14782   4.616   4.385   4.941
 4628SOL    HW114783   4.533   4.441   4.937
 4628SOL    HW214784   4.641   4.355   4.849
 4629SOL     OW14785   2.531   5.388   5.494
 4629SOL    HW114786   2.625   5.421   5.486
 4629SOL    HW214787   2.468   5.464   5.479
 4630SOL     OW14788   2.415   5.610   2.099
 4630SOL    HW114789   2.344   5.633   2.166
 4630SOL    HW214790   2.381   5.630   2.007
 4631SOL     OW14791   1.387   6.388   3.146
 4631SOL    HW114792   1.486   6.378   3.158
 4631SOL    HW214793   1.340   6.349   3.225
 4632SOL     OW14794   2.224   4.335   2.452
 4632SOL    HW114795   2.317   4.365   2.471
 4632SOL    HW214796   2.165   4.415   2.438
 4633SOL     OW14797   5.893   1.073   4.339
 4633SOL    HW114798   5.971   1.130   4.311
 4633SOL    HW214799   5.901   0.983   4.297
 4634SOL     OW14800   2.673   3.830   5.288
 4634SOL    HW114801   2.639   3.757   5.348
 4634SOL    HW214802   2.596   3.875   5.243
 4635SOL     OW14803   4.254   4.405   1.729
 4635SOL    HW114804   4.316   4.361   1.794
 4635SOL    HW214805   4.211   4.336   1.672
 4636SOL     OW14806   2.372   4.322   0.686
 4636SOL    HW114807   2.333   4.380   0.758
 4636SOL    HW214808   2.472   4.332   0.686
 4637SOL     OW14809   0.766   6.852   1.288
 4637SOL    HW114810   0.698   6.878   1.356
 4637SOL    HW214811   0.850   6.904   1.302
 4638SOL     OW14812   3.851   5.923   6.993
 4638SOL    HW114813   3.775   5.903   6.931
 4638SOL    HW214814   3.922   5.853   6.983
 4639SOL     OW14815   3.143   2.667   6.204
 4639SOL    HW114816   3.104   2.646   6.294
 4639SOL    HW214817   3.077   2.721   6.151
 4640SOL     OW14818   5.485   3.891   4.605
 4640SOL    HW114819   5.407   3.938   4.567
 4640SOL    HW214820   5.480   3.793   4.582
 4641SOL     OW14821   2.241   0.443   4.167
 4641SOL    HW114822   2.246   0.514   4.096
 4641SOL    HW214823   2.325   0.388   4.164
 4642SOL     OW14824   1.387   6.536   2.625
 4642SOL    HW114825   1.398   6.513   2.722
 4642SOL    HW214826   1.476   6.563   2.587
 4643SOL     OW14827   6.477   1.539   0.090
 4643SOL    HW114828   6.408   1.580   0.150
 4643SOL    HW214829   6.497   1.601   0.015
 4644SOL     OW14830   0.404   0.452   5.562
 4644SOL    HW114831   0.398   0.539   5.514
 4644SOL    HW214832   0.318   0.435   5.611
 4645SOL     OW14833   1.385   0.762   4.678
 4645SOL    HW114834   1.338   0.734   4.762
 4645SOL    HW214835   1.385   0.685   4.613
 4646SOL     OW14836   2.399   5.686   3.564
 4646SOL    HW114837   2.397   5.769   3.509
 4646SOL    HW214838   2.445   5.613   3.513
 4647SOL     OW14839   1.890   0.611   2.516
 4647SOL    HW114840   1.887   0.526   2.570
 4647SOL    HW214841   1.797   0.636   2.489
 4648SOL     OW14842   3.733   1.194   3.295
 4648SOL    HW114843   3.716   1.165   3.389
 4648SOL    HW214844   3.648   1.227   3.254
 4649SOL     OW14845   6.435   0.766   0.896
 4649SOL    HW114846   6.480   0.837   0.843
 4649SOL    HW214847   6.395   0.806   0.978
 4650SOL     OW14848   4.656   5.357   2.036
 4650SOL    HW114849   4.567   5.313   2.021
 4650SOL    HW214850   4.717   5.336   1.960
 4651SOL     OW14851   6.826   3.318   6.308
 4651SOL    HW114852   6.891   3.243   6.312
 4651SOL    HW214853   6.734   3.282   6.294
 4652SOL     OW14854   6.612   6.030   4.779
 4652SOL    HW114855   6.522   5.998   4.747
 4652SOL    HW214856   6.681   5.961   4.756
 4653SOL     OW14857   5.017   6.043   1.199
 4653SOL    HW114858   5.009   6.005   1.291
 4653SOL    HW214859   4.991   5.974   1.131
 4654SOL     OW14860   0.893   5.893   5.945
 4654SOL    HW114861   0.942   5.808   5.963
 4654SOL    HW214862   0.942   5.946   5.875
 4655SOL     OW14863   6.062   3.563   1.310
 4655SOL    HW114864   6.012   3.649   1.312
 4655SOL    HW214865   6.113   3.552   1.395
 4656SOL     OW14866   1.213   1.135   1.724
 4656SOL    HW114867   1.188   1.073   1.649
 4656SOL    HW214868   1.232   1.081   1.807
 4657SOL     OW14869   4.567   5.836   1.641
 4657SOL    HW114870   4.600   5.806   1.730
 4657SOL    HW214871   4.586   5.934   1.629
 4658SOL     OW14872   2.878   0.968   4.712
 4658SOL    HW114873   2.940   0.966   4.791
 4658SOL    HW214874   2.931   0.972   4.628
 4659SOL     OW14875   2.491   3.919   6.526
 4659SOL    HW114876   2.545   3.916   6.442
 4659SOL    HW214877   2.459   3.827   6.548
 4660SOL     OW14878   1.238   6.187   4.554
 4660SOL    HW114879   1.335   6.172   4.573
 4660SOL    HW214880   1.216   6.150   4.463
 4661SOL     OW14881   3.068   4.829   6.062
 4661SOL    HW114882   3.127   4.749   6.073
 4661SOL    HW214883   2.973   4.799   6.050
 4662SOL     OW14884   2.976   0.584   5.617
 4662SOL    HW114885   2.905   0.619   5.556
 4662SOL    HW214886   3.059   0.566   5.564
 4663SOL     OW14887   0.613   0.728   1.075
 4663SOL    HW114888   0.590   0.733   0.977
 4663SOL    HW214889   0.530   0.742   1.129
 4664SOL     OW14890   0.823   0.431   0.396
 4664SOL    HW114891   0.849   0.396   0.486
 4664SOL    HW214892   0.838   0.530   0.392
 4665SOL     OW14893   2.928   6.756   6.294
 4665SOL    HW114894   3.019   6.717   6.283
 4665SOL    HW214895   2.862   6.682   6.305
 4666SOL     OW14896   1.985   2.602   0.360
 4666SOL    HW114897   1.925   2.585   0.438
 4666SOL    HW214898   2.020   2.695   0.365
 4667SOL     OW14899   6.225   3.812   1.470
 4667SOL    HW114900   6.207   3.792   1.566
 4667SOL    HW214901   6.161   3.883   1.439
 4668SOL     OW14902   4.518   1.744   4.522
 4668SOL    HW114903   4.444   1.730   4.588
 4668SOL    HW214904   4.538   1.841   4.513
 4669SOL     OW14905   5.112   6.261   6.437
 4669SOL    HW114906   5.059   6.179   6.419
 4669SOL    HW214907   5.050   6.337   6.458
 4670SOL     OW14908   1.086   2.662   6.642
 4670SOL    HW114909   1.022   2.720   6.592
 4670SOL    HW214910   1.177   2.704   6.641
 4671SOL     OW14911   0.278   3.432   6.784
 4671SOL    HW114912   0.306   3.474   6.698
 4671SOL    HW214913   0.202   3.369   6.768
 4672SOL     OW14914   3.040   4.613   6.411
 4672SOL    HW114915   3.123   4.560   6.397
 4672SOL    HW214916   2.974   4.558   6.463
 4673SOL     OW14917   4.980   0.210   1.127
 4673SOL    HW114918   4.921   0.285   1.098
 4673SOL    HW214919   4.971   0.133   1.063
 4674SOL     OW14920   5.157   1.717   0.204
 4674SOL    HW114921   5.139   1.624   0.235
 4674SOL    HW214922   5.129   1.782   0.274
 4675SOL     OW14923   3.611   0.576   0.370
 4675SOL    HW114924   3.601   0.490   0.421
 4675SOL    HW214925   3.562   0.568   0.283
 4676SOL     OW14926   0.305   6.265   4.422
 4676SOL    HW114927   0.246   6.226   4.351
 4676SOL    HW214928   0.256   6.339   4.469
 4677SOL     OW14929   2.977   0.744   0.778
 4677SOL    HW114930   2.956   0.784   0.689
 4677SOL    HW214931   2.983   0.817   0.847
 4678SOL     OW14932   1.745   4.365   2.545
 4678SOL    HW114933   1.717   4.325   2.458
 4678SOL    HW214934   1.825   4.317   2.580
 4679SOL     OW14935   3.626   1.022   6.719
 4679SOL    HW114936   3.654   1.107   6.674
 4679SOL    HW214937   3.698   0.992   6.782
 4680SOL     OW14938   1.791   0.410   1.855
 4680SOL    HW114939   1.802   0.500   1.813
 4680SOL    HW214940   1.770   0.420   1.953
 4681SOL     OW14941   5.802   5.583   5.542
 4681SOL    HW114942   5.890   5.621   5.516
 4681SOL    HW214943   5.815   5.500   5.596
 4682SOL     OW14944   4.378   4.327   6.697
 4682SOL    HW114945   4.454   4.340   6.760
 4682SOL    HW214946   4.301   4.287   6.745
 4683SOL     OW14947   4.642   4.829   2.472
 4683SOL    HW114948   4.582   4.853   2.395
 4683SOL    HW214949   4.646   4.730   2.482
 4684SOL     OW14950   0.217   1.583   4.173
 4684SOL    HW114951   0.200   1.494   4.214
 4684SOL    HW214952   0.134   1.617   4.129
 4685SOL     OW14953   0.462   6.348   5.163
 4685SOL    HW114954   0.441   6.266   5.216
 4685SOL    HW214955   0.478   6.425   5.224
 4686SOL     OW14956   5.526   5.700   0.176
 4686SOL    HW114957   5.492   5.611   0.144
 4686SOL    HW214958   5.618   5.687   0.215
 4687SOL     OW14959   0.066   4.912   5.232
 4687SOL    HW114960   0.163   4.903   5.211
 4687SOL    HW214961   0.052   4.904   5.331
 4688SOL     OW14962   6.775   3.692   6.112
 4688SOL    HW114963   6.737   3.604   6.085
 4688SOL    HW214964   6.702   3.760   6.118
 4689SOL     OW14965   6.099   0.596   6.925
 4689SOL    HW114966   6.165   0.594   7.000
 4689SOL    HW214967   6.008   0.573   6.960
 4690SOL     OW14968   0.990   1.210   0.266
 4690SOL    HW114969   1.021   1.249   0.179
 4690SOL    HW214970   0.922   1.139   0.248
 4691SOL     OW14971   3.018   4.763   1.967
 4691SOL    HW114972   2.943   4.703   1.940
 4691SOL    HW214973   2.992   4.858   1.951
 4692SOL     OW14974   6.736   5.664   2.682
 4692SOL    HW114975   6.721   5.762   2.669
 4692SOL    HW214976   6.745   5.644   2.780
 4693SOL     OW14977   0.609   0.684   4.076
 4693SOL    HW114978   0.704   0.690   4.106
 4693SOL    HW214979   0.601   0.717   3.982
 4694SOL     OW14980   3.086   0.161   0.487
 4694SOL    HW114981   3.074   0.066   0.517
 4694SOL    HW214982   3.035   0.175   0.402
 4695SOL     OW14983   2.511   3.351   1.692
 4695SOL    HW114984   2.441   3.367   1.761
 4695SOL    HW214985   2.514   3.254   1.669
 4696SOL     OW14986   0.679   4.378   5.674
 4696SOL    HW114987   0.736   4.398   5.754
 4696SOL    HW214988   0.737   4.343   5.600
 4697SOL     OW14989   1.741   3.267   1.009
 4697SOL    HW114990   1.787   3.328   0.945
 4697SOL    HW214991   1.658   3.231   0.966
 4698SOL     OW14992   3.902   5.932   3.081
 4698SOL    HW114993   3.991   5.977   3.083
 4698SOL    HW214994   3.897   5.864   3.154
 4699SOL     OW14995   1.056   6.662   2.132
 4699SOL    HW114996   1.014   6.573   2.112
 4699SOL    HW214997   1.154   6.657   2.115
 4700SOL     OW14998   5.913   1.472   2.285
 4700SOL    HW114999   5.921   1.480   2.186
 4700SOL    HW215000   6.004   1.458   2.324
 4701SOL     OW15001   1.446   2.069   0.883
 4701SOL    HW115002   1.499   2.030   0.959
 4701SOL    HW215003   1.497   2.054   0.798
 4702SOL     OW15004   5.834   4.951   6.254
 4702SOL    HW115005   5.748   4.970   6.206
 4702SOL    HW215006   5.910   4.996   6.207
 4703SOL     OW15007   1.267   2.469   1.879
 4703SOL    HW115008   1.315   2.485   1.793
 4703SOL    HW215009   1.327   2.423   1.943
 4704SOL     OW15010   0.974   6.684   0.190
 4704SOL    HW115011   0.959   6.585   0.190
 4704SOL    HW215012   0.909   6.727   0.252
 4705SOL     OW15013   3.581   3.473   2.822
 4705SOL    HW115014   3.594   3.424   2.736
 4705SOL    HW215015   3.507   3.429   2.875
 4706SOL     OW15016   3.886   6.219   6.280
 4706SOL    HW115017   3.944   6.293   6.314
 4706SOL    HW215018   3.828   6.253   6.207
 4707SOL     OW15019   2.417   5.703   0.796
 4707SOL    HW115020   2.411   5.603   0.799
 4707SOL    HW215021   2.368   5.736   0.716
 4708SOL     OW15022   1.586   2.358   6.834
 4708SOL    HW115023   1.519   2.298   6.791
 4708SOL    HW215024   1.582   2.345   6.934
 4709SOL     OW15025   4.071   5.391   5.291
 4709SOL    HW115026   4.108   5.418   5.202
 4709SOL    HW215027   3.983   5.344   5.277
 4710SOL     OW15028   3.588   1.108   5.521
 4710SOL    HW115029   3.532   1.092   5.440
 4710SOL    HW215030   3.591   1.025   5.577
 4711SOL     OW15031   5.163   0.643   2.150
 4711SOL    HW115032   5.260   0.644   2.125
 4711SOL    HW215033   5.111   0.593   2.081
 4712SOL     OW15034   2.928   4.648   0.626
 4712SOL    HW115035   2.919   4.635   0.528
 4712SOL    HW215036   2.996   4.584   0.662
 4713SOL     OW15037   2.972   4.215   1.016
 4713SOL    HW115038   2.939   4.140   0.959
 4713SOL    HW215039   2.946   4.198   1.111
 4714SOL     OW15040   1.913   2.086   0.129
 4714SOL    HW115041   1.880   2.098   0.036
 4714SOL    HW215042   2.013   2.088   0.129
 4715SOL     OW15043   6.584   3.692   1.640
 4715SOL    HW115044   6.538   3.779   1.658
 4715SOL    HW215045   6.516   3.622   1.622
 4716SOL     OW15046   4.025   6.002   6.611
 4716SOL    HW115047   3.963   6.071   6.648
 4716SOL    HW215048   3.976   5.944   6.546
 4717SOL     OW15049   0.063   6.427   3.404
 4717SOL    HW115050   6.999   6.477   3.384
 4717SOL    HW215051   0.104   6.395   3.318
 4718SOL     OW15052   5.710   1.854   6.736
 4718SOL    HW115053   5.685   1.915   6.811
 4718SOL    HW215054   5.640   1.861   6.664
 4719SOL     OW15055   5.097   3.422   2.489
 4719SOL    HW115056   5.085   3.384   2.581
 4719SOL    HW215057   5.108   3.347   2.423
 4720SOL     OW15058   2.237   6.237   5.646
 4720SOL    HW115059   2.234   6.166   5.717
 4720SOL    HW215060   2.159   6.299   5.658
 4721SOL     OW15061   6.901   2.515   1.268
 4721SOL    HW115062   6.921   2.431   1.218
 4721SOL    HW215063   6.957   2.519   1.351
 4722SOL     OW15064   1.033   5.829   6.979
 4722SOL    HW115065   0.955   5.805   0.016
 4722SOL    HW215066   1.075   5.912   7.014
 4723SOL     OW15067   2.242   5.110   6.232
 4723SOL    HW115068   2.297   5.050   6.174
 4723SOL    HW215069   2.276   5.107   6.326
 4724SOL     OW15070   5.279   5.743   3.238
 4724SOL    HW115071   5.290   5.686   3.157
 4724SOL    HW215072   5.314   5.695   3.318
 4725SOL     OW15073   6.389   6.670   2.862
 4725SOL    HW115074   6.395   6.579   2.821
 4725SOL    HW215075   6.338   6.731   2.800
 4726SOL     OW15076   1.548   3.227   6.602
 4726SOL    HW115077   1.622   3.293   6.613
 4726SOL    HW215078   1.562   3.151   6.665
 4727SOL     OW15079   0.350   6.663   0.171
 4727SOL    HW115080   0.417   6.608   0.121
 4727SOL    HW215081   0.396   6.714   0.244
 4728SOL     OW15082   4.843   1.175   0.719
 4728SOL    HW115083   4.782   1.212   0.790
 4728SOL    HW215084   4.790   1.125   0.652
 4729SOL     OW15085   2.075   1.553   2.068
 4729SOL    HW115086   2.019   1.553   2.151
 4729SOL    HW215087   2.016   1.558   1.988
 4730SOL     OW15088   2.183   5.755   5.477
 4730SOL    HW115089   2.230   5.843   5.474
 4730SOL    HW215090   2.158   5.733   5.571
 4731SOL     OW15091   4.437   6.956   6.342
 4731SOL    HW115092   4.386   7.017   6.282
 4731SOL    HW215093   4.377   6.884   6.377
 4732SOL     OW15094   6.982   3.901   5.794
 4732SOL    HW115095   7.019   3.919   5.702
 4732SOL    HW215096   6.886   3.930   5.797
 4733SOL     OW15097   1.314   4.282   3.020
 4733SOL    HW115098   1.262   4.288   3.105
 4733SOL    HW215099   1.303   4.366   2.968
 4734SOL     OW15100   4.879   3.209   6.538
 4734SOL    HW115101   4.936   3.136   6.576
 4734SOL    HW215102   4.853   3.185   6.445
 4735SOL     OW15103   0.884   5.889   4.240
 4735SOL    HW115104   0.809   5.950   4.216
 4735SOL    HW215105   0.849   5.795   4.249
 4736SOL     OW15106   0.504   1.675   6.425
 4736SOL    HW115107   0.512   1.592   6.369
 4736SOL    HW215108   0.436   1.736   6.384
 4737SOL     OW15109   1.103   5.196   2.124
 4737SOL    HW115110   1.193   5.178   2.083
 4737SOL    HW215111   1.110   5.193   2.224
 4738SOL     OW15112   6.952   5.868   3.004
 4738SOL    HW115113   6.964   5.937   3.075
 4738SOL    HW215114   0.004   5.878   2.936
 4739SOL     OW15115   4.447   6.757   3.316
 4739SOL    HW115116   4.406   6.756   3.225
 4739SOL    HW215117   4.479   6.666   3.339
 4740SOL     OW15118   0.448   1.560   0.907
 4740SOL    HW115119   0.536   1.515   0.888
 4740SOL    HW215120   0.463   1.638   0.967
 4741SOL     OW15121   3.341   2.506   1.445
 4741SOL    HW115122   3.358   2.568   1.369
 4741SOL    HW215123   3.413   2.437   1.449
 4742SOL     OW15124   1.930   6.514   5.364
 4742SOL    HW115125   1.870   6.584   5.404
 4742SOL    HW215126   1.900   6.494   5.271
 4743SOL     OW15127   2.166   3.948   2.802
 4743SOL    HW115128   2.184   3.853   2.774
 4743SOL    HW215129   2.192   4.010   2.728
 4744SOL     OW15130   1.843   5.179   1.021
 4744SOL    HW115131   1.782   5.239   0.970
 4744SOL    HW215132   1.914   5.233   1.066
 4745SOL     OW15133   2.883   4.035   6.574
 4745SOL    HW115134   2.918   3.947   6.543
 4745SOL    HW215135   2.881   4.037   6.674
 4746SOL     OW15136   4.554   6.712   3.852
 4746SOL    HW115137   4.566   6.761   3.938
 4746SOL    HW215138   4.582   6.770   3.775
 4747SOL     OW15139   0.715   3.903   0.612
 4747SOL    HW115140   0.806   3.885   0.574
 4747SOL    HW215141   0.724   3.946   0.701
 4748SOL     OW15142   1.873   5.929   1.370
 4748SOL    HW115143   1.819   5.850   1.397
 4748SOL    HW215144   1.822   6.013   1.389
 4749SOL     OW15145   1.783   6.902   6.623
 4749SOL    HW115146   1.877   6.893   6.589
 4749SOL    HW215147   1.721   6.922   6.546
 4750SOL     OW15148   0.036   3.349   5.246
 4750SOL    HW115149   7.004   3.265   5.230
 4750SOL    HW215150   0.006   3.392   5.331
 4751SOL     OW15151   4.593   2.675   3.135
 4751SOL    HW115152   4.498   2.666   3.108
 4751SOL    HW215153   4.615   2.771   3.148
 4752SOL     OW15154   4.433   0.642   0.125
 4752SOL    HW115155   4.432   0.741   0.138
 4752SOL    HW215156   4.506   0.601   0.180
 4753SOL     OW15157   0.889   6.951   3.826
 4753SOL    HW115158   0.947   7.012   3.773
 4753SOL    HW215159   0.822   7.004   3.878
 4754SOL     OW15160   5.192   3.935   5.161
 4754SOL    HW115161   5.213   3.878   5.241
 4754SOL    HW215162   5.094   3.937   5.146
 4755SOL     OW15163   2.962   0.937   0.961
 4755SOL    HW115164   2.938   0.891   1.047
 4755SOL    HW215165   3.033   1.005   0.980
 4756SOL     OW15166   6.173   3.543   5.431
 4756SOL    HW115167   6.167   3.583   5.523
 4756SOL    HW215168   6.216   3.608   5.369
 4757SOL     OW15169   1.883   2.138   1.446
 4757SOL    HW115170   1.802   2.095   1.409
 4757SOL    HW215171   1.957   2.137   1.378
 4758SOL     OW15172   1.650   6.295   3.077
 4758SOL    HW115173   1.702   6.218   3.039
 4758SOL    HW215174   1.691   6.324   3.163
 4759SOL     OW15175   0.793   5.018   6.473
 4759SOL    HW115176   0.729   5.053   6.405
 4759SOL    HW215177   0.880   4.996   6.429
 4760SOL     OW15178   2.105   1.241   0.668
 4760SOL    HW115179   2.165   1.171   0.705
 4760SOL    HW215180   2.039   1.269   0.738
 4761SOL     OW15181   1.536   0.742   0.659
 4761SOL    HW115182   1.500   0.830   0.689
 4761SOL    HW215183   1.513   0.672   0.727
 4762SOL     OW15184   1.458   5.998   2.127
 4762SOL    HW115185   1.378   5.954   2.087
 4762SOL    HW215186   1.462   6.094   2.097
 4763SOL     OW15187   4.974   0.217   2.808
 4763SOL    HW115188   5.012   0.239   2.898
 4763SOL    HW215189   4.986   0.296   2.747
 4764SOL     OW15190   4.541   3.358   5.393
 4764SOL    HW115191   4.584   3.386   5.307
 4764SOL    HW215192   4.531   3.258   5.395
 4765SOL     OW15193   3.764   0.851   5.556
 4765SOL    HW115194   3.861   0.875   5.568
 4765SOL    HW215195   3.721   0.842   5.645
 4766SOL     OW15196   6.305   6.125   4.048
 4766SOL    HW115197   6.286   6.216   4.011
 4766SOL    HW215198   6.234   6.099   4.113
 4767SOL     OW15199   3.271   4.879   5.037
 4767SOL    HW115200   3.207   4.803   5.042
 4767SOL    HW215201   3.364   4.845   5.055
 4768SOL     OW15202   3.434   2.657   5.635
 4768SOL    HW115203   3.419   2.593   5.710
 4768SOL    HW215204   3.359   2.723   5.632
 4769SOL     OW15205   4.249   5.897   0.687
 4769SOL    HW115206   4.322   5.958   0.656
 4769SOL    HW215207   4.290   5.819   0.736
 4770SOL     OW15208   0.769   1.879   4.715
 4770SOL    HW115209   0.742   1.893   4.620
 4770SOL    HW215210   0.756   1.783   4.740
 4771SOL     OW15211   2.637   6.436   6.438
 4771SOL    HW115212   2.551   6.470   6.477
 4771SOL    HW215213   2.627   6.340   6.412
 4772SOL     OW15214   3.265   4.831   1.107
 4772SOL    HW115215   3.182   4.872   1.067
 4772SOL    HW215216   3.344   4.858   1.053
 4773SOL     OW15217   0.251   5.629   5.338
 4773SOL    HW115218   0.271   5.703   5.401
 4773SOL    HW215219   0.292   5.544   5.372
 4774SOL     OW15220   1.468   4.349   0.944
 4774SOL    HW115221   1.444   4.253   0.938
 4774SOL    HW215222   1.407   4.403   0.885
 4775SOL     OW15223   5.027   0.167   4.044
 4775SOL    HW115224   5.036   0.225   4.125
 4775SOL    HW215225   4.969   0.211   3.977
 4776SOL     OW15226   0.791   0.907   5.481
 4776SOL    HW115227   0.732   0.933   5.405
 4776SOL    HW215228   0.873   0.964   5.481
 4777SOL     OW15229   2.056   5.774   0.825
 4777SOL    HW115230   2.090   5.685   0.854
 4777SOL    HW215231   2.104   5.846   0.875
 4778SOL     OW15232   0.008   2.638   4.673
 4778SOL    HW115233   7.015   2.652   4.575
 4778SOL    HW215234   6.940   2.628   4.718
 4779SOL     OW15235   5.655   6.945   3.652
 4779SOL    HW115236   5.697   6.937   3.561
 4779SOL    HW215237   5.634   0.019   3.671
 4780SOL     OW15238   5.625   2.423   6.917
 4780SOL    HW115239   5.677   2.441   6.834
 4780SOL    HW215240   5.607   2.509   6.965
 4781SOL     OW15241   2.865   5.598   1.922
 4781SOL    HW115242   2.959   5.566   1.934
 4781SOL    HW215243   2.805   5.520   1.906
 4782SOL     OW15244   6.039   5.814   6.570
 4782SOL    HW115245   6.088   5.899   6.588
 4782SOL    HW215246   5.978   5.826   6.492
 4783SOL     OW15247   5.801   3.576   6.925
 4783SOL    HW115248   5.780   3.494   6.979
 4783SOL    HW215249   5.748   3.654   6.962
 4784SOL     OW15250   6.332   2.019   6.085
 4784SOL    HW115251   6.362   2.018   5.990
 4784SOL    HW215252   6.253   1.958   6.096
 4785SOL     OW15253   0.297   6.582   3.219
 4785SOL    HW115254   0.366   6.650   3.244
 4785SOL    HW215255   0.327   6.491   3.249
 4786SOL     OW15256   2.491   6.515   6.811
 4786SOL    HW115257   2.504   6.613   6.826
 4786SOL    HW215258   2.558   6.464   6.865
 4787SOL     OW15259   3.963   1.936   3.217
 4787SOL    HW115260   3.876   1.935   3.267
 4787SOL    HW215261   3.969   2.019   3.162
 4788SOL     OW15262   6.827   5.663   0.476
 4788SOL    HW115263   6.772   5.606   0.416
 4788SOL    HW215264   6.773   5.741   0.507
 4789SOL     OW15265   5.049   2.198   1.679
 4789SOL    HW115266   5.022   2.294   1.680
 4789SOL    HW215267   5.146   2.191   1.654
 4790SOL     OW15268   5.997   2.037   5.881
 4790SOL    HW115269   5.949   2.007   5.963
 4790SOL    HW215270   6.059   1.964   5.850
 4791SOL     OW15271   0.145   3.133   1.956
 4791SOL    HW115272   0.093   3.145   1.871
 4791SOL    HW215273   0.146   3.036   1.981
 4792SOL     OW15274   2.050   4.403   4.711
 4792SOL    HW115275   2.142   4.369   4.689
 4792SOL    HW215276   1.988   4.384   4.635
 4793SOL     OW15277   1.811   3.692   5.161
 4793SOL    HW115278   1.814   3.609   5.106
 4793SOL    HW215279   1.904   3.724   5.180
 4794SOL     OW15280   4.130   6.887   4.588
 4794SOL    HW115281   4.141   6.795   4.551
 4794SOL    HW215282   4.198   6.903   4.659
 4795SOL     OW15283   6.486   1.599   4.262
 4795SOL    HW115284   6.569   1.567   4.307
 4795SOL    HW215285   6.500   1.692   4.228
 4796SOL     OW15286   3.950   0.181   6.500
 4796SOL    HW115287   3.883   0.248   6.467
 4796SOL    HW215288   3.963   0.110   6.431
 4797SOL     OW15289   0.577   6.030   4.814
 4797SOL    HW115290   0.533   6.063   4.730
 4797SOL    HW215291   0.573   6.100   4.884
 4798SOL     OW15292   6.195   4.758   4.930
 4798SOL    HW115293   6.257   4.716   4.997
 4798SOL    HW215294   6.220   4.730   4.838
 4799SOL     OW15295   4.339   1.609   0.719
 4799SOL    HW115296   4.313   1.704   0.702
 4799SOL    HW215297   4.349   1.561   0.632
 4800SOL     OW15298   1.695   3.710   6.867
 4800SOL    HW115299   1.675   3.808   6.877
 4800SOL    HW215300   1.624   3.667   6.812
 4801SOL     OW15301   3.760   2.327   6.689
 4801SOL    HW115302   3.806   2.415   6.702
 4801SOL    HW215303   3.677   2.341   6.635
 4802SOL     OW15304   6.775   6.387   2.022
 4802SOL    HW115305   6.802   6.468   1.969
 4802SOL    HW215306   6.852   6.323   2.025
 4803SOL     OW15307   6.945   4.334   0.968
 4803SOL    HW115308   6.915   4.275   0.893
 4803SOL    HW215309   0.016   4.370   0.947
 4804SOL     OW15310   6.539   0.129   1.257
 4804SOL    HW115311   6.466   0.127   1.188
 4804SOL    HW215312   6.628   0.118   1.213
 4805SOL     OW15313   6.310   1.288   2.219
 4805SOL    HW115314   6.316   1.201   2.268
 4805SOL    HW215315   6.265   1.273   2.131
 4806SOL     OW15316   1.123   3.494   2.819
 4806SOL    HW115317   1.040   3.448   2.788
 4806SOL    HW215318   1.170   3.534   2.740
 4807SOL     OW15319   1.150   3.949   6.443
 4807SOL    HW115320   1.074   4.006   6.474
 4807SOL    HW215321   1.230   3.968   6.501
 4808SOL     OW15322   4.648   5.461   0.417
 4808SOL    HW115323   4.734   5.501   0.448
 4808SOL    HW215324   4.623   5.385   0.477
 4809SOL     OW15325   4.023   4.786   1.479
 4809SOL    HW115326   4.010   4.699   1.432
 4809SOL    HW215327   4.012   4.772   1.578
 4810SOL     OW15328   1.336   4.690   3.258
 4810SOL    HW115329   1.317   4.657   3.350
 4810SOL    HW215330   1.300   4.783   3.248
 4811SOL     OW15331   3.748   3.868   3.455
 4811SOL    HW115332   3.819   3.907   3.398
 4811SOL    HW215333   3.679   3.824   3.398
 4812SOL     OW15334   0.393   0.346   2.196
 4812SOL    HW115335   0.458   0.416   2.166
 4812SOL    HW215336   0.442   0.260   2.210
 4813SOL     OW15337   6.083   1.413   6.122
 4813SOL    HW115338   6.069   1.472   6.202
 4813SOL    HW215339   6.072   1.467   6.039
 4814SOL     OW15340   0.087   3.392   2.104
 4814SOL    HW115341   0.172   3.432   2.137
 4814SOL    HW215342   0.106   3.306   2.058
 4815SOL     OW15343   5.334   4.551   2.770
 4815SOL    HW115344   5.418   4.595   2.801
 4815SOL    HW215345   5.259   4.618   2.772
 4816SOL     OW15346   2.227   5.257   1.696
 4816SOL    HW115347   2.259   5.340   1.651
 4816SOL    HW215348   2.136   5.233   1.662
 4817SOL     OW15349   3.233   1.175   1.485
 4817SOL    HW115350   3.192   1.092   1.520
 4817SOL    HW215351   3.213   1.252   1.545
 4818SOL     OW15352   0.804   1.434   4.088
 4818SOL    HW115353   0.789   1.364   4.018
 4818SOL    HW215354   0.805   1.392   4.178
 4819SOL     OW15355   3.131   2.279   1.287
 4819SOL    HW115356   3.116   2.362   1.342
 4819SOL    HW215357   3.049   2.221   1.290
 4820SOL     OW15358   6.348   2.331   0.502
 4820SOL    HW115359   6.324   2.348   0.406
 4820SOL    HW215360   6.447   2.339   0.514
 4821SOL     OW15361   6.740   6.925   1.285
 4821SOL    HW115362   6.835   6.954   1.288
 4821SOL    HW215363   6.730   6.839   1.335
 4822SOL     OW15364   1.747   2.905   3.745
 4822SOL    HW115365   1.719   2.928   3.651
 4822SOL    HW215366   1.760   2.988   3.797
 4823SOL     OW15367   0.197   1.179   3.638
 4823SOL    HW115368   0.269   1.217   3.579
 4823SOL    HW215369   0.176   1.243   3.712
 4824SOL     OW15370   5.795   2.103   3.430
 4824SOL    HW115371   5.812   2.191   3.385
 4824SOL    HW215372   5.749   2.041   3.366
 4825SOL     OW15373   2.216   2.714   4.237
 4825SOL    HW115374   2.302   2.674   4.270
 4825SOL    HW215375   2.234   2.803   4.197
 4826SOL     OW15376   0.713   0.850   6.862
 4826SOL    HW115377   0.720   0.766   6.916
 4826SOL    HW215378   0.763   0.838   6.776
 4827SOL     OW15379   5.991   0.915   1.560
 4827SOL    HW115380   6.065   0.924   1.627
 4827SOL    HW215381   5.925   0.989   1.572
 4828SOL     OW15382   5.851   3.099   0.851
 4828SOL    HW115383   5.881   3.193   0.838
 4828SOL    HW215384   5.837   3.081   0.949
 4829SOL     OW15385   3.606   6.528   6.589
 4829SOL    HW115386   3.683   6.466   6.603
 4829SOL    HW215387   3.632   6.598   6.522
 4830SOL     OW15388   5.175   5.958   4.271
 4830SOL    HW115389   5.218   5.872   4.299
 4830SOL    HW215390   5.101   5.939   4.206
 4831SOL     OW15391   6.791   5.550   6.001
 4831SOL    HW115392   6.767   5.458   5.969
 4831SOL    HW215393   6.714   5.612   5.984
 4832SOL     OW15394   2.728   2.410   5.752
 4832SOL    HW115395   2.695   2.505   5.760
 4832SOL    HW215396   2.734   2.385   5.656
 4833SOL     OW15397   5.407   1.209   2.926
 4833SOL    HW115398   5.388   1.112   2.911
 4833SOL    HW215399   5.433   1.252   2.840
 4834SOL     OW15400   3.661   0.349   0.614
 4834SOL    HW115401   3.670   0.413   0.690
 4834SOL    HW215402   3.628   0.261   0.648
 4835SOL     OW15403   0.935   1.365   6.499
 4835SOL    HW115404   0.989   1.352   6.416
 4835SOL    HW215405   0.849   1.314   6.491
 4836SOL     OW15406   4.789   3.031   3.517
 4836SOL    HW115407   4.807   2.940   3.553
 4836SOL    HW215408   4.744   3.087   3.587
 4837SOL     OW15409   4.416   3.392   1.702
 4837SOL    HW115410   4.337   3.451   1.689
 4837SOL    HW215411   4.385   3.299   1.722
 4838SOL     OW15412   2.506   5.342   2.088
 4838SOL    HW115413   2.425   5.283   2.075
 4838SOL    HW215414   2.476   5.434   2.112
 4839SOL     OW15415   1.698   3.893   5.791
 4839SOL    HW115416   1.655   3.857   5.709
 4839SOL    HW215417   1.760   3.824   5.829
 4840SOL     OW15418   0.870   6.670   5.448
 4840SOL    HW115419   0.822   6.738   5.503
 4840SOL    HW215420   0.803   6.620   5.392
 4841SOL     OW15421   2.895   6.112   1.549
 4841SOL    HW115422   2.908   6.107   1.648
 4841SOL    HW215423   2.934   6.031   1.505
 4842SOL     OW15424   3.358   4.825   1.821
 4842SOL    HW115425   3.377   4.905   1.878
 4842SOL    HW215426   3.444   4.779   1.799
 4843SOL     OW15427   5.887   3.924   0.498
 4843SOL    HW115428   5.917   3.908   0.404
 4843SOL    HW215429   5.869   3.837   0.543
 4844SOL     OW15430   6.715   3.357   5.852
 4844SOL    HW115431   6.617   3.374   5.860
 4844SOL    HW215432   6.757   3.430   5.798
 4845SOL     OW15433   6.836   5.882   4.355
 4845SOL    HW115434   6.854   5.903   4.259
 4845SOL    HW215435   6.739   5.861   4.367
 4846SOL     OW15436   6.457   3.364   3.239
 4846SOL    HW115437   6.397   3.329   3.311
 4846SOL    HW215438   6.504   3.445   3.271
 4847SOL     OW15439   3.697   1.542   5.658
 4847SOL    HW115440   3.672   1.456   5.613
 4847SOL    HW215441   3.788   1.571   5.629
 4848SOL     OW15442   1.356   0.730   3.703
 4848SOL    HW115443   1.320   0.781   3.625
 4848SOL    HW215444   1.282   0.710   3.767
 4849SOL     OW15445   1.040   6.824   6.726
 4849SOL    HW115446   1.081   6.891   6.664
 4849SOL    HW215447   0.953   6.859   6.760
 4850SOL     OW15448   4.057   1.245   2.333
 4850SOL    HW115449   3.957   1.239   2.338
 4850SOL    HW215450   4.087   1.333   2.371
 4851SOL     OW15451   3.355   5.841   4.544
 4851SOL    HW115452   3.324   5.788   4.623
 4851SOL    HW215453   3.452   5.862   4.554
 4852SOL     OW15454   0.752   0.479   5.723
 4852SOL    HW115455   0.725   0.438   5.636
 4852SOL    HW215456   0.745   0.579   5.717
 4853SOL     OW15457   2.981   1.209   2.746
 4853SOL    HW115458   2.937   1.122   2.722
 4853SOL    HW215459   3.034   1.198   2.829
 4854SOL     OW15460   5.009   6.675   2.521
 4854SOL    HW115461   4.995   6.713   2.612
 4854SOL    HW215462   4.927   6.627   2.491
 4855SOL     OW15463   5.576   2.835   2.270
 4855SOL    HW115464   5.665   2.880   2.276
 4855SOL    HW215465   5.506   2.902   2.243
 4856SOL     OW15466   2.234   4.092   2.543
 4856SOL    HW115467   2.245   4.182   2.501
 4856SOL    HW215468   2.238   4.022   2.472
 4857SOL     OW15469   2.233   3.027   5.636
 4857SOL    HW115470   2.195   2.938   5.608
 4857SOL    HW215471   2.308   3.051   5.574
 4858SOL     OW15472   1.593   1.395   4.563
 4858SOL    HW115473   1.528   1.456   4.607
 4858SOL    HW215474   1.655   1.449   4.506
 4859SOL     OW15475   1.193   0.689   4.372
 4859SOL    HW115476   1.270   0.633   4.403
 4859SOL    HW215477   1.123   0.693   4.444
 4860SOL     OW15478   3.891   4.922   1.998
 4860SOL    HW115479   3.811   4.876   1.960
 4860SOL    HW215480   3.966   4.857   2.009
 4861SOL     OW15481   5.302   5.079   0.403
 4861SOL    HW115482   5.240   5.038   0.337
 4861SOL    HW215483   5.352   5.007   0.451
 4862SOL     OW15484   2.963   4.852   4.889
 4862SOL    HW115485   2.926   4.770   4.933
 4862SOL    HW215486   2.970   4.926   4.955
 4863SOL     OW15487   6.243   4.283   1.766
 4863SOL    HW115488   6.275   4.317   1.678
 4863SOL    HW215489   6.263   4.186   1.773
 4864SOL     OW15490   3.940   1.303   3.516
 4864SOL    HW115491   3.861   1.246   3.495
 4864SOL    HW215492   3.915   1.372   3.584
 4865SOL     OW15493   2.338   0.360   5.531
 4865SOL    HW115494   2.303   0.300   5.459
 4865SOL    HW215495   2.431   0.334   5.555
 4866SOL     OW15496   0.226   2.519   0.455
 4866SOL    HW115497   0.322   2.541   0.470
 4866SOL    HW215498   0.171   2.603   0.466
 4867SOL     OW15499   3.777   5.104   3.232
 4867SOL    HW115500   3.752   5.014   3.270
 4867SOL    HW215501   3.851   5.092   3.165
 4868SOL     OW15502   0.254   4.959   2.655
 4868SOL    HW115503   0.300   4.983   2.740
 4868SOL    HW215504   0.155   4.964   2.668
 4869SOL     OW15505   0.968   1.730   2.509
 4869SOL    HW115506   1.049   1.768   2.552
 4869SOL    HW215507   0.886   1.759   2.559
 4870SOL     OW15508   0.384   6.366   1.952
 4870SOL    HW115509   0.477   6.404   1.949
 4870SOL    HW215510   0.387   6.269   1.931
 4871SOL     OW15511   1.573   0.766   3.881
 4871SOL    HW115512   1.662   0.779   3.838
 4871SOL    HW215513   1.506   0.738   3.812
 4872SOL     OW15514   6.294   0.189   3.626
 4872SOL    HW115515   6.380   0.147   3.655
 4872SOL    HW215516   6.217   0.134   3.658
 4873SOL     OW15517   6.587   5.420   3.968
 4873SOL    HW115518   6.526   5.492   4.001
 4873SOL    HW215519   6.564   5.334   4.016
 4874SOL     OW15520   5.744   3.848   2.163
 4874SOL    HW115521   5.795   3.769   2.198
 4874SOL    HW215522   5.646   3.832   2.174
 4875SOL     OW15523   6.098   1.676   0.652
 4875SOL    HW115524   6.157   1.716   0.582
 4875SOL    HW215525   6.154   1.629   0.720
 4876SOL     OW15526   6.310   2.262   2.838
 4876SOL    HW115527   6.257   2.343   2.814
 4876SOL    HW215528   6.315   2.253   2.938
 4877SOL     OW15529   1.555   2.108   5.838
 4877SOL    HW115530   1.494   2.059   5.900
 4877SOL    HW215531   1.509   2.123   5.751
 4878SOL     OW15532   6.351   1.318   1.750
 4878SOL    HW115533   6.319   1.260   1.825
 4878SOL    HW215534   6.386   1.404   1.787
 4879SOL     OW15535   4.569   1.670   2.433
 4879SOL    HW115536   4.599   1.619   2.353
 4879SOL    HW215537   4.548   1.606   2.508
 4880SOL     OW15538   5.454   3.704   0.310
 4880SOL    HW115539   5.467   3.724   0.213
 4880SOL    HW215540   5.415   3.784   0.355
 4881SOL     OW15541   1.542   1.506   0.188
 4881SOL    HW115542   1.530   1.603   0.211
 4881SOL    HW215543   1.463   1.474   0.136
 4882SOL     OW15544   4.631   0.727   4.758
 4882SOL    HW115545   4.602   0.643   4.714
 4882SOL    HW215546   4.703   0.771   4.704
 4883SOL     OW15547   4.890   4.752   1.598
 4883SOL    HW115548   4.871   4.695   1.518
 4883SOL    HW215549   4.984   4.785   1.593
 4884SOL     OW15550   3.033   6.022   1.827
 4884SOL    HW115551   2.933   6.030   1.837
 4884SOL    HW215552   3.054   5.965   1.747
 4885SOL     OW15553   2.322   5.162   1.392
 4885SOL    HW115554   2.231   5.145   1.431
 4885SOL    HW215555   2.391   5.116   1.448
 4886SOL     OW15556   1.981   5.995   1.912
 4886SOL    HW115557   1.959   5.924   1.845
 4886SOL    HW215558   2.033   6.068   1.868
 4887SOL     OW15559   7.016   0.014   1.202
 4887SOL    HW115560   0.047   0.061   1.131
 4887SOL    HW215561   0.057   7.001   1.273
 4888SOL     OW15562   3.101   0.652   4.436
 4888SOL    HW115563   3.065   0.571   4.483
 4888SOL    HW215564   3.026   0.703   4.395
 4889SOL     OW15565   6.896   1.302   5.127
 4889SOL    HW115566   6.864   1.390   5.093
 4889SOL    HW215567   6.833   1.268   5.197
 4890SOL     OW15568   6.793   1.221   6.100
 4890SOL    HW115569   6.804   1.270   6.187
 4890SOL    HW215570   6.775   1.287   6.027
 4891SOL     OW15571   1.603   4.653   0.298
 4891SOL    HW115572   1.600   4.657   0.398
 4891SOL    HW215573   1.697   4.636   0.269
 4892SOL     OW15574   3.705   5.477   2.321
 4892SOL    HW115575   3.773   5.419   2.364
 4892SOL    HW215576   3.711   5.570   2.358
 4893SOL     OW15577   6.382   2.764   1.739
 4893SOL    HW115578   6.371   2.676   1.692
 4893SOL    HW215579   6.456   2.815   1.696
 4894SOL     OW15580   3.608   0.773   2.458
 4894SOL    HW115581   3.512   0.784   2.485
 4894SOL    HW215582   3.624   0.825   2.374
 4895SOL     OW15583   0.697   4.917   4.585
 4895SOL    HW115584   0.788   4.876   4.594
 4895SOL    HW215585   0.627   4.849   4.604
 4896SOL     OW15586   2.426   4.194   1.763
 4896SOL    HW115587   2.437   4.140   1.847
 4896SOL    HW215588   2.336   4.177   1.724
 4897SOL     OW15589   1.483   5.295   5.925
 4897SOL    HW115590   1.526   5.250   6.004
 4897SOL    HW215591   1.532   5.379   5.904
 4898SOL     OW15592   4.335   1.067   5.068
 4898SOL    HW115593   4.414   1.031   5.017
 4898SOL    HW215594   4.274   0.992   5.092
 4899SOL     OW15595   5.962   5.172   2.750
 4899SOL    HW115596   5.874   5.124   2.754
 4899SOL    HW215597   6.015   5.151   2.832
 4900SOL     OW15598   3.290   6.270   5.143
 4900SOL    HW115599   3.278   6.222   5.230
 4900SOL    HW215600   3.360   6.225   5.088
 4901SOL     OW15601   2.543   1.658   5.463
 4901SOL    HW115602   2.499   1.581   5.509
 4901SOL    HW215603   2.622   1.625   5.411
 4902SOL     OW15604   1.480   1.707   5.197
 4902SOL    HW115605   1.550   1.770   5.165
 4902SOL    HW215606   1.420   1.754   5.262
 4903SOL     OW15607   3.797   5.381   0.406
 4903SOL    HW115608   3.802   5.339   0.497
 4903SOL    HW215609   3.890   5.389   0.368
 4904SOL     OW15610   2.038   0.381   5.344
 4904SOL    HW115611   2.107   0.318   5.379
 4904SOL    HW215612   2.039   0.379   5.244
 4905SOL     OW15613   3.334   0.719   3.252
 4905SOL    HW115614   3.269   0.664   3.304
 4905SOL    HW215615   3.408   0.661   3.217
 4906SOL     OW15616   5.055   1.329   6.290
 4906SOL    HW115617   5.000   1.314   6.372
 4906SOL    HW215618   5.152   1.319   6.313
 4907SOL     OW15619   4.399   6.696   2.167
 4907SOL    HW115620   4.319   6.636   2.158
 4907SOL    HW215621   4.415   6.715   2.264
 4908SOL     OW15622   5.559   6.499   6.629
 4908SOL    HW115623   5.614   6.491   6.546
 4908SOL    HW215624   5.578   6.421   6.689
 4909SOL     OW15625   0.571   5.873   3.802
 4909SOL    HW115626   0.576   5.954   3.744
 4909SOL    HW215627   0.602   5.793   3.750
 4910SOL     OW15628   5.139   1.326   4.229
 4910SOL    HW115629   5.154   1.252   4.163
 4910SOL    HW215630   5.134   1.413   4.180
 4911SOL     OW15631   1.601   4.321   2.950
 4911SOL    HW115632   1.682   4.367   2.988
 4911SOL    HW215633   1.537   4.301   3.024
 4912SOL     OW15634   5.943   0.857   6.461
 4912SOL    HW115635   5.856   0.895   6.430
 4912SOL    HW215636   5.984   0.919   6.529
 4913SOL     OW15637   3.855   3.254   4.998
 4913SOL    HW115638   3.873   3.162   5.035
 4913SOL    HW215639   3.841   3.317   5.074
 4914SOL     OW15640   4.198   6.856   4.990
 4914SOL    HW115641   4.233   6.898   4.907
 4914SOL    HW215642   4.176   6.928   5.057
 4915SOL     OW15643   3.053   5.730   6.145
 4915SOL    HW115644   3.136   5.716   6.092
 4915SOL    HW215645   2.983   5.771   6.087
 4916SOL     OW15646   0.880   0.667   4.156
 4916SOL    HW115647   0.896   0.765   4.144
 4916SOL    HW215648   0.918   0.617   4.078
 4917SOL     OW15649   2.349   5.409   1.318
 4917SOL    HW115650   2.445   5.428   1.295
 4917SOL    HW215651   2.340   5.315   1.349
 4918SOL     OW15652   5.407   6.578   1.995
 4918SOL    HW115653   5.414   6.518   1.916
 4918SOL    HW215654   5.436   6.670   1.970
 4919SOL     OW15655   3.319   2.993   0.371
 4919SOL    HW115656   3.357   3.009   0.280
 4919SOL    HW215657   3.370   2.920   0.416
 4920SOL     OW15658   5.298   0.355   4.700
 4920SOL    HW115659   5.246   0.310   4.627
 4920SOL    HW215660   5.328   0.287   4.767
 4921SOL     OW15661   0.780   5.770   0.075
 4921SOL    HW115662   0.709   5.791   0.007
 4921SOL    HW215663   0.748   5.797   0.166
 4922SOL     OW15664   2.718   2.035   4.836
 4922SOL    HW115665   2.693   1.999   4.747
 4922SOL    HW215666   2.731   1.959   4.900
 4923SOL     OW15667   3.539   1.134   2.286
 4923SOL    HW115668   3.518   1.077   2.206
 4923SOL    HW215669   3.535   1.230   2.260
 4924SOL     OW15670   3.408   1.336   4.963
 4924SOL    HW115671   3.379   1.374   4.875
 4924SOL    HW215672   3.451   1.408   5.018
 4925SOL     OW15673   6.083   0.040   2.548
 4925SOL    HW115674   6.035   0.041   2.635
 4925SOL    HW215675   6.046   6.987   2.491
 4926SOL     OW15676   5.133   1.568   1.171
 4926SOL    HW115677   5.180   1.616   1.246
 4926SOL    HW215678   5.159   1.609   1.084
 4927SOL     OW15679   3.269   3.668   4.714
 4927SOL    HW115680   3.297   3.733   4.785
 4927SOL    HW215681   3.271   3.575   4.750
 4928SOL     OW15682   1.386   0.619   0.062
 4928SOL    HW115683   1.477   0.619   0.021
 4928SOL    HW215684   1.387   0.675   0.145
 4929SOL     OW15685   6.254   6.722   4.584
 4929SOL    HW115686   6.246   6.766   4.673
 4929SOL    HW215687   6.190   6.645   4.578
 4930SOL     OW15688   5.843   0.767   2.996
 4930SOL    HW115689   5.915   0.808   2.939
 4930SOL    HW215690   5.858   0.793   3.092
 4931SOL     OW15691   6.744   6.600   1.300
 4931SOL    HW115692   6.767   6.635   1.210
 4931SOL    HW215693   6.699   6.510   1.291
 4932SOL     OW15694   3.906   3.261   2.231
 4932SOL    HW115695   3.964   3.189   2.270
 4932SOL    HW215696   3.852   3.223   2.156
 4933SOL     OW15697   2.258   6.930   2.175
 4933SOL    HW115698   2.256   6.946   2.077
 4933SOL    HW215699   2.350   6.948   2.210
 4934SOL     OW15700   3.275   5.306   3.239
 4934SOL    HW115701   3.275   5.405   3.253
 4934SOL    HW215702   3.244   5.285   3.147
 4935SOL     OW15703   1.398   2.194   6.215
 4935SOL    HW115704   1.404   2.098   6.189
 4935SOL    HW215705   1.467   2.214   6.285
 4936SOL     OW15706   3.156   5.326   1.474
 4936SOL    HW115707   3.231   5.386   1.446
 4936SOL    HW215708   3.180   5.279   1.558
 4937SOL     OW15709   5.880   2.988   5.997
 4937SOL    HW115710   5.966   3.005   6.044
 4937SOL    HW215711   5.825   3.071   5.996
 4938SOL     OW15712   1.868   5.349   5.742
 4938SOL    HW115713   1.860   5.279   5.814
 4938SOL    HW215714   1.778   5.389   5.726
 4939SOL     OW15715   5.924   2.139   4.911
 4939SOL    HW115716   6.001   2.106   4.857
 4939SOL    HW215717   5.874   2.061   4.949
 4940SOL     OW15718   0.892   1.192   4.648
 4940SOL    HW115719   0.899   1.291   4.653
 4940SOL    HW215720   0.796   1.164   4.660
 4941SOL     OW15721   4.638   1.804   5.906
 4941SOL    HW115722   4.670   1.897   5.887
 4941SOL    HW215723   4.570   1.779   5.837
 4942SOL     OW15724   5.174   2.774   5.870
 4942SOL    HW115725   5.266   2.735   5.882
 4942SOL    HW215726   5.109   2.726   5.928
 4943SOL     OW15727   4.310   3.580   0.076
 4943SOL    HW115728   4.226   3.540   0.039
 4943SOL    HW215729   4.287   3.657   0.136
 4944SOL     OW15730   2.173   4.516   2.260
 4944SOL    HW115731   2.253   4.490   2.207
 4944SOL    HW215732   2.095   4.460   2.234
 4945SOL     OW15733   0.950   1.576   3.677
 4945SOL    HW115734   0.874   1.514   3.660
 4945SOL    HW215735   0.978   1.619   3.592
 4946SOL     OW15736   0.282   3.011   1.254
 4946SOL    HW115737   0.205   3.024   1.316
 4946SOL    HW215738   0.366   2.995   1.306
 4947SOL     OW15739   1.751   0.914   1.194
 4947SOL    HW115740   1.808   0.839   1.228
 4947SOL    HW215741   1.787   1.001   1.227
 4948SOL     OW15742   1.903   0.972   2.737
 4948SOL    HW115743   1.884   0.922   2.822
 4948SOL    HW215744   2.000   0.965   2.715
 4949SOL     OW15745   4.150   6.893   5.992
 4949SOL    HW115746   4.134   6.814   6.052
 4949SOL    HW215747   4.067   6.950   5.989
 4950SOL     OW15748   2.969   5.647   4.268
 4950SOL    HW115749   3.013   5.735   4.285
 4950SOL    HW215750   2.874   5.662   4.240
 4951SOL     OW15751   5.274   1.591   4.484
 4951SOL    HW115752   5.259   1.510   4.541
 4951SOL    HW215753   5.191   1.611   4.432
 4952SOL     OW15754   0.175   0.491   5.109
 4952SOL    HW115755   0.213   0.433   5.037
 4952SOL    HW215756   0.166   0.439   5.194
 4953SOL     OW15757   2.039   6.816   2.322
 4953SOL    HW115758   2.040   6.722   2.288
 4953SOL    HW215759   2.113   6.868   2.279
 4954SOL     OW15760   4.430   3.710   6.888
 4954SOL    HW115761   4.467   3.790   6.936
 4954SOL    HW215762   4.410   3.638   6.954
 4955SOL     OW15763   2.075   6.507   6.626
 4955SOL    HW115764   2.101   6.576   6.693
 4955SOL    HW215765   1.976   6.492   6.629
 4956SOL     OW15766   2.630   0.304   4.761
 4956SOL    HW115767   2.539   0.329   4.795
 4956SOL    HW215768   2.699   0.336   4.825
 4957SOL     OW15769   0.147   1.445   3.066
 4957SOL    HW115770   0.116   1.531   3.025
 4957SOL    HW215771   0.151   1.455   3.165
 4958SOL     OW15772   6.985   5.851   5.372
 4958SOL    HW115773   6.900   5.903   5.368
 4958SOL    HW215774   6.981   5.785   5.447
 4959SOL     OW15775   6.850   1.319   6.622
 4959SOL    HW115776   6.762   1.354   6.654
 4959SOL    HW215777   6.916   1.323   6.697
 4960SOL     OW15778   3.361   5.861   3.887
 4960SOL    HW115779   3.422   5.783   3.875
 4960SOL    HW215780   3.334   5.897   3.798
 4961SOL     OW15781   5.027   1.691   5.641
 4961SOL    HW115782   5.023   1.683   5.741
 4961SOL    HW215783   5.121   1.677   5.610
 4962SOL     OW15784   6.196   2.488   0.655
 4962SOL    HW115785   6.176   2.430   0.734
 4962SOL    HW215786   6.256   2.439   0.592
 4963SOL     OW15787   6.417   6.046   0.086
 4963SOL    HW115788   6.355   5.970   0.107
 4963SOL    HW215789   6.442   6.093   0.170
 4964SOL     OW15790   3.824   6.796   3.466
 4964SOL    HW115791   3.857   6.810   3.559
 4964SOL    HW215792   3.889   6.838   3.402
 4965SOL     OW15793   6.946   0.346   3.689
 4965SOL    HW115794   6.889   0.389   3.618
 4965SOL    HW215795   6.940   0.247   3.680
 4966SOL     OW15796   1.565   0.420   5.159
 4966SOL    HW115797   1.535   0.468   5.242
 4966SOL    HW215798   1.664   0.430   5.149
 4967SOL     OW15799   4.063   3.206   5.642
 4967SOL    HW115800   4.012   3.250   5.568
 4967SOL    HW215801   4.021   3.228   5.730
 4968SOL     OW15802   5.769   3.080   3.350
 4968SOL    HW115803   5.743   3.113   3.259
 4968SOL    HW215804   5.863   3.106   3.369
 4969SOL     OW15805   2.177   1.076   2.071
 4969SOL    HW115806   2.169   1.175   2.064
 4969SOL    HW215807   2.141   1.045   2.158
 4970SOL     OW15808   1.801   2.290   4.468
 4970SOL    HW115809   1.821   2.192   4.463
 4970SOL    HW215810   1.768   2.313   4.560
 4971SOL     OW15811   6.081   6.084   3.679
 4971SOL    HW115812   6.040   5.996   3.653
 4971SOL    HW215813   6.140   6.115   3.605
 4972SOL     OW15814   1.318   2.941   0.672
 4972SOL    HW115815   1.301   2.968   0.767
 4972SOL    HW215816   1.417   2.929   0.658
 4973SOL     OW15817   6.853   0.009   1.890
 4973SOL    HW115818   6.821   6.986   1.974
 4973SOL    HW215819   6.830   0.106   1.891
 4974SOL     OW15820   6.037   4.350   0.687
 4974SOL    HW115821   5.962   4.406   0.653
 4974SOL    HW215822   6.013   4.314   0.778
 4975SOL     OW15823   5.491   5.526   6.434
 4975SOL    HW115824   5.422   5.597   6.449
 4975SOL    HW215825   5.482   5.456   6.505
 4976SOL     OW15826   3.090   0.293   4.685
 4976SOL    HW115827   3.058   0.202   4.661
 4976SOL    HW215828   3.024   0.337   4.746
 4977SOL     OW15829   4.915   4.139   0.650
 4977SOL    HW115830   4.846   4.067   0.643
 4977SOL    HW215831   4.933   4.159   0.746
 4978SOL     OW15832   6.811   3.541   5.698
 4978SOL    HW115833   6.720   3.579   5.678
 4978SOL    HW215834   6.831   3.467   5.633
 4979SOL     OW15835   0.113   1.193   5.067
 4979SOL    HW115836   0.148   1.124   5.131
 4979SOL    HW215837   0.018   1.213   5.089
 4980SOL     OW15838   4.478   0.369   3.201
 4980SOL    HW115839   4.381   0.389   3.215
 4980SOL    HW215840   4.530   0.455   3.202
 4981SOL     OW15841   4.394   5.704   5.997
 4981SOL    HW115842   4.438   5.784   6.039
 4981SOL    HW215843   4.391   5.716   5.898
 4982SOL     OW15844   1.784   2.108   6.865
 4982SOL    HW115845   1.772   2.191   6.809
 4982SOL    HW215846   1.718   2.039   6.836
 4983SOL     OW15847   5.202   2.848   4.383
 4983SOL    HW115848   5.178   2.766   4.434
 4983SOL    HW215849   5.175   2.838   4.288
 4984SOL     OW15850   5.600   3.820   4.243
 4984SOL    HW115851   5.504   3.796   4.257
 4984SOL    HW215852   5.621   3.903   4.294
 4985SOL     OW15853   6.408   6.066   3.323
 4985SOL    HW115854   6.332   6.120   3.359
 4985SOL    HW215855   6.425   6.092   3.228
 4986SOL     OW15856   6.904   4.116   3.101
 4986SOL    HW115857   6.956   4.046   3.052
 4986SOL    HW215858   6.827   4.073   3.148
 4987SOL     OW15859   0.792   2.538   1.675
 4987SOL    HW115860   0.852   2.537   1.756
 4987SOL    HW215861   0.814   2.462   1.615
 4988SOL     OW15862   6.509   1.922   3.472
 4988SOL    HW115863   6.527   1.861   3.395
 4988SOL    HW215864   6.538   2.014   3.448
 4989SOL     OW15865   5.041   0.926   0.912
 4989SOL    HW115866   5.097   0.987   0.856
 4989SOL    HW215867   5.008   0.975   0.993
 4990SOL     OW15868   1.484   1.719   6.091
 4990SOL    HW115869   1.403   1.661   6.098
 4990SOL    HW215870   1.566   1.661   6.093
 4991SOL     OW15871   0.895   3.704   4.108
 4991SOL    HW115872   0.854   3.706   4.199
 4991SOL    HW215873   0.855   3.777   4.052
 4992SOL     OW15874   5.203   1.115   4.028
 4992SOL    HW115875   5.202   1.084   4.123
 4992SOL    HW215876   5.244   1.045   3.970
 4993SOL     OW15877   3.480   5.647   4.021
 4993SOL    HW115878   3.434   5.559   4.028
 4993SOL    HW215879   3.552   5.641   3.951
 4994SOL     OW15880   1.370   0.411   2.097
 4994SOL    HW115881   1.317   0.456   2.169
 4994SOL    HW215882   1.421   0.479   2.045
 4995SOL     OW15883   6.534   2.822   5.956
 4995SOL    HW115884   6.536   2.817   5.857
 4995SOL    HW215885   6.442   2.801   5.989
 4996SOL     OW15886   1.369   1.174   2.628
 4996SOL    HW115887   1.455   1.225   2.636
 4996SOL    HW215888   1.296   1.225   2.673
 4997SOL     OW15889   6.025   2.269   2.572
 4997SOL    HW115890   5.972   2.224   2.644
 4997SOL    HW215891   6.098   2.208   2.541
 4998SOL     OW15892   2.124   3.819   4.892
 4998SOL    HW115893   2.210   3.857   4.924
 4998SOL    HW215894   2.056   3.824   4.965
 4999SOL     OW15895   5.522   5.537   0.973
 4999SOL    HW115896   5.434   5.526   0.926
 4999SOL    HW215897   5.564   5.622   0.944
 5000SOL     OW15898   1.331   0.182   4.179
 5000SOL    HW115899   1.372   0.204   4.267
 5000SOL    HW215900   1.316   0.266   4.126
 5001SOL     OW15901   1.463   3.965   6.277
 5001SOL    HW115902   1.532   4.029   6.242
 5001SOL    HW215903   1.372   3.999   6.255
 5002SOL     OW15904   1.188   3.310   3.107
 5002SOL    HW115905   1.146   3.400   3.100
 5002SOL    HW215906   1.288   3.319   3.105
 5003SOL     OW15907   1.754   6.305   3.386
 5003SOL    HW115908   1.766   6.365   3.464
 5003SOL    HW215909   1.841   6.295   3.337
 5004SOL     OW15910   2.788   5.075   5.467
 5004SOL    HW115911   2.726   5.038   5.398
 5004SOL    HW215912   2.879   5.088   5.426
 5005SOL     OW15913   3.287   2.657   0.714
 5005SOL    HW115914   3.299   2.750   0.747
 5005SOL    HW215915   3.365   2.633   0.655
 5006SOL     OW15916   5.304   6.612   6.675
 5006SOL    HW115917   5.403   6.600   6.676
 5006SOL    HW215918   5.270   6.596   6.582
 5007SOL     OW15919   2.224   0.335   6.722
 5007SOL    HW115920   2.281   0.277   6.780
 5007SOL    HW215921   2.152   0.280   6.680
 5008SOL     OW15922   6.545   0.570   3.782
 5008SOL    HW115923   6.542   0.471   3.792
 5008SOL    HW215924   6.497   0.613   3.858
 5009SOL     OW15925   2.020   6.674   1.779
 5009SOL    HW115926   2.119   6.658   1.776
 5009SOL    HW215927   1.973   6.601   1.729
 5010SOL     OW15928   3.190   2.949   3.731
 5010SOL    HW115929   3.131   2.971   3.653
 5010SOL    HW215930   3.134   2.936   3.813
 5011SOL     OW15931   2.171   3.739   2.166
 5011SOL    HW115932   2.100   3.737   2.237
 5011SOL    HW215933   2.170   3.653   2.115
 5012SOL     OW15934   4.869   3.501   6.122
 5012SOL    HW115935   4.887   3.527   6.028
 5012SOL    HW215936   4.832   3.408   6.124
 5013SOL     OW15937   5.415   1.625   0.118
 5013SOL    HW115938   5.319   1.638   0.139
 5013SOL    HW215939   5.430   1.638   0.019
 5014SOL     OW15940   5.672   4.750   0.286
 5014SOL    HW115941   5.652   4.737   0.383
 5014SOL    HW215942   5.753   4.696   0.261
 5015SOL     OW15943   4.744   2.105   3.924
 5015SOL    HW115944   4.701   2.195   3.923
 5015SOL    HW215945   4.804   2.095   3.844
 5016SOL     OW15946   2.585   1.748   1.798
 5016SOL    HW115947   2.606   1.834   1.843
 5016SOL    HW215948   2.526   1.765   1.719
 5017SOL     OW15949   2.177   2.021   0.117
 5017SOL    HW115950   2.244   2.005   0.189
 5017SOL    HW215951   2.219   2.004   0.028
 5018SOL     OW15952   0.963   4.782   1.269
 5018SOL    HW115953   1.028   4.854   1.246
 5018SOL    HW215954   0.951   4.779   1.369
 5019SOL     OW15955   2.333   4.203   0.190
 5019SOL    HW115956   2.240   4.185   0.157
 5019SOL    HW215957   2.337   4.185   0.289
 5020SOL     OW15958   4.548   6.049   5.664
 5020SOL    HW115959   4.519   6.138   5.631
 5020SOL    HW215960   4.468   5.994   5.687
 5021SOL     OW15961   1.540   2.756   5.482
 5021SOL    HW115962   1.494   2.677   5.441
 5021SOL    HW215963   1.490   2.839   5.458
 5022SOL     OW15964   2.153   0.493   0.897
 5022SOL    HW115965   2.148   0.431   0.818
 5022SOL    HW215966   2.199   0.446   0.973
 5023SOL     OW15967   6.493   3.302   1.519
 5023SOL    HW115968   6.581   3.343   1.541
 5023SOL    HW215969   6.505   3.239   1.441
 5024SOL     OW15970   6.808   4.105   2.710
 5024SOL    HW115971   6.892   4.076   2.663
 5024SOL    HW215972   6.798   4.053   2.795
 5025SOL     OW15973   4.120   1.693   1.783
 5025SOL    HW115974   4.021   1.682   1.794
 5025SOL    HW215975   4.141   1.789   1.764
 5026SOL     OW15976   5.730   5.869   6.547
 5026SOL    HW115977   5.635   5.879   6.576
 5026SOL    HW215978   5.738   5.790   6.486
 5027SOL     OW15979   0.481   0.059   1.894
 5027SOL    HW115980   0.481   0.071   1.993
 5027SOL    HW215981   0.390   0.033   1.863
 5028SOL     OW15982   0.182   6.917   2.570
 5028SOL    HW115983   0.267   6.923   2.622
 5028SOL    HW215984   0.139   7.007   2.565
 5029SOL     OW15985   6.388   3.082   3.566
 5029SOL    HW115986   6.471   3.032   3.591
 5029SOL    HW215987   6.334   3.100   3.649
 5030SOL     OW15988   6.436   0.466   6.967
 5030SOL    HW115989   6.504   0.410   7.015
 5030SOL    HW215990   6.467   0.561   6.966
 5031SOL     OW15991   5.536   1.371   4.913
 5031SOL    HW115992   5.472   1.431   4.865
 5031SOL    HW215993   5.511   1.365   5.009
 5032SOL     OW15994   1.019   4.059   1.252
 5032SOL    HW115995   1.088   4.043   1.182
 5032SOL    HW215996   1.013   3.980   1.312
 5033SOL     OW15997   1.691   4.780   6.561
 5033SOL    HW115998   1.646   4.730   6.486
 5033SOL    HW215999   1.625   4.801   6.632
 5034SOL     OW16000   6.805   3.015   2.587
 5034SOL    HW116001   6.751   3.001   2.670
 5034SOL    HW216002   6.837   2.927   2.552
 5035SOL     OW16003   5.847   4.492   0.546
 5035SOL    HW116004   5.809   4.566   0.602
 5035SOL    HW216005   5.881   4.529   0.460
 5036SOL     OW16006   0.471   5.196   6.750
 5036SOL    HW116007   0.418   5.220   6.830
 5036SOL    HW216008   0.551   5.141   6.777
 5037SOL     OW16009   4.623   2.700   2.374
 5037SOL    HW116010   4.610   2.798   2.391
 5037SOL    HW216011   4.679   2.687   2.292
 5038SOL     OW16012   1.747   5.061   5.756
 5038SOL    HW116013   1.678   5.103   5.697
 5038SOL    HW216014   1.832   5.049   5.704
 5039SOL     OW16015   2.095   3.765   5.222
 5039SOL    HW116016   2.162   3.815   5.277
 5039SOL    HW216017   2.120   3.668   5.219
 5040SOL     OW16018   2.297   4.106   6.395
 5040SOL    HW116019   2.301   4.037   6.468
 5040SOL    HW216020   2.229   4.078   6.326
 5041SOL     OW16021   0.923   3.708   1.162
 5041SOL    HW116022   0.990   3.635   1.178
 5041SOL    HW216023   0.966   3.781   1.108
 5042SOL     OW16024   0.108   3.009   6.757
 5042SOL    HW116025   0.093   2.912   6.778
 5042SOL    HW216026   0.027   3.046   6.711
 5043SOL     OW16027   3.241   1.041   5.532
 5043SOL    HW116028   3.224   1.099   5.612
 5043SOL    HW216029   3.211   1.089   5.449
 5044SOL     OW16030   5.949   6.883   3.189
 5044SOL    HW116031   5.931   6.811   3.256
 5044SOL    HW216032   5.949   6.843   3.097
 5045SOL     OW16033   5.483   3.178   0.244
 5045SOL    HW116034   5.433   3.093   0.259
 5045SOL    HW216035   5.579   3.158   0.226
 5046SOL     OW16036   4.143   3.474   4.775
 5046SOL    HW116037   4.236   3.509   4.767
 5046SOL    HW216038   4.132   3.426   4.862
 5047SOL     OW16039   6.664   2.264   2.549
 5047SOL    HW116040   6.598   2.286   2.478
 5047SOL    HW216041   6.677   2.164   2.553
 5048SOL     OW16042   6.686   2.377   1.415
 5048SOL    HW116043   6.764   2.414   1.365
 5048SOL    HW216044   6.664   2.437   1.493
 5049SOL     OW16045   0.055   0.928   3.633
 5049SOL    HW116046   0.109   1.010   3.652
 5049SOL    HW216047   6.991   0.931   3.686
 5050SOL     OW16048   0.398   1.383   2.194
 5050SOL    HW116049   0.404   1.420   2.287
 5050SOL    HW216050   0.460   1.305   2.185
 5051SOL     OW16051   4.069   3.536   0.631
 5051SOL    HW116052   4.127   3.455   0.627
 5051SOL    HW216053   4.094   3.591   0.710
 5052SOL     OW16054   2.611   5.240   6.271
 5052SOL    HW116055   2.593   5.142   6.265
 5052SOL    HW216056   2.674   5.267   6.198
 5053SOL     OW16057   1.839   4.187   3.200
 5053SOL    HW116058   1.939   4.191   3.192
 5053SOL    HW216059   1.809   4.242   3.278
 5054SOL     OW16060   3.867   5.610   4.983
 5054SOL    HW116061   3.791   5.583   4.923
 5054SOL    HW216062   3.895   5.532   5.038
 5055SOL     OW16063   0.020   1.371   4.696
 5055SOL    HW116064   6.961   1.311   4.698
 5055SOL    HW216065   0.079   1.352   4.774
 5056SOL     OW16066   6.328   4.118   6.496
 5056SOL    HW116067   6.385   4.143   6.574
 5056SOL    HW216068   6.233   4.105   6.527
 5057SOL     OW16069   1.159   5.468   3.728
 5057SOL    HW116070   1.218   5.409   3.783
 5057SOL    HW216071   1.212   5.548   3.699
 5058SOL     OW16072   2.630   3.678   6.562
 5058SOL    HW116073   2.687   3.684   6.480
 5058SOL    HW216074   2.687   3.693   6.643
 5059SOL     OW16075   5.134   3.224   4.644
 5059SOL    HW116076   5.077   3.218   4.727
 5059SOL    HW216077   5.205   3.292   4.659
 5060SOL     OW16078   0.182   2.436   5.149
 5060SOL    HW116079   0.225   2.487   5.075
 5060SOL    HW216080   0.127   2.498   5.205
 5061SOL     OW16081   2.981   3.362   3.629
 5061SOL    HW116082   2.902   3.303   3.611
 5061SOL    HW216083   2.956   3.457   3.612
 5062SOL     OW16084   5.690   1.040   2.357
 5062SOL    HW116085   5.683   1.133   2.394
 5062SOL    HW216086   5.705   1.045   2.259
 5063SOL     OW16087   0.968   5.942   1.768
 5063SOL    HW116088   0.895   5.993   1.723
 5063SOL    HW216089   1.012   6.000   1.837
 5064SOL     OW16090   4.799   5.257   1.235
 5064SOL    HW116091   4.858   5.311   1.295
 5064SOL    HW216092   4.713   5.237   1.283
 5065SOL     OW16093   1.562   0.991   2.776
 5065SOL    HW116094   1.505   1.056   2.726
 5065SOL    HW216095   1.658   1.018   2.766
 5066SOL     OW16096   2.718   4.366   1.639
 5066SOL    HW116097   2.755   4.300   1.574
 5066SOL    HW216098   2.789   4.393   1.704
 5067SOL     OW16099   4.805   1.372   2.778
 5067SOL    HW116100   4.737   1.299   2.781
 5067SOL    HW216101   4.889   1.340   2.820
 5068SOL     OW16102   3.046   5.157   0.014
 5068SOL    HW116103   3.105   5.238   0.022
 5068SOL    HW216104   3.082   5.084   0.071
 5069SOL     OW16105   2.304   3.210   6.217
 5069SOL    HW116106   2.378   3.276   6.200
 5069SOL    HW216107   2.293   3.199   6.316
 5070SOL     OW16108   5.782   3.914   4.564
 5070SOL    HW116109   5.684   3.895   4.568
 5070SOL    HW216110   5.828   3.865   4.638
 5071SOL     OW16111   4.086   2.242   3.305
 5071SOL    HW116112   4.146   2.321   3.307
 5071SOL    HW216113   4.042   2.231   3.395
 5072SOL     OW16114   1.649   1.492   1.471
 5072SOL    HW116115   1.718   1.448   1.413
 5072SOL    HW216116   1.568   1.433   1.477
 5073SOL     OW16117   1.529   5.259   1.488
 5073SOL    HW116118   1.539   5.342   1.543
 5073SOL    HW216119   1.550   5.280   1.392
 5074SOL     OW16120   4.256   2.264   1.425
 5074SOL    HW116121   4.343   2.234   1.463
 5074SOL    HW216122   4.230   2.205   1.350
 5075SOL     OW16123   1.004   2.219   6.824
 5075SOL    HW116124   1.023   2.299   6.880
 5075SOL    HW216125   1.048   2.138   6.865
 5076SOL     OW16126   5.610   6.832   6.949
 5076SOL    HW116127   5.517   6.850   6.915
 5076SOL    HW216128   5.660   6.919   6.956
 5077SOL     OW16129   0.081   4.048   6.220
 5077SOL    HW116130   0.128   4.103   6.152
 5077SOL    HW216131   0.063   3.957   6.183
 5078SOL     OW16132   0.383   0.818   4.274
 5078SOL    HW116133   0.406   0.741   4.214
 5078SOL    HW216134   0.406   0.904   4.228
 5079SOL     OW16135   2.400   2.636   5.770
 5079SOL    HW116136   2.399   2.544   5.731
 5079SOL    HW216137   2.306   2.664   5.791
 5080SOL     OW16138   5.616   5.662   5.240
 5080SOL    HW116139   5.561   5.740   5.212
 5080SOL    HW216140   5.694   5.693   5.294
 5081SOL     OW16141   2.952   4.600   5.691
 5081SOL    HW116142   2.949   4.700   5.690
 5081SOL    HW216143   2.896   4.564   5.616
 5082SOL     OW16144   5.269   6.449   0.353
 5082SOL    HW116145   5.288   6.536   0.307
 5082SOL    HW216146   5.327   6.441   0.434
 5083SOL     OW16147   3.547   0.442   1.727
 5083SOL    HW116148   3.570   0.354   1.770
 5083SOL    HW216149   3.514   0.426   1.634
 5084SOL     OW16150   0.593   5.068   4.268
 5084SOL    HW116151   0.545   4.981   4.281
 5084SOL    HW216152   0.677   5.053   4.215
 5085SOL     OW16153   0.860   3.286   5.563
 5085SOL    HW116154   0.834   3.379   5.590
 5085SOL    HW216155   0.943   3.259   5.612
 5086SOL     OW16156   1.047   3.993   2.261
 5086SOL    HW116157   1.069   4.041   2.346
 5086SOL    HW216158   1.019   4.059   2.191
 5087SOL     OW16159   6.644   5.546   2.178
 5087SOL    HW116160   6.699   5.480   2.228
 5087SOL    HW216161   6.606   5.503   2.096
 5088SOL     OW16162   4.821   6.951   3.439
 5088SOL    HW116163   4.745   6.986   3.385
 5088SOL    HW216164   4.846   7.018   3.509
 5089SOL     OW16165   6.104   4.565   4.500
 5089SOL    HW116166   6.128   4.659   4.526
 5089SOL    HW216167   6.188   4.512   4.487
 5090SOL     OW16168   2.226   1.498   2.588
 5090SOL    HW116169   2.310   1.532   2.632
 5090SOL    HW216170   2.247   1.472   2.493
 5091SOL     OW16171   6.442   0.519   1.369
 5091SOL    HW116172   6.519   0.456   1.376
 5091SOL    HW216173   6.357   0.470   1.385
 5092SOL     OW16174   3.413   2.953   3.568
 5092SOL    HW116175   3.462   3.026   3.617
 5092SOL    HW216176   3.324   2.938   3.611
 5093SOL     OW16177   3.588   1.541   0.585
 5093SOL    HW116178   3.513   1.485   0.549
 5093SOL    HW216179   3.576   1.636   0.556
 5094SOL     OW16180   1.851   5.884   6.458
 5094SOL    HW116181   1.829   5.820   6.531
 5094SOL    HW216182   1.770   5.899   6.401
 5095SOL     OW16183   0.429   2.355   3.359
 5095SOL    HW116184   0.431   2.378   3.262
 5095SOL    HW216185   0.381   2.427   3.409
 5096SOL     OW16186   4.640   4.992   6.311
 5096SOL    HW116187   4.636   5.024   6.406
 5096SOL    HW216188   4.653   4.892   6.310
 5097SOL     OW16189   0.022   6.745   0.060
 5097SOL    HW116190   7.012   6.839   0.074
 5097SOL    HW216191   0.120   6.745   0.043
 5098SOL     OW16192   3.565   1.670   1.389
 5098SOL    HW116193   3.663   1.649   1.394
 5098SOL    HW216194   3.523   1.653   1.479
 5099SOL     OW16195   0.155   6.514   2.062
 5099SOL    HW116196   0.145   6.452   2.140
 5099SOL    HW216197   0.244   6.499   2.019
 5100SOL     OW16198   3.543   5.308   4.486
 5100SOL    HW116199   3.538   5.280   4.390
 5100SOL    HW216200   3.489   5.244   4.542
 5101SOL     OW16201   4.402   0.104   5.753
 5101SOL    HW116202   4.350   0.023   5.780
 5101SOL    HW216203   4.489   0.106   5.804
 5102SOL     OW16204   5.374   6.822   4.139
 5102SOL    HW116205   5.284   6.866   4.133
 5102SOL    HW216206   5.442   6.889   4.168
 5103SOL     OW16207   1.356   1.710   4.365
 5103SOL    HW116208   1.313   1.620   4.371
 5103SOL    HW216209   1.315   1.762   4.290
 5104SOL     OW16210   2.582   6.432   1.930
 5104SOL    HW116211   2.630   6.518   1.948
 5104SOL    HW216212   2.512   6.447   1.860
 5105SOL     OW16213   3.206   2.782   6.688
 5105SOL    HW116214   3.143   2.860   6.684
 5105SOL    HW216215   3.273   2.790   6.614
 5106SOL     OW16216   4.117   1.383   1.348
 5106SOL    HW116217   4.205   1.343   1.372
 5106SOL    HW216218   4.129   1.449   1.274
 5107SOL     OW16219   4.864   2.484   1.604
 5107SOL    HW116220   4.907   2.530   1.526
 5107SOL    HW216221   4.787   2.429   1.572
 5108SOL     OW16222   4.222   3.656   5.096
 5108SOL    HW116223   4.200   3.658   4.999
 5108SOL    HW216224   4.166   3.723   5.145
 5109SOL     OW16225   1.181   2.185   0.352
 5109SOL    HW116226   1.091   2.202   0.312
 5109SOL    HW216227   1.171   2.134   0.437
 5110SOL     OW16228   0.757   0.895   6.400
 5110SOL    HW116229   0.704   0.815   6.372
 5110SOL    HW216230   0.737   0.972   6.338
 5111SOL     OW16231   1.394   6.993   4.029
 5111SOL    HW116232   1.352   0.056   4.063
 5111SOL    HW216233   1.485   7.013   3.992
 5112SOL     OW16234   0.845   0.318   2.467
 5112SOL    HW116235   0.769   0.378   2.442
 5112SOL    HW216236   0.872   0.262   2.389
 5113SOL     OW16237   1.457   5.786   1.429
 5113SOL    HW116238   1.392   5.711   1.443
 5113SOL    HW216239   1.431   5.863   1.487
 5114SOL     OW16240   3.694   6.555   6.978
 5114SOL    HW116241   3.756   6.519   6.907
 5114SOL    HW216242   3.710   6.507   0.043
 5115SOL     OW16243   1.468   4.800   2.723
 5115SOL    HW116244   1.498   4.767   2.812
 5115SOL    HW216245   1.545   4.837   2.672
 5116SOL     OW16246   1.203   6.511   1.137
 5116SOL    HW116247   1.198   6.608   1.116
 5116SOL    HW216248   1.167   6.458   1.061
 5117SOL     OW16249   0.577   3.753   3.981
 5117SOL    HW116250   0.501   3.728   3.921
 5117SOL    HW216251   0.662   3.752   3.929
 5118SOL     OW16252   5.382   0.969   0.115
 5118SOL    HW116253   5.352   0.965   0.019
 5118SOL    HW216254   5.462   0.911   0.127
 5119SOL     OW16255   4.665   0.823   2.475
 5119SOL    HW116256   4.679   0.914   2.437
 5119SOL    HW216257   4.753   0.785   2.504
 5120SOL     OW16258   4.394   6.693   5.076
 5120SOL    HW116259   4.444   6.750   5.142
 5120SOL    HW216260   4.335   6.751   5.020
 5121SOL     OW16261   3.556   2.856   6.721
 5121SOL    HW116262   3.643   2.862   6.771
 5121SOL    HW216263   3.538   2.944   6.677
 5122SOL     OW16264   3.235   6.171   2.916
 5122SOL    HW116265   3.324   6.140   2.883
 5122SOL    HW216266   3.247   6.226   2.998
 5123SOL     OW16267   5.729   1.863   4.207
 5123SOL    HW116268   5.744   1.794   4.277
 5123SOL    HW216269   5.671   1.936   4.243
 5124SOL     OW16270   2.183   6.082   4.323
 5124SOL    HW116271   2.098   6.121   4.357
 5124SOL    HW216272   2.253   6.153   4.318
 5125SOL     OW16273   6.446   2.534   3.255
 5125SOL    HW116274   6.492   2.466   3.199
 5125SOL    HW216275   6.432   2.617   3.201
 5126SOL     OW16276   0.099   5.866   0.047
 5126SOL    HW116277   0.057   5.869   0.138
 5126SOL    HW216278   0.062   5.789   7.016
 5127SOL     OW16279   6.908   3.971   6.839
 5127SOL    HW116280   6.948   3.902   6.779
 5127SOL    HW216281   6.892   4.055   6.786
 5128SOL     OW16282   0.517   6.738   0.370
 5128SOL    HW116283   0.595   6.793   0.400
 5128SOL    HW216284   0.540   6.641   0.379
 5129SOL     OW16285   5.946   6.800   2.928
 5129SOL    HW116286   5.885   6.726   2.899
 5129SOL    HW216287   6.039   6.764   2.937
 5130SOL     OW16288   0.108   5.652   2.819
 5130SOL    HW116289   0.082   5.587   2.891
 5130SOL    HW216290   0.132   5.740   2.861
 5131SOL     OW16291   1.921   3.792   4.360
 5131SOL    HW116292   1.947   3.865   4.297
 5131SOL    HW216293   1.833   3.754   4.333
 5132SOL     OW16294   4.159   2.459   6.137
 5132SOL    HW116295   4.172   2.557   6.122
 5132SOL    HW216296   4.113   2.444   6.225
 5133SOL     OW16297   1.747   4.960   0.174
 5133SOL    HW116298   1.786   4.979   0.264
 5133SOL    HW216299   1.647   4.965   0.179
 5134SOL     OW16300   6.758   2.834   2.125
 5134SOL    HW116301   6.684   2.809   2.187
 5134SOL    HW216302   6.803   2.917   2.157
 5135SOL     OW16303   6.332   2.493   5.126
 5135SOL    HW116304   6.347   2.474   5.029
 5135SOL    HW216305   6.324   2.406   5.175
 5136SOL     OW16306   4.644   0.465   6.571
 5136SOL    HW116307   4.662   0.388   6.633
 5136SOL    HW216308   4.562   0.446   6.518
 5137SOL     OW16309   5.773   3.374   6.280
 5137SOL    HW116310   5.686   3.402   6.240
 5137SOL    HW216311   5.768   3.278   6.308
 5138SOL     OW16312   2.691   2.402   6.042
 5138SOL    HW116313   2.722   2.409   5.947
 5138SOL    HW216314   2.748   2.336   6.091
 5139SOL     OW16315   1.552   6.896   3.059
 5139SOL    HW116316   1.603   6.817   3.025
 5139SOL    HW216317   1.458   6.893   3.024
 5140SOL     OW16318   3.477   1.675   0.098
 5140SOL    HW116319   3.486   1.580   0.129
 5140SOL    HW216320   3.381   1.701   0.097
 5141SOL     OW16321   6.477   3.942   0.862
 5141SOL    HW116322   6.504   3.964   0.768
 5141SOL    HW216323   6.490   3.844   0.879
 5142SOL     OW16324   6.162   1.115   3.967
 5142SOL    HW116325   6.096   1.190   3.973
 5142SOL    HW216326   6.255   1.152   3.971
 5143SOL     OW16327   0.107   4.392   3.760
 5143SOL    HW116328   0.162   4.388   3.677
 5143SOL    HW216329   0.021   4.344   3.745
 5144SOL     OW16330   1.153   4.562   6.254
 5144SOL    HW116331   1.194   4.487   6.202
 5144SOL    HW216332   1.184   4.557   6.349
 5145SOL     OW16333   2.179   4.456   5.699
 5145SOL    HW116334   2.256   4.454   5.636
 5145SOL    HW216335   2.193   4.386   5.770
 5146SOL     OW16336   3.905   4.148   5.401
 5146SOL    HW116337   3.859   4.183   5.320
 5146SOL    HW216338   3.886   4.050   5.411
 5147SOL     OW16339   0.090   4.500   2.478
 5147SOL    HW116340   0.059   4.579   2.424
 5147SOL    HW216341   0.077   4.417   2.424
 5148SOL     OW16342   1.121   6.505   1.453
 5148SOL    HW116343   1.199   6.531   1.510
 5148SOL    HW216344   1.037   6.542   1.493
 5149SOL     OW16345   6.325   5.905   4.407
 5149SOL    HW116346   6.340   5.811   4.377
 5149SOL    HW216347   6.251   5.946   4.353
 5150SOL     OW16348   2.408   4.871   2.696
 5150SOL    HW116349   2.481   4.937   2.713
 5150SOL    HW216350   2.404   4.805   2.771
 5151SOL     OW16351   4.611   1.683   0.439
 5151SOL    HW116352   4.642   1.748   0.509
 5151SOL    HW216353   4.607   1.730   0.351
 5152SOL     OW16354   2.097   4.154   0.071
 5152SOL    HW116355   2.144   4.234   0.033
 5152SOL    HW216356   2.000   4.174   0.082
 5153SOL     OW16357   2.665   0.575   6.766
 5153SOL    HW116358   2.605   0.609   6.838
 5153SOL    HW216359   2.622   0.499   6.718
 5154SOL     OW16360   1.760   2.907   6.589
 5154SOL    HW116361   1.857   2.907   6.563
 5154SOL    HW216362   1.704   2.884   6.509
 5155SOL     OW16363   3.630   0.144   2.809
 5155SOL    HW116364   3.585   0.161   2.721
 5155SOL    HW216365   3.611   0.050   2.838
 5156SOL     OW16366   7.019   3.110   5.775
 5156SOL    HW116367   0.046   3.161   5.704
 5156SOL    HW216368   7.008   3.169   5.856
 5157SOL     OW16369   4.241   2.259   3.665
 5157SOL    HW116370   4.145   2.259   3.635
 5157SOL    HW216371   4.272   2.164   3.672
 5158SOL     OW16372   3.713   1.280   1.261
 5158SOL    HW116373   3.733   1.193   1.215
 5158SOL    HW216374   3.756   1.280   1.351
 5159SOL     OW16375   0.373   2.992   4.054
 5159SOL    HW116376   0.361   2.965   3.959
 5159SOL    HW216377   0.471   2.996   4.076
 5160SOL     OW16378   0.602   4.537   3.497
 5160SOL    HW116379   0.611   4.541   3.596
 5160SOL    HW216380   0.561   4.621   3.463
 5161SOL     OW16381   1.515   3.523   4.622
 5161SOL    HW116382   1.592   3.578   4.591
 5161SOL    HW216383   1.545   3.429   4.637
 5162SOL     OW16384   1.210   4.764   4.197
 5162SOL    HW116385   1.299   4.807   4.180
 5162SOL    HW216386   1.212   4.670   4.163
 5163SOL     OW16387   4.217   5.505   1.008
 5163SOL    HW116388   4.122   5.533   0.992
 5163SOL    HW216389   4.223   5.460   1.097
 5164SOL     OW16390   4.627   2.446   6.441
 5164SOL    HW116391   4.607   2.542   6.456
 5164SOL    HW216392   4.560   2.406   6.378
 5165SOL     OW16393   6.006   3.871   5.345
 5165SOL    HW116394   5.961   3.803   5.403
 5165SOL    HW216395   5.954   3.956   5.347
 5166SOL     OW16396   0.478   5.807   2.272
 5166SOL    HW116397   0.551   5.766   2.326
 5166SOL    HW216398   0.390   5.786   2.314
 5167SOL     OW16399   6.407   6.090   5.522
 5167SOL    HW116400   6.317   6.115   5.488
 5167SOL    HW216401   6.404   6.085   5.622
 5168SOL     OW16402   5.303   3.481   3.587
 5168SOL    HW116403   5.252   3.407   3.542
 5168SOL    HW216404   5.401   3.468   3.571
 5169SOL     OW16405   4.314   1.707   5.052
 5169SOL    HW116406   4.386   1.770   5.080
 5169SOL    HW216407   4.237   1.714   5.114
 5170SOL     OW16408   0.404   4.026   5.431
 5170SOL    HW116409   0.434   4.008   5.524
 5170SOL    HW216410   0.324   4.087   5.433
 5171SOL     OW16411   1.838   5.422   3.881
 5171SOL    HW116412   1.863   5.514   3.911
 5171SOL    HW216413   1.842   5.359   3.959
 5172SOL     OW16414   6.587   2.751   2.388
 5172SOL    HW116415   6.678   2.782   2.414
 5172SOL    HW216416   6.594   2.667   2.334
 5173SOL     OW16417   5.578   4.615   5.983
 5173SOL    HW116418   5.558   4.593   6.079
 5173SOL    HW216419   5.569   4.713   5.969
 5174SOL     OW16420   2.515   4.844   4.042
 5174SOL    HW116421   2.461   4.804   4.116
 5174SOL    HW216422   2.457   4.857   3.962
 5175SOL     OW16423   2.226   3.918   0.071
 5175SOL    HW116424   2.193   3.920   0.165
 5175SOL    HW216425   2.203   4.004   0.025
 5176SOL     OW16426   4.618   3.158   6.626
 5176SOL    HW116427   4.567   3.223   6.682
 5176SOL    HW216428   4.705   3.199   6.598
 5177SOL     OW16429   5.367   7.015   6.345
 5177SOL    HW116430   5.341   6.921   6.325
 5177SOL    HW216431   5.383   0.004   6.444
 5178SOL     OW16432   1.497   2.944   1.422
 5178SOL    HW116433   1.555   2.950   1.341
 5178SOL    HW216434   1.528   3.010   1.490
 5179SOL     OW16435   3.903   5.837   4.554
 5179SOL    HW116436   3.857   5.789   4.479
 5179SOL    HW216437   3.919   5.932   4.527
 5180SOL     OW16438   2.707   2.646   6.779
 5180SOL    HW116439   2.724   2.730   6.726
 5180SOL    HW216440   2.609   2.634   6.791
 5181SOL     OW16441   4.628   1.945   2.074
 5181SOL    HW116442   4.714   1.895   2.064
 5181SOL    HW216443   4.629   2.025   2.014
 5182SOL     OW16444   4.021   5.044   1.711
 5182SOL    HW116445   3.966   4.961   1.720
 5182SOL    HW216446   4.116   5.019   1.692
 5183SOL     OW16447   3.723   0.972   2.610
 5183SOL    HW116448   3.684   0.890   2.569
 5183SOL    HW216449   3.810   0.949   2.655
 5184SOL     OW16450   0.424   2.249   4.089
 5184SOL    HW116451   0.455   2.328   4.141
 5184SOL    HW216452   0.344   2.274   4.034
 5185SOL     OW16453   5.295   0.308   2.513
 5185SOL    HW116454   5.327   0.402   2.496
 5185SOL    HW216455   5.373   0.251   2.537
 5186SOL     OW16456   5.727   3.593   1.026
 5186SOL    HW116457   5.789   3.523   1.059
 5186SOL    HW216458   5.633   3.568   1.049
 5187SOL     OW16459   6.829   0.608   3.852
 5187SOL    HW116460   6.741   0.607   3.806
 5187SOL    HW216461   6.850   0.701   3.883
 5188SOL     OW16462   0.881   5.648   0.335
 5188SOL    HW116463   0.909   5.742   0.353
 5188SOL    HW216464   0.783   5.638   0.351
 5189SOL     OW16465   5.029   5.048   1.034
 5189SOL    HW116466   4.981   5.128   0.999
 5189SOL    HW216467   5.121   5.074   1.062
 5190SOL     OW16468   0.258   2.808   4.282
 5190SOL    HW116469   0.318   2.835   4.357
 5190SOL    HW216470   0.273   2.870   4.204
 5191SOL     OW16471   4.360   0.517   2.203
 5191SOL    HW116472   4.334   0.537   2.108
 5191SOL    HW216473   4.396   0.600   2.246
 5192SOL     OW16474   2.830   5.734   3.256
 5192SOL    HW116475   2.778   5.811   3.294
 5192SOL    HW216476   2.916   5.724   3.305
 5193SOL     OW16477   5.030   5.313   3.841
 5193SOL    HW116478   5.024   5.346   3.746
 5193SOL    HW216479   5.099   5.242   3.847
 5194SOL     OW16480   4.237   0.590   6.971
 5194SOL    HW116481   4.292   0.585   6.888
 5194SOL    HW216482   4.296   0.594   0.030
 5195SOL     OW16483   0.149   5.689   4.199
 5195SOL    HW116484   0.214   5.643   4.138
 5195SOL    HW216485   0.186   5.778   4.225
 5196SOL     OW16486   1.479   3.660   1.001
 5196SOL    HW116487   1.535   3.587   1.041
 5196SOL    HW216488   1.501   3.668   0.904
 5197SOL     OW16489   1.633   5.711   4.977
 5197SOL    HW116490   1.594   5.770   5.048
 5197SOL    HW216491   1.561   5.650   4.942
 5198SOL     OW16492   4.089   7.013   3.861
 5198SOL    HW116493   4.078   6.953   3.940
 5198SOL    HW216494   4.185   0.019   3.853
 5199SOL     OW16495   1.159   6.044   0.037
 5199SOL    HW116496   1.132   6.127   0.086
 5199SOL    HW216497   1.234   5.999   0.085
 5200SOL     OW16498   1.169   1.787   5.109
 5200SOL    HW116499   1.153   1.883   5.131
 5200SOL    HW216500   1.125   1.730   5.179
 5201SOL     OW16501   5.302   6.387   4.313
 5201SOL    HW116502   5.208   6.419   4.321
 5201SOL    HW216503   5.307   6.290   4.338
 5202SOL     OW16504   6.098   3.658   5.674
 5202SOL    HW116505   6.016   3.683   5.622
 5202SOL    HW216506   6.080   3.574   5.725
 5203SOL     OW16507   2.565   0.930   6.909
 5203SOL    HW116508   2.495   0.996   6.883
 5203SOL    HW216509   2.523   0.840   6.922
 5204SOL     OW16510   4.089   6.206   0.460
 5204SOL    HW116511   4.151   6.130   0.438
 5204SOL    HW216512   4.075   6.210   0.558
 5205SOL     OW16513   6.984   6.254   0.078
 5205SOL    HW116514   6.908   6.247   0.013
 5205SOL    HW216515   0.032   6.186   0.055
 5206SOL     OW16516   0.356   5.070   6.252
 5206SOL    HW116517   0.448   5.033   6.264
 5206SOL    HW216518   0.362   5.164   6.218
 5207SOL     OW16519   0.748   0.705   3.195
 5207SOL    HW116520   0.830   0.649   3.201
 5207SOL    HW216521   0.669   0.654   3.229
 5208SOL     OW16522   4.244   2.456   6.948
 5208SOL    HW116523   4.314   2.477   7.016
 5208SOL    HW216524   4.176   2.394   6.988
 5209SOL     OW16525   5.084   1.096   1.541
 5209SOL    HW116526   5.070   0.999   1.564
 5209SOL    HW216527   5.176   1.108   1.504
 5210SOL     OW16528   5.043   3.826   0.797
 5210SOL    HW116529   5.021   3.887   0.721
 5210SOL    HW216530   4.991   3.741   0.788
 5211SOL     OW16531   4.831   1.941   5.166
 5211SOL    HW116532   4.831   1.951   5.067
 5211SOL    HW216533   4.783   2.018   5.207
 5212SOL     OW16534   1.618   2.623   1.141
 5212SOL    HW116535   1.628   2.600   1.238
 5212SOL    HW216536   1.586   2.718   1.133
 5213SOL     OW16537   4.352   3.476   1.096
 5213SOL    HW116538   4.440   3.456   1.054
 5213SOL    HW216539   4.327   3.402   1.158
 5214SOL     OW16540   5.589   2.782   5.746
 5214SOL    HW116541   5.556   2.732   5.666
 5214SOL    HW216542   5.676   2.826   5.725
 5215SOL     OW16543   0.246   4.574   4.536
 5215SOL    HW116544   0.162   4.527   4.506
 5215SOL    HW216545   0.225   4.669   4.556
 5216SOL     OW16546   5.002   5.468   0.953
 5216SOL    HW116547   4.973   5.562   0.933
 5216SOL    HW216548   5.025   5.461   1.051
 5217SOL     OW16549   3.715   5.732   4.367
 5217SOL    HW116550   3.731   5.654   4.306
 5217SOL    HW216551   3.664   5.802   4.319
 5218SOL     OW16552   0.903   1.422   1.504
 5218SOL    HW116553   0.846   1.361   1.450
 5218SOL    HW216554   0.995   1.384   1.511
 5219SOL     OW16555   3.516   2.081   4.355
 5219SOL    HW116556   3.421   2.112   4.352
 5219SOL    HW216557   3.539   2.052   4.448
 5220SOL     OW16558   1.630   4.736   2.446
 5220SOL    HW116559   1.687   4.798   2.500
 5220SOL    HW216560   1.584   4.672   2.506
 5221SOL     OW16561   6.145   0.507   2.536
 5221SOL    HW116562   6.154   0.442   2.612
 5221SOL    HW216563   6.073   0.475   2.474
 5222SOL     OW16564   4.024   6.092   2.255
 5222SOL    HW116565   3.932   6.101   2.294
 5222SOL    HW216566   4.017   6.047   2.165
 5223SOL     OW16567   0.229   2.783   6.992
 5223SOL    HW116568   0.264   2.871   0.002
 5223SOL    HW216569   0.247   2.713   0.040
 5224SOL     OW16570   6.960   2.690   4.102
 5224SOL    HW116571   6.995   2.783   4.101
 5224SOL    HW216572   0.012   2.627   4.074
 5225SOL     OW16573   6.539   0.637   3.342
 5225SOL    HW116574   6.454   0.601   3.380
 5225SOL    HW216575   6.616   0.582   3.375
 5226SOL     OW16576   0.537   6.399   3.891
 5226SOL    HW116577   0.625   6.352   3.887
 5226SOL    HW216578   0.548   6.488   3.936
 5227SOL     OW16579   0.026   4.215   5.767
 5227SOL    HW116580   0.052   4.289   5.829
 5227SOL    HW216581   0.000   4.253   5.679
 5228SOL     OW16582   0.740   2.400   0.144
 5228SOL    HW116583   0.681   2.330   0.103
 5228SOL    HW216584   0.743   2.480   0.083
 5229SOL     OW16585   2.930   6.078   0.245
 5229SOL    HW116586   2.961   6.167   0.277
 5229SOL    HW216587   2.832   6.070   0.260
 5230SOL     OW16588   6.514   6.014   2.436
 5230SOL    HW116589   6.555   5.941   2.489
 5230SOL    HW216590   6.434   5.979   2.387
 5231SOL     OW16591   4.833   2.731   3.395
 5231SOL    HW116592   4.836   2.798   3.321
 5231SOL    HW216593   4.817   2.640   3.357
 5232SOL     OW16594   1.020   3.921   6.185
 5232SOL    HW116595   1.086   3.894   6.255
 5232SOL    HW216596   0.936   3.951   6.230
 5233SOL     OW16597   3.355   0.899   2.446
 5233SOL    HW116598   3.377   0.982   2.395
 5233SOL    HW216599   3.300   0.838   2.388
 5234SOL     OW16600   2.382   2.613   6.632
 5234SOL    HW116601   2.397   2.604   6.730
 5234SOL    HW216602   2.460   2.575   6.583
 5235SOL     OW16603   1.867   2.263   1.183
 5235SOL    HW116604   1.773   2.246   1.212
 5235SOL    HW216605   1.882   2.362   1.174
 5236SOL     OW16606   3.436   5.647   2.136
 5236SOL    HW116607   3.411   5.650   2.233
 5236SOL    HW216608   3.484   5.561   2.118
 5237SOL     OW16609   1.549   1.189   4.722
 5237SOL    HW116610   1.584   1.268   4.672
 5237SOL    HW216611   1.626   1.131   4.750
 5238SOL     OW16612   0.675   6.211   0.643
 5238SOL    HW116613   0.747   6.249   0.702
 5238SOL    HW216614   0.693   6.115   0.626
 5239SOL     OW16615   3.653   2.848   0.118
 5239SOL    HW116616   3.567   2.899   0.107
 5239SOL    HW216617   3.694   2.871   0.207
 5240SOL     OW16618   3.110   2.091   5.302
 5240SOL    HW116619   3.074   2.141   5.381
 5240SOL    HW216620   3.148   2.156   5.237
 5241SOL     OW16621   0.559   6.146   3.613
 5241SOL    HW116622   0.588   6.080   3.543
 5241SOL    HW216623   0.461   6.137   3.628
 5242SOL     OW16624   5.448   6.838   2.115
 5242SOL    HW116625   5.405   6.859   2.027
 5242SOL    HW216626   5.379   6.799   2.176
 5243SOL     OW16627   2.133   5.967   1.381
 5243SOL    HW116628   2.035   5.948   1.385
 5243SOL    HW216629   2.176   5.939   1.467
 5244SOL     OW16630   3.895   4.146   0.061
 5244SOL    HW116631   3.964   4.204   0.105
 5244SOL    HW216632   3.843   4.200   7.016
 5245SOL     OW16633   3.627   4.532   0.599
 5245SOL    HW116634   3.591   4.497   0.686
 5245SOL    HW216635   3.687   4.463   0.557
 5246SOL     OW16636   6.374   2.728   2.021
 5246SOL    HW116637   6.372   2.733   1.921
 5246SOL    HW216638   6.398   2.635   2.049
 5247SOL     OW16639   3.006   0.003   6.308
 5247SOL    HW116640   2.954   6.946   6.343
 5247SOL    HW216641   3.100   6.996   6.291
 5248SOL     OW16642   6.802   2.517   3.041
 5248SOL    HW116643   6.713   2.474   3.052
 5248SOL    HW216644   6.794   2.615   3.056
 5249SOL     OW16645   1.229   5.599   6.289
 5249SOL    HW116646   1.289   5.567   6.363
 5249SOL    HW216647   1.138   5.618   6.326
 5250SOL     OW16648   0.787   5.966   0.595
 5250SOL    HW116649   0.847   5.950   0.517
 5250SOL    HW216650   0.743   5.881   0.623
 5251SOL     OW16651   0.888   3.295   0.677
 5251SOL    HW116652   0.979   3.334   0.686
 5251SOL    HW216653   0.893   3.195   0.678
 5252SOL     OW16654   2.744   6.674   1.293
 5252SOL    HW116655   2.761   6.640   1.386
 5252SOL    HW216656   2.740   6.774   1.294
 5253SOL     OW16657   6.862   3.796   4.601
 5253SOL    HW116658   6.882   3.770   4.695
 5253SOL    HW216659   6.765   3.781   4.582
 5254SOL     OW16660   5.675   0.890   3.703
 5254SOL    HW116661   5.666   0.849   3.794
 5254SOL    HW216662   5.611   0.845   3.640
 5255SOL     OW16663   5.060   2.255   4.953
 5255SOL    HW116664   4.990   2.314   4.913
 5255SOL    HW216665   5.043   2.245   5.051
 5256SOL     OW16666   5.152   2.125   3.970
 5256SOL    HW116667   5.089   2.053   4.000
 5256SOL    HW216668   5.229   2.083   3.922
 5257SOL     OW16669   4.867   6.869   1.205
 5257SOL    HW116670   4.913   6.944   1.254
 5257SOL    HW216671   4.778   6.853   1.246
 5258SOL     OW16672   5.736   2.915   1.931
 5258SOL    HW116673   5.822   2.894   1.976
 5258SOL    HW216674   5.709   3.009   1.949
 5259SOL     OW16675   4.761   5.854   3.102
 5259SOL    HW116676   4.712   5.913   3.038
 5259SOL    HW216677   4.858   5.852   3.079
 5260SOL     OW16678   4.479   4.459   0.787
 5260SOL    HW116679   4.414   4.398   0.832
 5260SOL    HW216680   4.453   4.554   0.804
 5261SOL     OW16681   6.334   3.662   6.107
 5261SOL    HW116682   6.254   3.721   6.100
 5261SOL    HW216683   6.358   3.650   6.204
 5262SOL     OW16684   2.594   1.440   3.438
 5262SOL    HW116685   2.585   1.420   3.536
 5262SOL    HW216686   2.529   1.384   3.386
 5263SOL     OW16687   1.866   1.488   3.443
 5263SOL    HW116688   1.959   1.524   3.436
 5263SOL    HW216689   1.870   1.397   3.486
 5264SOL     OW16690   6.430   2.436   1.748
 5264SOL    HW116691   6.395   2.344   1.728
 5264SOL    HW216692   6.468   2.476   1.665
 5265SOL     OW16693   5.967   3.409   4.127
 5265SOL    HW116694   5.923   3.487   4.170
 5265SOL    HW216695   5.984   3.338   4.196
 5266SOL     OW16696   3.072   5.628   6.665
 5266SOL    HW116697   3.059   5.579   6.579
 5266SOL    HW216698   3.162   5.671   6.665
 5267SOL     OW16699   4.892   2.440   4.559
 5267SOL    HW116700   4.833   2.520   4.546
 5267SOL    HW216701   4.930   2.413   4.470
 5268SOL     OW16702   5.618   0.870   0.443
 5268SOL    HW116703   5.602   0.841   0.538
 5268SOL    HW216704   5.665   0.959   0.443
 5269SOL     OW16705   0.741   6.442   2.744
 5269SOL    HW116706   0.778   6.459   2.653
 5269SOL    HW216707   0.712   6.346   2.751
 5270SOL     OW16708   5.354   1.467   2.110
 5270SOL    HW116709   5.393   1.557   2.093
 5270SOL    HW216710   5.275   1.476   2.171
 5271SOL     OW16711   6.105   4.328   5.095
 5271SOL    HW116712   6.132   4.422   5.112
 5271SOL    HW216713   6.014   4.312   5.132
 5272SOL     OW16714   3.333   6.228   1.572
 5272SOL    HW116715   3.421   6.211   1.617
 5272SOL    HW216716   3.296   6.316   1.603
 5273SOL     OW16717   0.525   3.182   3.441
 5273SOL    HW116718   0.509   3.272   3.400
 5273SOL    HW216719   0.447   3.122   3.422
 5274SOL     OW16720   5.920   0.074   2.874
 5274SOL    HW116721   5.916   6.995   2.875
 5274SOL    HW216722   5.995   0.106   2.931
 5275SOL     OW16723   3.661   1.741   0.310
 5275SOL    HW116724   3.627   1.766   0.219
 5275SOL    HW216725   3.587   1.749   0.377
 5276SOL     OW16726   1.996   0.275   0.737
 5276SOL    HW116727   2.010   0.231   0.826
 5276SOL    HW216728   1.910   0.326   0.738
 5277SOL     OW16729   2.624   1.457   2.495
 5277SOL    HW116730   2.680   1.479   2.416
 5277SOL    HW216731   2.533   1.429   2.465
 5278SOL     OW16732   5.196   5.996   3.804
 5278SOL    HW116733   5.211   6.057   3.881
 5278SOL    HW216734   5.278   5.992   3.748
 5279SOL     OW16735   2.235   5.114   0.255
 5279SOL    HW116736   2.289   5.184   0.302
 5279SOL    HW216737   2.143   5.149   0.238
 5280SOL     OW16738   2.905   6.032   5.498
 5280SOL    HW116739   3.004   6.018   5.490
 5280SOL    HW216740   2.864   6.030   5.407
 5281SOL     OW16741   6.459   1.956   1.997
 5281SOL    HW116742   6.398   2.031   1.971
 5281SOL    HW216743   6.545   1.965   1.948
 5282SOL     OW16744   4.066   1.672   3.317
 5282SOL    HW116745   4.080   1.582   3.275
 5282SOL    HW216746   4.065   1.742   3.245
 5283SOL     OW16747   4.613   6.298   2.198
 5283SOL    HW116748   4.566   6.257   2.120
 5283SOL    HW216749   4.546   6.338   2.260
 5284SOL     OW16750   4.663   4.282   3.291
 5284SOL    HW116751   4.755   4.249   3.313
 5284SOL    HW216752   4.650   4.282   3.192
 5285SOL     OW16753   2.856   4.867   4.244
 5285SOL    HW116754   2.794   4.826   4.311
 5285SOL    HW216755   2.824   4.846   4.152
 5286SOL     OW16756   2.206   4.544   0.822
 5286SOL    HW116757   2.239   4.619   0.764
 5286SOL    HW216758   2.108   4.531   0.808
 5287SOL     OW16759   3.462   0.638   0.098
 5287SOL    HW116760   3.445   0.731   0.133
 5287SOL    HW216761   3.376   0.601   0.062
 5288SOL     OW16762   2.979   0.430   1.562
 5288SOL    HW116763   3.001   0.415   1.466
 5288SOL    HW216764   2.904   0.370   1.589
 5289SOL     OW16765   1.856   4.996   6.596
 5289SOL    HW116766   1.861   5.048   6.510
 5289SOL    HW216767   1.814   4.907   6.579
 5290SOL     OW16768   2.455   5.648   5.752
 5290SOL    HW116769   2.407   5.726   5.791
 5290SOL    HW216770   2.464   5.576   5.820
 5291SOL     OW16771   2.507   6.002   5.275
 5291SOL    HW116772   2.455   5.992   5.360
 5291SOL    HW216773   2.457   5.959   5.200
 5292SOL     OW16774   5.807   2.609   0.169
 5292SOL    HW116775   5.855   2.686   0.210
 5292SOL    HW216776   5.710   2.632   0.157
 5293SOL     OW16777   0.738   1.118   5.022
 5293SOL    HW116778   0.756   1.203   4.973
 5293SOL    HW216779   0.824   1.071   5.040
 5294SOL     OW16780   5.080   3.540   6.307
 5294SOL    HW116781   5.009   3.510   6.244
 5294SOL    HW216782   5.051   3.522   6.401
 5295SOL     OW16783   6.160   1.318   2.652
 5295SOL    HW116784   6.070   1.351   2.681
 5295SOL    HW216785   6.148   1.241   2.589
 5296SOL     OW16786   1.825   5.636   0.094
 5296SOL    HW116787   1.797   5.638   0.189
 5296SOL    HW216788   1.834   5.729   0.059
 5297SOL     OW16789   1.330   2.290   1.276
 5297SOL    HW116790   1.257   2.266   1.341
 5297SOL    HW216791   1.332   2.389   1.264
 5298SOL     OW16792   6.293   5.752   2.474
 5298SOL    HW116793   6.365   5.734   2.407
 5298SOL    HW216794   6.275   5.668   2.526
 5299SOL     OW16795   3.156   1.784   1.090
 5299SOL    HW116796   3.232   1.836   1.129
 5299SOL    HW216797   3.121   1.721   1.159
 5300SOL     OW16798   0.357   5.498   2.846
 5300SOL    HW116799   0.291   5.428   2.819
 5300SOL    HW216800   0.427   5.457   2.905
 5301SOL     OW16801   4.584   1.208   0.041
 5301SOL    HW116802   4.487   1.226   0.061
 5301SOL    HW216803   4.641   1.267   0.098
 5302SOL     OW16804   6.485   4.437   2.867
 5302SOL    HW116805   6.577   4.400   2.879
 5302SOL    HW216806   6.434   4.428   2.953
 5303SOL     OW16807   0.041   6.467   4.194
 5303SOL    HW116808   0.113   6.430   4.254
 5303SOL    HW216809   0.082   6.530   4.128
 5304SOL     OW16810   5.919   1.956   6.126
 5304SOL    HW116811   5.999   1.911   6.165
 5304SOL    HW216812   5.836   1.909   6.158
 5305SOL     OW16813   0.941   0.490   3.964
 5305SOL    HW116814   0.894   0.472   3.877
 5305SOL    HW216815   0.906   0.430   4.035
 5306SOL     OW16816   2.251   6.917   5.232
 5306SOL    HW116817   2.316   6.959   5.168
 5306SOL    HW216818   2.158   6.924   5.195
 5307SOL     OW16819   4.441   5.924   6.485
 5307SOL    HW116820   4.473   6.012   6.447
 5307SOL    HW216821   4.513   5.856   6.474
 5308SOL     OW16822   0.124   0.786   3.939
 5308SOL    HW116823   0.173   0.714   3.891
 5308SOL    HW216824   0.055   0.745   3.999
 5309SOL     OW16825   4.087   3.702   3.110
 5309SOL    HW116826   4.049   3.696   3.018
 5309SOL    HW216827   4.098   3.610   3.148
 5310SOL     OW16828   4.917   2.903   1.867
 5310SOL    HW116829   4.849   2.966   1.905
 5310SOL    HW216830   4.991   2.890   1.932
 5311SOL     OW16831   0.631   5.830   6.872
 5311SOL    HW116832   0.549   5.839   6.815
 5311SOL    HW216833   0.712   5.830   6.813
 5312SOL     OW16834   0.718   4.517   2.025
 5312SOL    HW116835   0.761   4.553   2.107
 5312SOL    HW216836   0.645   4.578   1.996
 5313SOL     OW16837   0.510   5.588   6.843
 5313SOL    HW116838   0.507   5.577   6.744
 5313SOL    HW216839   0.581   5.655   6.867
 5314SOL     OW16840   4.626   5.100   0.329
 5314SOL    HW116841   4.656   5.010   0.362
 5314SOL    HW216842   4.576   5.147   0.401
 5315SOL     OW16843   4.601   4.353   2.256
 5315SOL    HW116844   4.599   4.452   2.242
 5315SOL    HW216845   4.569   4.307   2.174
 5316SOL     OW16846   0.747   5.126   4.754
 5316SOL    HW116847   0.733   5.061   4.679
 5316SOL    HW216848   0.676   5.112   4.823
 5317SOL     OW16849   5.417   1.855   4.091
 5317SOL    HW116850   5.466   1.769   4.084
 5317SOL    HW216851   5.342   1.846   4.157
 5318SOL     OW16852   0.035   2.023   4.365
 5318SOL    HW116853   0.113   1.967   4.338
 5318SOL    HW216854   0.015   2.010   4.462
 5319SOL     OW16855   5.555   6.471   6.308
 5319SOL    HW116856   5.477   6.410   6.293
 5319SOL    HW216857   5.525   6.566   6.296
 5320SOL     OW16858   6.665   4.750   0.162
 5320SOL    HW116859   6.578   4.702   0.172
 5320SOL    HW216860   6.651   4.834   0.110
 5321SOL     OW16861   1.095   5.333   3.493
 5321SOL    HW116862   1.114   5.377   3.581
 5321SOL    HW216863   1.141   5.383   3.420
 5322SOL     OW16864   3.781   6.349   6.731
 5322SOL    HW116865   3.773   6.290   6.651
 5322SOL    HW216866   3.822   6.298   6.807
 5323SOL     OW16867   4.715   2.841   1.367
 5323SOL    HW116868   4.797   2.824   1.420
 5323SOL    HW216869   4.670   2.924   1.400
 5324SOL     OW16870   3.756   2.224   1.578
 5324SOL    HW116871   3.847   2.240   1.538
 5324SOL    HW216872   3.734   2.298   1.641
 5325SOL     OW16873   5.388   0.269   2.809
 5325SOL    HW116874   5.462   0.258   2.742
 5325SOL    HW216875   5.367   0.366   2.820
 5326SOL     OW16876   6.369   5.120   2.110
 5326SOL    HW116877   6.453   5.162   2.076
 5326SOL    HW216878   6.297   5.130   2.041
 5327SOL     OW16879   0.688   6.543   5.260
 5327SOL    HW116880   0.626   6.621   5.248
 5327SOL    HW216881   0.640   6.471   5.310
 5328SOL     OW16882   3.366   2.403   5.703
 5328SOL    HW116883   3.466   2.410   5.708
 5328SOL    HW216884   3.341   2.358   5.617
 5329SOL     OW16885   6.831   4.146   0.759
 5329SOL    HW116886   6.773   4.111   0.833
 5329SOL    HW216887   6.823   4.086   0.679
 5330SOL     OW16888   3.829   3.916   6.933
 5330SOL    HW116889   3.897   3.843   6.925
 5330SOL    HW216890   3.866   3.989   6.990
 5331SOL     OW16891   4.605   2.503   0.854
 5331SOL    HW116892   4.587   2.422   0.799
 5331SOL    HW216893   4.613   2.583   0.794
 5332SOL     OW16894   6.190   4.866   0.278
 5332SOL    HW116895   6.107   4.896   0.325
 5332SOL    HW216896   6.171   4.783   0.226
 5333SOL     OW16897   1.776   0.837   3.729
 5333SOL    HW116898   1.829   0.774   3.672
 5333SOL    HW216899   1.800   0.931   3.706
 5334SOL     OW16900   5.062   4.603   4.116
 5334SOL    HW116901   5.064   4.697   4.080
 5334SOL    HW216902   5.023   4.542   4.047
 5335SOL     OW16903   6.501   4.247   2.430
 5335SOL    HW116904   6.506   4.157   2.474
 5335SOL    HW216905   6.589   4.292   2.438
 5336SOL     OW16906   2.322   1.851   3.841
 5336SOL    HW116907   2.302   1.942   3.806
 5336SOL    HW216908   2.261   1.784   3.797
 5337SOL     OW16909   5.989   4.778   1.423
 5337SOL    HW116910   6.057   4.716   1.461
 5337SOL    HW216911   5.908   4.779   1.481
 5338SOL     OW16912   5.133   2.864   0.228
 5338SOL    HW116913   5.108   2.951   0.269
 5338SOL    HW216914   5.195   2.879   0.150
 5339SOL     OW16915   5.635   1.761   2.113
 5339SOL    HW116916   5.546   1.745   2.156
 5339SOL    HW216917   5.634   1.851   2.068
 5340SOL     OW16918   5.459   3.776   1.788
 5340SOL    HW116919   5.485   3.846   1.722
 5340SOL    HW216920   5.525   3.701   1.787
 5341SOL     OW16921   4.278   4.746   3.983
 5341SOL    HW116922   4.186   4.740   4.021
 5341SOL    HW216923   4.303   4.842   3.970
 5342SOL     OW16924   4.659   6.466   5.637
 5342SOL    HW116925   4.741   6.411   5.654
 5342SOL    HW216926   4.678   6.532   5.564
 5343SOL     OW16927   3.590   3.409   4.443
 5343SOL    HW116928   3.679   3.451   4.427
 5343SOL    HW216929   3.518   3.476   4.424
 5344SOL     OW16930   0.467   1.777   0.067
 5344SOL    HW116931   0.421   1.805   0.152
 5344SOL    HW216932   0.420   1.697   0.029
 5345SOL     OW16933   5.003   1.148   6.905
 5345SOL    HW116934   5.053   1.153   6.819
 5345SOL    HW216935   5.057   1.189   6.978
 5346SOL     OW16936   2.560   5.136   4.140
 5346SOL    HW116937   2.557   5.038   4.124
 5346SOL    HW216938   2.640   5.158   4.197
 5347SOL     OW16939   7.005   2.757   3.635
 5347SOL    HW116940   6.942   2.695   3.681
 5347SOL    HW216941   0.024   2.712   3.555
 5348SOL     OW16942   6.978   1.603   4.808
 5348SOL    HW116943   6.921   1.598   4.891
 5348SOL    HW216944   6.973   1.516   4.759
 5349SOL     OW16945   1.321   2.834   1.893
 5349SOL    HW116946   1.230   2.861   1.864
 5349SOL    HW216947   1.314   2.778   1.976
 5350SOL     OW16948   1.916   0.007   5.818
 5350SOL    HW116949   1.954   0.058   5.741
 5350SOL    HW216950   1.984   6.964   5.853
 5351SOL     OW16951   0.271   5.145   1.775
 5351SOL    HW116952   0.216   5.090   1.712
 5351SOL    HW216953   0.211   5.206   1.827
 5352SOL     OW16954   2.413   4.466   2.775
 5352SOL    HW116955   2.425   4.474   2.676
 5352SOL    HW216956   2.404   4.369   2.800
 5353SOL     OW16957   3.467   5.346   3.557
 5353SOL    HW116958   3.463   5.285   3.478
 5353SOL    HW216959   3.465   5.292   3.641
 5354SOL     OW16960   3.375   4.036   0.324
 5354SOL    HW116961   3.398   3.943   0.354
 5354SOL    HW216962   3.367   4.039   0.225
 5355SOL     OW16963   4.699   4.826   4.912
 5355SOL    HW116964   4.721   4.877   4.995
 5355SOL    HW216965   4.600   4.820   4.901
 5356SOL     OW16966   6.498   3.713   2.022
 5356SOL    HW116967   6.418   3.692   2.077
 5356SOL    HW216968   6.496   3.810   1.996
 5357SOL     OW16969   4.124   4.795   2.009
 5357SOL    HW116970   4.193   4.775   2.079
 5357SOL    HW216971   4.152   4.754   1.922
 5358SOL     OW16972   4.327   1.736   0.233
 5358SOL    HW116973   4.260   1.666   0.206
 5358SOL    HW216974   4.291   1.788   0.310
 5359SOL     OW16975   2.235   2.508   0.259
 5359SOL    HW116976   2.227   2.490   0.161
 5359SOL    HW216977   2.144   2.502   0.302
 5360SOL     OW16978   5.525   5.874   3.165
 5360SOL    HW116979   5.606   5.871   3.224
 5360SOL    HW216980   5.447   5.835   3.214
 5361SOL     OW16981   3.115   6.510   2.883
 5361SOL    HW116982   3.076   6.429   2.926
 5361SOL    HW216983   3.162   6.565   2.952
 5362SOL     OW16984   5.769   6.902   2.588
 5362SOL    HW116985   5.698   6.885   2.657
 5362SOL    HW216986   5.846   6.841   2.604
 5363SOL     OW16987   5.090   6.577   4.853
 5363SOL    HW116988   5.096   6.547   4.758
 5363SOL    HW216989   5.171   6.548   4.903
 5364SOL     OW16990   5.089   0.909   2.066
 5364SOL    HW116991   5.065   0.819   2.032
 5364SOL    HW216992   5.118   0.967   1.990
 5365SOL     OW16993   2.905   3.625   2.799
 5365SOL    HW116994   2.823   3.646   2.747
 5365SOL    HW216995   2.977   3.594   2.737
 5366SOL     OW16996   6.496   0.522   1.763
 5366SOL    HW116997   6.507   0.443   1.704
 5366SOL    HW216998   6.481   0.492   1.857
 5367SOL     OW16999   6.215   0.245   0.717
 5367SOL    HW117000   6.259   0.196   0.792
 5367SOL    HW217001   6.194   0.338   0.745
 5368SOL     OW17002   6.522   5.761   2.297
 5368SOL    HW117003   6.480   5.751   2.206
 5368SOL    HW217004   6.552   5.672   2.330
 5369SOL     OW17005   2.757   5.714   1.594
 5369SOL    HW117006   2.725   5.620   1.584
 5369SOL    HW217007   2.692   5.765   1.651
 5370SOL     OW17008   4.163   3.596   1.778
 5370SOL    HW117009   4.230   3.670   1.774
 5370SOL    HW217010   4.111   3.593   1.692
 5371SOL     OW17011   6.883   5.132   5.274
 5371SOL    HW117012   6.957   5.096   5.216
 5371SOL    HW217013   6.823   5.190   5.220
 5372SOL     OW17014   1.243   0.484   2.539
 5372SOL    HW117015   1.270   0.388   2.543
 5372SOL    HW217016   1.313   0.540   2.583
 5373SOL     OW17017   4.057   6.418   6.415
 5373SOL    HW117018   4.076   6.435   6.512
 5373SOL    HW217019   3.978   6.472   6.387
 5374SOL     OW17020   2.531   4.727   0.976
 5374SOL    HW117021   2.506   4.762   1.066
 5374SOL    HW217022   2.467   4.762   0.907
 5375SOL     OW17023   1.161   6.288   5.462
 5375SOL    HW117024   1.249   6.290   5.509
 5375SOL    HW217025   1.087   6.286   5.530
 5376SOL     OW17026   1.232   2.040   1.892
 5376SOL    HW117027   1.200   2.110   1.957
 5376SOL    HW217028   1.222   2.075   1.799
 5377SOL     OW17029   2.210   0.976   3.200
 5377SOL    HW117030   2.153   0.901   3.234
 5377SOL    HW217031   2.275   1.002   3.270
 5378SOL     OW17032   6.029   0.406   0.959
 5378SOL    HW117033   6.013   0.490   0.906
 5378SOL    HW217034   6.119   0.413   1.003
 5379SOL     OW17035   1.125   2.886   6.039
 5379SOL    HW117036   1.110   2.798   5.995
 5379SOL    HW217037   1.222   2.897   6.061
 5380SOL     OW17038   3.372   6.830   1.410
 5380SOL    HW117039   3.445   6.797   1.350
 5380SOL    HW217040   3.381   6.787   1.500
 5381SOL     OW17041   5.782   6.010   2.283
 5381SOL    HW117042   5.782   6.043   2.189
 5381SOL    HW217043   5.869   6.034   2.326
 5382SOL     OW17044   4.011   2.158   2.342
 5382SOL    HW117045   3.926   2.117   2.308
 5382SOL    HW217046   4.019   2.251   2.306
 5383SOL     OW17047   1.023   2.898   5.046
 5383SOL    HW117048   1.096   2.962   5.070
 5383SOL    HW217049   1.058   2.805   5.047
 5384SOL     OW17050   4.676   5.215   5.134
 5384SOL    HW117051   4.733   5.284   5.089
 5384SOL    HW217052   4.594   5.198   5.079
 5385SOL     OW17053   6.348   2.454   6.004
 5385SOL    HW117054   6.385   2.431   6.094
 5385SOL    HW217055   6.248   2.448   6.007
 5386SOL     OW17056   5.734   2.788   4.026
 5386SOL    HW117057   5.726   2.754   4.120
 5386SOL    HW217058   5.739   2.888   4.027
 5387SOL     OW17059   2.747   0.352   2.957
 5387SOL    HW117060   2.784   0.378   2.867
 5387SOL    HW217061   2.683   0.276   2.945
 5388SOL     OW17062   1.059   6.425   2.864
 5388SOL    HW117063   0.982   6.423   2.800
 5388SOL    HW217064   1.145   6.417   2.813
 5389SOL     OW17065   4.428   2.370   4.159
 5389SOL    HW117066   4.361   2.332   4.222
 5389SOL    HW217067   4.388   2.375   4.067
 5390SOL     OW17068   5.781   3.594   4.283
 5390SOL    HW117069   5.735   3.558   4.365
 5390SOL    HW217070   5.731   3.674   4.250
 5391SOL     OW17071   2.566   2.482   0.072
 5391SOL    HW117072   2.541   2.516   0.163
 5391SOL    HW217073   2.666   2.476   0.066
 5392SOL     OW17074   4.789   2.967   2.704
 5392SOL    HW117075   4.702   2.918   2.705
 5392SOL    HW217076   4.864   2.901   2.705
 5393SOL     OW17077   4.407   0.113   4.915
 5393SOL    HW117078   4.405   0.120   4.815
 5393SOL    HW217079   4.314   0.101   4.949
 5394SOL     OW17080   1.043   6.208   1.432
 5394SOL    HW117081   1.019   6.123   1.385
 5394SOL    HW217082   1.015   6.286   1.376
 5395SOL     OW17083   4.683   1.317   0.917
 5395SOL    HW117084   4.638   1.234   0.951
 5395SOL    HW217085   4.682   1.387   0.989
 5396SOL     OW17086   5.500   5.712   2.431
 5396SOL    HW117087   5.503   5.793   2.373
 5396SOL    HW217088   5.481   5.739   2.525
 5397SOL     OW17089   6.603   1.987   2.531
 5397SOL    HW117090   6.525   2.014   2.588
 5397SOL    HW217091   6.574   1.982   2.435
 5398SOL     OW17092   4.263   2.334   3.936
 5398SOL    HW117093   4.257   2.327   3.836
 5398SOL    HW217094   4.178   2.301   3.977
 5399SOL     OW17095   1.666   6.652   5.493
 5399SOL    HW117096   1.649   6.553   5.493
 5399SOL    HW217097   1.694   6.681   5.402
 5400SOL     OW17098   3.681   3.426   1.095
 5400SOL    HW117099   3.724   3.435   1.004
 5400SOL    HW217100   3.590   3.466   1.092
 5401SOL     OW17101   4.717   4.933   3.524
 5401SOL    HW117102   4.775   4.885   3.459
 5401SOL    HW217103   4.692   4.872   3.599
 5402SOL     OW17104   3.039   6.299   1.014
 5402SOL    HW117105   2.996   6.214   0.984
 5402SOL    HW217106   2.997   6.329   1.100
 5403SOL     OW17107   5.480   3.012   6.513
 5403SOL    HW117108   5.525   3.100   6.523
 5403SOL    HW217109   5.414   3.016   6.438
 5404SOL     OW17110   0.388   0.847   0.920
 5404SOL    HW117111   0.315   0.915   0.925
 5404SOL    HW217112   0.350   0.756   0.935
 5405SOL     OW17113   5.160   5.281   6.921
 5405SOL    HW117114   5.211   5.365   6.904
 5405SOL    HW217115   5.116   5.286   7.011
 5406SOL     OW17116   2.138   0.614   4.744
 5406SOL    HW117117   2.082   0.543   4.785
 5406SOL    HW217118   2.174   0.674   4.816
 5407SOL     OW17119   2.932   0.827   1.214
 5407SOL    HW117120   2.963   0.851   1.306
 5407SOL    HW217121   2.889   0.736   1.216
 5408SOL     OW17122   3.926   1.814   4.452
 5408SOL    HW117123   4.013   1.817   4.403
 5408SOL    HW217124   3.867   1.888   4.419
 5409SOL     OW17125   6.139   2.498   1.728
 5409SOL    HW117126   6.223   2.447   1.747
 5409SOL    HW217127   6.138   2.528   1.632
 5410SOL     OW17128   6.821   3.046   0.933
 5410SOL    HW117129   6.917   3.056   0.959
 5410SOL    HW217130   6.799   2.949   0.925
 5411SOL     OW17131   5.602   4.232   6.757
 5411SOL    HW117132   5.626   4.257   6.851
 5411SOL    HW217133   5.579   4.135   6.753
 5412SOL     OW17134   2.026   1.360   6.308
 5412SOL    HW117135   2.039   1.262   6.295
 5412SOL    HW217136   1.997   1.378   6.402
 5413SOL     OW17137   6.191   0.023   5.375
 5413SOL    HW117138   6.134   0.105   5.370
 5413SOL    HW217139   6.134   6.963   5.366
 5414SOL     OW17140   0.514   4.578   5.552
 5414SOL    HW117141   0.555   4.524   5.625
 5414SOL    HW217142   0.423   4.541   5.530
 5415SOL     OW17143   2.918   5.392   0.315
 5415SOL    HW117144   2.921   5.453   0.395
 5415SOL    HW217145   2.847   5.423   0.252
 5416SOL     OW17146   2.781   5.180   4.887
 5416SOL    HW117147   2.849   5.155   4.956
 5416SOL    HW217148   2.692   5.145   4.915
 5417SOL     OW17149   4.999   6.368   3.994
 5417SOL    HW117150   4.912   6.341   3.954
 5417SOL    HW217151   5.032   6.296   4.055
 5418SOL     OW17152   5.760   4.554   4.745
 5418SOL    HW117153   5.661   4.563   4.755
 5418SOL    HW217154   5.792   4.476   4.798
 5419SOL     OW17155   4.172   6.832   0.385
 5419SOL    HW117156   4.122   6.904   0.336
 5419SOL    HW217157   4.257   6.813   0.336
 5420SOL     OW17158   1.309   1.609   1.679
 5420SOL    HW117159   1.267   1.536   1.625
 5420SOL    HW217160   1.299   1.696   1.630
 5421SOL     OW17161   3.272   5.327   2.430
 5421SOL    HW117162   3.261   5.379   2.515
 5421SOL    HW217163   3.221   5.372   2.357
 5422SOL     OW17164   1.942   5.735   3.972
 5422SOL    HW117165   2.010   5.757   3.902
 5422SOL    HW217166   1.982   5.674   4.040
 5423SOL     OW17167   6.352   5.653   2.104
 5423SOL    HW117168   6.307   5.681   2.019
 5423SOL    HW217169   6.342   5.554   2.115
 5424SOL     OW17170   5.012   4.220   5.092
 5424SOL    HW117171   5.040   4.189   5.001
 5424SOL    HW217172   5.094   4.236   5.148
 5425SOL     OW17173   6.572   3.039   4.836
 5425SOL    HW117174   6.507   3.107   4.870
 5425SOL    HW217175   6.523   2.956   4.810
 5426SOL     OW17176   5.023   5.175   2.068
 5426SOL    HW117177   4.979   5.223   2.144
 5426SOL    HW217178   5.056   5.086   2.099
 5427SOL     OW17179   4.718   2.570   6.891
 5427SOL    HW117180   4.792   2.504   6.877
 5427SOL    HW217181   4.756   2.654   6.930
 5428SOL     OW17182   5.845   5.816   3.021
 5428SOL    HW117183   5.889   5.730   2.995
 5428SOL    HW217184   5.752   5.818   2.984
 5429SOL     OW17185   2.799   0.434   4.183
 5429SOL    HW117186   2.864   0.430   4.258
 5429SOL    HW217187   2.844   0.471   4.102
 5430SOL     OW17188   2.321   3.497   5.970
 5430SOL    HW117189   2.354   3.589   5.948
 5430SOL    HW217190   2.344   3.475   6.065
 5431SOL     OW17191   3.568   5.212   6.198
 5431SOL    HW117192   3.663   5.212   6.229
 5431SOL    HW217193   3.564   5.192   6.101
 5432SOL     OW17194   5.595   5.886   1.098
 5432SOL    HW117195   5.620   5.840   1.014
 5432SOL    HW217196   5.501   5.919   1.093
 5433SOL     OW17197   1.575   0.295   0.855
 5433SOL    HW117198   1.628   0.240   0.920
 5433SOL    HW217199   1.478   0.278   0.870
 5434SOL     OW17200   4.899   0.889   4.916
 5434SOL    HW117201   4.912   0.983   4.949
 5434SOL    HW217202   4.894   0.827   4.994
 5435SOL     OW17203   6.274   3.916   0.241
 5435SOL    HW117204   6.195   3.963   0.201
 5435SOL    HW217205   6.248   3.876   0.329
 5436SOL     OW17206   0.635   5.865   2.605
 5436SOL    HW117207   0.689   5.931   2.553
 5436SOL    HW217208   0.566   5.914   2.658
 5437SOL     OW17209   3.077   4.983   5.824
 5437SOL    HW117210   3.078   4.928   5.908
 5437SOL    HW217211   3.009   4.946   5.761
 5438SOL     OW17212   5.046   4.301   1.710
 5438SOL    HW117213   5.057   4.279   1.807
 5438SOL    HW217214   4.978   4.373   1.698
 5439SOL     OW17215   0.730   4.169   0.389
 5439SOL    HW117216   0.807   4.216   0.345
 5439SOL    HW217217   0.762   4.083   0.429
 5440SOL     OW17218   5.634   6.922   3.341
 5440SOL    HW117219   5.671   6.945   3.251
 5440SOL    HW217220   5.554   6.980   3.360
 5441SOL     OW17221   4.909   3.281   4.019
 5441SOL    HW117222   5.004   3.283   3.987
 5441SOL    HW217223   4.893   3.195   4.068
 5442SOL     OW17224   5.247   0.677   3.806
 5442SOL    HW117225   5.178   0.605   3.807
 5442SOL    HW217226   5.274   0.698   3.900
 5443SOL     OW17227   4.807   6.587   4.877
 5443SOL    HW117228   4.901   6.588   4.909
 5443SOL    HW217229   4.773   6.681   4.870
 5444SOL     OW17230   0.571   1.847   4.214
 5444SOL    HW117231   0.480   1.868   4.181
 5444SOL    HW217232   0.627   1.812   4.139
 5445SOL     OW17233   5.029   5.113   5.024
 5445SOL    HW117234   5.076   5.030   5.055
 5445SOL    HW217235   5.028   5.180   5.098
 5446SOL     OW17236   6.930   4.777   5.001
 5446SOL    HW117237   7.004   4.725   4.958
 5446SOL    HW217238   6.961   4.811   5.090
 5447SOL     OW17239   2.005   1.545   1.364
 5447SOL    HW117240   2.059   1.622   1.328
 5447SOL    HW217241   2.059   1.497   1.433
 5448SOL     OW17242   4.662   5.865   3.990
 5448SOL    HW117243   4.711   5.938   4.038
 5448SOL    HW217244   4.659   5.783   4.047
 5449SOL     OW17245   3.388   1.621   1.854
 5449SOL    HW117246   3.352   1.634   1.947
 5449SOL    HW217247   3.312   1.599   1.792
 5450SOL     OW17248   3.632   6.013   1.764
 5450SOL    HW117249   3.668   6.082   1.701
 5450SOL    HW217250   3.706   5.977   1.820
 5451SOL     OW17251   1.293   0.196   2.659
 5451SOL    HW117252   1.213   0.164   2.711
 5451SOL    HW217253   1.275   0.188   2.561
 5452SOL     OW17254   1.547   4.743   1.180
 5452SOL    HW117255   1.487   4.663   1.181
 5452SOL    HW217256   1.494   4.825   1.205
 5453SOL     OW17257   5.101   4.160   2.431
 5453SOL    HW117258   5.080   4.213   2.513
 5453SOL    HW217259   5.193   4.123   2.437
 5454SOL     OW17260   5.641   5.731   2.697
 5454SOL    HW117261   5.620   5.723   2.795
 5454SOL    HW217262   5.655   5.641   2.658
 5455SOL     OW17263   0.835   1.513   2.682
 5455SOL    HW117264   0.847   1.421   2.719
 5455SOL    HW217265   0.805   1.508   2.587
 5456SOL     OW17266   5.115   0.915   0.142
 5456SOL    HW117267   5.191   0.974   0.113
 5456SOL    HW217268   5.042   0.918   0.074
 5457SOL     OW17269   6.240   2.073   0.089
 5457SOL    HW117270   6.329   2.095   0.128
 5457SOL    HW217271   6.176   2.050   0.161
 5458SOL     OW17272   6.274   4.732   0.494
 5458SOL    HW117273   6.322   4.647   0.513
 5458SOL    HW217274   6.268   4.746   0.395
 5459SOL     OW17275   1.718   4.907   5.978
 5459SOL    HW117276   1.623   4.902   6.008
 5459SOL    HW217277   1.727   4.977   5.907
 5460SOL     OW17278   1.810   1.446   1.232
 5460SOL    HW117279   1.799   1.510   1.156
 5460SOL    HW217280   1.889   1.474   1.287
 5461SOL     OW17281   1.104   1.615   5.319
 5461SOL    HW117282   1.185   1.599   5.375
 5461SOL    HW217283   1.046   1.682   5.364
 5462SOL     OW17284   5.560   6.086   6.943
 5462SOL    HW117285   5.624   6.030   6.996
 5462SOL    HW217286   5.549   6.175   6.986
 5463SOL     OW17287   6.515   1.996   6.306
 5463SOL    HW117288   6.455   1.990   6.226
 5463SOL    HW217289   6.509   1.911   6.358
 5464SOL     OW17290   6.278   5.409   5.392
 5464SOL    HW117291   6.299   5.502   5.422
 5464SOL    HW217292   6.308   5.397   5.297
 5465SOL     OW17293   6.345   6.860   3.292
 5465SOL    HW117294   6.421   6.807   3.328
 5465SOL    HW217295   6.273   6.865   3.361
 5466SOL     OW17296   5.676   2.742   5.308
 5466SOL    HW117297   5.591   2.721   5.260
 5466SOL    HW217298   5.731   2.659   5.317
 5467SOL     OW17299   5.817   3.626   3.876
 5467SOL    HW117300   5.784   3.533   3.891
 5467SOL    HW217301   5.842   3.667   3.964
 5468SOL     OW17302   6.742   2.755   3.166
 5468SOL    HW117303   6.716   2.754   3.262
 5468SOL    HW217304   6.773   2.847   3.141
 5469SOL     OW17305   1.961   0.190   6.026
 5469SOL    HW117306   1.905   0.166   6.105
 5469SOL    HW217307   1.940   0.129   5.950
 5470SOL     OW17308   4.368   5.308   3.973
 5470SOL    HW117309   4.339   5.396   3.936
 5470SOL    HW217310   4.355   5.237   3.904
 5471SOL     OW17311   5.751   0.634   2.690
 5471SOL    HW117312   5.788   0.714   2.643
 5471SOL    HW217313   5.774   0.639   2.787
 5472SOL     OW17314   2.990   2.485   5.797
 5472SOL    HW117315   3.013   2.514   5.704
 5472SOL    HW217316   2.896   2.512   5.817
 5473SOL     OW17317   1.574   4.577   0.583
 5473SOL    HW117318   1.558   4.635   0.663
 5473SOL    HW217319   1.672   4.561   0.572
 5474SOL     OW17320   1.060   5.914   3.411
 5474SOL    HW117321   1.121   5.965   3.350
 5474SOL    HW217322   1.001   5.978   3.460
 5475SOL     OW17323   1.604   1.784   0.915
 5475SOL    HW117324   1.548   1.736   0.848
 5475SOL    HW217325   1.657   1.856   0.869
 5476SOL     OW17326   2.248   4.962   5.458
 5476SOL    HW117327   2.268   4.873   5.417
 5476SOL    HW217328   2.329   5.021   5.451
 5477SOL     OW17329   1.505   4.409   2.712
 5477SOL    HW117330   1.593   4.409   2.664
 5477SOL    HW217331   1.519   4.386   2.808
 5478SOL     OW17332   4.407   5.508   6.185
 5478SOL    HW117333   4.435   5.576   6.117
 5478SOL    HW217334   4.445   5.419   6.160
 5479SOL     OW17335   4.437   0.871   3.949
 5479SOL    HW117336   4.342   0.856   3.978
 5479SOL    HW217337   4.440   0.946   3.883
 5480SOL     OW17338   6.036   4.990   4.975
 5480SOL    HW117339   6.098   4.915   4.998
 5480SOL    HW217340   5.947   4.973   5.016
 5481SOL     OW17341   4.787   0.420   5.090
 5481SOL    HW117342   4.705   0.477   5.079
 5481SOL    HW217343   4.760   0.327   5.115
 5482SOL     OW17344   3.431   4.094   1.989
 5482SOL    HW117345   3.471   4.003   1.977
 5482SOL    HW217346   3.339   4.085   2.027
 5483SOL     OW17347   6.578   2.695   5.679
 5483SOL    HW117348   6.637   2.618   5.653
 5483SOL    HW217349   6.625   2.781   5.659
 5484SOL     OW17350   6.086   0.058   3.346
 5484SOL    HW117351   6.120   0.031   3.436
 5484SOL    HW217352   6.051   6.998   3.298
 5485SOL     OW17353   2.966   0.324   4.373
 5485SOL    HW117354   3.060   0.289   4.366
 5485SOL    HW217355   2.912   0.265   4.432
 5486SOL     OW17356   2.038   6.925   4.153
 5486SOL    HW117357   2.129   6.957   4.179
 5486SOL    HW217358   2.006   6.975   4.073
 5487SOL     OW17359   5.870   3.919   6.745
 5487SOL    HW117360   5.892   3.829   6.783
 5487SOL    HW217361   5.880   3.988   6.817
 5488SOL     OW17362   4.382   1.497   0.472
 5488SOL    HW117363   4.467   1.548   0.464
 5488SOL    HW217364   4.401   1.399   0.465
 5489SOL     OW17365   1.785   4.043   1.687
 5489SOL    HW117366   1.795   4.039   1.786
 5489SOL    HW217367   1.873   4.020   1.644
 5490SOL     OW17368   3.655   6.803   0.374
 5490SOL    HW117369   3.651   6.862   0.454
 5490SOL    HW217370   3.683   6.857   0.294
 5491SOL     OW17371   1.487   4.595   6.756
 5491SOL    HW117372   1.465   4.508   6.711
 5491SOL    HW217373   1.416   4.617   6.823
 5492SOL     OW17374   0.969   1.385   5.972
 5492SOL    HW117375   0.983   1.336   5.886
 5492SOL    HW217376   0.908   1.332   6.031
 5493SOL     OW17377   3.453   3.290   5.105
 5493SOL    HW117378   3.466   3.194   5.083
 5493SOL    HW217379   3.374   3.301   5.166
 5494SOL     OW17380   6.349   2.438   0.184
 5494SOL    HW117381   6.440   2.466   0.216
 5494SOL    HW217382   6.335   2.470   0.090
 5495SOL     OW17383   3.045   2.970   1.424
 5495SOL    HW117384   3.111   2.944   1.494
 5495SOL    HW217385   2.978   3.034   1.462
 5496SOL     OW17386   2.834   6.505   2.296
 5496SOL    HW117387   2.816   6.433   2.229
 5496SOL    HW217388   2.903   6.568   2.259
 5497SOL     OW17389   0.423   1.950   3.204
 5497SOL    HW117390   0.406   1.976   3.299
 5497SOL    HW217391   0.419   1.850   3.195
 5498SOL     OW17392   5.183   0.782   0.383
 5498SOL    HW117393   5.151   0.840   0.458
 5498SOL    HW217394   5.176   0.832   0.297
 5499SOL     OW17395   0.819   0.999   4.081
 5499SOL    HW117396   0.872   1.083   4.078
 5499SOL    HW217397   0.730   1.017   4.122
 5500SOL     OW17398   1.852   6.192   0.069
 5500SOL    HW117399   1.762   6.205   0.111
 5500SOL    HW217400   1.846   6.207   6.991
 5501SOL     OW17401   3.121   0.154   1.099
 5501SOL    HW117402   3.060   0.207   1.041
 5501SOL    HW217403   3.190   0.215   1.140
 5502SOL     OW17404   5.902   4.386   6.192
 5502SOL    HW117405   5.876   4.430   6.278
 5502SOL    HW217406   5.863   4.294   6.189
 5503SOL     OW17407   0.670   4.563   2.898
 5503SOL    HW117408   0.616   4.489   2.859
 5503SOL    HW217409   0.665   4.561   2.997
 5504SOL     OW17410   2.947   1.256   5.708
 5504SOL    HW117411   3.035   1.215   5.728
 5504SOL    HW217412   2.951   1.354   5.729
 5505SOL     OW17413   2.680   5.773   4.914
 5505SOL    HW117414   2.742   5.759   4.837
 5505SOL    HW217415   2.719   5.731   4.996
 5506SOL     OW17416   6.406   0.242   5.654
 5506SOL    HW117417   6.368   0.150   5.650
 5506SOL    HW217418   6.337   0.305   5.691
 5507SOL     OW17419   2.635   0.056   2.604
 5507SOL    HW117420   2.550   0.005   2.594
 5507SOL    HW217421   2.617   0.153   2.588
 5508SOL     OW17422   2.883   1.385   6.856
 5508SOL    HW117423   2.945   1.446   6.905
 5508SOL    HW217424   2.852   1.429   6.772
 5509SOL     OW17425   0.967   6.406   0.265
 5509SOL    HW117426   0.924   6.439   0.349
 5509SOL    HW217427   1.020   6.323   0.285
 5510SOL     OW17428   5.316   6.063   0.617
 5510SOL    HW117429   5.311   6.159   0.644
 5510SOL    HW217430   5.304   6.005   0.698
 5511SOL     OW17431   2.214   0.207   3.910
 5511SOL    HW117432   2.301   0.203   3.862
 5511SOL    HW217433   2.229   0.197   4.008
 5512SOL     OW17434   6.592   1.922   0.699
 5512SOL    HW117435   6.641   1.857   0.758
 5512SOL    HW217436   6.554   1.995   0.756
 5513SOL     OW17437   4.317   4.216   5.627
 5513SOL    HW117438   4.246   4.234   5.695
 5513SOL    HW217439   4.274   4.193   5.539
 5514SOL     OW17440   5.227   5.757   2.681
 5514SOL    HW117441   5.210   5.760   2.582
 5514SOL    HW217442   5.299   5.690   2.700
 5515SOL     OW17443   0.360   3.985   1.104
 5515SOL    HW117444   0.291   3.954   1.168
 5515SOL    HW217445   0.436   4.026   1.155
 5516SOL     OW17446   0.939   2.733   0.781
 5516SOL    HW117447   0.862   2.773   0.831
 5516SOL    HW217448   1.001   2.688   0.846
 5517SOL     OW17449   2.793   2.352   2.441
 5517SOL    HW117450   2.696   2.368   2.421
 5517SOL    HW217451   2.846   2.433   2.416
 5518SOL     OW17452   6.181   6.158   6.386
 5518SOL    HW117453   6.242   6.146   6.464
 5518SOL    HW217454   6.188   6.252   6.352
 5519SOL     OW17455   5.163   4.047   3.039
 5519SOL    HW117456   5.235   3.978   3.045
 5519SOL    HW217457   5.095   4.019   2.971
 5520SOL     OW17458   0.608   4.887   3.214
 5520SOL    HW117459   0.606   4.896   3.313
 5520SOL    HW217460   0.687   4.938   3.178
 5521SOL     OW17461   3.915   5.579   2.742
 5521SOL    HW117462   3.942   5.661   2.793
 5521SOL    HW217463   3.817   5.566   2.749
 5522SOL     OW17464   1.689   4.305   0.755
 5522SOL    HW117465   1.663   4.279   0.662
 5522SOL    HW217466   1.607   4.318   0.811
 5523SOL     OW17467   3.053   0.006   3.187
 5523SOL    HW117468   3.002   7.016   3.273
 5523SOL    HW217469   3.023   0.090   3.142
 5524SOL     OW17470   6.557   5.341   4.641
 5524SOL    HW117471   6.597   5.307   4.726
 5524SOL    HW217472   6.463   5.310   4.633
 5525SOL     OW17473   6.502   3.958   0.579
 5525SOL    HW117474   6.533   4.040   0.531
 5525SOL    HW217475   6.478   3.888   0.512
 5526SOL     OW17476   6.049   3.536   5.117
 5526SOL    HW117477   5.961   3.526   5.071
 5526SOL    HW217478   6.073   3.633   5.121
 5527SOL     OW17479   0.962   3.808   3.493
 5527SOL    HW117480   1.018   3.729   3.465
 5527SOL    HW217481   0.910   3.841   3.414
 5528SOL     OW17482   0.624   2.334   6.337
 5528SOL    HW117483   0.668   2.398   6.399
 5528SOL    HW217484   0.660   2.347   6.245
 5529SOL     OW17485   2.234   0.201   4.638
 5529SOL    HW117486   2.304   0.262   4.601
 5529SOL    HW217487   2.270   0.107   4.642
 5530SOL     OW17488   6.992   2.548   2.209
 5530SOL    HW117489   6.971   2.594   2.123
 5530SOL    HW217490   0.068   2.524   2.211
 5531SOL     OW17491   3.544   3.781   3.280
 5531SOL    HW117492   3.501   3.748   3.196
 5531SOL    HW217493   3.474   3.798   3.350
 5532SOL     OW17494   1.135   1.571   1.099
 5532SOL    HW117495   1.222   1.567   1.051
 5532SOL    HW217496   1.148   1.551   1.196
 5533SOL     OW17497   2.576   1.306   2.182
 5533SOL    HW117498   2.666   1.347   2.196
 5533SOL    HW217499   2.555   1.303   2.085
 5534SOL     OW17500   1.111   3.376   6.202
 5534SOL    HW117501   1.115   3.460   6.255
 5534SOL    HW217502   1.186   3.373   6.137
 5535SOL     OW17503   0.581   2.749   3.485
 5535SOL    HW117504   0.495   2.755   3.536
 5535SOL    HW217505   0.620   2.657   3.497
 5536SOL     OW17506   3.597   1.344   4.029
 5536SOL    HW117507   3.639   1.422   4.076
 5536SOL    HW217508   3.499   1.343   4.048
 5537SOL     OW17509   3.288   0.683   4.259
 5537SOL    HW117510   3.323   0.594   4.228
 5537SOL    HW217511   3.223   0.669   4.333
 5538SOL     OW17512   3.394   0.108   5.114
 5538SOL    HW117513   3.348   0.197   5.119
 5538SOL    HW217514   3.344   0.049   5.051
 5539SOL     OW17515   1.021   2.528   1.276
 5539SOL    HW117516   1.121   2.529   1.267
 5539SOL    HW217517   0.996   2.551   1.371
 5540SOL     OW17518   5.478   3.788   2.231
 5540SOL    HW117519   5.516   3.710   2.281
 5540SOL    HW217520   5.408   3.755   2.168
 5541SOL     OW17521   5.347   2.394   6.238
 5541SOL    HW117522   5.286   2.325   6.201
 5541SOL    HW217523   5.441   2.372   6.215
 5542SOL     OW17524   5.923   6.352   5.331
 5542SOL    HW117525   5.830   6.384   5.316
 5542SOL    HW217526   5.984   6.392   5.262
 5543SOL     OW17527   2.292   5.386   6.166
 5543SOL    HW117528   2.331   5.453   6.230
 5543SOL    HW217529   2.283   5.298   6.212
 5544SOL     OW17530   5.255   5.607   6.051
 5544SOL    HW117531   5.191   5.588   5.977
 5544SOL    HW217532   5.297   5.697   6.036
 5545SOL     OW17533   4.871   1.326   3.131
 5545SOL    HW117534   4.865   1.370   3.221
 5545SOL    HW217535   4.812   1.245   3.131
 5546SOL     OW17536   0.855   6.674   4.536
 5546SOL    HW117537   0.912   6.601   4.500
 5546SOL    HW217538   0.760   6.644   4.540
 5547SOL     OW17539   3.952   0.860   4.793
 5547SOL    HW117540   3.924   0.908   4.710
 5547SOL    HW217541   3.905   0.902   4.872
 5548SOL     OW17542   6.337   3.230   5.300
 5548SOL    HW117543   6.436   3.235   5.311
 5548SOL    HW217544   6.311   3.138   5.268
 5549SOL     OW17545   4.059   4.610   0.739
 5549SOL    HW117546   4.031   4.563   0.823
 5549SOL    HW217547   4.124   4.553   0.689
 5550SOL     OW17548   2.110   4.711   2.443
 5550SOL    HW117549   2.164   4.663   2.374
 5550SOL    HW217550   2.172   4.759   2.505
 5551SOL     OW17551   1.400   6.514   2.879
 5551SOL    HW117552   1.372   6.610   2.873
 5551SOL    HW217553   1.344   6.468   2.947
 5552SOL     OW17554   6.444   0.751   6.678
 5552SOL    HW117555   6.543   0.761   6.689
 5552SOL    HW217556   6.408   0.832   6.631
 5553SOL     OW17557   4.571   6.173   6.475
 5553SOL    HW117558   4.668   6.150   6.486
 5553SOL    HW217559   4.552   6.257   6.526
 5554SOL     OW17560   4.248   2.080   6.990
 5554SOL    HW117561   4.228   2.071   0.067
 5554SOL    HW217562   4.232   1.992   6.945
 5555SOL     OW17563   0.842   3.945   2.894
 5555SOL    HW117564   0.798   3.856   2.900
 5555SOL    HW217565   0.941   3.934   2.894
 5556SOL     OW17566   6.325   1.874   2.884
 5556SOL    HW117567   6.271   1.854   2.966
 5556SOL    HW217568   6.286   1.825   2.806
 5557SOL     OW17569   3.973   6.691   2.594
 5557SOL    HW117570   3.899   6.637   2.636
 5557SOL    HW217571   4.051   6.632   2.576
 5558SOL     OW17572   3.297   3.847   6.018
 5558SOL    HW117573   3.227   3.841   6.089
 5558SOL    HW217574   3.377   3.793   6.046
 5559SOL     OW17575   2.267   0.057   1.145
 5559SOL    HW117576   2.192   0.054   1.211
 5559SOL    HW217577   2.333   7.006   1.167
 5560SOL     OW17578   0.289   5.620   1.725
 5560SOL    HW117579   0.203   5.589   1.684
 5560SOL    HW217580   0.365   5.593   1.666
 5561SOL     OW17581   1.437   1.237   4.374
 5561SOL    HW117582   1.507   1.288   4.424
 5561SOL    HW217583   1.427   1.146   4.414
 5562SOL     OW17584   4.080   2.496   6.410
 5562SOL    HW117585   4.069   2.466   6.505
 5562SOL    HW217586   3.994   2.483   6.361
 5563SOL     OW17587   3.506   4.992   2.590
 5563SOL    HW117588   3.490   5.066   2.524
 5563SOL    HW217589   3.589   4.942   2.565
 5564SOL     OW17590   4.914   7.009   0.975
 5564SOL    HW117591   4.840   0.008   0.911
 5564SOL    HW217592   4.888   6.930   1.032
 5565SOL     OW17593   4.538   2.216   6.203
 5565SOL    HW117594   4.580   2.129   6.227
 5565SOL    HW217595   4.453   2.228   6.255
 5566SOL     OW17596   1.282   3.892   6.900
 5566SOL    HW117597   1.318   3.801   6.921
 5566SOL    HW217598   1.183   3.892   6.912
 5567SOL     OW17599   0.077   3.061   1.022
 5567SOL    HW117600   0.097   3.029   1.115
 5567SOL    HW217601   0.154   3.116   0.989
 5568SOL     OW17602   5.109   1.516   3.706
 5568SOL    HW117603   5.048   1.582   3.664
 5568SOL    HW217604   5.059   1.462   3.774
 5569SOL     OW17605   1.809   1.962   2.664
 5569SOL    HW117606   1.788   1.968   2.762
 5569SOL    HW217607   1.830   2.054   2.629
 5570SOL     OW17608   6.834   3.895   4.934
 5570SOL    HW117609   6.863   3.803   4.909
 5570SOL    HW217610   6.803   3.896   5.029
 5571SOL     OW17611   6.182   6.392   0.442
 5571SOL    HW117612   6.101   6.338   0.415
 5571SOL    HW217613   6.152   6.475   0.489
 5572SOL     OW17614   1.278   2.960   4.865
 5572SOL    HW117615   1.259   3.055   4.840
 5572SOL    HW217616   1.363   2.930   4.822
 5573SOL     OW17617   2.078   5.473   5.110
 5573SOL    HW117618   2.166   5.507   5.141
 5573SOL    HW217619   2.083   5.374   5.097
 5574SOL     OW17620   6.793   1.938   2.722
 5574SOL    HW117621   6.763   1.982   2.807
 5574SOL    HW217622   6.724   1.953   2.651
 5575SOL     OW17623   6.954   1.169   1.199
 5575SOL    HW117624   6.952   1.076   1.162
 5575SOL    HW217625   6.972   1.165   1.297
 5576SOL     OW17626   0.946   4.776   1.539
 5576SOL    HW117627   0.863   4.829   1.558
 5576SOL    HW217628   1.010   4.785   1.615
 5577SOL     OW17629   3.200   3.083   5.756
 5577SOL    HW117630   3.144   3.074   5.674
 5577SOL    HW217631   3.146   3.057   5.837
 5578SOL     OW17632   3.683   3.801   1.374
 5578SOL    HW117633   3.684   3.813   1.274
 5578SOL    HW217634   3.698   3.705   1.396
 5579SOL     OW17635   0.680   3.226   1.134
 5579SOL    HW117636   0.695   3.304   1.073
 5579SOL    HW217637   0.584   3.198   1.130
 5580SOL     OW17638   5.202   2.458   5.790
 5580SOL    HW117639   5.173   2.485   5.698
 5580SOL    HW217640   5.300   2.479   5.802
 5581SOL     OW17641   1.477   6.916   1.782
 5581SOL    HW117642   1.418   6.939   1.705
 5581SOL    HW217643   1.443   6.960   1.865
 5582SOL     OW17644   3.294   3.587   5.536
 5582SOL    HW117645   3.249   3.517   5.591
 5582SOL    HW217646   3.325   3.661   5.596
 5583SOL     OW17647   5.094   0.674   3.044
 5583SOL    HW117648   5.034   0.706   3.118
 5583SOL    HW217649   5.051   0.597   2.997
 5584SOL     OW17650   6.267   5.644   3.518
 5584SOL    HW117651   6.265   5.636   3.618
 5584SOL    HW217652   6.354   5.686   3.490
 5585SOL     OW17653   5.256   5.031   3.363
 5585SOL    HW117654   5.211   5.013   3.276
 5585SOL    HW217655   5.195   5.004   3.438
 5586SOL     OW17656   0.557   2.578   6.009
 5586SOL    HW117657   0.470   2.590   6.059
 5586SOL    HW217658   0.624   2.645   6.043
 5587SOL     OW17659   4.511   6.576   1.275
 5587SOL    HW117660   4.469   6.558   1.364
 5587SOL    HW217661   4.577   6.503   1.254
 5588SOL     OW17662   2.249   5.394   2.988
 5588SOL    HW117663   2.233   5.395   2.889
 5588SOL    HW217664   2.165   5.366   3.035
 5589SOL     OW17665   6.663   3.171   5.576
 5589SOL    HW117666   6.732   3.230   5.535
 5589SOL    HW217667   6.623   3.217   5.655
 5590SOL     OW17668   0.196   6.381   3.641
 5590SOL    HW117669   0.105   6.386   3.682
 5590SOL    HW217670   0.190   6.397   3.543
 5591SOL     OW17671   5.151   1.411   0.742
 5591SOL    HW117672   5.133   1.476   0.668
 5591SOL    HW217673   5.100   1.438   0.823
 5592SOL     OW17674   0.438   5.490   2.379
 5592SOL    HW117675   0.514   5.514   2.439
 5592SOL    HW217676   0.421   5.391   2.385
 5593SOL     OW17677   0.992   3.214   0.352
 5593SOL    HW117678   0.978   3.312   0.343
 5593SOL    HW217679   1.046   3.195   0.434
 5594SOL     OW17680   4.601   0.823   6.379
 5594SOL    HW117681   4.620   0.849   6.474
 5594SOL    HW217682   4.502   0.828   6.363
 5595SOL     OW17683   6.826   0.744   4.635
 5595SOL    HW117684   6.842   0.785   4.546
 5595SOL    HW217685   6.889   0.667   4.648
 5596SOL     OW17686   4.706   0.624   3.061
 5596SOL    HW117687   4.783   0.661   3.113
 5596SOL    HW217688   4.648   0.699   3.030
 5597SOL     OW17689   4.937   3.029   5.085
 5597SOL    HW117690   4.866   2.961   5.101
 5597SOL    HW217691   4.967   3.068   5.172
 5598SOL     OW17692   5.624   4.256   3.594
 5598SOL    HW117693   5.600   4.191   3.522
 5598SOL    HW217694   5.663   4.338   3.553
 5599SOL     OW17695   0.619   2.205   1.927
 5599SOL    HW117696   0.594   2.141   2.000
 5599SOL    HW217697   0.586   2.296   1.949
 5600SOL     OW17698   1.420   1.235   1.364
 5600SOL    HW117699   1.418   1.146   1.318
 5600SOL    HW217700   1.474   1.299   1.310
 5601SOL     OW17701   2.069   1.099   6.696
 5601SOL    HW117702   2.059   1.064   6.790
 5601SOL    HW217703   2.162   1.079   6.664
 5602SOL     OW17704   0.273   1.837   1.544
 5602SOL    HW117705   0.207   1.792   1.604
 5602SOL    HW217706   0.280   1.933   1.568
 5603SOL     OW17707   5.970   2.445   0.421
 5603SOL    HW117708   6.032   2.456   0.499
 5603SOL    HW217709   5.896   2.382   0.446
 5604SOL     OW17710   6.423   2.478   4.287
 5604SOL    HW117711   6.437   2.564   4.337
 5604SOL    HW217712   6.328   2.471   4.259
 5605SOL     OW17713   0.007   0.906   4.918
 5605SOL    HW117714   0.088   0.867   4.961
 5605SOL    HW217715   0.034   0.958   4.837
 5606SOL     OW17716   5.224   6.155   0.360
 5606SOL    HW117717   5.235   6.122   0.454
 5606SOL    HW217718   5.195   6.251   0.362
 5607SOL     OW17719   5.906   1.334   2.768
 5607SOL    HW117720   5.861   1.249   2.742
 5607SOL    HW217721   5.852   1.381   2.837
 5608SOL     OW17722   5.655   0.214   3.636
 5608SOL    HW117723   5.692   0.290   3.690
 5608SOL    HW217724   5.710   0.202   3.553
 5609SOL     OW17725   3.339   5.953   1.331
 5609SOL    HW117726   3.269   6.020   1.309
 5609SOL    HW217727   3.375   5.971   1.422
 5610SOL     OW17728   4.709   5.452   0.735
 5610SOL    HW117729   4.694   5.524   0.802
 5610SOL    HW217730   4.632   5.389   0.736
 5611SOL     OW17731   0.867   6.052   2.631
 5611SOL    HW117732   0.904   6.048   2.724
 5611SOL    HW217733   0.897   6.137   2.587
 5612SOL     OW17734   3.755   2.075   5.923
 5612SOL    HW117735   3.823   2.071   5.995
 5612SOL    HW217736   3.680   2.012   5.944
 5613SOL     OW17737   6.646   4.901   3.639
 5613SOL    HW117738   6.692   4.812   3.643
 5613SOL    HW217739   6.706   4.971   3.677
 5614SOL     OW17740   4.673   2.206   4.324
 5614SOL    HW117741   4.643   2.233   4.416
 5614SOL    HW217742   4.605   2.237   4.257
 5615SOL     OW17743   6.761   1.262   3.494
 5615SOL    HW117744   6.820   1.325   3.544
 5615SOL    HW217745   6.721   1.196   3.557
 5616SOL     OW17746   2.747   2.246   4.114
 5616SOL    HW117747   2.765   2.280   4.206
 5616SOL    HW217748   2.832   2.250   4.060
 5617SOL     OW17749   2.843   6.304   5.553
 5617SOL    HW117750   2.872   6.210   5.568
 5617SOL    HW217751   2.923   6.365   5.559
 5618SOL     OW17752   0.524   4.309   3.950
 5618SOL    HW117753   0.533   4.360   3.865
 5618SOL    HW217754   0.427   4.297   3.971
 5619SOL     OW17755   3.668   3.859   4.948
 5619SOL    HW117756   3.739   3.930   4.945
 5619SOL    HW217757   3.609   3.875   5.027
 5620SOL     OW17758   4.385   3.668   0.602
 5620SOL    HW117759   4.339   3.639   0.686
 5620SOL    HW217760   4.428   3.589   0.559
 5621SOL     OW17761   2.479   2.590   0.337
 5621SOL    HW117762   2.387   2.551   0.340
 5621SOL    HW217763   2.512   2.605   0.430
 5622SOL     OW17764   4.654   0.356   5.781
 5622SOL    HW117765   4.604   0.432   5.740
 5622SOL    HW217766   4.681   0.381   5.874
 5623SOL     OW17767   3.927   5.735   5.338
 5623SOL    HW117768   4.004   5.676   5.362
 5623SOL    HW217769   3.953   5.831   5.351
 5624SOL     OW17770   0.829   4.748   3.608
 5624SOL    HW117771   0.912   4.742   3.663
 5624SOL    HW217772   0.766   4.675   3.634
 5625SOL     OW17773   5.605   0.485   4.884
 5625SOL    HW117774   5.611   0.545   4.963
 5625SOL    HW217775   5.540   0.411   4.902
 5626SOL     OW17776   2.287   5.827   4.643
 5626SOL    HW117777   2.210   5.889   4.630
 5626SOL    HW217778   2.329   5.844   4.732
 5627SOL     OW17779   0.510   5.553   6.042
 5627SOL    HW117780   0.549   5.593   5.960
 5627SOL    HW217781   0.433   5.609   6.074
 5628SOL     OW17782   1.514   2.194   2.209
 5628SOL    HW117783   1.602   2.153   2.233
 5628SOL    HW217784   1.460   2.209   2.291
 5629SOL     OW17785   3.752   3.697   2.344
 5629SOL    HW117786   3.748   3.613   2.398
 5629SOL    HW217787   3.664   3.744   2.348
 5630SOL     OW17788   1.802   3.391   6.705
 5630SOL    HW117789   1.771   3.464   6.643
 5630SOL    HW217790   1.868   3.429   6.770
 5631SOL     OW17791   4.749   2.361   1.248
 5631SOL    HW117792   4.712   2.360   1.341
 5631SOL    HW217793   4.674   2.367   1.183
 5632SOL     OW17794   3.147   2.094   6.053
 5632SOL    HW117795   3.231   2.060   6.095
 5632SOL    HW217796   3.170   2.164   5.985
 5633SOL     OW17797   6.321   4.092   4.511
 5633SOL    HW117798   6.254   4.086   4.438
 5633SOL    HW217799   6.409   4.122   4.473
 5634SOL     OW17800   1.935   5.160   3.978
 5634SOL    HW117801   1.999   5.223   3.935
 5634SOL    HW217802   1.985   5.097   4.037
 5635SOL     OW17803   1.788   4.743   5.536
 5635SOL    HW117804   1.796   4.824   5.479
 5635SOL    HW217805   1.839   4.756   5.621
 5636SOL     OW17806   4.594   6.946   4.566
 5636SOL    HW117807   4.685   6.961   4.527
 5636SOL    HW217808   4.582   6.849   4.588
 5637SOL     OW17809   5.326   0.553   2.844
 5637SOL    HW117810   5.397   0.547   2.774
 5637SOL    HW217811   5.240   0.581   2.800
 5638SOL     OW17812   6.222   3.971   0.671
 5638SOL    HW117813   6.196   3.898   0.609
 5638SOL    HW217814   6.320   3.965   0.691
 5639SOL     OW17815   1.027   0.986   2.474
 5639SOL    HW117816   1.111   0.958   2.519
 5639SOL    HW217817   0.999   0.914   2.409
 5640SOL     OW17818   3.682   0.432   3.683
 5640SOL    HW117819   3.619   0.509   3.689
 5640SOL    HW217820   3.760   0.457   3.626
 5641SOL     OW17821   0.887   4.818   5.117
 5641SOL    HW117822   0.896   4.817   5.017
 5641SOL    HW217823   0.911   4.909   5.152
 5642SOL     OW17824   1.482   6.531   5.142
 5642SOL    HW117825   1.388   6.504   5.160
 5642SOL    HW217826   1.514   6.487   5.058
 5643SOL     OW17827   4.143   1.129   5.381
 5643SOL    HW117828   4.217   1.079   5.425
 5643SOL    HW217829   4.174   1.222   5.359
 5644SOL     OW17830   3.293   0.353   5.171
 5644SOL    HW117831   3.364   0.423   5.178
 5644SOL    HW217832   3.204   0.393   5.197
 5645SOL     OW17833   5.986   4.990   3.799
 5645SOL    HW117834   6.041   4.992   3.882
 5645SOL    HW217835   6.019   4.917   3.739
 5646SOL     OW17836   1.311   4.956   3.542
 5646SOL    HW117837   1.213   4.938   3.534
 5646SOL    HW217838   1.351   4.890   3.606
 5647SOL     OW17839   5.117   5.551   1.237
 5647SOL    HW117840   5.196   5.602   1.271
 5647SOL    HW217841   5.115   5.461   1.280
 5648SOL     OW17842   1.704   6.733   2.678
 5648SOL    HW117843   1.667   6.695   2.763
 5648SOL    HW217844   1.790   6.779   2.696
 5649SOL     OW17845   0.660   0.148   4.022
 5649SOL    HW117846   0.663   0.060   4.070
 5649SOL    HW217847   0.721   0.213   4.068
 5650SOL     OW17848   0.455   5.766   1.072
 5650SOL    HW117849   0.395   5.710   1.015
 5650SOL    HW217850   0.479   5.849   1.022
 5651SOL     OW17851   1.660   0.519   1.435
 5651SOL    HW117852   1.668   0.450   1.507
 5651SOL    HW217853   1.751   0.539   1.399
 5652SOL     OW17854   6.199   0.288   1.597
 5652SOL    HW117855   6.134   0.216   1.617
 5652SOL    HW217856   6.188   0.318   1.502
 5653SOL     OW17857   6.216   6.406   6.282
 5653SOL    HW117858   6.138   6.469   6.279
 5653SOL    HW217859   6.301   6.458   6.276
 5654SOL     OW17860   0.667   6.355   5.530
 5654SOL    HW117861   0.705   6.269   5.495
 5654SOL    HW217862   0.571   6.362   5.504
 5655SOL     OW17863   1.197   3.780   4.234
 5655SOL    HW117864   1.180   3.771   4.332
 5655SOL    HW217865   1.123   3.831   4.192
 5656SOL     OW17866   0.010   4.042   6.498
 5656SOL    HW117867   0.053   4.094   6.425
 5656SOL    HW217868   0.067   3.964   6.523
 5657SOL     OW17869   6.154   2.544   6.958
 5657SOL    HW117870   6.060   2.574   6.943
 5657SOL    HW217871   6.177   2.472   6.892
 5658SOL     OW17872   3.002   2.977   6.716
 5658SOL    HW117873   3.003   3.071   6.680
 5658SOL    HW217874   2.974   2.978   6.812
 5659SOL     OW17875   3.233   3.337   5.263
 5659SOL    HW117876   3.221   3.351   5.361
 5659SOL    HW217877   3.158   3.382   5.214
 5660SOL     OW17878   4.200   6.895   6.507
 5660SOL    HW117879   4.130   6.888   6.578
 5660SOL    HW217880   4.281   6.843   6.535
 5661SOL     OW17881   1.905   5.728   4.978
 5661SOL    HW117882   1.923   5.725   5.076
 5661SOL    HW217883   1.807   5.714   4.962
 5662SOL     OW17884   2.719   6.700   4.269
 5662SOL    HW117885   2.728   6.726   4.173
 5662SOL    HW217886   2.641   6.748   4.309
 5663SOL     OW17887   2.222   2.035   0.466
 5663SOL    HW117888   2.252   2.124   0.430
 5663SOL    HW217889   2.298   1.990   0.512
 5664SOL     OW17890   0.358   3.414   4.284
 5664SOL    HW117891   0.433   3.441   4.224
 5664SOL    HW217892   0.364   3.316   4.303
 5665SOL     OW17893   2.468   0.827   0.361
 5665SOL    HW117894   2.388   0.845   0.418
 5665SOL    HW217895   2.487   0.908   0.305
 5666SOL     OW17896   6.502   6.701   3.435
 5666SOL    HW117897   6.571   6.772   3.420
 5666SOL    HW217898   6.513   6.663   3.527
 5667SOL     OW17899   1.818   4.905   4.907
 5667SOL    HW117900   1.877   4.887   4.829
 5667SOL    HW217901   1.821   5.003   4.929
 5668SOL     OW17902   5.479   3.093   3.379
 5668SOL    HW117903   5.577   3.076   3.385
 5668SOL    HW217904   5.441   3.102   3.471
 5669SOL     OW17905   6.575   3.709   0.952
 5669SOL    HW117906   6.576   3.614   0.983
 5669SOL    HW217907   6.595   3.770   1.028
 5670SOL     OW17908   0.894   4.006   4.117
 5670SOL    HW117909   0.880   4.013   4.215
 5670SOL    HW217910   0.975   4.060   4.091
 5671SOL     OW17911   6.076   5.852   5.305
 5671SOL    HW117912   6.062   5.866   5.403
 5671SOL    HW217913   6.140   5.920   5.269
 5672SOL     OW17914   4.642   3.609   6.694
 5672SOL    HW117915   4.572   3.639   6.758
 5672SOL    HW217916   4.599   3.575   6.610
 5673SOL     OW17917   1.959   6.663   0.929
 5673SOL    HW117918   1.982   6.617   0.843
 5673SOL    HW217919   1.903   6.744   0.909
 5674SOL     OW17920   0.755   4.255   5.131
 5674SOL    HW117921   0.833   4.307   5.095
 5674SOL    HW217922   0.707   4.310   5.198
 5675SOL     OW17923   4.433   2.981   6.029
 5675SOL    HW117924   4.483   2.944   5.951
 5675SOL    HW217925   4.491   2.979   6.110
 5676SOL     OW17926   2.815   1.579   2.669
 5676SOL    HW117927   2.745   1.520   2.630
 5676SOL    HW217928   2.905   1.544   2.643
 5677SOL     OW17929   0.534   1.086   0.689
 5677SOL    HW117930   0.483   1.027   0.627
 5677SOL    HW217931   0.483   1.097   0.774
 5678SOL     OW17932   4.079   0.012   2.761
 5678SOL    HW117933   4.005   0.077   2.745
 5678SOL    HW217934   4.042   6.947   2.796
 5679SOL     OW17935   6.383   1.578   3.695
 5679SOL    HW117936   6.322   1.532   3.760
 5679SOL    HW217937   6.332   1.600   3.612
 5680SOL     OW17938   1.596   5.462   6.217
 5680SOL    HW117939   1.604   5.364   6.236
 5680SOL    HW217940   1.511   5.480   6.167
 5681SOL     OW17941   0.805   3.439   2.023
 5681SOL    HW117942   0.887   3.487   1.990
 5681SOL    HW217943   0.726   3.469   1.969
 5682SOL     OW17944   1.986   5.426   4.804
 5682SOL    HW117945   1.908   5.441   4.865
 5682SOL    HW217946   1.959   5.446   4.710
 5683SOL     OW17947   3.998   1.179   5.743
 5683SOL    HW117948   4.076   1.229   5.783
 5683SOL    HW217949   4.032   1.100   5.692
 5684SOL     OW17950   2.273   3.763   6.222
 5684SOL    HW117951   2.301   3.682   6.274
 5684SOL    HW217952   2.174   3.768   6.218
 5685SOL     OW17953   2.117   1.352   3.648
 5685SOL    HW117954   2.210   1.317   3.662
 5685SOL    HW217955   2.058   1.316   3.720
 5686SOL     OW17956   2.929   1.626   6.099
 5686SOL    HW117957   2.899   1.635   6.004
 5686SOL    HW217958   2.930   1.716   6.142
 5687SOL     OW17959   0.206   5.347   6.392
 5687SOL    HW117960   0.241   5.343   6.298
 5687SOL    HW217961   0.167   5.258   6.416
 5688SOL     OW17962   1.432   2.670   2.463
 5688SOL    HW117963   1.423   2.600   2.534
 5688SOL    HW217964   1.505   2.733   2.487
 5689SOL     OW17965   2.893   1.602   1.494
 5689SOL    HW117966   2.927   1.694   1.513
 5689SOL    HW217967   2.883   1.591   1.395
 5690SOL     OW17968   1.398   6.276   0.386
 5690SOL    HW117969   1.356   6.362   0.357
 5690SOL    HW217970   1.468   6.249   0.320
 5691SOL     OW17971   4.103   0.530   2.422
 5691SOL    HW117972   4.012   0.504   2.389
 5691SOL    HW217973   4.173   0.483   2.368
 5692SOL     OW17974   5.555   3.802   0.587
 5692SOL    HW117975   5.630   3.783   0.650
 5692SOL    HW217976   5.508   3.886   0.615
 5693SOL     OW17977   4.098   1.504   2.653
 5693SOL    HW117978   4.171   1.571   2.642
 5693SOL    HW217979   4.060   1.481   2.564
 5694SOL     OW17980   1.154   1.388   3.101
 5694SOL    HW117981   1.059   1.406   3.128
 5694SOL    HW217982   1.177   1.443   3.020
 5695SOL     OW17983   1.742   2.215   4.030
 5695SOL    HW117984   1.716   2.275   3.954
 5695SOL    HW217985   1.777   2.128   3.993
 5696SOL     OW17986   0.795   0.818   3.833
 5696SOL    HW117987   0.844   0.785   3.753
 5696SOL    HW217988   0.851   0.886   3.881
 5697SOL     OW17989   5.854   2.207   1.842
 5697SOL    HW117990   5.771   2.208   1.787
 5697SOL    HW217991   5.843   2.268   1.921
 5698SOL     OW17992   0.722   4.536   4.045
 5698SOL    HW117993   0.770   4.465   4.096
 5698SOL    HW217994   0.750   4.626   4.078
 5699SOL     OW17995   0.945   2.810   2.765
 5699SOL    HW117996   0.938   2.746   2.841
 5699SOL    HW217997   1.040   2.843   2.757
 5700SOL     OW17998   6.558   6.969   3.698
 5700SOL    HW117999   6.486   6.901   3.695
 5700SOL    HW218000   6.558   0.001   3.613
 5701SOL     OW18001   0.626   0.466   1.214
 5701SOL    HW118002   0.556   0.491   1.281
 5701SOL    HW218003   0.622   0.529   1.137
 5702SOL     OW18004   2.709   5.515   4.369
 5702SOL    HW118005   2.703   5.596   4.311
 5702SOL    HW218006   2.751   5.440   4.318
 5703SOL     OW18007   6.354   4.431   0.462
 5703SOL    HW118008   6.295   4.375   0.521
 5703SOL    HW218009   6.427   4.374   0.425
 5704SOL     OW18010   4.690   4.301   3.025
 5704SOL    HW118011   4.683   4.206   2.995
 5704SOL    HW218012   4.678   4.362   2.946
 5705SOL     OW18013   4.903   6.442   0.000
 5705SOL    HW118014   4.893   6.498   6.939
 5705SOL    HW218015   4.926   6.500   0.078
 5706SOL     OW18016   6.765   3.046   2.320
 5706SOL    HW118017   6.787   3.124   2.261
 5706SOL    HW218018   6.773   3.073   2.416
 5707SOL     OW18019   6.664   6.863   0.806
 5707SOL    HW118020   6.612   6.818   0.734
 5707SOL    HW218021   6.754   6.819   0.816
 5708SOL     OW18022   4.912   5.769   2.348
 5708SOL    HW118023   4.849   5.716   2.292
 5708SOL    HW218024   4.914   5.731   2.441
 5709SOL     OW18025   1.298   1.320   2.133
 5709SOL    HW118026   1.285   1.365   2.221
 5709SOL    HW218027   1.225   1.348   2.070
 5710SOL     OW18028   3.092   2.885   0.570
 5710SOL    HW118029   3.078   2.787   0.555
 5710SOL    HW218030   3.102   2.931   0.482
 5711SOL     OW18031   5.108   1.285   2.563
 5711SOL    HW118032   5.058   1.265   2.479
 5711SOL    HW218033   5.065   1.362   2.610
 5712SOL     OW18034   6.143   0.185   0.282
 5712SOL    HW118035   6.149   0.120   0.206
 5712SOL    HW218036   6.050   0.220   0.287
 5713SOL     OW18037   2.868   4.040   1.505
 5713SOL    HW118038   2.908   4.102   1.573
 5713SOL    HW218039   2.813   3.971   1.551
 5714SOL     OW18040   6.888   5.709   0.902
 5714SOL    HW118041   6.878   5.718   1.001
 5714SOL    HW218042   6.876   5.798   0.859
 5715SOL     OW18043   0.703   0.709   2.486
 5715SOL    HW118044   0.747   0.745   2.569
 5715SOL    HW218045   0.641   0.777   2.449
 5716SOL     OW18046   1.204   4.747   6.038
 5716SOL    HW118047   1.184   4.678   6.107
 5716SOL    HW218048   1.259   4.706   5.965
 5717SOL     OW18049   1.906   5.030   0.676
 5717SOL    HW118050   1.846   5.079   0.739
 5717SOL    HW218051   1.968   4.970   0.728
 5718SOL     OW18052   0.541   3.313   0.364
 5718SOL    HW118053   0.586   3.351   0.283
 5718SOL    HW218054   0.474   3.244   0.336
 5719SOL     OW18055   1.828   2.749   0.097
 5719SOL    HW118056   1.845   2.674   0.034
 5719SOL    HW218057   1.729   2.764   0.105
 5720SOL     OW18058   2.402   6.218   4.930
 5720SOL    HW118059   2.438   6.253   5.016
 5720SOL    HW218060   2.436   6.126   4.914
 5721SOL     OW18061   6.029   3.981   1.018
 5721SOL    HW118062   6.096   3.994   1.092
 5721SOL    HW218063   5.950   3.931   1.054
 5722SOL     OW18064   6.763   2.036   4.961
 5722SOL    HW118065   6.663   2.036   4.965
 5722SOL    HW218066   6.794   1.981   4.884
 5723SOL     OW18067   4.188   3.255   0.199
 5723SOL    HW118068   4.105   3.303   0.227
 5723SOL    HW218069   4.257   3.265   0.270
 5724SOL     OW18070   5.593   2.703   4.434
 5724SOL    HW118071   5.510   2.668   4.390
 5724SOL    HW218072   5.667   2.709   4.367
 5725SOL     OW18073   6.329   5.292   3.547
 5725SOL    HW118074   6.359   5.358   3.615
 5725SOL    HW218075   6.408   5.256   3.498
 5726SOL     OW18076   6.748   5.330   4.240
 5726SOL    HW118077   6.771   5.410   4.185
 5726SOL    HW218078   6.814   5.322   4.315
 5727SOL     OW18079   6.147   2.416   4.284
 5727SOL    HW118080   6.076   2.451   4.223
 5727SOL    HW218081   6.112   2.337   4.335
 5728SOL     OW18082   4.236   5.910   5.658
 5728SOL    HW118083   4.313   5.849   5.672
 5728SOL    HW218084   4.221   5.965   5.740
 5729SOL     OW18085   2.450   0.596   0.194
 5729SOL    HW118086   2.456   0.674   0.257
 5729SOL    HW218087   2.486   0.515   0.239
 5730SOL     OW18088   5.284   4.903   6.091
 5730SOL    HW118089   5.236   4.849   6.160
 5730SOL    HW218090   5.228   4.982   6.066
 5731SOL     OW18091   0.067   6.901   2.992
 5731SOL    HW118092   0.011   6.974   2.953
 5731SOL    HW218093   0.160   6.907   2.955
 5732SOL     OW18094   0.638   5.728   4.072
 5732SOL    HW118095   0.663   5.664   4.000
 5732SOL    HW218096   0.600   5.811   4.032
 5733SOL     OW18097   3.003   6.480   5.320
 5733SOL    HW118098   2.943   6.432   5.256
 5733SOL    HW218099   3.030   6.568   5.281
 5734SOL     OW18100   1.210   0.379   5.177
 5734SOL    HW118101   1.133   0.395   5.238
 5734SOL    HW218102   1.283   0.445   5.197
 5735SOL     OW18103   4.049   1.589   1.205
 5735SOL    HW118104   4.124   1.635   1.158
 5735SOL    HW218105   3.965   1.598   1.151
 5736SOL     OW18106   5.980   3.870   0.219
 5736SOL    HW118107   5.992   3.968   0.205
 5736SOL    HW218108   6.026   3.820   0.146
 5737SOL     OW18109   5.857   6.400   0.033
 5737SOL    HW118110   5.848   6.497   0.011
 5737SOL    HW218111   5.916   6.355   6.988
 5738SOL     OW18112   1.891   2.366   6.137
 5738SOL    HW118113   1.905   2.321   6.049
 5738SOL    HW218114   1.823   2.438   6.127
 5739SOL     OW18115   1.611   0.942   6.080
 5739SOL    HW118116   1.540   0.872   6.084
 5739SOL    HW218117   1.619   0.977   5.986
 5740SOL     OW18118   4.423   4.801   0.895
 5740SOL    HW118119   4.330   4.832   0.914
 5740SOL    HW218120   4.463   4.859   0.824
 5741SOL     OW18121   1.033   5.409   4.843
 5741SOL    HW118122   0.997   5.386   4.753
 5741SOL    HW218123   1.002   5.341   4.910
 5742SOL     OW18124   5.469   6.468   2.799
 5742SOL    HW118125   5.404   6.522   2.746
 5742SOL    HW218126   5.432   6.451   2.891
 5743SOL     OW18127   2.243   6.590   5.023
 5743SOL    HW118128   2.150   6.620   5.002
 5743SOL    HW218129   2.240   6.505   5.075
 5744SOL     OW18130   4.378   0.031   2.058
 5744SOL    HW118131   4.453   0.002   2.118
 5744SOL    HW218132   4.368   6.986   1.983
 5745SOL     OW18133   3.724   0.659   3.935
 5745SOL    HW118134   3.723   0.745   3.884
 5745SOL    HW218135   3.796   0.600   3.897
 5746SOL     OW18136   5.182   0.423   1.372
 5746SOL    HW118137   5.132   0.446   1.288
 5746SOL    HW218138   5.280   0.433   1.356
 5747SOL     OW18139   0.426   4.634   2.227
 5747SOL    HW118140   0.398   4.544   2.259
 5747SOL    HW218141   0.401   4.703   2.294
 5748SOL     OW18142   1.359   5.253   0.643
 5748SOL    HW118143   1.303   5.328   0.678
 5748SOL    HW218144   1.302   5.171   0.631
 5749SOL     OW18145   2.411   0.638   4.647
 5749SOL    HW118146   2.437   0.660   4.742
 5749SOL    HW218147   2.334   0.573   4.648
 5750SOL     OW18148   6.309   5.234   4.598
 5750SOL    HW118149   6.312   5.210   4.500
 5750SOL    HW218150   6.214   5.234   4.629
 5751SOL     OW18151   2.340   2.709   4.532
 5751SOL    HW118152   2.431   2.677   4.557
 5751SOL    HW218153   2.271   2.653   4.578
 5752SOL     OW18154   6.521   0.517   6.529
 5752SOL    HW118155   6.461   0.479   6.459
 5752SOL    HW218156   6.471   0.583   6.584
 5753SOL     OW18157   2.936   3.530   5.796
 5753SOL    HW118158   3.031   3.561   5.809
 5753SOL    HW218159   2.913   3.535   5.699
 5754SOL     OW18160   5.761   5.076   1.290
 5754SOL    HW118161   5.720   5.103   1.377
 5754SOL    HW218162   5.711   5.119   1.215
 5755SOL     OW18163   2.812   3.288   5.833
 5755SOL    HW118164   2.859   3.374   5.852
 5755SOL    HW218165   2.738   3.275   5.900
 5756SOL     OW18166   6.466   5.394   3.161
 5756SOL    HW118167   6.528   5.472   3.172
 5756SOL    HW218168   6.467   5.365   3.065
 5757SOL     OW18169   6.546   6.631   2.621
 5757SOL    HW118170   6.544   6.685   2.537
 5757SOL    HW218171   6.584   6.686   2.695
 5758SOL     OW18172   3.065   1.555   4.045
 5758SOL    HW118173   3.139   1.622   4.052
 5758SOL    HW218174   3.104   1.464   4.032
 5759SOL     OW18175   4.626   1.499   6.380
 5759SOL    HW118176   4.562   1.575   6.390
 5759SOL    HW218177   4.591   1.434   6.312
 5760SOL     OW18178   1.699   5.244   1.805
 5760SOL    HW118179   1.688   5.159   1.754
 5760SOL    HW218180   1.797   5.260   1.822
 5761SOL     OW18181   5.287   0.234   5.943
 5761SOL    HW118182   5.189   0.231   5.964
 5761SOL    HW218183   5.302   0.299   5.869
 5762SOL     OW18184   4.713   6.803   0.226
 5762SOL    HW118185   4.807   6.788   0.197
 5762SOL    HW218186   4.706   6.795   0.325
 5763SOL     OW18187   0.178   0.479   0.349
 5763SOL    HW118188   0.191   0.577   0.368
 5763SOL    HW218189   0.164   0.430   0.434
 5764SOL     OW18190   5.393   4.561   6.459
 5764SOL    HW118191   5.467   4.550   6.392
 5764SOL    HW218192   5.315   4.506   6.431
 5765SOL     OW18193   6.787   3.945   6.483
 5765SOL    HW118194   6.871   3.999   6.491
 5765SOL    HW218195   6.752   3.952   6.389
 5766SOL     OW18196   2.716   1.690   1.021
 5766SOL    HW118197   2.790   1.739   0.976
 5766SOL    HW218198   2.753   1.607   1.064
 5767SOL     OW18199   2.780   0.049   0.409
 5767SOL    HW118200   2.860   0.032   0.351
 5767SOL    HW218201   2.753   6.985   0.454
 5768SOL     OW18202   0.214   6.948   3.309
 5768SOL    HW118203   0.194   0.008   3.365
 5768SOL    HW218204   0.176   6.867   3.354
 5769SOL     OW18205   2.494   0.147   3.802
 5769SOL    HW118206   2.528   0.060   3.837
 5769SOL    HW218207   2.555   0.178   3.728
 5770SOL     OW18208   0.226   6.529   0.952
 5770SOL    HW118209   0.184   6.443   0.922
 5770SOL    HW218210   0.280   6.567   0.877
 5771SOL     OW18211   1.210   5.848   2.092
 5771SOL    HW118212   1.143   5.921   2.086
 5771SOL    HW218213   1.199   5.787   2.013
 5772SOL     OW18214   5.747   2.605   0.514
 5772SOL    HW118215   5.811   2.559   0.452
 5772SOL    HW218216   5.795   2.677   0.564
 5773SOL     OW18217   5.587   0.823   3.955
 5773SOL    HW118218   5.620   0.744   4.007
 5773SOL    HW218219   5.534   0.883   4.016
 5774SOL     OW18220   2.400   5.487   4.055
 5774SOL    HW118221   2.419   5.463   4.150
 5774SOL    HW218222   2.326   5.555   4.051
 5775SOL     OW18223   1.459   6.731   1.052
 5775SOL    HW118224   1.518   6.675   1.110
 5775SOL    HW218225   1.368   6.737   1.093
 5776SOL     OW18226   0.010   0.970   6.200
 5776SOL    HW118227   0.049   0.895   6.147
 5776SOL    HW218228   6.935   0.984   6.172
 5777SOL     OW18229   6.151   0.665   4.437
 5777SOL    HW118230   6.228   0.702   4.488
 5777SOL    HW218231   6.161   0.566   4.428
 5778SOL     OW18232   2.057   7.014   1.325
 5778SOL    HW118233   2.087   6.921   1.347
 5778SOL    HW218234   1.958   7.020   1.332
 5779SOL     OW18235   4.159   0.681   1.266
 5779SOL    HW118236   4.155   0.754   1.334
 5779SOL    HW218237   4.108   0.602   1.299
 5780SOL     OW18238   6.221   5.056   2.347
 5780SOL    HW118239   6.202   4.960   2.326
 5780SOL    HW218240   6.280   5.094   2.276
 5781SOL     OW18241   1.742   4.256   5.101
 5781SOL    HW118242   1.673   4.237   5.170
 5781SOL    HW218243   1.777   4.169   5.064
 5782SOL     OW18244   1.389   0.984   1.261
 5782SOL    HW118245   1.482   0.963   1.232
 5782SOL    HW218246   1.335   0.900   1.263
 5783SOL     OW18247   1.759   1.072   0.954
 5783SOL    HW118248   1.739   1.004   1.025
 5783SOL    HW218249   1.856   1.096   0.957
 5784SOL     OW18250   0.572   6.469   0.418
 5784SOL    HW118251   0.659   6.490   0.374
 5784SOL    HW218252   0.585   6.398   0.487
 5785SOL     OW18253   1.638   1.981   1.336
 5785SOL    HW118254   1.582   2.038   1.396
 5785SOL    HW218255   1.579   1.926   1.277
 5786SOL     OW18256   1.217   4.163   0.732
 5786SOL    HW118257   1.174   4.251   0.751
 5786SOL    HW218258   1.182   4.126   0.646
 5787SOL     OW18259   4.960   2.440   4.286
 5787SOL    HW118260   4.954   2.393   4.198
 5787SOL    HW218261   4.917   2.530   4.279
 5788SOL     OW18262   3.270   0.298   1.243
 5788SOL    HW118263   3.305   0.243   1.319
 5788SOL    HW218264   3.346   0.344   1.196
 5789SOL     OW18265   3.785   2.244   6.252
 5789SOL    HW118266   3.688   2.231   6.229
 5789SOL    HW218267   3.804   2.342   6.261
 5790SOL     OW18268   6.558   5.780   5.265
 5790SOL    HW118269   6.619   5.745   5.194
 5790SOL    HW218270   6.589   5.871   5.293
 5791SOL     OW18271   3.301   1.345   2.406
 5791SOL    HW118272   3.248   1.261   2.397
 5791SOL    HW218273   3.368   1.350   2.332
 5792SOL     OW18274   4.844   3.809   3.223
 5792SOL    HW118275   4.841   3.709   3.221
 5792SOL    HW218276   4.939   3.839   3.226
 5793SOL     OW18277   6.212   1.530   5.705
 5793SOL    HW118278   6.112   1.518   5.710
 5793SOL    HW218279   6.255   1.482   5.781
 5794SOL     OW18280   3.390   6.850   6.546
 5794SOL    HW118281   3.345   6.938   6.563
 5794SOL    HW218282   3.320   6.780   6.535
 5795SOL     OW18283   0.831   6.130   1.640
 5795SOL    HW118284   0.888   6.158   1.562
 5795SOL    HW218285   0.740   6.170   1.631
 5796SOL     OW18286   4.635   0.592   6.934
 5796SOL    HW118287   4.720   0.596   6.987
 5796SOL    HW218288   4.559   0.624   6.990
 5797SOL     OW18289   5.641   1.302   0.127
 5797SOL    HW118290   5.653   1.392   0.169
 5797SOL    HW218291   5.599   1.240   0.193
 5798SOL     OW18292   0.947   4.194   4.747
 5798SOL    HW118293   1.034   4.146   4.752
 5798SOL    HW218294   0.873   4.127   4.740
 5799SOL     OW18295   0.615   6.808   2.550
 5799SOL    HW118296   0.714   6.812   2.568
 5799SOL    HW218297   0.583   6.714   2.561
 5800SOL     OW18298   1.015   0.214   0.963
 5800SOL    HW118299   0.951   0.247   0.894
 5800SOL    HW218300   0.968   0.150   1.025
 5801SOL     OW18301   2.458   2.492   3.608
 5801SOL    HW118302   2.432   2.575   3.559
 5801SOL    HW218303   2.388   2.471   3.676
 5802SOL     OW18304   6.189   3.596   2.725
 5802SOL    HW118305   6.150   3.659   2.792
 5802SOL    HW218306   6.261   3.543   2.768
 5803SOL     OW18307   0.853   4.746   4.151
 5803SOL    HW118308   0.860   4.844   4.133
 5803SOL    HW218309   0.817   4.731   4.243
 5804SOL     OW18310   6.923   6.380   3.698
 5804SOL    HW118311   6.966   6.291   3.686
 5804SOL    HW218312   6.876   6.405   3.613
 5805SOL     OW18313   1.306   3.291   0.884
 5805SOL    HW118314   1.234   3.223   0.869
 5805SOL    HW218315   1.337   3.285   0.979
 5806SOL     OW18316   6.821   4.186   4.586
 5806SOL    HW118317   6.792   4.142   4.501
 5806SOL    HW218318   6.771   4.147   4.662
 5807SOL     OW18319   1.455   6.154   1.385
 5807SOL    HW118320   1.410   6.243   1.385
 5807SOL    HW218321   1.437   6.108   1.298
 5808SOL     OW18322   6.748   6.995   4.451
 5808SOL    HW118323   6.678   6.943   4.500
 5808SOL    HW218324   6.745   6.972   4.354
 5809SOL     OW18325   0.476   2.232   5.716
 5809SOL    HW118326   0.566   2.238   5.759
 5809SOL    HW218327   0.406   2.267   5.779
 5810SOL     OW18328   3.964   0.310   4.781
 5810SOL    HW118329   3.876   0.286   4.740
 5810SOL    HW218330   4.027   0.341   4.709
 5811SOL     OW18331   2.611   2.315   5.500
 5811SOL    HW118332   2.575   2.223   5.515
 5811SOL    HW218333   2.536   2.381   5.504
 5812SOL     OW18334   5.781   3.425   6.672
 5812SOL    HW118335   5.705   3.364   6.692
 5812SOL    HW218336   5.798   3.484   6.751
 5813SOL     OW18337   2.990   5.997   1.199
 5813SOL    HW118338   3.046   6.075   1.227
 5813SOL    HW218339   2.996   5.925   1.269
 5814SOL     OW18340   6.829   2.165   2.025
 5814SOL    HW118341   6.748   2.132   1.976
 5814SOL    HW218342   6.911   2.136   1.976
 5815SOL     OW18343   5.914   1.909   4.012
 5815SOL    HW118344   5.863   1.977   3.959
 5815SOL    HW218345   5.862   1.883   4.093
 5816SOL     OW18346   0.044   4.985   2.008
 5816SOL    HW118347   0.103   5.059   2.039
 5816SOL    HW218348   0.097   4.900   2.004
 5817SOL     OW18349   5.860   4.404   5.255
 5817SOL    HW118350   5.914   4.397   5.340
 5817SOL    HW218351   5.778   4.348   5.263
 5818SOL     OW18352   0.971   5.810   5.309
 5818SOL    HW118353   0.883   5.849   5.279
 5818SOL    HW218354   1.044   5.877   5.293
 5819SOL     OW18355   2.865   4.889   6.741
 5819SOL    HW118356   2.826   4.822   6.677
 5819SOL    HW218357   2.883   4.974   6.693
 5820SOL     OW18358   4.586   4.623   2.210
 5820SOL    HW118359   4.666   4.680   2.228
 5820SOL    HW218360   4.566   4.625   2.112
 5821SOL     OW18361   6.530   1.005   1.622
 5821SOL    HW118362   6.546   1.070   1.697
 5821SOL    HW218363   6.562   0.915   1.650
 5822SOL     OW18364   1.213   2.432   2.865
 5822SOL    HW118365   1.152   2.421   2.943
 5822SOL    HW218366   1.161   2.422   2.780
 5823SOL     OW18367   2.461   6.306   4.498
 5823SOL    HW118368   2.410   6.375   4.549
 5823SOL    HW218369   2.449   6.217   4.542
 5824SOL     OW18370   0.901   0.141   2.266
 5824SOL    HW118371   0.911   0.045   2.241
 5824SOL    HW218372   0.899   0.197   2.183
 5825SOL     OW18373   0.200   6.145   4.825
 5825SOL    HW118374   0.277   6.121   4.767
 5825SOL    HW218375   0.176   6.067   4.883
 5826SOL     OW18376   6.784   0.234   5.520
 5826SOL    HW118377   6.756   0.215   5.426
 5826SOL    HW218378   6.764   0.154   5.577
 5827SOL     OW18379   0.975   3.778   5.210
 5827SOL    HW118380   0.933   3.692   5.182
 5827SOL    HW218381   0.919   3.822   5.280
 5828SOL     OW18382   5.252   0.967   3.780
 5828SOL    HW118383   5.256   0.867   3.787
 5828SOL    HW218384   5.170   0.993   3.730
 5829SOL     OW18385   1.254   0.106   5.130
 5829SOL    HW118386   1.245   0.198   5.169
 5829SOL    HW218387   1.350   0.078   5.133
 5830SOL     OW18388   4.403   5.530   5.617
 5830SOL    HW118389   4.425   5.470   5.540
 5830SOL    HW218390   4.333   5.486   5.674
 5831SOL     OW18391   0.981   1.825   5.445
 5831SOL    HW118392   0.924   1.901   5.414
 5831SOL    HW218393   1.077   1.853   5.444
 5832SOL     OW18394   3.706   4.588   1.366
 5832SOL    HW118395   3.655   4.672   1.389
 5832SOL    HW218396   3.694   4.569   1.269
 5833SOL     OW18397   4.037   3.455   5.410
 5833SOL    HW118398   4.000   3.491   5.324
 5833SOL    HW218399   3.971   3.470   5.484
 5834SOL     OW18400   6.607   3.567   6.524
 5834SOL    HW118401   6.553   3.482   6.531
 5834SOL    HW218402   6.692   3.548   6.475
 5835SOL     OW18403   6.020   1.716   2.578
 5835SOL    HW118404   5.923   1.719   2.554
 5835SOL    HW218405   6.072   1.768   2.510
 5836SOL     OW18406   3.278   6.613   2.337
 5836SOL    HW118407   3.228   6.633   2.421
 5836SOL    HW218408   3.359   6.671   2.331
 5837SOL     OW18409   3.924   3.886   0.179
 5837SOL    HW118410   3.964   3.857   0.266
 5837SOL    HW218411   3.915   3.985   0.177
 5838SOL     OW18412   2.451   1.672   1.222
 5838SOL    HW118413   2.495   1.589   1.189
 5838SOL    HW218414   2.353   1.656   1.233
 5839SOL     OW18415   0.630   2.705   1.474
 5839SOL    HW118416   0.693   2.675   1.546
 5839SOL    HW218417   0.640   2.646   1.394
 5840SOL     OW18418   0.218   3.944   1.633
 5840SOL    HW118419   0.170   3.988   1.708
 5840SOL    HW218420   0.256   3.857   1.665
 5841SOL     OW18421   4.839   0.902   1.837
 5841SOL    HW118422   4.885   0.863   1.757
 5841SOL    HW218423   4.769   0.839   1.870
 5842SOL     OW18424   4.043   2.173   0.610
 5842SOL    HW118425   4.030   2.137   0.702
 5842SOL    HW218426   3.958   2.214   0.577
 5843SOL     OW18427   2.221   3.748   1.378
 5843SOL    HW118428   2.297   3.809   1.354
 5843SOL    HW218429   2.157   3.743   1.302
 5844SOL     OW18430   0.831   6.205   4.983
 5844SOL    HW118431   0.797   6.295   4.956
 5844SOL    HW218432   0.919   6.188   4.938
 5845SOL     OW18433   0.231   0.070   1.753
 5845SOL    HW118434   0.196   7.006   1.791
 5845SOL    HW218435   0.189   0.148   1.800
 5846SOL     OW18436   6.317   3.788   5.634
 5846SOL    HW118437   6.247   3.725   5.669
 5846SOL    HW218438   6.292   3.818   5.542
 5847SOL     OW18439   2.773   2.866   1.683
 5847SOL    HW118440   2.829   2.795   1.725
 5847SOL    HW218441   2.677   2.854   1.708
 5848SOL     OW18442   2.158   6.319   4.144
 5848SOL    HW118443   2.136   6.402   4.094
 5848SOL    HW218444   2.181   6.341   4.239
 5849SOL     OW18445   2.038   6.449   5.661
 5849SOL    HW118446   2.027   6.548   5.672
 5849SOL    HW218447   1.988   6.418   5.580
 5850SOL     OW18448   1.261   3.144   1.696
 5850SOL    HW118449   1.260   3.219   1.762
 5850SOL    HW218450   1.355   3.111   1.683
 5851SOL     OW18451   5.341   3.801   3.882
 5851SOL    HW118452   5.367   3.894   3.856
 5851SOL    HW218453   5.415   3.760   3.935
 5852SOL     OW18454   4.422   5.866   3.040
 5852SOL    HW118455   4.453   5.840   3.131
 5852SOL    HW218456   4.500   5.897   2.986
 5853SOL     OW18457   4.106   5.060   5.192
 5853SOL    HW118458   4.092   5.109   5.105
 5853SOL    HW218459   4.143   5.123   5.260
 5854SOL     OW18460   3.807   4.488   5.282
 5854SOL    HW118461   3.739   4.549   5.323
 5854SOL    HW218462   3.895   4.535   5.276
 5855SOL     OW18463   2.245   2.561   4.000
 5855SOL    HW118464   2.277   2.622   3.928
 5855SOL    HW218465   2.248   2.608   4.089
 5856SOL     OW18466   1.121   7.011   2.508
 5856SOL    HW118467   1.162   0.044   2.434
 5856SOL    HW218468   1.043   0.039   2.545
 5857SOL     OW18469   6.924   3.255   5.486
 5857SOL    HW118470   6.915   3.202   5.401
 5857SOL    HW218471   7.014   3.240   5.525
 5858SOL     OW18472   2.479   1.962   2.595
 5858SOL    HW118473   2.567   2.005   2.577
 5858SOL    HW218474   2.454   1.903   2.518
 5859SOL     OW18475   5.593   6.395   1.616
 5859SOL    HW118476   5.592   6.495   1.612
 5859SOL    HW218477   5.570   6.365   1.708
 5860SOL     OW18478   0.897   4.740   3.337
 5860SOL    HW118479   0.863   4.778   3.423
 5860SOL    HW218480   0.867   4.646   3.327
 5861SOL     OW18481   5.772   0.494   4.637
 5861SOL    HW118482   5.813   0.585   4.643
 5861SOL    HW218483   5.718   0.477   4.720
 5862SOL     OW18484   6.079   5.850   2.331
 5862SOL    HW118485   5.995   5.796   2.334
 5862SOL    HW218486   6.152   5.801   2.377
 5863SOL     OW18487   3.124   1.235   4.274
 5863SOL    HW118488   3.207   1.184   4.297
 5863SOL    HW218489   3.068   1.246   4.356
 5864SOL     OW18490   3.600   3.730   2.812
 5864SOL    HW118491   3.694   3.765   2.808
 5864SOL    HW218492   3.601   3.631   2.805
 5865SOL     OW18493   5.651   0.670   5.354
 5865SOL    HW118494   5.626   0.685   5.450
 5865SOL    HW218495   5.748   0.691   5.341
 5866SOL     OW18496   3.348   3.281   0.676
 5866SOL    HW118497   3.293   3.213   0.629
 5866SOL    HW218498   3.383   3.243   0.762
 5867SOL     OW18499   2.107   2.009   1.627
 5867SOL    HW118500   2.023   2.023   1.574
 5867SOL    HW218501   2.184   1.997   1.564
 5868SOL     OW18502   1.055   2.220   5.882
 5868SOL    HW118503   1.155   2.225   5.890
 5868SOL    HW218504   1.015   2.200   5.971
 5869SOL     OW18505   1.510   4.558   3.903
 5869SOL    HW118506   1.604   4.592   3.900
 5869SOL    HW218507   1.496   4.490   3.832
 5870SOL     OW18508   3.960   5.012   5.647
 5870SOL    HW118509   3.900   5.017   5.567
 5870SOL    HW218510   3.987   4.917   5.662
 5871SOL     OW18511   3.869   3.972   2.727
 5871SOL    HW118512   3.821   3.972   2.639
 5871SOL    HW218513   3.841   4.052   2.780
 5872SOL     OW18514   4.035   6.215   1.563
 5872SOL    HW118515   4.112   6.156   1.538
 5872SOL    HW218516   4.024   6.287   1.495
 5873SOL     OW18517   2.828   5.657   2.186
 5873SOL    HW118518   2.857   5.628   2.095
 5873SOL    HW218519   2.879   5.739   2.212
 5874SOL     OW18520   2.474   4.188   5.273
 5874SOL    HW118521   2.439   4.226   5.187
 5874SOL    HW218522   2.491   4.090   5.261
 5875SOL     OW18523   3.543   2.193   0.135
 5875SOL    HW118524   3.602   2.196   0.216
 5875SOL    HW218525   3.586   2.137   0.064
 5876SOL     OW18526   3.925   3.516   2.143
 5876SOL    HW118527   4.007   3.516   2.086
 5876SOL    HW218528   3.924   3.434   2.200
 5877SOL     OW18529   6.170   6.174   0.126
 5877SOL    HW118530   6.266   6.180   0.099
 5877SOL    HW218531   6.112   6.176   0.044
 5878SOL     OW18532   1.372   6.164   3.972
 5878SOL    HW118533   1.395   6.228   4.045
 5878SOL    HW218534   1.344   6.216   3.891
 5879SOL     OW18535   0.141   3.473   0.616
 5879SOL    HW118536   0.088   3.544   0.569
 5879SOL    HW218537   0.228   3.460   0.569
 5880SOL     OW18538   2.801   5.114   0.835
 5880SOL    HW118539   2.792   5.019   0.805
 5880SOL    HW218540   2.767   5.175   0.764
 5881SOL     OW18541   0.389   4.729   3.155
 5881SOL    HW118542   0.467   4.790   3.164
 5881SOL    HW218543   0.322   4.749   3.227
 5882SOL     OW18544   6.337   6.281   1.372
 5882SOL    HW118545   6.430   6.291   1.407
 5882SOL    HW218546   6.302   6.370   1.344
 5883SOL     OW18547   0.710   2.217   6.795
 5883SOL    HW118548   0.693   2.119   6.793
 5883SOL    HW218549   0.807   2.234   6.813
 5884SOL     OW18550   2.451   1.133   4.041
 5884SOL    HW118551   2.459   1.232   4.053
 5884SOL    HW218552   2.539   1.096   4.009
 5885SOL     OW18553   6.702   0.059   2.128
 5885SOL    HW118554   6.698   6.986   2.161
 5885SOL    HW218555   6.615   0.106   2.148
 5886SOL     OW18556   0.678   1.976   5.079
 5886SOL    HW118557   0.646   2.019   4.995
 5886SOL    HW218558   0.601   1.962   5.141
 5887SOL     OW18559   3.656   0.847   3.514
 5887SOL    HW118560   3.738   0.814   3.466
 5887SOL    HW218561   3.621   0.775   3.574
 5888SOL     OW18562   2.672   0.850   2.698
 5888SOL    HW118563   2.667   0.859   2.598
 5888SOL    HW218564   2.760   0.810   2.723
 5889SOL     OW18565   1.498   6.572   1.472
 5889SOL    HW118566   1.497   6.502   1.401
 5889SOL    HW218567   1.593   6.601   1.490
 5890SOL     OW18568   1.187   6.954   5.794
 5890SOL    HW118569   1.132   6.893   5.851
 5890SOL    HW218570   1.253   6.900   5.742
 5891SOL     OW18571   3.516   3.037   5.842
 5891SOL    HW118572   3.452   2.962   5.860
 5891SOL    HW218573   3.575   3.013   5.765
 5892SOL     OW18574   0.844   6.038   1.320
 5892SOL    HW118575   0.832   5.987   1.235
 5892SOL    HW218576   0.862   5.974   1.395
 5893SOL     OW18577   1.408   4.226   3.936
 5893SOL    HW118578   1.435   4.261   3.846
 5893SOL    HW218579   1.482   4.169   3.973
 5894SOL     OW18580   0.948   5.763   3.226
 5894SOL    HW118581   0.849   5.760   3.236
 5894SOL    HW218582   0.989   5.812   3.303
 5895SOL     OW18583   4.878   3.087   4.195
 5895SOL    HW118584   4.860   2.988   4.193
 5895SOL    HW218585   4.933   3.108   4.276
 5896SOL     OW18586   3.866   1.541   0.286
 5896SOL    HW118587   3.857   1.531   0.385
 5896SOL    HW218588   3.794   1.602   0.253
 5897SOL     OW18589   3.991   0.233   1.683
 5897SOL    HW118590   4.019   0.188   1.599
 5897SOL    HW218591   3.922   0.178   1.730
 5898SOL     OW18592   1.932   6.725   3.341
 5898SOL    HW118593   1.951   6.720   3.439
 5898SOL    HW218594   1.879   6.808   3.321
 5899SOL     OW18595   4.685   6.507   5.907
 5899SOL    HW118596   4.670   6.499   5.809
 5899SOL    HW218597   4.602   6.540   5.951
 5900SOL     OW18598   4.630   5.478   3.623
 5900SOL    HW118599   4.650   5.382   3.641
 5900SOL    HW218600   4.712   5.532   3.641
 5901SOL     OW18601   2.790   0.348   0.136
 5901SOL    HW118602   2.843   0.401   0.070
 5901SOL    HW218603   2.720   0.295   0.087
 5902SOL     OW18604   6.898   2.564   6.899
 5902SOL    HW118605   6.862   2.522   6.815
 5902SOL    HW218606   6.984   2.519   6.924
 5903SOL     OW18607   4.374   4.098   0.752
 5903SOL    HW118608   4.357   4.172   0.817
 5903SOL    HW218609   4.339   4.012   0.790
 5904SOL     OW18610   1.048   3.572   1.943
 5904SOL    HW118611   1.035   3.601   1.848
 5904SOL    HW218612   1.145   3.558   1.961
 5905SOL     OW18613   6.694   6.142   2.976
 5905SOL    HW118614   6.610   6.101   3.011
 5905SOL    HW218615   6.676   6.237   2.950
 5906SOL     OW18616   4.791   1.357   4.551
 5906SOL    HW118617   4.775   1.331   4.647
 5906SOL    HW218618   4.863   1.300   4.512
 5907SOL     OW18619   1.819   5.975   2.444
 5907SOL    HW118620   1.884   5.902   2.466
 5907SOL    HW218621   1.858   6.034   2.373
 5908SOL     OW18622   1.000   2.464   5.752
 5908SOL    HW118623   0.913   2.465   5.702
 5908SOL    HW218624   1.002   2.384   5.813
 5909SOL     OW18625   6.778   5.356   0.848
 5909SOL    HW118626   6.807   5.440   0.802
 5909SOL    HW218627   6.778   5.280   0.783
 5910SOL     OW18628   0.846   2.836   3.530
 5910SOL    HW118629   0.845   2.907   3.601
 5910SOL    HW218630   0.753   2.821   3.497
 5911SOL     OW18631   6.281   5.815   6.777
 5911SOL    HW118632   6.215   5.835   6.850
 5911SOL    HW218633   6.293   5.716   6.768
 5912SOL     OW18634   6.519   0.820   5.433
 5912SOL    HW118635   6.484   0.773   5.352
 5912SOL    HW218636   6.450   0.815   5.506
 5913SOL     OW18637   4.484   2.681   6.509
 5913SOL    HW118638   4.504   2.662   6.605
 5913SOL    HW218639   4.495   2.779   6.491
 5914SOL     OW18640   0.796   6.207   6.789
 5914SOL    HW118641   0.887   6.235   6.757
 5914SOL    HW218642   0.801   6.177   6.884
 5915SOL     OW18643   4.493   5.882   0.892
 5915SOL    HW118644   4.532   5.860   0.981
 5915SOL    HW218645   4.453   5.800   0.852
 5916SOL     OW18646   0.201   6.219   2.722
 5916SOL    HW118647   0.264   6.257   2.654
 5916SOL    HW218648   0.108   6.245   2.698
 5917SOL     OW18649   3.223   3.880   4.906
 5917SOL    HW118650   3.218   3.957   4.970
 5917SOL    HW218651   3.207   3.913   4.813
 5918SOL     OW18652   1.977   5.110   6.123
 5918SOL    HW118653   2.071   5.127   6.153
 5918SOL    HW218654   1.967   5.014   6.098
 5919SOL     OW18655   2.874   3.539   2.305
 5919SOL    HW118656   2.807   3.569   2.237
 5919SOL    HW218657   2.891   3.441   2.295
 5920SOL     OW18658   5.034   0.621   6.384
 5920SOL    HW118659   4.961   0.587   6.324
 5920SOL    HW218660   4.995   0.685   6.450
 5921SOL     OW18661   4.081   4.951   6.323
 5921SOL    HW118662   4.026   4.884   6.374
 5921SOL    HW218663   4.022   5.011   6.271
 5922SOL     OW18664   6.002   4.027   4.433
 5922SOL    HW118665   5.928   3.970   4.468
 5922SOL    HW218666   5.984   4.122   4.456
 5923SOL     OW18667   6.768   1.050   2.329
 5923SOL    HW118668   6.862   1.037   2.299
 5923SOL    HW218669   6.724   0.960   2.341
 5924SOL     OW18670   5.979   6.737   2.571
 5924SOL    HW118671   5.982   6.761   2.474
 5924SOL    HW218672   6.071   6.745   2.611
 5925SOL     OW18673   3.720   6.190   2.215
 5925SOL    HW118674   3.782   6.268   2.202
 5925SOL    HW218675   3.627   6.223   2.230
 5926SOL     OW18676   4.400   4.557   2.409
 5926SOL    HW118677   4.442   4.590   2.324
 5926SOL    HW218678   4.406   4.457   2.412
 5927SOL     OW18679   1.291   4.553   1.706
 5927SOL    HW118680   1.284   4.513   1.797
 5927SOL    HW218681   1.269   4.484   1.638
 5928SOL     OW18682   3.644   6.625   1.757
 5928SOL    HW118683   3.580   6.667   1.821
 5928SOL    HW218684   3.604   6.625   1.665
 5929SOL     OW18685   5.570   0.558   5.598
 5929SOL    HW118686   5.522   0.490   5.544
 5929SOL    HW218687   5.504   0.617   5.645
 5930SOL     OW18688   1.003   3.111   3.030
 5930SOL    HW118689   1.062   3.175   3.078
 5930SOL    HW218690   0.975   3.152   2.943
 5931SOL     OW18691   6.247   5.952   2.628
 5931SOL    HW118692   6.166   5.950   2.688
 5931SOL    HW218693   6.247   5.870   2.570
 5932SOL     OW18694   3.535   0.166   0.092
 5932SOL    HW118695   3.611   0.231   0.098
 5932SOL    HW218696   3.531   0.127   7.021
 5933SOL     OW18697   6.949   4.861   4.218
 5933SOL    HW118698   6.933   4.916   4.136
 5933SOL    HW218699   6.877   4.877   4.284
 5934SOL     OW18700   3.696   2.757   5.252
 5934SOL    HW118701   3.672   2.761   5.155
 5934SOL    HW218702   3.792   2.729   5.262
 5935SOL     OW18703   0.387   5.297   6.135
 5935SOL    HW118704   0.454   5.367   6.112
 5935SOL    HW218705   0.332   5.276   6.054
 5936SOL     OW18706   3.091   3.559   1.604
 5936SOL    HW118707   3.073   3.475   1.653
 5936SOL    HW218708   3.158   3.614   1.653
 5937SOL     OW18709   6.242   3.330   2.077
 5937SOL    HW118710   6.325   3.370   2.039
 5937SOL    HW218711   6.266   3.264   2.149
 5938SOL     OW18712   6.489   6.299   4.494
 5938SOL    HW118713   6.500   6.347   4.581
 5938SOL    HW218714   6.538   6.211   4.498
 5939SOL     OW18715   2.917   6.250   4.108
 5939SOL    HW118716   2.929   6.152   4.095
 5939SOL    HW218717   2.921   6.272   4.205
 5940SOL     OW18718   4.118   5.305   3.620
 5940SOL    HW118719   4.090   5.217   3.659
 5940SOL    HW218720   4.140   5.293   3.523
 5941SOL     OW18721   5.651   2.883   2.749
 5941SOL    HW118722   5.742   2.872   2.789
 5941SOL    HW218723   5.649   2.966   2.692
 5942SOL     OW18724   5.576   3.958   6.720
 5942SOL    HW118725   5.528   3.926   6.802
 5942SOL    HW218726   5.670   3.924   6.721
 5943SOL     OW18727   3.290   3.524   6.156
 5943SOL    HW118728   3.349   3.601   6.131
 5943SOL    HW218729   3.217   3.515   6.089
 5944SOL     OW18730   0.725   2.713   0.532
 5944SOL    HW118731   0.810   2.742   0.576
 5944SOL    HW218732   0.731   2.731   0.433
 5945SOL     OW18733   0.078   5.135   4.882
 5945SOL    HW118734   0.096   5.147   4.980
 5945SOL    HW218735   7.014   5.083   4.870
 5946SOL     OW18736   3.472   4.275   0.265
 5946SOL    HW118737   3.417   4.192   0.276
 5946SOL    HW218738   3.419   4.354   0.295
 5947SOL     OW18739   3.185   3.578   2.982
 5947SOL    HW118740   3.176   3.652   2.916
 5947SOL    HW218741   3.172   3.614   3.075
 5948SOL     OW18742   4.231   4.720   2.538
 5948SOL    HW118743   4.291   4.652   2.496
 5948SOL    HW218744   4.164   4.751   2.470
 5949SOL     OW18745   5.578   5.146   1.054
 5949SOL    HW118746   5.613   5.054   1.035
 5949SOL    HW218747   5.530   5.146   1.142
 5950SOL     OW18748   5.521   2.207   4.928
 5950SOL    HW118749   5.452   2.158   4.874
 5950SOL    HW218750   5.567   2.274   4.870
 5951SOL     OW18751   0.840   5.404   5.383
 5951SOL    HW118752   0.848   5.399   5.483
 5951SOL    HW218753   0.758   5.354   5.354
 5952SOL     OW18754   4.873   5.819   3.472
 5952SOL    HW118755   4.806   5.889   3.498
 5952SOL    HW218756   4.960   5.862   3.449
 5953SOL     OW18757   6.900   4.463   5.230
 5953SOL    HW118758   6.869   4.411   5.150
 5953SOL    HW218759   6.912   4.400   5.307
 5954SOL     OW18760   6.637   5.241   4.911
 5954SOL    HW118761   6.555   5.186   4.930
 5954SOL    HW218762   6.713   5.180   4.888
 5955SOL     OW18763   4.719   5.085   2.133
 5955SOL    HW118764   4.777   5.080   2.215
 5955SOL    HW218765   4.737   5.171   2.085
 5956SOL     OW18766   6.032   2.281   3.910
 5956SOL    HW118767   6.017   2.251   3.816
 5956SOL    HW218768   5.944   2.298   3.954
 5957SOL     OW18769   2.819   1.695   3.959
 5957SOL    HW118770   2.828   1.784   4.004
 5957SOL    HW218771   2.885   1.631   3.999
 5958SOL     OW18772   4.005   0.463   2.758
 5958SOL    HW118773   4.083   0.404   2.736
 5958SOL    HW218774   3.962   0.494   2.674
 5959SOL     OW18775   4.717   2.551   5.500
 5959SOL    HW118776   4.736   2.650   5.500
 5959SOL    HW218777   4.783   2.505   5.560
 5960SOL     OW18778   3.770   6.225   4.338
 5960SOL    HW118779   3.738   6.152   4.277
 5960SOL    HW218780   3.691   6.273   4.376
 5961SOL     OW18781   4.489   1.685   2.716
 5961SOL    HW118782   4.478   1.595   2.759
 5961SOL    HW218783   4.440   1.754   2.770
 5962SOL     OW18784   5.539   5.641   5.857
 5962SOL    HW118785   5.632   5.660   5.828
 5962SOL    HW218786   5.490   5.594   5.783
 5963SOL     OW18787   2.965   3.786   6.511
 5963SOL    HW118788   3.042   3.739   6.554
 5963SOL    HW218789   2.944   3.743   6.424
 5964SOL     OW18790   1.903   6.559   4.710
 5964SOL    HW118791   1.881   6.463   4.697
 5964SOL    HW218792   1.828   6.616   4.675
 5965SOL     OW18793   2.423   1.059   0.202
 5965SOL    HW118794   2.364   1.124   0.153
 5965SOL    HW218795   2.518   1.072   0.174
 5966SOL     OW18796   1.342   6.572   6.497
 5966SOL    HW118797   1.312   6.563   6.592
 5966SOL    HW218798   1.317   6.662   6.462
 5967SOL     OW18799   2.450   0.163   5.978
 5967SOL    HW118800   2.462   0.255   5.940
 5967SOL    HW218801   2.477   0.163   6.074
 5968SOL     OW18802   5.594   1.980   6.953
 5968SOL    HW118803   5.602   2.068   7.000
 5968SOL    HW218804   5.498   1.965   6.926
 5969SOL     OW18805   5.900   1.234   0.173
 5969SOL    HW118806   5.954   1.303   0.222
 5969SOL    HW218807   5.812   1.273   0.147
 5970SOL     OW18808   0.699   5.028   1.072
 5970SOL    HW118809   0.632   4.973   1.123
 5970SOL    HW218810   0.762   4.967   1.024
 5971SOL     OW18811   0.024   0.446   1.079
 5971SOL    HW118812   0.106   0.390   1.071
 5971SOL    HW218813   7.004   0.458   0.989
 5972SOL     OW18814   4.928   6.047   6.360
 5972SOL    HW118815   4.854   5.990   6.324
 5972SOL    HW218816   4.899   6.087   6.447
 5973SOL     OW18817   1.737   2.921   2.886
 5973SOL    HW118818   1.807   2.861   2.925
 5973SOL    HW218819   1.651   2.871   2.879
 5974SOL     OW18820   4.964   6.803   0.104
 5974SOL    HW118821   5.013   6.723   0.138
 5974SOL    HW218822   5.022   6.884   0.112
 5975SOL     OW18823   4.072   6.295   0.827
 5975SOL    HW118824   4.103   6.200   0.820
 5975SOL    HW218825   4.028   6.309   0.916
 5976SOL     OW18826   3.702   2.683   5.545
 5976SOL    HW118827   3.703   2.719   5.452
 5976SOL    HW218828   3.608   2.662   5.573
 5977SOL     OW18829   0.931   5.930   0.367
 5977SOL    HW118830   1.025   5.915   0.398
 5977SOL    HW218831   0.915   6.027   0.351
 5978SOL     OW18832   3.410   5.850   1.641
 5978SOL    HW118833   3.432   5.876   1.735
 5978SOL    HW218834   3.492   5.859   1.584
 5979SOL     OW18835   6.821   0.538   2.225
 5979SOL    HW118836   6.910   0.583   2.233
 5979SOL    HW218837   6.827   0.464   2.159
 5980SOL     OW18838   4.159   3.787   1.336
 5980SOL    HW118839   4.248   3.743   1.346
 5980SOL    HW218840   4.166   3.861   1.269
 5981SOL     OW18841   4.976   1.728   7.016
 5981SOL    HW118842   4.901   1.671   0.031
 5981SOL    HW218843   5.050   1.731   0.062
 5982SOL     OW18844   6.179   2.051   2.500
 5982SOL    HW118845   6.256   2.042   2.564
 5982SOL    HW218846   6.164   1.963   2.455
 5983SOL     OW18847   1.267   1.413   4.282
 5983SOL    HW118848   1.342   1.354   4.313
 5983SOL    HW218849   1.196   1.356   4.240
 5984SOL     OW18850   4.645   6.800   3.582
 5984SOL    HW118851   4.713   6.855   3.533
 5984SOL    HW218852   4.662   6.703   3.563
 5985SOL     OW18853   6.350   3.435   3.667
 5985SOL    HW118854   6.448   3.432   3.689
 5985SOL    HW218855   6.334   3.381   3.584
 5986SOL     OW18856   3.544   3.930   5.197
 5986SOL    HW118857   3.559   3.973   5.286
 5986SOL    HW218858   3.481   3.853   5.207
 5987SOL     OW18859   5.570   0.213   4.585
 5987SOL    HW118860   5.650   0.212   4.524
 5987SOL    HW218861   5.535   0.307   4.591
 5988SOL     OW18862   4.226   0.195   6.527
 5988SOL    HW118863   4.198   0.104   6.495
 5988SOL    HW218864   4.151   0.237   6.577
 5989SOL     OW18865   1.820   5.535   6.025
 5989SOL    HW118866   1.760   5.540   6.105
 5989SOL    HW218867   1.809   5.617   5.970
 5990SOL     OW18868   3.546   3.415   6.904
 5990SOL    HW118869   3.569   3.421   7.001
 5990SOL    HW218870   3.561   3.504   6.861
 5991SOL     OW18871   4.685   5.833   6.713
 5991SOL    HW118872   4.597   5.797   6.746
 5991SOL    HW218873   4.697   5.808   6.617
 5992SOL     OW18874   3.574   7.018   2.050
 5992SOL    HW118875   3.609   6.943   1.995
 5992SOL    HW218876   3.628   0.005   2.134
 5993SOL     OW18877   4.372   3.647   5.952
 5993SOL    HW118878   4.438   3.722   5.946
 5993SOL    HW218879   4.323   3.653   6.039
 5994SOL     OW18880   6.424   2.174   0.246
 5994SOL    HW118881   6.384   2.265   0.238
 5994SOL    HW218882   6.502   2.176   0.309
 5995SOL     OW18883   4.911   3.493   2.086
 5995SOL    HW118884   4.914   3.572   2.148
 5995SOL    HW218885   4.885   3.411   2.138
 5996SOL     OW18886   0.670   5.777   1.261
 5996SOL    HW118887   0.631   5.817   1.344
 5996SOL    HW218888   0.602   5.778   1.188
 5997SOL     OW18889   1.225   6.090   2.902
 5997SOL    HW118890   1.323   6.071   2.911
 5997SOL    HW218891   1.209   6.150   2.824
 5998SOL     OW18892   6.366   1.490   2.047
 5998SOL    HW118893   6.339   1.583   2.072
 5998SOL    HW218894   6.379   1.436   2.130
 5999SOL     OW18895   3.174   3.311   1.240
 5999SOL    HW118896   3.157   3.402   1.203
 5999SOL    HW218897   3.205   3.319   1.335
 6000SOL     OW18898   1.097   6.401   0.908
 6000SOL    HW118899   1.180   6.427   0.858
 6000SOL    HW218900   1.037   6.481   0.917
 6001SOL     OW18901   6.909   4.982   6.932
 6001SOL    HW118902   6.982   4.986   6.864
 6001SOL    HW218903   6.950   4.974   0.002
 6002SOL     OW18904   6.221   7.002   5.683
 6002SOL    HW118905   6.153   0.036   5.634
 6002SOL    HW218906   6.245   6.922   5.627
 6003SOL     OW18907   6.127   2.196   5.193
 6003SOL    HW118908   6.050   2.258   5.177
 6003SOL    HW218909   6.101   2.103   5.166
 6004SOL     OW18910   6.273   2.810   3.795
 6004SOL    HW118911   6.348   2.817   3.729
 6004SOL    HW218912   6.305   2.765   3.878
 6005SOL     OW18913   6.098   4.939   4.601
 6005SOL    HW118914   6.072   5.031   4.628
 6005SOL    HW218915   6.017   4.880   4.600
 6006SOL     OW18916   2.532   1.003   4.879
 6006SOL    HW118917   2.581   1.019   4.793
 6006SOL    HW218918   2.484   1.087   4.906
 6007SOL     OW18919   6.911   3.263   6.029
 6007SOL    HW118920   6.837   3.289   5.967
 6007SOL    HW218921   6.883   3.279   6.123
 6008SOL     OW18922   2.869   4.875   5.683
 6008SOL    HW118923   2.786   4.853   5.735
 6008SOL    HW218924   2.845   4.938   5.609
 6009SOL     OW18925   3.650   0.013   3.378
 6009SOL    HW118926   3.577   6.993   3.432
 6009SOL    HW218927   3.728   0.034   3.437
 6010SOL     OW18928   0.676   4.552   3.763
 6010SOL    HW118929   0.697   4.463   3.723
 6010SOL    HW218930   0.690   4.548   3.862
 6011SOL     OW18931   4.972   3.465   3.011
 6011SOL    HW118932   5.033   3.501   3.081
 6011SOL    HW218933   4.938   3.540   2.954
 6012SOL     OW18934   5.994   0.645   0.821
 6012SOL    HW118935   6.086   0.619   0.791
 6012SOL    HW218936   5.988   0.745   0.827
 6013SOL     OW18937   4.951   0.988   2.998
 6013SOL    HW118938   4.882   0.933   2.951
 6013SOL    HW218939   5.039   0.975   2.953
 6014SOL     OW18940   3.108   4.012   3.278
 6014SOL    HW118941   3.074   4.044   3.189
 6014SOL    HW218942   3.182   4.072   3.309
 6015SOL     OW18943   6.065   3.749   4.626
 6015SOL    HW118944   6.159   3.755   4.660
 6015SOL    HW218945   6.004   3.800   4.688
 6016SOL     OW18946   5.925   1.495   5.710
 6016SOL    HW118947   5.859   1.420   5.703
 6016SOL    HW218948   5.929   1.545   5.624
 6017SOL     OW18949   6.393   5.006   4.017
 6017SOL    HW118950   6.414   5.001   3.920
 6017SOL    HW218951   6.442   5.083   4.058
 6018SOL     OW18952   3.506   1.367   5.498
 6018SOL    HW118953   3.407   1.380   5.504
 6018SOL    HW218954   3.528   1.273   5.523
 6019SOL     OW18955   0.762   3.321   5.317
 6019SOL    HW118956   0.783   3.304   5.413
 6019SOL    HW218957   0.666   3.347   5.308
 6020SOL     OW18958   1.137   5.376   0.061
 6020SOL    HW118959   1.050   5.382   0.110
 6020SOL    HW218960   1.206   5.429   0.110
 6021SOL     OW18961   4.365   0.515   2.865
 6021SOL    HW118962   4.351   0.530   2.767
 6021SOL    HW218963   4.410   0.427   2.879
 6022SOL     OW18964   0.097   1.527   3.490
 6022SOL    HW118965   0.157   1.568   3.559
 6022SOL    HW218966   0.009   1.504   3.531
 6023SOL     OW18967   4.991   0.532   1.953
 6023SOL    HW118968   4.917   0.600   1.948
 6023SOL    HW218969   4.975   0.460   1.886
 6024SOL     OW18970   1.280   4.589   1.184
 6024SOL    HW118971   1.275   4.621   1.279
 6024SOL    HW218972   1.189   4.557   1.156
 6025SOL     OW18973   3.199   2.146   3.012
 6025SOL    HW118974   3.149   2.088   3.077
 6025SOL    HW218975   3.280   2.098   2.979
 6026SOL     OW18976   6.994   5.714   4.521
 6026SOL    HW118977   6.947   5.748   4.439
 6026SOL    HW218978   6.927   5.672   4.582
 6027SOL     OW18979   0.222   3.475   6.517
 6027SOL    HW118980   0.251   3.560   6.473
 6027SOL    HW218981   0.258   3.397   6.467
 6028SOL     OW18982   5.650   4.383   0.856
 6028SOL    HW118983   5.596   4.350   0.933
 6028SOL    HW218984   5.737   4.418   0.889
 6029SOL     OW18985   2.855   6.859   3.782
 6029SOL    HW118986   2.930   6.811   3.737
 6029SOL    HW218987   2.873   6.958   3.779
 6030SOL     OW18988   5.104   4.301   4.431
 6030SOL    HW118989   5.117   4.274   4.526
 6030SOL    HW218990   5.181   4.270   4.376
 6031SOL     OW18991   2.707   5.742   4.211
 6031SOL    HW118992   2.654   5.712   4.132
 6031SOL    HW218993   2.718   5.841   4.209
 6032SOL     OW18994   2.402   5.132   2.967
 6032SOL    HW118995   2.421   5.230   2.963
 6032SOL    HW218996   2.306   5.117   2.991
 6033SOL     OW18997   2.166   3.055   2.612
 6033SOL    HW118998   2.164   3.008   2.523
 6033SOL    HW218999   2.239   3.016   2.668
 6034SOL     OW19000   1.079   1.075   5.907
 6034SOL    HW119001   1.013   1.111   5.840
 6034SOL    HW219002   1.055   1.108   5.998
 6035SOL     OW19003   1.413   0.839   1.833
 6035SOL    HW119004   1.474   0.806   1.904
 6035SOL    HW219005   1.453   0.819   1.743
 6036SOL     OW19006   5.397   4.787   2.205
 6036SOL    HW119007   5.389   4.699   2.157
 6036SOL    HW219008   5.492   4.816   2.206
 6037SOL     OW19009   3.655   6.918   0.641
 6037SOL    HW119010   3.616   7.010   0.642
 6037SOL    HW219011   3.754   6.924   0.630
 6038SOL     OW19012   1.487   2.548   6.463
 6038SOL    HW119013   1.578   2.562   6.425
 6038SOL    HW219014   1.492   2.549   6.563
 6039SOL     OW19015   3.759   3.054   3.229
 6039SOL    HW119016   3.848   3.076   3.270
 6039SOL    HW219017   3.771   3.038   3.131
 6040SOL     OW19018   1.737   1.546   0.576
 6040SOL    HW119019   1.800   1.623   0.591
 6040SOL    HW219020   1.776   1.483   0.509
 6041SOL     OW19021   2.896   2.218   4.622
 6041SOL    HW119022   2.839   2.150   4.667
 6041SOL    HW219023   2.989   2.215   4.659
 6042SOL     OW19024   3.654   6.881   2.855
 6042SOL    HW119025   3.631   6.787   2.829
 6042SOL    HW219026   3.626   6.897   2.949
 6043SOL     OW19027   0.743   0.114   4.766
 6043SOL    HW119028   0.783   0.204   4.750
 6043SOL    HW219029   0.815   0.045   4.773
 6044SOL     OW19030   2.589   2.509   1.901
 6044SOL    HW119031   2.687   2.491   1.902
 6044SOL    HW219032   2.573   2.607   1.899
 6045SOL     OW19033   5.562   3.373   3.597
 6045SOL    HW119034   5.512   3.294   3.634
 6045SOL    HW219035   5.659   3.351   3.590
 6046SOL     OW19036   3.504   2.364   0.982
 6046SOL    HW119037   3.551   2.329   0.901
 6046SOL    HW219038   3.453   2.289   1.025
 6047SOL     OW19039   5.388   2.780   1.500
 6047SOL    HW119040   5.368   2.779   1.402
 6047SOL    HW219041   5.472   2.832   1.517
 6048SOL     OW19042   4.866   5.127   4.788
 6048SOL    HW119043   4.923   5.136   4.870
 6048SOL    HW219044   4.832   5.033   4.782
 6049SOL     OW19045   4.577   4.326   6.379
 6049SOL    HW119046   4.512   4.254   6.403
 6049SOL    HW219047   4.531   4.415   6.383
 6050SOL     OW19048   1.672   5.391   6.926
 6050SOL    HW119049   1.722   5.311   6.892
 6050SOL    HW219050   1.736   5.453   6.971
 6051SOL     OW19051   1.925   6.913   2.779
 6051SOL    HW119052   1.972   6.887   2.864
 6051SOL    HW219053   1.871   6.996   2.795
 6052SOL     OW19054   5.022   1.631   1.944
 6052SOL    HW119055   4.980   1.674   1.864
 6052SOL    HW219056   5.031   1.698   2.017
 6053SOL     OW19057   4.315   0.855   6.045
 6053SOL    HW119058   4.291   0.822   6.136
 6053SOL    HW219059   4.269   0.798   5.976
 6054SOL     OW19060   2.589   3.799   0.233
 6054SOL    HW119061   2.505   3.778   0.184
 6054SOL    HW219062   2.658   3.832   0.168
 6055SOL     OW19063   5.033   5.890   5.398
 6055SOL    HW119064   4.991   5.807   5.434
 6055SOL    HW219065   5.101   5.866   5.328
 6056SOL     OW19066   4.862   3.350   5.256
 6056SOL    HW119067   4.808   3.413   5.201
 6056SOL    HW219068   4.918   3.402   5.321
 6057SOL     OW19069   6.340   0.568   2.212
 6057SOL    HW119070   6.314   0.479   2.175
 6057SOL    HW219071   6.435   0.565   2.240
 6058SOL     OW19072   5.207   3.934   0.429
 6058SOL    HW119073   5.161   3.850   0.456
 6058SOL    HW219074   5.278   3.956   0.497
 6059SOL     OW19075   4.504   4.531   5.887
 6059SOL    HW119076   4.539   4.488   5.970
 6059SOL    HW219077   4.404   4.536   5.891
 6060SOL     OW19078   2.301   3.370   6.684
 6060SOL    HW119079   2.234   3.296   6.692
 6060SOL    HW219080   2.311   3.395   6.587
 6061SOL     OW19081   5.097   3.883   0.119
 6061SOL    HW119082   5.132   3.896   0.212
 6061SOL    HW219083   5.170   3.901   0.053
 6062SOL     OW19084   2.343   1.373   6.381
 6062SOL    HW119085   2.325   1.424   6.466
 6062SOL    HW219086   2.396   1.431   6.319
 6063SOL     OW19087   4.206   2.368   5.538
 6063SOL    HW119088   4.153   2.306   5.595
 6063SOL    HW219089   4.280   2.408   5.592
 6064SOL     OW19090   1.368   1.110   0.839
 6064SOL    HW119091   1.298   1.091   0.771
 6064SOL    HW219092   1.453   1.136   0.793
 6065SOL     OW19093   0.602   6.235   2.167
 6065SOL    HW119094   0.664   6.223   2.089
 6065SOL    HW219095   0.514   6.271   2.135
 6066SOL     OW19096   5.287   1.217   5.797
 6066SOL    HW119097   5.271   1.251   5.890
 6066SOL    HW219098   5.277   1.291   5.732
 6067SOL     OW19099   4.498   0.267   5.278
 6067SOL    HW119100   4.539   0.344   5.326
 6067SOL    HW219101   4.567   0.224   5.220
 6068SOL     OW19102   5.085   2.645   4.530
 6068SOL    HW119103   5.130   2.679   4.613
 6068SOL    HW219104   5.009   2.586   4.555
 6069SOL     OW19105   6.323   3.433   5.116
 6069SOL    HW119106   6.336   3.382   5.201
 6069SOL    HW219107   6.228   3.464   5.110
 6070SOL     OW19108   2.872   2.755   1.420
 6070SOL    HW119109   2.970   2.751   1.398
 6070SOL    HW219110   2.861   2.780   1.516
 6071SOL     OW19111   0.884   5.869   4.837
 6071SOL    HW119112   0.911   5.807   4.910
 6071SOL    HW219113   0.821   5.938   4.873
 6072SOL     OW19114   0.400   0.727   1.261
 6072SOL    HW119115   0.395   0.632   1.292
 6072SOL    HW219116   0.417   0.787   1.339
 6073SOL     OW19117   4.910   3.160   0.758
 6073SOL    HW119118   5.008   3.143   0.767
 6073SOL    HW219119   4.895   3.230   0.689
 6074SOL     OW19120   1.766   5.991   2.072
 6074SOL    HW119121   1.689   5.940   2.034
 6074SOL    HW219122   1.845   5.983   2.011
 6075SOL     OW19123   4.503   6.776   5.512
 6075SOL    HW119124   4.485   6.735   5.601
 6075SOL    HW219125   4.487   6.875   5.517
 6076SOL     OW19126   2.724   4.907   3.147
 6076SOL    HW119127   2.682   4.995   3.166
 6076SOL    HW219128   2.823   4.916   3.147
 6077SOL     OW19129   6.015   5.011   1.287
 6077SOL    HW119130   5.918   5.034   1.289
 6077SOL    HW219131   6.030   4.927   1.338
 6078SOL     OW19132   4.946   4.938   0.039
 6078SOL    HW119133   4.886   4.864   0.009
 6078SOL    HW219134   4.999   4.972   6.982
 6079SOL     OW19135   4.745   3.724   6.247
 6079SOL    HW119136   4.699   3.777   6.176
 6079SOL    HW219137   4.796   3.649   6.206
 6080SOL     OW19138   0.243   5.615   0.611
 6080SOL    HW119139   0.186   5.683   0.657
 6080SOL    HW219140   0.223   5.524   0.647
 6081SOL     OW19141   0.133   2.283   5.563
 6081SOL    HW119142   0.079   2.294   5.479
 6081SOL    HW219143   0.144   2.186   5.583
 6082SOL     OW19144   3.035   0.219   2.701
 6082SOL    HW119145   3.061   0.276   2.779
 6082SOL    HW219146   3.095   0.238   2.624
 6083SOL     OW19147   6.011   6.157   0.358
 6083SOL    HW119148   6.073   6.154   0.280
 6083SOL    HW219149   5.917   6.141   0.328
 6084SOL     OW19150   0.716   6.801   2.094
 6084SOL    HW119151   0.805   6.824   2.135
 6084SOL    HW219152   0.644   6.853   2.140
 6085SOL     OW19153   0.366   6.497   6.756
 6085SOL    HW119154   0.320   6.581   6.728
 6085SOL    HW219155   0.310   6.418   6.730
 6086SOL     OW19156   2.532   2.081   5.623
 6086SOL    HW119157   2.437   2.054   5.610
 6086SOL    HW219158   2.543   2.119   5.715
 6087SOL     OW19159   3.624   6.242   1.587
 6087SOL    HW119160   3.615   6.330   1.633
 6087SOL    HW219161   3.621   6.256   1.488
 6088SOL     OW19162   5.439   0.751   4.376
 6088SOL    HW119163   5.417   0.798   4.462
 6088SOL    HW219164   5.446   0.652   4.393
 6089SOL     OW19165   6.103   2.517   2.746
 6089SOL    HW119166   6.176   2.579   2.718
 6089SOL    HW219167   6.099   2.439   2.683
 6090SOL     OW19168   2.178   5.043   4.551
 6090SOL    HW119169   2.220   5.079   4.468
 6090SOL    HW219170   2.245   4.987   4.601
 6091SOL     OW19171   2.344   1.815   6.905
 6091SOL    HW119172   2.409   1.770   6.843
 6091SOL    HW219173   2.251   1.788   6.882
 6092SOL     OW19174   4.419   0.916   2.633
 6092SOL    HW119175   4.491   0.883   2.573
 6092SOL    HW219176   4.346   0.848   2.639
 6093SOL     OW19177   2.329   2.533   1.960
 6093SOL    HW119178   2.279   2.447   1.971
 6093SOL    HW219179   2.424   2.514   1.936
 6094SOL     OW19180   1.316   5.654   3.556
 6094SOL    HW119181   1.372   5.736   3.565
 6094SOL    HW219182   1.376   5.574   3.548
 6095SOL     OW19183   4.630   4.888   6.791
 6095SOL    HW119184   4.555   4.915   6.852
 6095SOL    HW219185   4.705   4.954   6.799
 6096SOL     OW19186   6.841   0.115   2.379
 6096SOL    HW119187   6.756   0.117   2.432
 6096SOL    HW219188   6.819   0.105   2.282
 6097SOL     OW19189   2.161   5.556   2.395
 6097SOL    HW119190   2.167   5.512   2.306
 6097SOL    HW219191   2.234   5.625   2.404
 6098SOL     OW19192   0.023   1.720   5.706
 6098SOL    HW119193   0.008   1.681   5.615
 6098SOL    HW219194   0.121   1.714   5.728
 6099SOL     OW19195   5.182   5.844   5.172
 6099SOL    HW119196   5.277   5.820   5.153
 6099SOL    HW219197   5.152   5.915   5.107
 6100SOL     OW19198   5.806   6.213   1.585
 6100SOL    HW119199   5.756   6.154   1.648
 6100SOL    HW219200   5.758   6.300   1.574
 6101SOL     OW19201   0.159   2.978   3.058
 6101SOL    HW119202   0.128   2.942   2.970
 6101SOL    HW219203   0.081   3.018   3.107
 6102SOL     OW19204   4.243   6.074   2.948
 6102SOL    HW119205   4.294   6.000   2.993
 6102SOL    HW219206   4.237   6.056   2.850
 6103SOL     OW19207   5.759   1.440   1.777
 6103SOL    HW119208   5.701   1.366   1.813
 6103SOL    HW219209   5.704   1.499   1.717
 6104SOL     OW19210   6.031   0.013   4.843
 6104SOL    HW119211   6.072   0.104   4.848
 6104SOL    HW219212   5.935   0.022   4.816
 6105SOL     OW19213   2.172   5.626   6.447
 6105SOL    HW119214   2.168   5.719   6.412
 6105SOL    HW219215   2.098   5.572   6.407
 6106SOL     OW19216   1.460   4.872   6.056
 6106SOL    HW119217   1.402   4.880   5.975
 6106SOL    HW219218   1.428   4.795   6.111
 6107SOL     OW19219   4.795   5.435   5.039
 6107SOL    HW119220   4.778   5.524   5.081
 6107SOL    HW219221   4.784   5.443   4.940
 6108SOL     OW19222   2.247   2.495   3.249
 6108SOL    HW119223   2.164   2.547   3.268
 6108SOL    HW219224   2.300   2.543   3.179
 6109SOL     OW19225   5.889   1.205   5.434
 6109SOL    HW119226   5.917   1.209   5.338
 6109SOL    HW219227   5.920   1.118   5.474
 6110SOL     OW19228   2.431   3.487   1.161
 6110SOL    HW119229   2.504   3.518   1.100
 6110SOL    HW219230   2.445   3.525   1.252
 6111SOL     OW19231   1.342   3.053   2.369
 6111SOL    HW119232   1.387   3.014   2.288
 6111SOL    HW219233   1.373   3.004   2.451
 6112SOL     OW19234   3.470   0.455   2.498
 6112SOL    HW119235   3.485   0.439   2.595
 6112SOL    HW219236   3.558   0.459   2.451
 6113SOL     OW19237   2.424   2.140   5.898
 6113SOL    HW119238   2.380   2.162   5.986
 6113SOL    HW219239   2.354   2.135   5.827
 6114SOL     OW19240   4.860   4.394   2.454
 6114SOL    HW119241   4.937   4.448   2.421
 6114SOL    HW219242   4.890   4.299   2.469
 6115SOL     OW19243   6.409   0.315   4.337
 6115SOL    HW119244   6.446   0.264   4.414
 6115SOL    HW219245   6.473   0.311   4.260
 6116SOL     OW19246   3.578   1.519   6.138
 6116SOL    HW119247   3.481   1.504   6.159
 6116SOL    HW219248   3.586   1.585   6.063
 6117SOL     OW19249   2.326   1.727   3.518
 6117SOL    HW119250   2.416   1.765   3.543
 6117SOL    HW219251   2.262   1.802   3.503
 6118SOL     OW19252   5.573   1.423   1.225
 6118SOL    HW119253   5.532   1.392   1.139
 6118SOL    HW219254   5.659   1.469   1.206
 6119SOL     OW19255   1.020   3.814   0.561
 6119SOL    HW119256   1.106   3.818   0.612
 6119SOL    HW219257   1.033   3.759   0.478
 6120SOL     OW19258   2.341   6.651   5.603
 6120SOL    HW119259   2.373   6.559   5.578
 6120SOL    HW219260   2.258   6.644   5.658
 6121SOL     OW19261   1.245   3.525   5.393
 6121SOL    HW119262   1.171   3.480   5.344
 6121SOL    HW219263   1.234   3.510   5.491
 6122SOL     OW19264   4.078   5.418   6.921
 6122SOL    HW119265   4.024   5.359   6.861
 6122SOL    HW219266   4.064   5.513   6.895
 6123SOL     OW19267   5.330   6.718   6.077
 6123SOL    HW119268   5.430   6.715   6.077
 6123SOL    HW219269   5.298   6.766   6.158
 6124SOL     OW19270   1.332   0.044   6.088
 6124SOL    HW119271   1.286   0.073   6.004
 6124SOL    HW219272   1.400   6.994   6.067
 6125SOL     OW19273   1.765   4.143   0.285
 6125SOL    HW119274   1.754   4.213   0.215
 6125SOL    HW219275   1.746   4.053   0.246
 6126SOL     OW19276   0.130   0.765   4.371
 6126SOL    HW119277   0.138   0.761   4.471
 6126SOL    HW219278   0.219   0.790   4.332
 6127SOL     OW19279   3.596   6.717   1.258
 6127SOL    HW119280   3.535   6.697   1.181
 6127SOL    HW219281   3.621   6.632   1.304
 6128SOL     OW19282   5.880   5.770   0.624
 6128SOL    HW119283   5.851   5.737   0.534
 6128SOL    HW219284   5.932   5.854   0.612
 6129SOL     OW19285   0.525   2.910   3.009
 6129SOL    HW119286   0.600   2.866   2.959
 6129SOL    HW219287   0.438   2.871   2.979
 6130SOL     OW19288   4.854   2.599   2.511
 6130SOL    HW119289   4.769   2.633   2.470
 6130SOL    HW219290   4.907   2.676   2.546
 6131SOL     OW19291   0.720   1.454   3.458
 6131SOL    HW119292   0.669   1.512   3.521
 6131SOL    HW219293   0.659   1.422   3.385
 6132SOL     OW19294   3.713   1.733   6.984
 6132SOL    HW119295   3.622   1.712   7.018
 6132SOL    HW219296   3.705   1.792   6.903
 6133SOL     OW19297   2.061   3.839   3.203
 6133SOL    HW119298   2.104   3.925   3.176
 6133SOL    HW219299   1.971   3.831   3.161
 6134SOL     OW19300   4.444   5.720   6.782
 6134SOL    HW119301   4.428   5.622   6.775
 6134SOL    HW219302   4.362   5.769   6.751
 6135SOL     OW19303   0.447   6.131   0.974
 6135SOL    HW119304   0.450   6.160   0.878
 6135SOL    HW219305   0.433   6.210   1.032
 6136SOL     OW19306   1.096   2.618   1.554
 6136SOL    HW119307   1.079   2.623   1.652
 6136SOL    HW219308   1.175   2.560   1.537
 6137SOL     OW19309   6.714   4.121   2.118
 6137SOL    HW119310   6.675   4.211   2.137
 6137SOL    HW219311   6.740   4.077   2.204
 6138SOL     OW19312   3.523   0.273   3.197
 6138SOL    HW119313   3.597   0.245   3.136
 6138SOL    HW219314   3.540   0.235   3.288
 6139SOL     OW19315   0.841   0.040   5.926
 6139SOL    HW119316   0.885   6.988   5.874
 6139SOL    HW219317   0.886   0.127   5.905
 6140SOL     OW19318   0.970   0.570   2.143
 6140SOL    HW119319   0.912   0.492   2.116
 6140SOL    HW219320   0.991   0.625   2.062
 6141SOL     OW19321   0.555   6.861   6.254
 6141SOL    HW119322   0.463   6.900   6.260
 6141SOL    HW219323   0.559   6.777   6.307
 6142SOL     OW19324   0.181   5.746   6.310
 6142SOL    HW119325   0.198   5.824   6.249
 6142SOL    HW219326   0.144   5.670   6.257
 6143SOL     OW19327   6.698   4.058   1.001
 6143SOL    HW119328   6.701   3.975   1.057
 6143SOL    HW219329   6.614   4.058   0.946
 6144SOL     OW19330   5.542   5.045   4.107
 6144SOL    HW119331   5.516   4.949   4.093
 6144SOL    HW219332   5.537   5.067   4.204
 6145SOL     OW19333   5.606   5.316   4.156
 6145SOL    HW119334   5.662   5.371   4.093
 6145SOL    HW219335   5.571   5.236   4.108
 6146SOL     OW19336   3.006   5.705   3.871
 6146SOL    HW119337   3.055   5.739   3.952
 6146SOL    HW219338   2.939   5.772   3.841
 6147SOL     OW19339   2.419   2.660   5.020
 6147SOL    HW119340   2.374   2.746   5.047
 6147SOL    HW219341   2.485   2.678   4.947
 6148SOL     OW19342   4.199   6.561   4.772
 6148SOL    HW119343   4.125   6.530   4.713
 6148SOL    HW219344   4.169   6.639   4.826
 6149SOL     OW19345   2.793   0.098   1.605
 6149SOL    HW119346   2.824   0.081   1.512
 6149SOL    HW219347   2.724   0.171   1.604
 6150SOL     OW19348   6.102   4.365   0.118
 6150SOL    HW119349   6.069   4.435   0.181
 6150SOL    HW219350   6.063   4.381   0.027
 6151SOL     OW19351   6.447   4.564   5.913
 6151SOL    HW119352   6.394   4.628   5.858
 6151SOL    HW219353   6.529   4.537   5.863
 6152SOL     OW19354   0.763   6.168   4.574
 6152SOL    HW119355   0.714   6.081   4.579
 6152SOL    HW219356   0.853   6.154   4.532
 6153SOL     OW19357   5.884   4.532   0.935
 6153SOL    HW119358   5.965   4.474   0.927
 6153SOL    HW219359   5.885   4.579   1.023
 6154SOL     OW19360   6.078   2.749   2.000
 6154SOL    HW119361   6.053   2.672   1.941
 6154SOL    HW219362   6.158   2.724   2.054
 6155SOL     OW19363   2.442   1.311   3.219
 6155SOL    HW119364   2.430   1.212   3.225
 6155SOL    HW219365   2.377   1.349   3.153
 6156SOL     OW19366   4.866   4.445   2.093
 6156SOL    HW119367   4.785   4.389   2.108
 6156SOL    HW219368   4.942   4.410   2.147
 6157SOL     OW19369   6.984   2.559   3.397
 6157SOL    HW119370   7.003   2.545   3.300
 6157SOL    HW219371   7.005   2.475   3.448
 6158SOL     OW19372   3.659   1.901   6.739
 6158SOL    HW119373   3.709   1.859   6.663
 6158SOL    HW219374   3.561   1.888   6.726
 6159SOL     OW19375   3.899   1.888   0.348
 6159SOL    HW119376   3.903   1.983   0.318
 6159SOL    HW219377   3.804   1.859   0.354
 6160SOL     OW19378   5.564   0.316   6.632
 6160SOL    HW119379   5.561   0.262   6.548
 6160SOL    HW219380   5.637   0.384   6.625
 6161SOL     OW19381   5.921   1.529   6.614
 6161SOL    HW119382   5.823   1.524   6.634
 6161SOL    HW219383   5.960   1.609   6.660
 6162SOL     OW19384   6.283   0.077   4.239
 6162SOL    HW119385   6.361   0.140   4.234
 6162SOL    HW219386   6.311   7.009   4.201
 6163SOL     OW19387   5.357   5.935   1.408
 6163SOL    HW119388   5.355   6.020   1.357
 6163SOL    HW219389   5.423   5.943   1.483
 6164SOL     OW19390   3.103   4.088   4.281
 6164SOL    HW119391   3.038   4.154   4.244
 6164SOL    HW219392   3.097   4.086   4.380
 6165SOL     OW19393   4.513   1.293   6.219
 6165SOL    HW119394   4.597   1.243   6.238
 6165SOL    HW219395   4.456   1.239   6.157
 6166SOL     OW19396   5.147   2.021   0.155
 6166SOL    HW119397   5.236   2.018   0.202
 6166SOL    HW219398   5.162   2.030   0.057
 6167SOL     OW19399   0.915   4.540   2.751
 6167SOL    HW119400   0.894   4.443   2.742
 6167SOL    HW219401   0.858   4.581   2.822
 6168SOL     OW19402   1.473   3.458   3.354
 6168SOL    HW119403   1.427   3.540   3.318
 6168SOL    HW219404   1.477   3.389   3.282
 6169SOL     OW19405   1.210   1.796   0.529
 6169SOL    HW119406   1.210   1.725   0.600
 6169SOL    HW219407   1.154   1.873   0.560
 6170SOL     OW19408   2.997   4.026   5.696
 6170SOL    HW119409   2.941   3.943   5.692
 6170SOL    HW219410   3.086   4.004   5.736
 6171SOL     OW19411   1.821   3.723   1.479
 6171SOL    HW119412   1.888   3.796   1.493
 6171SOL    HW219413   1.729   3.763   1.473
 6172SOL     OW19414   1.236   1.037   3.708
 6172SOL    HW119415   1.300   1.038   3.631
 6172SOL    HW219416   1.274   1.090   3.783
 6173SOL     OW19417   6.638   5.251   2.433
 6173SOL    HW119418   6.732   5.244   2.465
 6173SOL    HW219419   6.602   5.341   2.455
 6174SOL     OW19420   6.450   5.280   2.904
 6174SOL    HW119421   6.423   5.340   2.828
 6174SOL    HW219422   6.410   5.189   2.890
 6175SOL     OW19423   5.041   1.058   3.627
 6175SOL    HW119424   5.063   1.125   3.555
 6175SOL    HW219425   4.977   0.991   3.591
 6176SOL     OW19426   6.371   2.811   0.352
 6176SOL    HW119427   6.339   2.717   0.338
 6176SOL    HW219428   6.311   2.874   0.303
 6177SOL     OW19429   5.257   1.656   1.682
 6177SOL    HW119430   5.337   1.689   1.732
 6177SOL    HW219431   5.174   1.685   1.730
 6178SOL     OW19432   4.666   4.870   2.759
 6178SOL    HW119433   4.651   4.855   2.661
 6178SOL    HW219434   4.586   4.914   2.799
 6179SOL     OW19435   6.468   4.660   4.404
 6179SOL    HW119436   6.483   4.642   4.502
 6179SOL    HW219437   6.398   4.731   4.394
 6180SOL     OW19438   3.730   5.856   0.252
 6180SOL    HW119439   3.805   5.801   0.214
 6180SOL    HW219440   3.751   5.953   0.240
 6181SOL     OW19441   4.132   6.590   0.981
 6181SOL    HW119442   4.163   6.496   0.998
 6181SOL    HW219443   4.127   6.605   0.882
 6182SOL     OW19444   5.673   3.181   5.936
 6182SOL    HW119445   5.600   3.211   5.998
 6182SOL    HW219446   5.712   3.260   5.890
 6183SOL     OW19447   1.889   0.350   2.919
 6183SOL    HW119448   1.974   0.303   2.898
 6183SOL    HW219449   1.843   0.376   2.834
 6184SOL     OW19450   1.202   0.010   6.612
 6184SOL    HW119451   1.262   6.977   6.672
 6184SOL    HW219452   1.220   0.107   6.626
 6185SOL     OW19453   0.503   4.302   6.554
 6185SOL    HW119454   0.549   4.261   6.475
 6185SOL    HW219455   0.564   4.298   6.634
 6186SOL     OW19456   6.157   6.747   5.252
 6186SOL    HW119457   6.174   6.830   5.200
 6186SOL    HW219458   6.078   6.760   5.311
 6187SOL     OW19459   4.098   4.987   3.836
 6187SOL    HW119460   4.097   4.940   3.748
 6187SOL    HW219461   4.005   4.993   3.872
 6188SOL     OW19462   2.466   0.191   0.600
 6188SOL    HW119463   2.397   0.263   0.598
 6188SOL    HW219464   2.557   0.233   0.609
 6189SOL     OW19465   4.790   4.258   4.332
 6189SOL    HW119466   4.881   4.293   4.354
 6189SOL    HW219467   4.732   4.333   4.300
 6190SOL     OW19468   6.556   3.871   6.135
 6190SOL    HW119469   6.549   3.928   6.217
 6190SOL    HW219470   6.476   3.811   6.129
 6191SOL     OW19471   3.910   2.561   6.764
 6191SOL    HW119472   4.006   2.535   6.751
 6191SOL    HW219473   3.897   2.592   6.859
 6192SOL     OW19474   2.851   2.832   6.541
 6192SOL    HW119475   2.875   2.756   6.480
 6192SOL    HW219476   2.931   2.858   6.595
 6193SOL     OW19477   5.283   0.826   2.561
 6193SOL    HW119478   5.332   0.863   2.640
 6193SOL    HW219479   5.264   0.900   2.496
 6194SOL     OW19480   1.188   0.440   0.598
 6194SOL    HW119481   1.160   0.516   0.540
 6194SOL    HW219482   1.246   0.378   0.546
 6195SOL     OW19483   4.025   6.440   5.124
 6195SOL    HW119484   4.061   6.379   5.054
 6195SOL    HW219485   4.099   6.469   5.185
 6196SOL     OW19486   5.988   2.068   1.253
 6196SOL    HW119487   6.012   1.976   1.283
 6196SOL    HW219488   5.893   2.088   1.279
 6197SOL     OW19489   4.231   4.698   0.375
 6197SOL    HW119490   4.230   4.776   0.438
 6197SOL    HW219491   4.319   4.695   0.327
 6198SOL     OW19492   3.013   5.854   2.296
 6198SOL    HW119493   3.037   5.788   2.367
 6198SOL    HW219494   3.037   5.947   2.327
 6199SOL     OW19495   1.075   0.783   0.636
 6199SOL    HW119496   1.126   0.712   0.685
 6199SOL    HW219497   0.992   0.806   0.686
 6200SOL     OW19498   1.762   1.228   5.139
 6200SOL    HW119499   1.790   1.302   5.200
 6200SOL    HW219500   1.703   1.265   5.067
 6201SOL     OW19501   1.589   3.993   4.858
 6201SOL    HW119502   1.527   4.067   4.833
 6201SOL    HW219503   1.673   3.999   4.802
 6202SOL     OW19504   4.388   1.459   2.164
 6202SOL    HW119505   4.350   1.550   2.147
 6202SOL    HW219506   4.326   1.390   2.125
 6203SOL     OW19507   6.219   6.667   3.097
 6203SOL    HW119508   6.286   6.724   3.143
 6203SOL    HW219509   6.263   6.617   3.023
 6204SOL     OW19510   1.477   5.261   4.647
 6204SOL    HW119511   1.458   5.208   4.729
 6204SOL    HW219512   1.393   5.305   4.615
 6205SOL     OW19513   6.651   6.412   0.219
 6205SOL    HW119514   6.688   6.498   0.256
 6205SOL    HW219515   6.583   6.432   0.149
 6206SOL     OW19516   0.144   0.690   2.477
 6206SOL    HW119517   0.172   0.627   2.549
 6206SOL    HW219518   0.125   0.638   2.393
 6207SOL     OW19519   1.469   5.229   4.327
 6207SOL    HW119520   1.551   5.224   4.384
 6207SOL    HW219521   1.399   5.169   4.366
 6208SOL     OW19522   5.774   1.626   6.089
 6208SOL    HW119523   5.722   1.693   6.037
 6208SOL    HW219524   5.856   1.600   6.037
 6209SOL     OW19525   4.505   5.636   7.013
 6209SOL    HW119526   4.505   5.678   6.922
 6209SOL    HW219527   4.424   5.578   0.002
 6210SOL     OW19528   5.463   3.855   3.584
 6210SOL    HW119529   5.431   3.924   3.649
 6210SOL    HW219530   5.553   3.823   3.611
 6211SOL     OW19531   2.813   5.885   5.702
 6211SOL    HW119532   2.870   5.926   5.631
 6211SOL    HW219533   2.791   5.954   5.771
 6212SOL     OW19534   2.143   4.845   2.907
 6212SOL    HW119535   2.086   4.889   2.977
 6212SOL    HW219536   2.141   4.899   2.823
 6213SOL     OW19537   5.487   0.180   6.886
 6213SOL    HW119538   5.560   0.119   6.917
 6213SOL    HW219539   5.521   0.239   6.813
 6214SOL     OW19540   4.743   4.731   4.186
 6214SOL    HW119541   4.831   4.743   4.232
 6214SOL    HW219542   4.711   4.637   4.201
 6215SOL     OW19543   4.272   1.633   1.038
 6215SOL    HW119544   4.245   1.556   0.981
 6215SOL    HW219545   4.303   1.709   0.981
 6216SOL     OW19546   6.037   1.997   1.998
 6216SOL    HW119547   6.020   1.901   1.977
 6216SOL    HW219548   5.968   2.054   1.953
 6217SOL     OW19549   0.575   2.779   2.346
 6217SOL    HW119550   0.632   2.856   2.375
 6217SOL    HW219551   0.634   2.703   2.318
 6218SOL     OW19552   3.688   5.102   5.538
 6218SOL    HW119553   3.640   5.042   5.473
 6218SOL    HW219554   3.628   5.178   5.564
 6219SOL     OW19555   1.042   2.150   4.510
 6219SOL    HW119556   1.019   2.082   4.580
 6219SOL    HW219557   0.973   2.222   4.510
 6220SOL     OW19558   1.622   2.642   5.097
 6220SOL    HW119559   1.643   2.654   5.001
 6220SOL    HW219560   1.540   2.694   5.121
 6221SOL     OW19561   6.096   5.933   6.933
 6221SOL    HW119562   6.141   5.919   0.000
 6221SOL    HW219563   6.016   5.991   6.945
 6222SOL     OW19564   0.778   6.246   1.078
 6222SOL    HW119565   0.835   6.306   1.133
 6222SOL    HW219566   0.733   6.179   1.137
 6223SOL     OW19567   0.465   4.826   4.195
 6223SOL    HW119568   0.463   4.727   4.180
 6223SOL    HW219569   0.374   4.858   4.219
 6224SOL     OW19570   2.418   1.665   6.144
 6224SOL    HW119571   2.474   1.706   6.216
 6224SOL    HW219572   2.342   1.615   6.185
 6225SOL     OW19573   3.299   3.924   0.827
 6225SOL    HW119574   3.290   3.978   0.743
 6225SOL    HW219575   3.213   3.876   0.845
 6226SOL     OW19576   5.854   1.624   4.981
 6226SOL    HW119577   5.792   1.668   4.916
 6226SOL    HW219578   5.845   1.524   4.973
 6227SOL     OW19579   4.031   5.397   5.564
 6227SOL    HW119580   4.055   5.371   5.470
 6227SOL    HW219581   4.053   5.494   5.577
 6228SOL     OW19582   1.254   2.622   3.255
 6228SOL    HW119583   1.240   2.528   3.287
 6228SOL    HW219584   1.166   2.664   3.232
 6229SOL     OW19585   0.197   2.344   2.998
 6229SOL    HW119586   0.293   2.369   3.008
 6229SOL    HW219587   0.165   2.365   2.906
 6230SOL     OW19588   1.162   1.332   3.738
 6230SOL    HW119589   1.168   1.405   3.670
 6230SOL    HW219590   1.248   1.280   3.739
 6231SOL     OW19591   6.115   4.749   0.923
 6231SOL    HW119592   6.070   4.751   0.834
 6231SOL    HW219593   6.047   4.760   0.996
 6232SOL     OW19594   6.814   1.276   0.749
 6232SOL    HW119595   6.778   1.322   0.667
 6232SOL    HW219596   6.910   1.252   0.734
 6233SOL     OW19597   6.329   0.561   0.516
 6233SOL    HW119598   6.322   0.629   0.443
 6233SOL    HW219599   6.339   0.470   0.475
 6234SOL     OW19600   6.213   1.512   5.328
 6234SOL    HW119601   6.124   1.535   5.288
 6234SOL    HW219602   6.202   1.497   5.426
 6235SOL     OW19603   0.998   0.309   1.731
 6235SOL    HW119604   0.929   0.381   1.734
 6235SOL    HW219605   1.087   0.346   1.760
 6236SOL     OW19606   0.569   3.736   0.458
 6236SOL    HW119607   0.629   3.657   0.451
 6236SOL    HW219608   0.603   3.797   0.530
 6237SOL     OW19609   3.501   6.230   0.018
 6237SOL    HW119610   3.597   6.253   0.002
 6237SOL    HW219611   3.491   6.130   0.021
 6238SOL     OW19612   4.267   4.820   2.927
 6238SOL    HW119613   4.255   4.761   3.007
 6238SOL    HW219614   4.341   4.885   2.945
 6239SOL     OW19615   3.050   6.637   2.185
 6239SOL    HW119616   3.147   6.622   2.205
 6239SOL    HW219617   3.017   6.716   2.237
 6240SOL     OW19618   2.858   2.969   6.246
 6240SOL    HW119619   2.762   2.957   6.270
 6240SOL    HW219620   2.897   3.044   6.299
 6241SOL     OW19621   3.816   0.019   1.768
 6241SOL    HW119622   3.908   7.002   1.760
 6241SOL    HW219623   3.805   0.061   1.858
 6242SOL     OW19624   5.969   1.754   3.428
 6242SOL    HW119625   5.983   1.824   3.358
 6242SOL    HW219626   5.875   1.721   3.425
 6243SOL     OW19627   6.330   6.966   3.934
 6243SOL    HW119628   6.418   6.939   3.893
 6243SOL    HW219629   6.341   0.035   3.977
 6244SOL     OW19630   0.859   2.452   2.700
 6244SOL    HW119631   0.942   2.418   2.657
 6244SOL    HW219632   0.882   2.499   2.786
 6245SOL     OW19633   1.632   3.611   0.447
 6245SOL    HW119634   1.644   3.560   0.362
 6245SOL    HW219635   1.722   3.638   0.483
 6246SOL     OW19636   1.770   2.232   5.547
 6246SOL    HW119637   1.738   2.283   5.468
 6246SOL    HW219638   1.754   2.285   5.630
 6247SOL     OW19639   1.540   6.133   4.625
 6247SOL    HW119640   1.560   6.076   4.545
 6247SOL    HW219641   1.529   6.075   4.706
 6248SOL     OW19642   3.362   3.440   0.197
 6248SOL    HW119643   3.431   3.421   0.267
 6248SOL    HW219644   3.352   3.359   0.139
 6249SOL     OW19645   0.468   3.803   0.938
 6249SOL    HW119646   0.427   3.876   0.992
 6249SOL    HW219647   0.402   3.730   0.923
 6250SOL     OW19648   6.734   5.918   0.090
 6250SOL    HW119649   6.712   5.979   0.167
 6250SOL    HW219650   6.796   5.846   0.122
 6251SOL     OW19651   3.594   5.298   6.778
 6251SOL    HW119652   3.616   5.203   6.801
 6251SOL    HW219653   3.522   5.300   6.709
 6252SOL     OW19654   1.345   6.748   5.659
 6252SOL    HW119655   1.277   6.675   5.661
 6252SOL    HW219656   1.425   6.720   5.711
 6253SOL     OW19657   2.152   4.059   3.054
 6253SOL    HW119658   2.180   4.003   2.975
 6253SOL    HW219659   2.107   4.142   3.021
 6254SOL     OW19660   4.933   1.339   0.454
 6254SOL    HW119661   4.935   1.327   0.553
 6254SOL    HW219662   4.841   1.319   0.420
 6255SOL     OW19663   2.957   0.256   0.908
 6255SOL    HW119664   2.907   0.189   0.853
 6255SOL    HW219665   2.905   0.342   0.910
 6256SOL     OW19666   3.476   5.148   2.371
 6256SOL    HW119667   3.404   5.216   2.382
 6256SOL    HW219668   3.440   5.069   2.322
 6257SOL     OW19669   4.730   2.229   0.099
 6257SOL    HW119670   4.633   2.244   0.078
 6257SOL    HW219671   4.750   2.262   0.191
 6258SOL     OW19672   3.737   0.052   3.810
 6258SOL    HW119673   3.813   0.066   3.747
 6258SOL    HW219674   3.657   0.103   3.777
 6259SOL     OW19675   2.310   2.350   0.817
 6259SOL    HW119676   2.365   2.269   0.798
 6259SOL    HW219677   2.225   2.323   0.863
 6260SOL     OW19678   3.475   5.722   0.858
 6260SOL    HW119679   3.502   5.673   0.940
 6260SOL    HW219680   3.382   5.758   0.869
 6261SOL     OW19681   3.995   0.486   6.142
 6261SOL    HW119682   4.012   0.475   6.044
 6261SOL    HW219683   3.967   0.399   6.181
 6262SOL     OW19684   1.835   5.702   0.471
 6262SOL    HW119685   1.865   5.793   0.445
 6262SOL    HW219686   1.900   5.634   0.435
 6263SOL     OW19687   6.518   0.300   5.397
 6263SOL    HW119688   6.430   0.339   5.372
 6263SOL    HW219689   6.519   0.278   5.494
 6264SOL     OW19690   1.548   6.578   2.291
 6264SOL    HW119691   1.500   6.504   2.243
 6264SOL    HW219692   1.563   6.551   2.386
 6265SOL     OW19693   3.327   4.081   0.599
 6265SOL    HW119694   3.274   4.165   0.588
 6265SOL    HW219695   3.351   4.045   0.508
 6266SOL     OW19696   3.891   0.616   4.683
 6266SOL    HW119697   3.959   0.545   4.661
 6266SOL    HW219698   3.938   0.696   4.719
 6267SOL     OW19699   2.646   0.914   6.425
 6267SOL    HW119700   2.552   0.883   6.411
 6267SOL    HW219701   2.700   0.838   6.461
 6268SOL     OW19702   3.367   0.214   3.530
 6268SOL    HW119703   3.435   0.212   3.604
 6268SOL    HW219704   3.287   0.160   3.556
 6269SOL     OW19705   6.592   5.912   1.659
 6269SOL    HW119706   6.678   5.958   1.678
 6269SOL    HW219707   6.516   5.971   1.686
 6270SOL     OW19708   1.480   0.398   4.902
 6270SOL    HW119709   1.436   0.487   4.888
 6270SOL    HW219710   1.493   0.383   4.999
 6271SOL     OW19711   6.055   2.130   6.488
 6271SOL    HW119712   6.055   2.186   6.571
 6271SOL    HW219713   6.073   2.187   6.409
 6272SOL     OW19714   0.359   2.348   0.096
 6272SOL    HW119715   0.390   2.265   0.143
 6272SOL    HW219716   0.367   2.335   7.018
 6273SOL     OW19717   1.535   6.190   2.791
 6273SOL    HW119718   1.523   6.287   2.808
 6273SOL    HW219719   1.599   6.177   2.715
 6274SOL     OW19720   2.696   5.869   6.126
 6274SOL    HW119721   2.729   5.791   6.179
 6274SOL    HW219722   2.773   5.914   6.081
 6275SOL     OW19723   1.868   6.242   5.477
 6275SOL    HW119724   1.964   6.227   5.456
 6275SOL    HW219725   1.819   6.271   5.394
 6276SOL     OW19726   2.088   4.575   3.237
 6276SOL    HW119727   2.126   4.524   3.161
 6276SOL    HW219728   2.161   4.623   3.285
 6277SOL     OW19729   5.610   3.164   2.004
 6277SOL    HW119730   5.639   3.202   1.916
 6277SOL    HW219731   5.513   3.140   1.999
 6278SOL     OW19732   5.030   6.445   4.278
 6278SOL    HW119733   4.995   6.537   4.261
 6278SOL    HW219734   4.955   6.379   4.275
 6279SOL     OW19735   4.025   6.992   6.702
 6279SOL    HW119736   4.090   0.010   6.767
 6279SOL    HW219737   3.983   0.044   6.648
 6280SOL     OW19738   1.115   2.224   5.353
 6280SOL    HW119739   1.094   2.181   5.441
 6280SOL    HW219740   1.131   2.154   5.284
 6281SOL     OW19741   0.936   5.251   3.286
 6281SOL    HW119742   0.935   5.329   3.223
 6281SOL    HW219743   0.984   5.277   3.370
 6282SOL     OW19744   1.221   6.598   4.606
 6282SOL    HW119745   1.308   6.648   4.603
 6282SOL    HW219746   1.173   6.619   4.691
 6283SOL     OW19747   6.998   2.846   5.691
 6283SOL    HW119748   6.988   2.928   5.747
 6283SOL    HW219749   0.038   2.865   5.614
 6284SOL     OW19750   1.975   5.743   4.712
 6284SOL    HW119751   1.967   5.726   4.811
 6284SOL    HW219752   2.026   5.668   4.670
 6285SOL     OW19753   0.180   3.226   4.507
 6285SOL    HW119754   0.240   3.248   4.431
 6285SOL    HW219755   0.187   3.128   4.527
 6286SOL     OW19756   6.222   2.260   3.096
 6286SOL    HW119757   6.157   2.184   3.103
 6286SOL    HW219758   6.176   2.346   3.119
 6287SOL     OW19759   3.626   5.351   3.942
 6287SOL    HW119760   3.560   5.299   3.888
 6287SOL    HW219761   3.643   5.439   3.898
 6288SOL     OW19762   4.905   4.791   2.411
 6288SOL    HW119763   4.828   4.842   2.452
 6288SOL    HW219764   4.877   4.754   2.323
 6289SOL     OW19765   1.796   4.766   2.020
 6289SOL    HW119766   1.811   4.705   1.942
 6289SOL    HW219767   1.747   4.848   1.989
 6290SOL     OW19768   6.628   4.307   4.867
 6290SOL    HW119769   6.627   4.383   4.802
 6290SOL    HW219770   6.640   4.221   4.818
 6291SOL     OW19771   3.718   2.954   4.680
 6291SOL    HW119772   3.815   2.974   4.698
 6291SOL    HW219773   3.704   2.949   4.581
 6292SOL     OW19774   1.858   2.656   4.179
 6292SOL    HW119775   1.850   2.557   4.194
 6292SOL    HW219776   1.769   2.694   4.158
 6293SOL     OW19777   3.677   0.563   6.947
 6293SOL    HW119778   3.634   0.543   6.859
 6293SOL    HW219779   3.610   0.601   7.010
 6294SOL     OW19780   4.015   4.914   4.590
 6294SOL    HW119781   4.061   4.969   4.521
 6294SOL    HW219782   4.060   4.825   4.596
 6295SOL     OW19783   5.963   4.734   5.654
 6295SOL    HW119784   5.883   4.674   5.644
 6295SOL    HW219785   5.988   4.739   5.751
 6296SOL     OW19786   0.294   0.165   6.183
 6296SOL    HW119787   0.298   0.080   6.236
 6296SOL    HW219788   0.381   0.213   6.189
 6297SOL     OW19789   4.812   6.512   4.482
 6297SOL    HW119790   4.735   6.488   4.422
 6297SOL    HW219791   4.823   6.441   4.552
 6298SOL     OW19792   1.302   2.917   6.666
 6298SOL    HW119793   1.224   2.967   6.704
 6298SOL    HW219794   1.301   2.925   6.567
 6299SOL     OW19795   5.188   1.723   6.824
 6299SOL    HW119796   5.157   1.630   6.846
 6299SOL    HW219797   5.111   1.786   6.827
 6300SOL     OW19798   5.872   0.315   0.366
 6300SOL    HW119799   5.940   0.388   0.361
 6300SOL    HW219800   5.833   0.312   0.458
 6301SOL     OW19801   3.895   0.590   0.207
 6301SOL    HW119802   3.809   0.545   0.231
 6301SOL    HW219803   3.905   0.673   0.262
 6302SOL     OW19804   1.980   0.148   3.433
 6302SOL    HW119805   1.930   0.210   3.493
 6302SOL    HW219806   2.055   0.198   3.389
 6303SOL     OW19807   1.702   1.580   4.215
 6303SOL    HW119808   1.694   1.597   4.313
 6303SOL    HW219809   1.648   1.647   4.164
 6304SOL     OW19810   2.220   1.341   1.068
 6304SOL    HW119811   2.239   1.340   1.166
 6304SOL    HW219812   2.292   1.292   1.019
 6305SOL     OW19813   5.546   0.027   1.656
 6305SOL    HW119814   5.518   0.123   1.664
 6305SOL    HW219815   5.497   7.006   1.580
 6306SOL     OW19816   0.350   3.911   4.472
 6306SOL    HW119817   0.413   3.945   4.402
 6306SOL    HW219818   0.275   3.862   4.427
 6307SOL     OW19819   3.829   4.326   5.607
 6307SOL    HW119820   3.909   4.322   5.667
 6307SOL    HW219821   3.845   4.270   5.526
 6308SOL     OW19822   2.093   2.324   4.682
 6308SOL    HW119823   2.042   2.399   4.641
 6308SOL    HW219824   2.170   2.300   4.624
 6309SOL     OW19825   5.369   4.664   5.266
 6309SOL    HW119826   5.321   4.635   5.349
 6309SOL    HW219827   5.412   4.585   5.223
 6310SOL     OW19828   1.813   5.880   3.096
 6310SOL    HW119829   1.881   5.815   3.130
 6310SOL    HW219830   1.860   5.961   3.061
 6311SOL     OW19831   4.725   0.552   6.311
 6311SOL    HW119832   4.767   0.522   6.397
 6311SOL    HW219833   4.665   0.631   6.329
 6312SOL     OW19834   5.718   5.364   5.412
 6312SOL    HW119835   5.711   5.309   5.495
 6312SOL    HW219836   5.720   5.461   5.436
 6313SOL     OW19837   1.455   6.804   4.240
 6313SOL    HW119838   1.433   6.866   4.165
 6313SOL    HW219839   1.376   6.745   4.258
 6314SOL     OW19840   3.753   6.369   1.881
 6314SOL    HW119841   3.746   6.467   1.864
 6314SOL    HW219842   3.661   6.332   1.898
 6315SOL     OW19843   2.017   2.914   5.819
 6315SOL    HW119844   2.062   2.978   5.882
 6315SOL    HW219845   1.953   2.964   5.762
 6316SOL     OW19846   4.734   1.408   6.744
 6316SOL    HW119847   4.670   1.364   6.681
 6316SOL    HW219848   4.772   1.339   6.806
 6317SOL     OW19849   4.634   5.961   2.881
 6317SOL    HW119850   4.624   6.051   2.840
 6317SOL    HW219851   4.631   5.891   2.809
 6318SOL     OW19852   3.741   1.517   4.880
 6318SOL    HW119853   3.739   1.520   4.980
 6318SOL    HW219854   3.774   1.427   4.850
 6319SOL     OW19855   7.000   1.730   4.138
 6319SOL    HW119856   6.905   1.701   4.127
 6319SOL    HW219857   7.015   1.814   4.086
 6320SOL     OW19858   5.869   5.933   5.090
 6320SOL    HW119859   5.941   5.905   5.153
 6320SOL    HW219860   5.880   6.030   5.068
 6321SOL     OW19861   3.445   3.510   0.976
 6321SOL    HW119862   3.351   3.476   0.977
 6321SOL    HW219863   3.445   3.609   0.992
 6322SOL     OW19864   1.589   2.151   0.423
 6322SOL    HW119865   1.655   2.077   0.410
 6322SOL    HW219866   1.521   2.149   0.350
 6323SOL     OW19867   3.540   2.344   1.425
 6323SOL    HW119868   3.508   2.302   1.340
 6323SOL    HW219869   3.592   2.276   1.478
 6324SOL     OW19870   5.365   0.031   6.630
 6324SOL    HW119871   5.296   0.078   6.684
 6324SOL    HW219872   5.456   0.066   6.654
 6325SOL     OW19873   2.499   1.826   2.348
 6325SOL    HW119874   2.572   1.889   2.321
 6325SOL    HW219875   2.501   1.746   2.287
 6326SOL     OW19876   4.618   5.076   1.868
 6326SOL    HW119877   4.565   5.076   1.953
 6326SOL    HW219878   4.687   5.003   1.872
 6327SOL     OW19879   0.005   0.298   4.647
 6327SOL    HW119880   6.987   0.217   4.604
 6327SOL    HW219881   0.084   0.272   4.703
 6328SOL     OW19882   2.865   3.083   0.604
 6328SOL    HW119883   2.901   3.175   0.590
 6328SOL    HW219884   2.940   3.020   0.622
 6329SOL     OW19885   2.474   2.193   3.549
 6329SOL    HW119886   2.416   2.149   3.618
 6329SOL    HW219887   2.467   2.292   3.558
 6330SOL     OW19888   4.589   0.909   1.191
 6330SOL    HW119889   4.526   0.836   1.219
 6330SOL    HW219890   4.678   0.894   1.234
 6331SOL     OW19891   6.444   1.992   6.618
 6331SOL    HW119892   6.542   1.986   6.603
 6331SOL    HW219893   6.395   1.946   6.544
 6332SOL     OW19894   5.933   3.570   1.883
 6332SOL    HW119895   5.958   3.500   1.950
 6332SOL    HW219896   5.834   3.586   1.886
 6333SOL     OW19897   4.803   5.665   5.212
 6333SOL    HW119898   4.764   5.754   5.187
 6333SOL    HW219899   4.902   5.670   5.209
 6334SOL     OW19900   3.243   0.444   1.624
 6334SOL    HW119901   3.147   0.422   1.605
 6334SOL    HW219902   3.296   0.439   1.539
 6335SOL     OW19903   4.387   1.009   0.291
 6335SOL    HW119904   4.293   1.004   0.259
 6335SOL    HW219905   4.448   0.965   0.225
 6336SOL     OW19906   0.960   2.006   5.761
 6336SOL    HW119907   1.001   2.080   5.814
 6336SOL    HW219908   0.923   1.937   5.823
 6337SOL     OW19909   4.816   3.988   6.469
 6337SOL    HW119910   4.891   3.922   6.464
 6337SOL    HW219911   4.804   4.031   6.379
 6338SOL     OW19912   3.727   1.844   4.103
 6338SOL    HW119913   3.800   1.777   4.090
 6338SOL    HW219914   3.666   1.843   4.023
 6339SOL     OW19915   1.494   3.757   2.916
 6339SOL    HW119916   1.446   3.838   2.948
 6339SOL    HW219917   1.468   3.678   2.972
 6340SOL     OW19918   1.630   5.216   2.941
 6340SOL    HW119919   1.697   5.257   3.003
 6340SOL    HW219920   1.606   5.125   2.974
 6341SOL     OW19921   0.919   4.366   4.555
 6341SOL    HW119922   0.925   4.308   4.636
 6341SOL    HW219923   1.010   4.399   4.531
 6342SOL     OW19924   2.288   1.442   2.329
 6342SOL    HW119925   2.316   1.346   2.328
 6342SOL    HW219926   2.329   1.489   2.251
 6343SOL     OW19927   4.615   1.928   6.268
 6343SOL    HW119928   4.528   1.880   6.264
 6343SOL    HW219929   4.690   1.861   6.261
 6344SOL     OW19930   5.937   3.131   5.468
 6344SOL    HW119931   5.990   3.135   5.552
 6344SOL    HW219932   5.945   3.218   5.419
 6345SOL     OW19933   5.133   2.718   2.307
 6345SOL    HW119934   5.208   2.654   2.326
 6345SOL    HW219935   5.060   2.671   2.259
 6346SOL     OW19936   6.703   4.464   3.481
 6346SOL    HW119937   6.734   4.538   3.541
 6346SOL    HW219938   6.652   4.502   3.404
 6347SOL     OW19939   2.468   0.427   0.825
 6347SOL    HW119940   2.420   0.339   0.830
 6347SOL    HW219941   2.462   0.463   0.732
 6348SOL     OW19942   1.194   4.234   5.322
 6348SOL    HW119943   1.246   4.214   5.239
 6348SOL    HW219944   1.109   4.182   5.321
 6349SOL     OW19945   3.036   0.452   1.274
 6349SOL    HW119946   2.956   0.473   1.218
 6349SOL    HW219947   3.087   0.377   1.232
 6350SOL     OW19948   2.107   4.999   4.131
 6350SOL    HW119949   2.050   4.957   4.201
 6350SOL    HW219950   2.193   4.948   4.123
 6351SOL     OW19951   6.582   3.596   3.326
 6351SOL    HW119952   6.526   3.672   3.360
 6351SOL    HW219953   6.677   3.626   3.319
 6352SOL     OW19954   3.580   5.554   4.581
 6352SOL    HW119955   3.582   5.461   4.545
 6352SOL    HW219956   3.616   5.618   4.513
 6353SOL     OW19957   0.157   0.445   5.712
 6353SOL    HW119958   0.058   0.444   5.698
 6353SOL    HW219959   0.178   0.421   5.807
 6354SOL     OW19960   1.842   5.659   3.384
 6354SOL    HW119961   1.846   5.724   3.460
 6354SOL    HW219962   1.835   5.566   3.420
 6355SOL     OW19963   0.728   5.394   6.422
 6355SOL    HW119964   0.816   5.348   6.435
 6355SOL    HW219965   0.655   5.326   6.425
 6356SOL     OW19966   4.193   5.368   2.444
 6356SOL    HW119967   4.188   5.294   2.377
 6356SOL    HW219968   4.236   5.448   2.402
 6357SOL     OW19969   5.186   3.651   2.328
 6357SOL    HW119970   5.145   3.565   2.357
 6357SOL    HW219971   5.120   3.705   2.276
 6358SOL     OW19972   0.712   2.052   6.356
 6358SOL    HW119973   0.812   2.053   6.361
 6358SOL    HW219974   0.676   2.140   6.386
 6359SOL     OW19975   6.236   6.747   6.005
 6359SOL    HW119976   6.291   6.690   5.944
 6359SOL    HW219977   6.296   6.788   6.074
 6360SOL     OW19978   1.166   4.162   4.074
 6360SOL    HW119979   1.170   4.149   4.173
 6360SOL    HW219980   1.258   4.179   4.039
 6361SOL     OW19981   6.194   6.850   0.738
 6361SOL    HW119982   6.251   6.852   0.820
 6361SOL    HW219983   6.099   6.831   0.763
 6362SOL     OW19984   0.875   6.264   0.832
 6362SOL    HW119985   0.840   6.230   0.919
 6362SOL    HW219986   0.968   6.299   0.845
 6363SOL     OW19987   2.272   4.659   3.567
 6363SOL    HW119988   2.189   4.704   3.600
 6363SOL    HW219989   2.289   4.686   3.472
 6364SOL     OW19990   3.192   1.190   5.756
 6364SOL    HW119991   3.270   1.245   5.786
 6364SOL    HW219992   3.168   1.125   5.828
 6365SOL     OW19993   5.579   0.526   4.017
 6365SOL    HW119994   5.565   0.497   3.922
 6365SOL    HW219995   5.496   0.570   4.051
 6366SOL     OW19996   1.117   6.165   6.050
 6366SOL    HW119997   1.126   6.223   5.968
 6366SOL    HW219998   1.021   6.145   6.066
 6367SOL     OW19999   4.067   0.468   5.003
 6367SOL    HW120000   4.040   0.391   4.945
 6367SOL    HW220001   4.015   0.549   4.976
 6368SOL     OW20002   3.365   4.974   3.655
 6368SOL    HW120003   3.298   4.929   3.714
 6368SOL    HW220004   3.344   4.952   3.559
 6369SOL     OW20005   1.613   4.880   3.916
 6369SOL    HW120006   1.647   4.965   3.875
 6369SOL    HW220007   1.651   4.871   4.008
 6370SOL     OW20008   0.385   3.143   2.992
 6370SOL    HW120009   0.295   3.113   3.024
 6370SOL    HW220010   0.451   3.068   3.003
 6371SOL     OW20011   5.115   3.980   4.167
 6371SOL    HW120012   5.046   3.914   4.195
 6371SOL    HW220013   5.080   4.034   4.090
 6372SOL     OW20014   2.370   0.506   1.877
 6372SOL    HW120015   2.284   0.497   1.927
 6372SOL    HW220016   2.381   0.428   1.814
 6373SOL     OW20017   5.061   4.464   3.182
 6373SOL    HW120018   5.000   4.462   3.103
 6373SOL    HW220019   5.101   4.373   3.195
 6374SOL     OW20020   3.131   4.062   4.569
 6374SOL    HW120021   3.086   3.978   4.600
 6374SOL    HW220022   3.193   4.094   4.641
 6375SOL     OW20023   6.565   1.810   3.715
 6375SOL    HW120024   6.551   1.873   3.640
 6375SOL    HW220025   6.503   1.732   3.706
 6376SOL     OW20026   5.873   2.653   4.912
 6376SOL    HW120027   5.776   2.676   4.915
 6376SOL    HW220028   5.885   2.561   4.875
 6377SOL     OW20029   6.121   1.671   4.970
 6377SOL    HW120030   6.177   1.608   5.024
 6377SOL    HW220031   6.025   1.642   4.976
 6378SOL     OW20032   4.835   5.547   3.901
 6378SOL    HW120033   4.876   5.580   3.816
 6378SOL    HW220034   4.795   5.456   3.886
 6379SOL     OW20035   2.027   4.030   4.269
 6379SOL    HW120036   2.110   4.078   4.297
 6379SOL    HW220037   1.996   4.067   4.181
 6380SOL     OW20038   0.614   1.819   6.192
 6380SOL    HW120039   0.642   1.900   6.243
 6380SOL    HW220040   0.660   1.739   6.230
 6381SOL     OW20041   3.854   3.248   1.752
 6381SOL    HW120042   3.841   3.243   1.653
 6381SOL    HW220043   3.946   3.217   1.775
 6382SOL     OW20044   1.243   1.690   0.810
 6382SOL    HW120045   1.324   1.631   0.800
 6382SOL    HW220046   1.161   1.636   0.792
 6383SOL     OW20047   1.318   1.803   3.212
 6383SOL    HW120048   1.250   1.809   3.139
 6383SOL    HW220049   1.339   1.707   3.230
 6384SOL     OW20050   5.631   3.933   1.344
 6384SOL    HW120051   5.709   3.874   1.323
 6384SOL    HW220052   5.641   4.020   1.297
 6385SOL     OW20053   6.850   4.624   3.650
 6385SOL    HW120054   6.930   4.605   3.592
 6385SOL    HW220055   6.880   4.668   3.734
 6386SOL     OW20056   2.489   4.092   6.156
 6386SOL    HW120057   2.456   4.089   6.250
 6386SOL    HW220058   2.546   4.173   6.143
 6387SOL     OW20059   0.706   1.818   6.555
 6387SOL    HW120060   0.735   1.899   6.504
 6387SOL    HW220061   0.633   1.772   6.505
 6388SOL     OW20062   4.394   4.679   1.137
 6388SOL    HW120063   4.356   4.762   1.179
 6388SOL    HW220064   4.457   4.706   1.064
 6389SOL     OW20065   0.840   5.704   2.201
 6389SOL    HW120066   0.909   5.633   2.186
 6389SOL    HW220067   0.756   5.679   2.152
 6390SOL     OW20068   0.757   2.033   5.362
 6390SOL    HW120069   0.776   2.101   5.291
 6390SOL    HW220070   0.696   1.963   5.325
 6391SOL     OW20071   2.632   6.921   5.961
 6391SOL    HW120072   2.576   6.876   5.891
 6391SOL    HW220073   2.573   6.957   6.033
 6392SOL     OW20074   2.130   7.000   2.972
 6392SOL    HW120075   2.138   6.965   3.065
 6392SOL    HW220076   2.211   6.973   2.920
 6393SOL     OW20077   6.605   6.770   1.630
 6393SOL    HW120078   6.653   6.686   1.605
 6393SOL    HW220079   6.668   6.831   1.679
 6394SOL     OW20080   2.285   4.724   0.642
 6394SOL    HW120081   2.228   4.750   0.565
 6394SOL    HW220082   2.381   4.739   0.619
 6395SOL     OW20083   6.499   2.576   1.526
 6395SOL    HW120084   6.540   2.665   1.505
 6395SOL    HW220085   6.411   2.568   1.479
 6396SOL     OW20086   5.181   3.196   6.191
 6396SOL    HW120087   5.152   3.259   6.263
 6396SOL    HW220088   5.212   3.110   6.231
 6397SOL     OW20089   5.497   2.354   6.635
 6397SOL    HW120090   5.546   2.415   6.697
 6397SOL    HW220091   5.401   2.349   6.663
 6398SOL     OW20092   3.223   0.704   0.449
 6398SOL    HW120093   3.268   0.680   0.535
 6398SOL    HW220094   3.285   0.689   0.373
 6399SOL     OW20095   1.334   5.661   6.794
 6399SOL    HW120096   1.403   5.598   6.758
 6399SOL    HW220097   1.247   5.613   6.802
 6400SOL     OW20098   2.140   6.574   2.263
 6400SOL    HW120099   2.108   6.489   2.222
 6400SOL    HW220100   2.240   6.576   2.263
 6401SOL     OW20101   0.288   4.698   3.562
 6401SOL    HW120102   0.283   4.612   3.613
 6401SOL    HW220103   0.212   4.758   3.590
 6402SOL     OW20104   4.045   1.511   2.390
 6402SOL    HW120105   4.130   1.564   2.378
 6402SOL    HW220106   3.970   1.574   2.410
 6403SOL     OW20107   6.629   6.400   6.156
 6403SOL    HW120108   6.671   6.466   6.094
 6403SOL    HW220109   6.683   6.394   6.240
 6404SOL     OW20110   4.445   1.387   2.449
 6404SOL    HW120111   4.435   1.450   2.372
 6404SOL    HW220112   4.388   1.418   2.525
 6405SOL     OW20113   2.649   0.275   3.601
 6405SOL    HW120114   2.619   0.331   3.524
 6405SOL    HW220115   2.748   0.278   3.608
 6406SOL     OW20116   1.089   2.362   3.326
 6406SOL    HW120117   1.094   2.265   3.305
 6406SOL    HW220118   1.021   2.378   3.397
 6407SOL     OW20119   2.726   6.169   4.412
 6407SOL    HW120120   2.681   6.131   4.493
 6407SOL    HW220121   2.675   6.141   4.331
 6408SOL     OW20122   5.571   1.846   0.335
 6408SOL    HW120123   5.502   1.917   0.320
 6408SOL    HW220124   5.577   1.824   0.432
 6409SOL     OW20125   0.152   4.144   3.238
 6409SOL    HW120126   0.121   4.142   3.334
 6409SOL    HW220127   0.072   4.142   3.178
 6410SOL     OW20128   1.879   1.618   0.192
 6410SOL    HW120129   1.787   1.648   0.219
 6410SOL    HW220130   1.915   1.682   0.124
 6411SOL     OW20131   0.661   2.875   3.254
 6411SOL    HW120132   0.615   2.838   3.335
 6411SOL    HW220133   0.595   2.923   3.197
 6412SOL     OW20134   0.335   2.190   4.976
 6412SOL    HW120135   0.382   2.217   5.060
 6412SOL    HW220136   0.395   2.130   4.922
 6413SOL     OW20137   4.335   4.668   3.730
 6413SOL    HW120138   4.319   4.690   3.826
 6413SOL    HW220139   4.413   4.605   3.723
 6414SOL     OW20140   5.748   1.226   0.777
 6414SOL    HW120141   5.673   1.185   0.723
 6414SOL    HW220142   5.748   1.185   0.868
 6415SOL     OW20143   1.752   2.840   3.324
 6415SOL    HW120144   1.652   2.845   3.331
 6415SOL    HW220145   1.789   2.800   3.408
 6416SOL     OW20146   1.152   1.405   6.641
 6416SOL    HW120147   1.063   1.394   6.597
 6416SOL    HW220148   1.210   1.463   6.584
 6417SOL     OW20149   0.062   4.745   2.328
 6417SOL    HW120150   0.046   4.681   2.253
 6417SOL    HW220151   0.020   4.833   2.307
 6418SOL     OW20152   4.987   4.614   1.949
 6418SOL    HW120153   4.969   4.573   1.860
 6418SOL    HW220154   4.941   4.561   2.021
 6419SOL     OW20155   2.446   4.496   2.508
 6419SOL    HW120156   2.538   4.489   2.469
 6419SOL    HW220157   2.405   4.583   2.481
 6420SOL     OW20158   3.173   3.907   5.339
 6420SOL    HW120159   3.177   3.850   5.257
 6420SOL    HW220160   3.147   3.851   5.418
 6421SOL     OW20161   5.560   1.146   2.688
 6421SOL    HW120162   5.653   1.113   2.675
 6421SOL    HW220163   5.533   1.203   2.611
 6422SOL     OW20164   0.432   0.461   3.165
 6422SOL    HW120165   0.462   0.415   3.081
 6422SOL    HW220166   0.404   0.392   3.232
 6423SOL     OW20167   4.996   5.375   2.768
 6423SOL    HW120168   5.047   5.368   2.682
 6423SOL    HW220169   4.940   5.293   2.780
 6424SOL     OW20170   6.830   6.054   5.892
 6424SOL    HW120171   6.794   6.061   5.985
 6424SOL    HW220172   6.861   5.960   5.875
 6425SOL     OW20173   6.292   5.803   3.041
 6425SOL    HW120174   6.314   5.761   2.953
 6425SOL    HW220175   6.257   5.734   3.104
 6426SOL     OW20176   0.833   4.816   2.589
 6426SOL    HW120177   0.831   4.716   2.592
 6426SOL    HW220178   0.757   4.853   2.643
 6427SOL     OW20179   2.943   2.767   6.039
 6427SOL    HW120180   2.903   2.743   5.951
 6427SOL    HW220181   2.870   2.791   6.103
 6428SOL     OW20182   6.201   2.959   6.767
 6428SOL    HW120183   6.109   2.950   6.729
 6428SOL    HW220184   6.213   2.893   6.842
 6429SOL     OW20185   1.684   1.693   5.801
 6429SOL    HW120186   1.755   1.724   5.738
 6429SOL    HW220187   1.693   1.742   5.888
 6430SOL     OW20188   5.737   0.908   1.972
 6430SOL    HW120189   5.665   0.909   2.041
 6430SOL    HW220190   5.707   0.960   1.892
 6431SOL     OW20191   5.062   6.516   3.772
 6431SOL    HW120192   5.052   6.475   3.862
 6431SOL    HW220193   5.012   6.602   3.768
 6432SOL     OW20194   3.600   3.800   6.452
 6432SOL    HW120195   3.586   3.899   6.464
 6432SOL    HW220196   3.685   3.784   6.402
 6433SOL     OW20197   3.150   4.557   0.735
 6433SOL    HW120198   3.222   4.608   0.784
 6433SOL    HW220199   3.081   4.526   0.801
 6434SOL     OW20200   1.378   3.679   7.006
 6434SOL    HW120201   1.358   3.582   6.988
 6434SOL    HW220202   1.439   3.686   0.064
 6435SOL     OW20203   4.276   5.914   6.710
 6435SOL    HW120204   4.353   5.919   6.647
 6435SOL    HW220205   4.191   5.932   6.660
 6436SOL     OW20206   2.097   3.849   3.523
 6436SOL    HW120207   2.145   3.873   3.438
 6436SOL    HW220208   2.031   3.776   3.505
 6437SOL     OW20209   2.364   1.124   0.798
 6437SOL    HW120210   2.392   1.029   0.784
 6437SOL    HW220211   2.430   1.184   0.752
 6438SOL     OW20212   0.243   4.053   6.730
 6438SOL    HW120213   0.239   3.954   6.739
 6438SOL    HW220214   0.225   4.079   6.635
 6439SOL     OW20215   5.468   1.118   1.565
 6439SOL    HW120216   5.485   1.122   1.467
 6439SOL    HW220217   5.435   1.206   1.598
 6440SOL     OW20218   2.244   1.718   0.217
 6440SOL    HW120219   2.294   1.641   0.256
 6440SOL    HW220220   2.306   1.796   0.208
 6441SOL     OW20221   0.901   5.983   2.170
 6441SOL    HW120222   0.887   5.885   2.186
 6441SOL    HW220223   0.851   6.010   2.088
 6442SOL     OW20224   2.643   0.712   4.389
 6442SOL    HW120225   2.547   0.724   4.414
 6442SOL    HW220226   2.676   0.623   4.424
 6443SOL     OW20227   3.935   2.415   5.882
 6443SOL    HW120228   3.960   2.441   5.975
 6443SOL    HW220229   3.961   2.488   5.819
 6444SOL     OW20230   6.714   2.667   3.972
 6444SOL    HW120231   6.797   2.661   4.028
 6444SOL    HW220232   6.639   2.619   4.018
 6445SOL     OW20233   4.507   3.089   5.345
 6445SOL    HW120234   4.505   3.080   5.444
 6445SOL    HW220235   4.601   3.100   5.314
 6446SOL     OW20236   1.295   1.245   5.942
 6446SOL    HW120237   1.374   1.193   5.973
 6446SOL    HW220238   1.245   1.192   5.873
 6447SOL     OW20239   0.557   4.875   2.607
 6447SOL    HW120240   0.566   4.975   2.607
 6447SOL    HW220241   0.505   4.847   2.526
 6448SOL     OW20242   4.700   5.551   2.757
 6448SOL    HW120243   4.692   5.649   2.738
 6448SOL    HW220244   4.797   5.526   2.761
 6449SOL     OW20245   3.034   4.903   0.642
 6449SOL    HW120246   2.995   4.810   0.637
 6449SOL    HW220247   2.960   4.968   0.658
 6450SOL     OW20248   0.344   3.644   1.271
 6450SOL    HW120249   0.440   3.660   1.247
 6450SOL    HW220250   0.339   3.574   1.343
 6451SOL     OW20251   2.308   0.172   5.008
 6451SOL    HW120252   2.364   0.090   5.023
 6451SOL    HW220253   2.237   0.153   4.941
 6452SOL     OW20254   3.341   6.848   4.658
 6452SOL    HW120255   3.246   6.818   4.650
 6452SOL    HW220256   3.400   6.784   4.608
 6453SOL     OW20257   2.213   6.795   0.986
 6453SOL    HW120258   2.127   6.743   0.984
 6453SOL    HW220259   2.268   6.773   0.906
 6454SOL     OW20260   2.548   1.894   3.525
 6454SOL    HW120261   2.622   1.906   3.592
 6454SOL    HW220262   2.520   1.983   3.490
 6455SOL     OW20263   0.312   1.991   4.080
 6455SOL    HW120264   0.341   2.082   4.110
 6455SOL    HW220265   0.301   1.932   4.160
 6456SOL     OW20266   1.689   0.554   3.387
 6456SOL    HW120267   1.626   0.532   3.462
 6456SOL    HW220268   1.665   0.499   3.307
 6457SOL     OW20269   4.727   1.873   0.609
 6457SOL    HW120270   4.795   1.946   0.602
 6457SOL    HW220271   4.669   1.888   0.689
 6458SOL     OW20272   0.955   0.334   3.718
 6458SOL    HW120273   1.028   0.397   3.691
 6458SOL    HW220274   0.987   0.240   3.708
 6459SOL     OW20275   5.708   5.233   0.485
 6459SOL    HW120276   5.781   5.269   0.544
 6459SOL    HW220277   5.690   5.138   0.509
 6460SOL     OW20278   4.554   5.405   5.796
 6460SOL    HW120279   4.534   5.309   5.776
 6460SOL    HW220280   4.494   5.463   5.740
 6461SOL     OW20281   2.636   4.666   5.177
 6461SOL    HW120282   2.621   4.757   5.216
 6461SOL    HW220283   2.726   4.663   5.132
 6462SOL     OW20284   2.181   2.864   4.868
 6462SOL    HW120285   2.270   2.889   4.906
 6462SOL    HW220286   2.179   2.767   4.846
 6463SOL     OW20287   6.880   3.617   6.844
 6463SOL    HW120288   6.822   3.681   6.794
 6463SOL    HW220289   6.913   3.546   6.781
 6464SOL     OW20290   1.568   4.829   4.593
 6464SOL    HW120291   1.607   4.771   4.665
 6464SOL    HW220292   1.472   4.847   4.613
 6465SOL     OW20293   6.730   3.042   3.438
 6465SOL    HW120294   6.804   3.020   3.502
 6465SOL    HW220295   6.693   3.132   3.459
 6466SOL     OW20296   1.110   1.842   6.446
 6466SOL    HW120297   1.100   1.853   6.347
 6466SOL    HW220298   1.126   1.931   6.488
 6467SOL     OW20299   3.259   0.478   6.560
 6467SOL    HW120300   3.277   0.564   6.609
 6467SOL    HW220301   3.202   0.419   6.617
 6468SOL     OW20302   3.926   6.654   1.167
 6468SOL    HW120303   3.969   6.635   1.079
 6468SOL    HW220304   3.918   6.753   1.180
 6469SOL     OW20305   4.569   0.561   5.028
 6469SOL    HW120306   4.631   0.618   4.974
 6469SOL    HW220307   4.475   0.579   4.999
 6470SOL     OW20308   6.127   4.955   6.730
 6470SOL    HW120309   6.188   4.986   6.803
 6470SOL    HW220310   6.180   4.938   6.647
 6471SOL     OW20311   6.580   6.118   5.259
 6471SOL    HW120312   6.538   6.205   5.232
 6471SOL    HW220313   6.529   6.081   5.337
 6472SOL     OW20314   0.513   4.802   1.060
 6472SOL    HW120315   0.548   4.710   1.041
 6472SOL    HW220316   0.440   4.823   0.995
 6473SOL     OW20317   2.673   1.233   4.359
 6473SOL    HW120318   2.723   1.267   4.279
 6473SOL    HW220319   2.642   1.311   4.414
 6474SOL     OW20320   2.460   3.962   5.894
 6474SOL    HW120321   2.470   4.029   5.820
 6474SOL    HW220322   2.467   4.009   5.982
 6475SOL     OW20323   6.588   5.151   4.123
 6475SOL    HW120324   6.658   5.218   4.150
 6475SOL    HW220325   6.550   5.109   4.205
 6476SOL     OW20326   4.537   3.103   0.813
 6476SOL    HW120327   4.600   3.149   0.876
 6476SOL    HW220328   4.572   3.012   0.791
 6477SOL     OW20329   6.458   4.584   0.992
 6477SOL    HW120330   6.412   4.523   0.928
 6477SOL    HW220331   6.557   4.576   0.981
 6478SOL     OW20332   3.521   6.221   1.892
 6478SOL    HW120333   3.449   6.197   1.957
 6478SOL    HW220334   3.545   6.140   1.839
 6479SOL     OW20335   3.961   6.059   3.888
 6479SOL    HW120336   3.986   6.141   3.835
 6479SOL    HW220337   4.043   6.011   3.916
 6480SOL     OW20338   3.348   2.194   5.521
 6480SOL    HW120339   3.369   2.133   5.597
 6480SOL    HW220340   3.260   2.169   5.482
 6481SOL     OW20341   3.703   2.036   1.766
 6481SOL    HW120342   3.691   2.097   1.844
 6481SOL    HW220343   3.703   2.090   1.682
 6482SOL     OW20344   0.251   0.426   5.976
 6482SOL    HW120345   0.229   0.436   6.073
 6482SOL    HW220346   0.345   0.457   5.960
 6483SOL     OW20347   1.174   5.961   1.394
 6483SOL    HW120348   1.175   5.961   1.294
 6483SOL    HW220349   1.175   6.055   1.427
 6484SOL     OW20350   3.523   0.212   1.880
 6484SOL    HW120351   3.443   0.179   1.830
 6484SOL    HW220352   3.534   0.161   1.965
 6485SOL     OW20353   1.572   4.523   3.361
 6485SOL    HW120354   1.527   4.523   3.272
 6485SOL    HW220355   1.549   4.607   3.410
 6486SOL     OW20356   1.930   4.648   4.634
 6486SOL    HW120357   1.996   4.581   4.668
 6486SOL    HW220358   1.967   4.740   4.649
 6487SOL     OW20359   6.803   6.134   5.044
 6487SOL    HW120360   6.750   6.133   4.960
 6487SOL    HW220361   6.742   6.132   5.123
 6488SOL     OW20362   3.444   5.913   5.425
 6488SOL    HW120363   3.349   5.939   5.444
 6488SOL    HW220364   3.505   5.956   5.492
 6489SOL     OW20365   2.393   2.897   6.483
 6489SOL    HW120366   2.393   2.827   6.554
 6489SOL    HW220367   2.370   2.855   6.395
 6490SOL     OW20368   4.244   1.793   5.922
 6490SOL    HW120369   4.202   1.748   6.001
 6490SOL    HW220370   4.231   1.892   5.929
 6491SOL     OW20371   3.983   1.204   6.788
 6491SOL    HW120372   3.924   1.166   6.860
 6491SOL    HW220373   3.998   1.135   6.718
 6492SOL     OW20374   5.454   5.438   0.026
 6492SOL    HW120375   5.490   5.456   6.955
 6492SOL    HW220376   5.438   5.340   0.038
 6493SOL     OW20377   1.366   5.532   4.921
 6493SOL    HW120378   1.350   5.622   4.881
 6493SOL    HW220379   1.292   5.470   4.895
 6494SOL     OW20380   0.238   1.091   3.268
 6494SOL    HW120381   0.148   1.125   3.296
 6494SOL    HW220382   0.240   1.080   3.169
 6495SOL     OW20383   4.737   5.812   4.562
 6495SOL    HW120384   4.684   5.844   4.483
 6495SOL    HW220385   4.800   5.740   4.532
 6496SOL     OW20386   0.069   0.579   2.189
 6496SOL    HW120387   0.107   0.654   2.135
 6496SOL    HW220388   0.122   0.496   2.174
 6497SOL     OW20389   2.451   2.869   0.827
 6497SOL    HW120390   2.447   2.891   0.729
 6497SOL    HW220391   2.396   2.787   0.844
 6498SOL     OW20392   2.154   3.904   4.061
 6498SOL    HW120393   2.109   3.930   4.147
 6498SOL    HW220394   2.224   3.972   4.039
 6499SOL     OW20395   5.266   2.131   4.808
 6499SOL    HW120396   5.210   2.196   4.860
 6499SOL    HW220397   5.214   2.095   4.731
 6500SOL     OW20398   0.212   4.382   3.525
 6500SOL    HW120399   0.171   4.292   3.517
 6500SOL    HW220400   0.151   4.451   3.485
 6501SOL     OW20401   6.302   2.611   6.652
 6501SOL    HW120402   6.386   2.572   6.689
 6501SOL    HW220403   6.309   2.616   6.552
 6502SOL     OW20404   6.179   3.595   1.651
 6502SOL    HW120405   6.115   3.518   1.655
 6502SOL    HW220406   6.255   3.573   1.591
 6503SOL     OW20407   4.636   1.239   3.490
 6503SOL    HW120408   4.551   1.190   3.468
 6503SOL    HW220409   4.619   1.304   3.563
 6504SOL     OW20410   5.029   6.162   6.103
 6504SOL    HW120411   4.959   6.224   6.067
 6504SOL    HW220412   4.995   6.119   6.187
 6505SOL     OW20413   5.367   5.348   1.547
 6505SOL    HW120414   5.381   5.298   1.632
 6505SOL    HW220415   5.429   5.427   1.545
 6506SOL     OW20416   6.180   3.665   2.016
 6506SOL    HW120417   6.081   3.678   2.029
 6506SOL    HW220418   6.196   3.619   1.929
 6507SOL     OW20419   1.778   5.270   6.046
 6507SOL    HW120420   1.855   5.216   6.080
 6507SOL    HW220421   1.805   5.366   6.038
 6508SOL     OW20422   2.361   0.383   2.932
 6508SOL    HW120423   2.276   0.355   2.887
 6508SOL    HW220424   2.373   0.481   2.920
 6509SOL     OW20425   3.225   1.845   4.527
 6509SOL    HW120426   3.183   1.802   4.607
 6509SOL    HW220427   3.244   1.775   4.458
 6510SOL     OW20428   6.750   4.372   6.872
 6510SOL    HW120429   6.676   4.437   6.853
 6510SOL    HW220430   6.813   4.371   6.794
 6511SOL     OW20431   4.863   0.999   4.361
 6511SOL    HW120432   4.767   1.016   4.340
 6511SOL    HW220433   4.870   0.941   4.443
 6512SOL     OW20434   4.973   7.001   2.256
 6512SOL    HW120435   4.905   0.021   2.196
 6512SOL    HW220436   4.996   0.044   2.329
 6513SOL     OW20437   3.233   4.860   3.005
 6513SOL    HW120438   3.296   4.794   3.047
 6513SOL    HW220439   3.249   4.864   2.907
 6514SOL     OW20440   5.465   1.136   3.766
 6514SOL    HW120441   5.494   1.075   3.840
 6514SOL    HW220442   5.381   1.100   3.724
 6515SOL     OW20443   0.862   5.031   4.177
 6515SOL    HW120444   0.928   5.036   4.252
 6515SOL    HW220445   0.905   5.061   4.092
 6516SOL     OW20446   0.522   3.330   1.751
 6516SOL    HW120447   0.537   3.370   1.661
 6516SOL    HW220448   0.439   3.274   1.748
 6517SOL     OW20449   6.672   0.978   0.587
 6517SOL    HW120450   6.597   0.913   0.591
 6517SOL    HW220451   6.643   1.060   0.537
 6518SOL     OW20452   0.040   0.230   0.006
 6518SOL    HW120453   0.111   0.295   0.032
 6518SOL    HW220454   6.976   0.279   7.008
 6519SOL     OW20455   2.933   1.917   3.539
 6519SOL    HW120456   2.864   1.966   3.487
 6519SOL    HW220457   2.913   1.819   3.539
 6520SOL     OW20458   5.723   5.222   2.112
 6520SOL    HW120459   5.725   5.125   2.090
 6520SOL    HW220460   5.628   5.254   2.116
 6521SOL     OW20461   1.993   2.711   4.418
 6521SOL    HW120462   2.085   2.719   4.378
 6521SOL    HW220463   1.930   2.676   4.349
 6522SOL     OW20464   3.738   4.375   0.208
 6522SOL    HW120465   3.646   4.345   0.234
 6522SOL    HW220466   3.770   4.444   0.273
 6523SOL     OW20467   3.515   0.561   6.433
 6523SOL    HW120468   3.449   0.490   6.459
 6523SOL    HW220469   3.466   0.638   6.390
 6524SOL     OW20470   2.965   3.581   1.909
 6524SOL    HW120471   2.938   3.675   1.890
 6524SOL    HW220472   2.901   3.518   1.866
 6525SOL     OW20473   1.281   3.967   3.630
 6525SOL    HW120474   1.330   3.995   3.712
 6525SOL    HW220475   1.257   3.870   3.636
 6526SOL     OW20476   2.024   0.181   6.620
 6526SOL    HW120477   1.971   0.245   6.564
 6526SOL    HW220478   1.976   0.166   6.707
 6527SOL     OW20479   1.012   2.514   4.890
 6527SOL    HW120480   0.969   2.572   4.959
 6527SOL    HW220481   0.990   2.549   4.799
 6528SOL     OW20482   0.199   1.042   3.976
 6528SOL    HW120483   0.175   1.061   3.880
 6528SOL    HW220484   0.172   0.949   3.999
 6529SOL     OW20485   0.406   1.545   2.730
 6529SOL    HW120486   0.475   1.597   2.781
 6529SOL    HW220487   0.379   1.465   2.783
 6530SOL     OW20488   6.815   3.817   1.718
 6530SOL    HW120489   6.727   3.771   1.707
 6530SOL    HW220490   6.835   3.827   1.816
 6531SOL     OW20491   5.432   3.667   4.478
 6531SOL    HW120492   5.364   3.609   4.522
 6531SOL    HW220493   5.397   3.701   4.390
 6532SOL     OW20494   6.226   0.335   6.525
 6532SOL    HW120495   6.169   0.413   6.501
 6532SOL    HW220496   6.232   0.327   6.625
 6533SOL     OW20497   4.685   5.945   0.725
 6533SOL    HW120498   4.597   5.911   0.758
 6533SOL    HW220499   4.683   6.044   0.721
 6534SOL     OW20500   3.579   4.385   1.093
 6534SOL    HW120501   3.500   4.326   1.111
 6534SOL    HW220502   3.652   4.330   1.053
 6535SOL     OW20503   6.287   3.488   4.332
 6535SOL    HW120504   6.216   3.539   4.380
 6535SOL    HW220505   6.279   3.506   4.234
 6536SOL     OW20506   0.723   2.234   5.816
 6536SOL    HW120507   0.704   2.146   5.860
 6536SOL    HW220508   0.772   2.218   5.730
 6537SOL     OW20509   6.005   5.371   6.897
 6537SOL    HW120510   5.994   5.464   6.862
 6537SOL    HW220511   5.936   5.353   6.967
 6538SOL     OW20512   3.009   4.078   6.843
 6538SOL    HW120513   3.066   4.101   6.765
 6538SOL    HW220514   3.065   4.033   6.913
 6539SOL     OW20515   3.308   0.245   6.397
 6539SOL    HW120516   3.294   0.314   6.469
 6539SOL    HW220517   3.341   0.160   6.438
 6540SOL     OW20518   5.495   1.373   5.190
 6540SOL    HW120519   5.536   1.296   5.238
 6540SOL    HW220520   5.396   1.371   5.203
 6541SOL     OW20521   3.700   1.748   5.023
 6541SOL    HW120522   3.739   1.723   5.112
 6541SOL    HW220523   3.753   1.707   4.950
 6542SOL     OW20524   6.543   4.510   3.844
 6542SOL    HW120525   6.635   4.523   3.882
 6542SOL    HW220526   6.482   4.581   3.879
 6543SOL     OW20527   6.341   3.632   6.401
 6543SOL    HW120528   6.267   3.638   6.468
 6543SOL    HW220529   6.429   3.639   6.448
 6544SOL     OW20530   0.306   6.598   2.942
 6544SOL    HW120531   0.351   6.510   2.958
 6544SOL    HW220532   0.296   6.647   3.029
 6545SOL     OW20533   5.506   1.959   6.610
 6545SOL    HW120534   5.588   2.013   6.592
 6545SOL    HW220535   5.425   2.010   6.582
 6546SOL     OW20536   3.593   3.979   6.731
 6546SOL    HW120537   3.524   3.908   6.744
 6546SOL    HW220538   3.661   3.974   6.804
 6547SOL     OW20539   4.813   1.294   5.663
 6547SOL    HW120540   4.882   1.307   5.734
 6547SOL    HW220541   4.848   1.327   5.576
 6548SOL     OW20542   0.866   3.478   0.369
 6548SOL    HW120543   0.933   3.552   0.374
 6548SOL    HW220544   0.812   3.476   0.453
 6549SOL     OW20545   4.285   1.402   0.881
 6549SOL    HW120546   4.337   1.469   0.828
 6549SOL    HW220547   4.335   1.315   0.883
 6550SOL     OW20548   0.605   6.623   4.016
 6550SOL    HW120549   0.688   6.607   4.069
 6550SOL    HW220550   0.537   6.670   4.073
 6551SOL     OW20551   1.727   4.577   2.250
 6551SOL    HW120552   1.781   4.619   2.177
 6551SOL    HW220553   1.700   4.646   2.316
 6552SOL     OW20554   2.248   0.192   5.306
 6552SOL    HW120555   2.240   0.196   5.207
 6552SOL    HW220556   2.249   0.097   5.337
 6553SOL     OW20557   0.869   1.318   3.028
 6553SOL    HW120558   0.880   1.310   2.930
 6553SOL    HW220559   0.878   1.228   3.071
 6554SOL     OW20560   5.961   0.937   5.450
 6554SOL    HW120561   5.975   0.891   5.538
 6554SOL    HW220562   5.913   0.875   5.388
 6555SOL     OW20563   0.020   2.104   1.817
 6555SOL    HW120564   0.074   2.184   1.845
 6555SOL    HW220565   0.074   2.021   1.832
 6556SOL     OW20566   4.664   4.577   5.166
 6556SOL    HW120567   4.731   4.624   5.108
 6556SOL    HW220568   4.646   4.633   5.247
 6557SOL     OW20569   3.625   5.821   1.502
 6557SOL    HW120570   3.680   5.771   1.569
 6557SOL    HW220571   3.661   5.804   1.410
 6558SOL     OW20572   6.816   5.026   0.228
 6558SOL    HW120573   6.909   5.008   0.196
 6558SOL    HW220574   6.753   4.959   0.189
 6559SOL     OW20575   6.428   4.289   6.735
 6559SOL    HW120576   6.418   4.224   6.810
 6559SOL    HW220577   6.511   4.268   6.684
 6560SOL     OW20578   4.398   4.167   1.214
 6560SOL    HW120579   4.346   4.252   1.209
 6560SOL    HW220580   4.438   4.158   1.306
 6561SOL     OW20581   3.923   4.014   2.241
 6561SOL    HW120582   3.842   4.041   2.189
 6561SOL    HW220583   3.994   4.083   2.230
 6562SOL     OW20584   5.432   4.537   0.026
 6562SOL    HW120585   5.342   4.562   0.061
 6562SOL    HW220586   5.436   4.438   0.012
 6563SOL     OW20587   0.080   6.029   0.436
 6563SOL    HW120588   0.159   6.072   0.480
 6563SOL    HW220589   0.013   6.099   0.411
 6564SOL     OW20590   0.088   4.101   2.633
 6564SOL    HW120591   0.172   4.047   2.621
 6564SOL    HW220592   0.078   4.127   2.729
 6565SOL     OW20593   6.782   2.285   4.028
 6565SOL    HW120594   6.776   2.258   3.932
 6565SOL    HW220595   6.691   2.308   4.062
 6566SOL     OW20596   2.589   6.273   2.507
 6566SOL    HW120597   2.608   6.185   2.464
 6566SOL    HW220598   2.540   6.332   2.443
 6567SOL     OW20599   3.981   2.667   0.852
 6567SOL    HW120600   3.905   2.699   0.796
 6567SOL    HW220601   3.988   2.567   0.846
 6568SOL     OW20602   4.589   6.989   3.322
 6568SOL    HW120603   4.544   6.901   3.339
 6568SOL    HW220604   4.615   6.996   3.226
 6569SOL     OW20605   2.796   3.908   0.066
 6569SOL    HW120606   2.827   3.994   0.106
 6569SOL    HW220607   2.760   3.925   6.995
 6570SOL     OW20608   4.224   6.497   2.109
 6570SOL    HW120609   4.159   6.559   2.154
 6570SOL    HW220610   4.215   6.506   2.010
 6571SOL     OW20611   2.639   5.474   2.326
 6571SOL    HW120612   2.611   5.530   2.247
 6571SOL    HW220613   2.732   5.440   2.311
 6572SOL     OW20614   0.151   5.704   5.754
 6572SOL    HW120615   0.073   5.729   5.698
 6572SOL    HW220616   0.191   5.787   5.795
 6573SOL     OW20617   2.192   1.317   1.978
 6573SOL    HW120618   2.147   1.291   1.893
 6573SOL    HW220619   2.143   1.394   2.019
 6574SOL     OW20620   3.100   6.307   2.646
 6574SOL    HW120621   3.007   6.328   2.615
 6574SOL    HW220622   3.119   6.354   2.732
 6575SOL     OW20623   1.010   1.197   2.091
 6575SOL    HW120624   1.023   1.240   2.001
 6575SOL    HW220625   1.087   1.136   2.110
 6576SOL     OW20626   1.795   6.435   6.473
 6576SOL    HW120627   1.793   6.337   6.454
 6576SOL    HW220628   1.707   6.464   6.510
 6577SOL     OW20629   0.940   2.422   3.589
 6577SOL    HW120630   0.842   2.433   3.606
 6577SOL    HW220631   0.973   2.340   3.635
 6578SOL     OW20632   0.846   4.281   2.705
 6578SOL    HW120633   0.800   4.205   2.659
 6578SOL    HW220634   0.814   4.286   2.800
 6579SOL     OW20635   6.810   3.623   4.836
 6579SOL    HW120636   6.886   3.580   4.787
 6579SOL    HW220637   6.796   3.576   4.924
 6580SOL     OW20638   6.763   1.582   1.241
 6580SOL    HW120639   6.683   1.545   1.290
 6580SOL    HW220640   6.810   1.509   1.193
 6581SOL     OW20641   2.770   1.504   6.638
 6581SOL    HW120642   2.713   1.470   6.564
 6581SOL    HW220643   2.833   1.573   6.603
 6582SOL     OW20644   1.489   1.089   1.626
 6582SOL    HW120645   1.470   1.117   1.531
 6582SOL    HW220646   1.409   1.041   1.662
 6583SOL     OW20647   4.312   0.619   4.998
 6583SOL    HW120648   4.285   0.672   4.918
 6583SOL    HW220649   4.240   0.553   5.020
 6584SOL     OW20650   4.973   1.893   6.555
 6584SOL    HW120651   4.968   1.851   6.645
 6584SOL    HW220652   4.890   1.947   6.539
 6585SOL     OW20653   6.869   0.408   0.066
 6585SOL    HW120654   6.846   0.488   0.010
 6585SOL    HW220655   6.822   0.413   0.153
 6586SOL     OW20656   6.422   1.979   5.808
 6586SOL    HW120657   6.486   1.935   5.871
 6586SOL    HW220658   6.472   2.025   5.735
 6587SOL     OW20659   2.837   6.151   4.856
 6587SOL    HW120660   2.902   6.075   4.868
 6587SOL    HW220661   2.756   6.118   4.807
 6588SOL     OW20662   1.567   3.860   1.478
 6588SOL    HW120663   1.535   3.954   1.494
 6588SOL    HW220664   1.544   3.833   1.385
 6589SOL     OW20665   4.866   0.130   0.404
 6589SOL    HW120666   4.896   0.036   0.388
 6589SOL    HW220667   4.771   0.140   0.375
 6590SOL     OW20668   1.084   1.446   5.697
 6590SOL    HW120669   1.031   1.530   5.686
 6590SOL    HW220670   1.025   1.367   5.680
 6591SOL     OW20671   5.009   6.289   2.551
 6591SOL    HW120672   4.933   6.254   2.495
 6591SOL    HW220673   5.089   6.303   2.493
 6592SOL     OW20674   5.769   6.470   4.140
 6592SOL    HW120675   5.812   6.473   4.231
 6592SOL    HW220676   5.670   6.484   4.150
 6593SOL     OW20677   2.565   1.589   3.897
 6593SOL    HW120678   2.639   1.631   3.950
 6593SOL    HW220679   2.484   1.648   3.899
 6594SOL     OW20680   3.669   1.248   0.041
 6594SOL    HW120681   3.700   1.182   0.109
 6594SOL    HW220682   3.742   1.315   0.024
 6595SOL     OW20683   0.927   2.975   1.333
 6595SOL    HW120684   1.011   2.938   1.293
 6595SOL    HW220685   0.848   2.944   1.280
 6596SOL     OW20686   3.113   0.048   4.586
 6596SOL    HW120687   3.150   0.086   4.502
 6596SOL    HW220688   3.185   0.000   4.636
 6597SOL     OW20689   1.994   6.274   3.251
 6597SOL    HW120690   2.088   6.258   3.282
 6597SOL    HW220691   1.981   6.371   3.231
 6598SOL     OW20692   0.759   6.966   4.403
 6598SOL    HW120693   0.808   0.016   4.453
 6598SOL    HW220694   0.791   6.876   4.433
 6599SOL     OW20695   4.006   6.059   5.284
 6599SOL    HW120696   3.914   6.097   5.294
 6599SOL    HW220697   4.068   6.103   5.349
 6600SOL     OW20698   4.715   5.320   6.039
 6600SOL    HW120699   4.673   5.379   5.970
 6600SOL    HW220700   4.646   5.260   6.079
 6601SOL     OW20701   0.929   1.688   5.698
 6601SOL    HW120702   0.838   1.654   5.724
 6601SOL    HW220703   0.920   1.761   5.631
 6602SOL     OW20704   0.299   1.643   1.845
 6602SOL    HW120705   0.267   1.609   1.933
 6602SOL    HW220706   0.393   1.614   1.830
 6603SOL     OW20707   0.745   2.483   4.178
 6603SOL    HW120708   0.759   2.425   4.098
 6603SOL    HW220709   0.716   2.427   4.256
 6604SOL     OW20710   2.777   6.537   0.904
 6604SOL    HW120711   2.877   6.539   0.902
 6604SOL    HW220712   2.746   6.537   0.999
 6605SOL     OW20713   5.681   4.366   1.804
 6605SOL    HW120714   5.641   4.276   1.823
 6605SOL    HW220715   5.712   4.369   1.709
 6606SOL     OW20716   6.271   6.831   2.645
 6606SOL    HW120717   6.275   6.931   2.652
 6606SOL    HW220718   6.304   6.802   2.555
 6607SOL     OW20719   1.936   2.236   2.065
 6607SOL    HW120720   1.947   2.137   2.070
 6607SOL    HW220721   1.848   2.257   2.022
 6608SOL     OW20722   5.243   5.983   2.281
 6608SOL    HW120723   5.238   6.069   2.333
 6608SOL    HW220724   5.239   5.906   2.344
 6609SOL     OW20725   4.981   0.797   6.137
 6609SOL    HW120726   4.957   0.870   6.201
 6609SOL    HW220727   4.907   0.730   6.133
 6610SOL     OW20728   2.651   1.363   6.449
 6610SOL    HW120729   2.650   1.377   6.350
 6610SOL    HW220730   2.592   1.285   6.472
 6611SOL     OW20731   5.982   2.878   3.838
 6611SOL    HW120732   5.916   2.807   3.862
 6611SOL    HW220733   6.074   2.839   3.839
 6612SOL     OW20734   6.722   1.897   6.778
 6612SOL    HW120735   6.669   1.819   6.813
 6612SOL    HW220736   6.796   1.917   6.842
 6613SOL     OW20737   6.124   6.121   4.826
 6613SOL    HW120738   6.055   6.177   4.871
 6613SOL    HW220739   6.085   6.033   4.800
 6614SOL     OW20740   5.602   6.337   0.034
 6614SOL    HW120741   5.556   6.426   0.045
 6614SOL    HW220742   5.701   6.351   0.030
 6615SOL     OW20743   0.529   4.834   3.514
 6615SOL    HW120744   0.460   4.778   3.561
 6615SOL    HW220745   0.562   4.904   3.577
 6616SOL     OW20746   4.566   1.172   5.746
 6616SOL    HW120747   4.655   1.202   5.713
 6616SOL    HW220748   4.497   1.241   5.724
 6617SOL     OW20749   3.569   5.222   2.982
 6617SOL    HW120750   3.586   5.311   3.025
 6617SOL    HW220751   3.643   5.201   2.919
 6618SOL     OW20752   1.572   3.791   3.250
 6618SOL    HW120753   1.496   3.728   3.266
 6618SOL    HW220754   1.540   3.885   3.264
 6619SOL     OW20755   6.681   0.403   4.915
 6619SOL    HW120756   6.779   0.415   4.929
 6619SOL    HW220757   6.662   0.309   4.887
 6620SOL     OW20758   1.943   2.751   5.427
 6620SOL    HW120759   1.912   2.672   5.374
 6620SOL    HW220760   1.976   2.822   5.365
 6621SOL     OW20761   2.043   3.503   6.445
 6621SOL    HW120762   2.004   3.553   6.523
 6621SOL    HW220763   2.001   3.413   6.438
 6622SOL     OW20764   5.405   6.365   1.821
 6622SOL    HW120765   5.336   6.312   1.773
 6622SOL    HW220766   5.460   6.304   1.879
 6623SOL     OW20767   2.324   3.670   0.140
 6623SOL    HW120768   2.255   3.606   0.174
 6623SOL    HW220769   2.282   3.759   0.124
 6624SOL     OW20770   1.891   0.157   4.521
 6624SOL    HW120771   1.822   0.163   4.593
 6624SOL    HW220772   1.922   0.249   4.496
 6625SOL     OW20773   5.461   1.931   6.062
 6625SOL    HW120774   5.368   1.904   6.090
 6625SOL    HW220775   5.521   1.927   6.142
 6626SOL     OW20776   3.955   4.877   5.334
 6626SOL    HW120777   4.018   4.944   5.293
 6626SOL    HW220778   3.986   4.785   5.311
 6627SOL     OW20779   2.139   1.169   6.013
 6627SOL    HW120780   2.057   1.122   5.980
 6627SOL    HW220781   2.214   1.156   5.948
 6628SOL     OW20782   4.714   4.341   4.694
 6628SOL    HW120783   4.705   4.276   4.618
 6628SOL    HW220784   4.781   4.411   4.670
 6629SOL     OW20785   3.489   5.649   6.763
 6629SOL    HW120786   3.424   5.708   6.811
 6629SOL    HW220787   3.442   5.570   6.726
 6630SOL     OW20788   3.523   1.509   1.166
 6630SOL    HW120789   3.541   1.413   1.185
 6630SOL    HW220790   3.503   1.557   1.252
 6631SOL     OW20791   3.474   0.110   2.544
 6631SOL    HW120792   3.393   0.167   2.532
 6631SOL    HW220793   3.555   0.161   2.514
 6632SOL     OW20794   0.580   6.218   1.664
 6632SOL    HW120795   0.501   6.211   1.725
 6632SOL    HW220796   0.560   6.284   1.591
 6633SOL     OW20797   0.619   3.800   5.976
 6633SOL    HW120798   0.548   3.747   5.930
 6633SOL    HW220799   0.619   3.778   6.074
 6634SOL     OW20800   6.425   2.732   4.393
 6634SOL    HW120801   6.514   2.719   4.435
 6634SOL    HW220802   6.363   2.775   4.458
 6635SOL     OW20803   3.941   4.827   3.170
 6635SOL    HW120804   3.993   4.743   3.160
 6635SOL    HW220805   3.934   4.851   3.266
 6636SOL     OW20806   3.812   1.271   5.576
 6636SOL    HW120807   3.874   1.229   5.642
 6636SOL    HW220808   3.741   1.206   5.550
 6637SOL     OW20809   1.764   0.412   6.030
 6637SOL    HW120810   1.771   0.485   5.963
 6637SOL    HW220811   1.840   0.348   6.018
 6638SOL     OW20812   3.426   4.137   4.443
 6638SOL    HW120813   3.412   4.197   4.364
 6638SOL    HW220814   3.337   4.106   4.477
 6639SOL     OW20815   5.524   5.236   6.463
 6639SOL    HW120816   5.621   5.239   6.438
 6639SOL    HW220817   5.470   5.207   6.385
 6640SOL     OW20818   0.796   1.395   5.043
 6640SOL    HW120819   0.723   1.396   4.975
 6640SOL    HW220820   0.863   1.466   5.021
 6641SOL     OW20821   2.352   2.259   0.366
 6641SOL    HW120822   2.449   2.280   0.383
 6641SOL    HW220823   2.321   2.308   0.285
 6642SOL     OW20824   2.807   5.053   6.952
 6642SOL    HW120825   2.890   5.104   6.976
 6642SOL    HW220826   2.827   4.992   6.875
 6643SOL     OW20827   6.853   5.294   6.893
 6643SOL    HW120828   6.921   5.306   6.965
 6643SOL    HW220829   6.896   5.250   6.814
 6644SOL     OW20830   2.985   4.847   2.226
 6644SOL    HW120831   3.011   4.814   2.135
 6644SOL    HW220832   2.887   4.868   2.227
 6645SOL     OW20833   0.123   5.236   0.515
 6645SOL    HW120834   0.073   5.150   0.508
 6645SOL    HW220835   0.068   5.310   0.476
 6646SOL     OW20836   3.654   0.003   4.490
 6646SOL    HW120837   3.754   7.017   4.488
 6646SOL    HW220838   3.626   0.049   4.574
 6647SOL     OW20839   4.443   0.737   2.318
 6647SOL    HW120840   4.399   0.819   2.280
 6647SOL    HW220841   4.519   0.764   2.377
 6648SOL     OW20842   3.384   5.705   2.747
 6648SOL    HW120843   3.472   5.693   2.702
 6648SOL    HW220844   3.397   5.701   2.846
 6649SOL     OW20845   5.205   1.246   0.128
 6649SOL    HW120846   5.282   1.190   0.097
 6649SOL    HW220847   5.236   1.313   0.196
 6650SOL     OW20848   2.927   1.483   4.476
 6650SOL    HW120849   2.978   1.467   4.391
 6650SOL    HW220850   2.936   1.579   4.502
 6651SOL     OW20851   1.912   1.952   6.528
 6651SOL    HW120852   1.950   1.885   6.465
 6651SOL    HW220853   1.881   1.906   6.611
 6652SOL     OW20854   6.662   4.517   0.351
 6652SOL    HW120855   6.595   4.589   0.332
 6652SOL    HW220856   6.655   4.446   0.282
 6653SOL     OW20857   3.678   2.879   2.023
 6653SOL    HW120858   3.640   2.882   1.931
 6653SOL    HW220859   3.700   2.784   2.046
 6654SOL     OW20860   1.789   3.034   1.376
 6654SOL    HW120861   1.815   2.979   1.296
 6654SOL    HW220862   1.868   3.044   1.436
 6655SOL     OW20863   2.618   6.961   1.840
 6655SOL    HW120864   2.655   6.989   1.751
 6655SOL    HW220865   2.525   6.996   1.850
 6656SOL     OW20866   6.025   1.665   1.907
 6656SOL    HW120867   6.094   1.637   1.840
 6656SOL    HW220868   5.991   1.585   1.955
 6657SOL     OW20869   5.705   5.904   6.162
 6657SOL    HW120870   5.625   5.963   6.151
 6657SOL    HW220871   5.682   5.810   6.136
 6658SOL     OW20872   6.305   1.364   4.844
 6658SOL    HW120873   6.280   1.276   4.884
 6658SOL    HW220874   6.266   1.372   4.752
 6659SOL     OW20875   1.976   2.086   0.700
 6659SOL    HW120876   2.011   2.036   0.621
 6659SOL    HW220877   1.975   2.026   0.780
 6660SOL     OW20878   0.411   5.839   0.164
 6660SOL    HW120879   0.388   5.807   0.072
 6660SOL    HW220880   0.357   5.789   0.232
 6661SOL     OW20881   1.134   6.124   4.073
 6661SOL    HW120882   1.114   6.031   4.106
 6661SOL    HW220883   1.229   6.129   4.043
 6662SOL     OW20884   1.102   1.300   7.020
 6662SOL    HW120885   1.094   1.209   6.979
 6662SOL    HW220886   1.055   1.367   6.962
 6663SOL     OW20887   6.873   5.069   3.416
 6663SOL    HW120888   6.804   5.058   3.344
 6663SOL    HW220889   6.964   5.062   3.376
 6664SOL     OW20890   2.217   6.937   0.471
 6664SOL    HW120891   2.244   6.905   0.381
 6664SOL    HW220892   2.118   6.922   0.484
 6665SOL     OW20893   1.237   0.049   3.088
 6665SOL    HW120894   1.295   0.124   3.118
 6665SOL    HW220895   1.288   6.984   3.093
 6666SOL     OW20896   5.246   6.873   5.884
 6666SOL    HW120897   5.302   6.951   5.859
 6666SOL    HW220898   5.289   6.823   5.959
 6667SOL     OW20899   6.811   5.321   6.418
 6667SOL    HW120900   6.714   5.298   6.418
 6667SOL    HW220901   6.856   5.278   6.340
 6668SOL     OW20902   6.058   5.851   2.032
 6668SOL    HW120903   5.987   5.911   1.997
 6668SOL    HW220904   6.084   5.880   2.124
 6669SOL     OW20905   2.028   3.025   3.817
 6669SOL    HW120906   1.943   3.076   3.830
 6669SOL    HW220907   2.012   2.928   3.836
 6670SOL     OW20908   3.592   1.856   5.346
 6670SOL    HW120909   3.572   1.920   5.420
 6670SOL    HW220910   3.612   1.907   5.262
 6671SOL     OW20911   5.582   5.431   1.280
 6671SOL    HW120912   5.540   5.510   1.237
 6671SOL    HW220913   5.612   5.367   1.209
 6672SOL     OW20914   0.506   2.190   5.444
 6672SOL    HW120915   0.475   2.209   5.537
 6672SOL    HW220916   0.564   2.109   5.444
 6673SOL     OW20917   4.976   6.363   3.520
 6673SOL    HW120918   5.020   6.418   3.592
 6673SOL    HW220919   4.884   6.339   3.549
 6674SOL     OW20920   0.995   4.824   5.807
 6674SOL    HW120921   1.045   4.739   5.792
 6674SOL    HW220922   1.023   4.864   5.895
 6675SOL     OW20923   4.271   4.066   1.720
 6675SOL    HW120924   4.220   4.116   1.650
 6675SOL    HW220925   4.335   4.128   1.765
 6676SOL     OW20926   0.418   4.268   5.738
 6676SOL    HW120927   0.512   4.298   5.725
 6676SOL    HW220928   0.417   4.175   5.775
 6677SOL     OW20929   0.294   1.989   6.797
 6677SOL    HW120930   0.223   1.999   6.727
 6677SOL    HW220931   0.313   2.078   6.838
 6678SOL     OW20932   2.480   2.832   0.181
 6678SOL    HW120933   2.561   2.850   0.125
 6678SOL    HW220934   2.500   2.758   0.246
 6679SOL     OW20935   3.189   1.727   3.737
 6679SOL    HW120936   3.106   1.672   3.727
 6679SOL    HW220937   3.189   1.771   3.827
 6680SOL     OW20938   4.679   6.727   6.208
 6680SOL    HW120939   4.593   6.763   6.171
 6680SOL    HW220940   4.747   6.724   6.136
 6681SOL     OW20941   4.738   5.541   0.130
 6681SOL    HW120942   4.705   5.488   0.209
 6681SOL    HW220943   4.660   5.574   0.077
 6682SOL     OW20944   1.278   4.482   2.847
 6682SOL    HW120945   1.344   4.479   2.772
 6682SOL    HW220946   1.190   4.444   2.816
 6683SOL     OW20947   5.299   3.058   5.541
 6683SOL    HW120948   5.380   3.008   5.512
 6683SOL    HW220949   5.268   3.023   5.629
 6684SOL     OW20950   3.057   6.344   0.725
 6684SOL    HW120951   3.122   6.414   0.695
 6684SOL    HW220952   3.034   6.358   0.821
 6685SOL     OW20953   5.876   2.684   6.270
 6685SOL    HW120954   5.816   2.711   6.195
 6685SOL    HW220955   5.907   2.590   6.256
 6686SOL     OW20956   5.085   6.208   4.487
 6686SOL    HW120957   5.158   6.141   4.482
 6686SOL    HW220958   5.047   6.208   4.580
 6687SOL     OW20959   0.225   2.583   1.110
 6687SOL    HW120960   0.252   2.513   1.044
 6687SOL    HW220961   0.158   2.644   1.068
 6688SOL     OW20962   6.835   4.313   2.334
 6688SOL    HW120963   6.761   4.352   2.279
 6688SOL    HW220964   6.838   4.359   2.423
 6689SOL     OW20965   4.061   3.653   0.387
 6689SOL    HW120966   4.140   3.703   0.350
 6689SOL    HW220967   4.089   3.603   0.468
 6690SOL     OW20968   2.464   1.613   0.915
 6690SOL    HW120969   2.420   1.692   0.873
 6690SOL    HW220970   2.556   1.639   0.946
 6691SOL     OW20971   2.987   6.699   1.599
 6691SOL    HW120972   2.964   6.717   1.694
 6691SOL    HW220973   3.081   6.663   1.594
 6692SOL     OW20974   3.599   4.319   5.405
 6692SOL    HW120975   3.680   4.363   5.366
 6692SOL    HW220976   3.540   4.288   5.330
 6693SOL     OW20977   4.090   3.193   6.214
 6693SOL    HW120978   4.142   3.192   6.299
 6693SOL    HW220979   4.153   3.194   6.136
 6694SOL     OW20980   5.170   5.798   0.435
 6694SOL    HW120981   5.086   5.849   0.452
 6694SOL    HW220982   5.197   5.749   0.517
 6695SOL     OW20983   2.865   2.125   6.169
 6695SOL    HW120984   2.811   2.121   6.086
 6695SOL    HW220985   2.962   2.114   6.147
 6696SOL     OW20986   1.159   2.948   0.269
 6696SOL    HW120987   1.187   2.980   0.179
 6696SOL    HW220988   1.171   3.022   0.336
 6697SOL     OW20989   4.965   2.763   3.142
 6697SOL    HW120990   4.956   2.672   3.100
 6697SOL    HW220991   4.925   2.831   3.080
 6698SOL     OW20992   2.750   2.512   0.476
 6698SOL    HW120993   2.830   2.463   0.509
 6698SOL    HW220994   2.713   2.569   0.549
 6699SOL     OW20995   3.169   4.967   6.556
 6699SOL    HW120996   3.138   4.922   6.472
 6699SOL    HW220997   3.102   5.036   6.584
 6700SOL     OW20998   6.576   6.202   1.109
 6700SOL    HW120999   6.607   6.238   1.197
 6700SOL    HW221000   6.655   6.180   1.052
 6701SOL     OW21001   6.044   2.676   0.908
 6701SOL    HW121002   6.110   2.728   0.962
 6701SOL    HW221003   6.089   2.641   0.826
 6702SOL     OW21004   3.027   2.566   1.263
 6702SOL    HW121005   2.966   2.529   1.193
 6702SOL    HW221006   2.977   2.576   1.349
 6703SOL     OW21007   6.262   1.613   0.243
 6703SOL    HW121008   6.251   1.548   0.318
 6703SOL    HW221009   6.173   1.650   0.217
 6704SOL     OW21010   4.336   2.353   2.473
 6704SOL    HW121011   4.310   2.377   2.379
 6704SOL    HW221012   4.408   2.283   2.470
 6705SOL     OW21013   0.011   2.629   1.710
 6705SOL    HW121014   0.062   2.714   1.720
 6705SOL    HW221015   6.991   2.605   1.798
 6706SOL     OW21016   0.724   3.996   0.860
 6706SOL    HW121017   0.673   3.982   0.944
 6706SOL    HW221018   0.776   4.081   0.866
 6707SOL     OW21019   0.139   6.173   3.942
 6707SOL    HW121020   0.223   6.196   3.992
 6707SOL    HW221021   0.060   6.192   4.000
 6708SOL     OW21022   1.110   5.415   2.704
 6708SOL    HW121023   1.026   5.402   2.652
 6708SOL    HW221024   1.133   5.512   2.707
 6709SOL     OW21025   3.249   6.429   1.838
 6709SOL    HW121026   3.180   6.387   1.896
 6709SOL    HW221027   3.326   6.458   1.895
 6710SOL     OW21028   2.974   1.572   5.810
 6710SOL    HW121029   3.018   1.638   5.750
 6710SOL    HW221030   2.887   1.543   5.769
 6711SOL     OW21031   5.220   4.628   6.667
 6711SOL    HW121032   5.245   4.724   6.671
 6711SOL    HW221033   5.267   4.584   6.590
 6712SOL     OW21034   5.051   5.318   0.209
 6712SOL    HW121035   5.006   5.407   0.218
 6712SOL    HW221036   4.985   5.250   0.176
 6713SOL     OW21037   2.200   1.814   1.791
 6713SOL    HW121038   2.189   1.900   1.742
 6713SOL    HW221039   2.138   1.746   1.753
 6714SOL     OW21040   5.617   0.430   6.242
 6714SOL    HW121041   5.711   0.412   6.272
 6714SOL    HW221042   5.576   0.346   6.208
 6715SOL     OW21043   0.517   0.451   6.685
 6715SOL    HW121044   0.569   0.485   6.606
 6715SOL    HW221045   0.421   0.439   6.659
 6716SOL     OW21046   0.228   5.734   2.363
 6716SOL    HW121047   0.265   5.644   2.387
 6716SOL    HW221048   0.142   5.723   2.314
 6717SOL     OW21049   4.438   3.146   0.400
 6717SOL    HW121050   4.447   3.212   0.475
 6717SOL    HW221051   4.504   3.168   0.329
 6718SOL     OW21052   4.126   6.716   6.199
 6718SOL    HW121053   4.200   6.709   6.266
 6718SOL    HW221054   4.068   6.635   6.205
 6719SOL     OW21055   0.559   0.013   5.760
 6719SOL    HW121056   0.565   6.944   5.803
 6719SOL    HW221057   0.607   0.080   5.815
 6720SOL     OW21058   1.132   5.722   2.753
 6720SOL    HW121059   1.082   5.761   2.675
 6720SOL    HW221060   1.230   5.729   2.736
 6721SOL     OW21061   6.487   6.912   4.821
 6721SOL    HW121062   6.397   6.867   4.829
 6721SOL    HW221063   6.498   6.948   4.728
 6722SOL     OW21064   5.994   3.318   1.995
 6722SOL    HW121065   5.937   3.305   2.076
 6722SOL    HW221066   6.090   3.323   2.022
 6723SOL     OW21067   2.357   6.899   2.843
 6723SOL    HW121068   2.357   6.919   2.745
 6723SOL    HW221069   2.397   6.808   2.858
 6724SOL     OW21070   1.296   3.493   6.059
 6724SOL    HW121071   1.347   3.577   6.075
 6724SOL    HW221072   1.216   3.512   6.003
 6725SOL     OW21073   0.834   3.908   1.711
 6725SOL    HW121074   0.776   3.987   1.692
 6725SOL    HW221075   0.856   3.905   1.808
 6726SOL     OW21076   0.835   2.313   4.888
 6726SOL    HW121077   0.773   2.335   4.813
 6726SOL    HW221078   0.904   2.385   4.896
 6727SOL     OW21079   6.457   3.339   5.793
 6727SOL    HW121080   6.414   3.352   5.883
 6727SOL    HW221081   6.386   3.323   5.725
 6728SOL     OW21082   5.050   1.682   4.320
 6728SOL    HW121083   5.045   1.645   4.228
 6728SOL    HW221084   4.962   1.669   4.366
 6729SOL     OW21085   0.066   1.211   2.418
 6729SOL    HW121086   0.100   1.128   2.463
 6729SOL    HW221087   0.050   1.192   2.322
 6730SOL     OW21088   1.957   6.644   6.379
 6730SOL    HW121089   2.041   6.654   6.433
 6730SOL    HW221090   1.910   6.560   6.407
 6731SOL     OW21091   1.396   4.704   0.879
 6731SOL    HW121092   1.477   4.664   0.921
 6731SOL    HW221093   1.390   4.801   0.902
 6732SOL     OW21094   3.991   5.251   6.724
 6732SOL    HW121095   4.055   5.252   6.648
 6732SOL    HW221096   3.913   5.193   6.701
 6733SOL     OW21097   3.863   5.119   0.180
 6733SOL    HW121098   3.901   5.122   0.273
 6733SOL    HW221099   3.779   5.174   0.177
 6734SOL     OW21100   6.889   3.133   5.217
 6734SOL    HW121101   6.978   3.087   5.222
 6734SOL    HW221102   6.824   3.075   5.166
 6735SOL     OW21103   0.239   5.250   5.190
 6735SOL    HW121104   0.333   5.281   5.202
 6735SOL    HW221105   0.187   5.319   5.141
 6736SOL     OW21106   2.299   3.046   0.278
 6736SOL    HW121107   2.359   2.970   0.253
 6736SOL    HW221108   2.355   3.123   0.309
 6737SOL     OW21109   2.005   2.583   0.912
 6737SOL    HW121110   1.948   2.629   0.843
 6737SOL    HW221111   1.965   2.598   1.002
 6738SOL     OW21112   2.099   3.425   2.258
 6738SOL    HW121113   2.093   3.492   2.332
 6738SOL    HW221114   2.151   3.464   2.182
 6739SOL     OW21115   3.432   4.914   6.345
 6739SOL    HW121116   3.521   4.951   6.369
 6739SOL    HW221117   3.371   4.988   6.317
 6740SOL     OW21118   1.728   1.631   4.486
 6740SOL    HW121119   1.807   1.580   4.521
 6740SOL    HW221120   1.700   1.699   4.553
 6741SOL     OW21121   4.783   1.346   6.051
 6741SOL    HW121122   4.789   1.263   5.996
 6741SOL    HW221123   4.746   1.324   6.141
 6742SOL     OW21124   0.165   5.284   2.764
 6742SOL    HW121125   0.146   5.277   2.862
 6742SOL    HW221126   0.212   5.201   2.734
 6743SOL     OW21127   4.064   4.307   0.161
 6743SOL    HW121128   4.160   4.317   0.137
 6743SOL    HW221129   4.021   4.398   0.166
 6744SOL     OW21130   5.132   5.418   5.552
 6744SOL    HW121131   5.203   5.486   5.565
 6744SOL    HW221132   5.069   5.448   5.481
 6745SOL     OW21133   0.971   6.267   2.209
 6745SOL    HW121134   0.935   6.178   2.184
 6745SOL    HW221135   0.905   6.338   2.184
 6746SOL     OW21136   0.985   0.880   2.879
 6746SOL    HW121137   0.940   0.915   2.961
 6746SOL    HW221138   0.937   0.912   2.798
 6747SOL     OW21139   5.443   0.222   4.910
 6747SOL    HW121140   5.387   0.232   4.993
 6747SOL    HW221141   5.492   0.135   4.913
 6748SOL     OW21142   1.411   0.810   2.901
 6748SOL    HW121143   1.343   0.858   2.956
 6748SOL    HW221144   1.474   0.876   2.860
 6749SOL     OW21145   3.142   5.567   0.542
 6749SOL    HW121146   3.047   5.585   0.516
 6749SOL    HW221147   3.198   5.648   0.521
 6750SOL     OW21148   3.722   1.377   4.469
 6750SOL    HW121149   3.729   1.285   4.508
 6750SOL    HW221150   3.810   1.425   4.480
 6751SOL     OW21151   3.940   1.722   4.031
 6751SOL    HW121152   4.007   1.667   4.080
 6751SOL    HW221153   3.970   1.818   4.030
 6752SOL     OW21154   6.483   3.126   2.537
 6752SOL    HW121155   6.531   3.212   2.554
 6752SOL    HW221156   6.424   3.137   2.457
 6753SOL     OW21157   4.936   0.876   6.576
 6753SOL    HW121158   4.851   0.845   6.618
 6753SOL    HW221159   4.920   0.897   6.480
 6754SOL     OW21160   6.341   1.670   6.143
 6754SOL    HW121161   6.378   1.673   6.050
 6754SOL    HW221162   6.405   1.621   6.202
 6755SOL     OW21163   4.472   1.845   3.438
 6755SOL    HW121164   4.546   1.907   3.413
 6755SOL    HW221165   4.505   1.750   3.434
 6756SOL     OW21166   4.756   4.096   4.843
 6756SOL    HW121167   4.762   4.070   4.747
 6756SOL    HW221168   4.744   4.195   4.850
 6757SOL     OW21169   5.063   6.339   0.526
 6757SOL    HW121170   5.045   6.430   0.490
 6757SOL    HW221171   4.984   6.279   0.507
 6758SOL     OW21172   5.949   3.847   1.629
 6758SOL    HW121173   5.890   3.903   1.687
 6758SOL    HW221174   5.989   3.773   1.683
 6759SOL     OW21175   0.726   3.320   4.513
 6759SOL    HW121176   0.634   3.315   4.551
 6759SOL    HW221177   0.758   3.415   4.516
 6760SOL     OW21178   6.604   5.133   4.448
 6760SOL    HW121179   6.592   5.201   4.521
 6760SOL    HW221180   6.517   5.091   4.426
 6761SOL     OW21181   5.694   2.363   6.439
 6761SOL    HW121182   5.612   2.391   6.490
 6761SOL    HW221183   5.675   2.371   6.341
 6762SOL     OW21184   0.403   5.560   3.157
 6762SOL    HW121185   0.480   5.550   3.094
 6762SOL    HW221186   0.340   5.630   3.122
 6763SOL     OW21187   6.664   6.152   3.718
 6763SOL    HW121188   6.618   6.179   3.804
 6763SOL    HW221189   6.762   6.147   3.733
 6764SOL     OW21190   2.723   4.682   6.595
 6764SOL    HW121191   2.772   4.595   6.602
 6764SOL    HW221192   2.691   4.693   6.501
 6765SOL     OW21193   5.402   5.560   3.403
 6765SOL    HW121194   5.370   5.615   3.480
 6765SOL    HW221195   5.350   5.475   3.399
 6766SOL     OW21196   2.978   6.614   6.710
 6766SOL    HW121197   2.942   6.568   6.630
 6766SOL    HW221198   2.909   6.676   6.747
 6767SOL     OW21199   0.243   2.296   1.042
 6767SOL    HW121200   0.256   2.211   1.093
 6767SOL    HW221201   0.288   2.288   0.953
 6768SOL     OW21202   0.842   0.521   3.468
 6768SOL    HW121203   0.853   0.620   3.460
 6768SOL    HW221204   0.788   0.501   3.550
 6769SOL     OW21205   2.837   0.979   5.082
 6769SOL    HW121206   2.923   0.968   5.031
 6769SOL    HW221207   2.794   0.889   5.092
 6770SOL     OW21208   6.999   2.316   3.516
 6770SOL    HW121209   7.009   2.218   3.500
 6770SOL    HW221210   7.000   2.334   3.615
 6771SOL     OW21211   3.985   2.152   3.552
 6771SOL    HW121212   4.010   2.075   3.610
 6771SOL    HW221213   3.901   2.131   3.503
 6772SOL     OW21214   5.424   1.720   2.281
 6772SOL    HW121215   5.468   1.645   2.330
 6772SOL    HW221216   5.374   1.778   2.345
 6773SOL     OW21217   0.043   6.636   1.284
 6773SOL    HW121218   0.025   6.704   1.212
 6773SOL    HW221219   0.015   6.674   1.372
 6774SOL     OW21220   1.643   2.411   5.353
 6774SOL    HW121221   1.561   2.459   5.386
 6774SOL    HW221222   1.712   2.477   5.324
 6775SOL     OW21223   0.858   1.934   3.526
 6775SOL    HW121224   0.908   1.852   3.499
 6775SOL    HW221225   0.815   1.975   3.446
 6776SOL     OW21226   3.851   3.755   1.944
 6776SOL    HW121227   3.883   3.774   1.851
 6776SOL    HW221228   3.810   3.664   1.947
 6777SOL     OW21229   4.571   5.287   0.938
 6777SOL    HW121230   4.559   5.360   1.004
 6777SOL    HW221231   4.668   5.260   0.934
 6778SOL     OW21232   5.866   3.223   2.461
 6778SOL    HW121233   5.905   3.132   2.472
 6778SOL    HW221234   5.931   3.292   2.496
 6779SOL     OW21235   5.300   4.315   6.139
 6779SOL    HW121236   5.370   4.319   6.067
 6779SOL    HW221237   5.342   4.285   6.224
 6780SOL     OW21238   2.074   3.688   2.668
 6780SOL    HW121239   2.114   3.603   2.634
 6780SOL    HW221240   2.009   3.668   2.741
 6781SOL     OW21241   6.604   1.060   3.605
 6781SOL    HW121242   6.590   0.988   3.537
 6781SOL    HW221243   6.517   1.083   3.648
 6782SOL     OW21244   0.841   1.127   3.611
 6782SOL    HW121245   0.887   1.210   3.578
 6782SOL    HW221246   0.899   1.048   3.592
 6783SOL     OW21247   0.745   4.001   4.821
 6783SOL    HW121248   0.692   4.061   4.882
 6783SOL    HW221249   0.683   3.951   4.762
 6784SOL     OW21250   2.757   3.815   1.685
 6784SOL    HW121251   2.664   3.841   1.662
 6784SOL    HW221252   2.762   3.716   1.700
 6785SOL     OW21253   5.744   4.845   5.409
 6785SOL    HW121254   5.763   4.933   5.453
 6785SOL    HW221255   5.830   4.795   5.396
 6786SOL     OW21256   6.831   2.512   0.523
 6786SOL    HW121257   6.889   2.467   0.456
 6786SOL    HW221258   6.836   2.611   0.510
 6787SOL     OW21259   3.406   2.220   1.222
 6787SOL    HW121260   3.314   2.249   1.248
 6787SOL    HW221261   3.404   2.124   1.194
 6788SOL     OW21262   0.513   3.731   2.582
 6788SOL    HW121263   0.496   3.674   2.502
 6788SOL    HW221264   0.604   3.771   2.576
 6789SOL     OW21265   6.701   4.525   4.656
 6789SOL    HW121266   6.724   4.511   4.560
 6789SOL    HW221267   6.613   4.571   4.663
 6790SOL     OW21268   0.208   4.959   6.027
 6790SOL    HW121269   0.277   4.988   6.093
 6790SOL    HW221270   0.182   5.036   5.969
 6791SOL     OW21271   4.816   2.017   3.131
 6791SOL    HW121272   4.832   1.918   3.128
 6791SOL    HW221273   4.720   2.035   3.151
 6792SOL     OW21274   4.013   6.578   5.463
 6792SOL    HW121275   4.080   6.629   5.516
 6792SOL    HW221276   3.990   6.629   5.380
 6793SOL     OW21277   3.119   2.082   0.081
 6793SOL    HW121278   3.167   2.166   0.105
 6793SOL    HW221279   3.037   2.104   0.028
 6794SOL     OW21280   4.970   0.781   5.535
 6794SOL    HW121281   4.908   0.707   5.512
 6794SOL    HW221282   5.050   0.744   5.582
 6795SOL     OW21283   1.436   0.560   0.802
 6795SOL    HW121284   1.361   0.592   0.859
 6795SOL    HW221285   1.473   0.475   0.839
 6796SOL     OW21286   5.529   1.360   1.927
 6796SOL    HW121287   5.479   1.401   2.004
 6796SOL    HW221288   5.477   1.376   1.843
 6797SOL     OW21289   6.604   2.796   1.444
 6797SOL    HW121290   6.677   2.831   1.384
 6797SOL    HW221291   6.598   2.853   1.525
 6798SOL     OW21292   5.175   0.060   1.758
 6798SOL    HW121293   5.181   0.119   1.677
 6798SOL    HW221294   5.082   0.025   1.767
 6799SOL     OW21295   5.555   0.829   2.979
 6799SOL    HW121296   5.549   0.734   3.009
 6799SOL    HW221297   5.648   0.863   2.995
 6800SOL     OW21298   1.464   1.890   1.134
 6800SOL    HW121299   1.380   1.852   1.173
 6800SOL    HW221300   1.501   1.826   1.066
 6801SOL     OW21301   1.593   6.401   4.647
 6801SOL    HW121302   1.586   6.433   4.553
 6801SOL    HW221303   1.567   6.304   4.652
 6802SOL     OW21304   3.830   6.077   1.272
 6802SOL    HW121305   3.781   6.012   1.214
 6802SOL    HW221306   3.920   6.096   1.233
 6803SOL     OW21307   5.002   4.615   6.835
 6803SOL    HW121308   4.958   4.525   6.828
 6803SOL    HW221309   5.072   4.624   6.765
 6804SOL     OW21310   2.704   5.386   3.164
 6804SOL    HW121311   2.706   5.464   3.226
 6804SOL    HW221312   2.689   5.302   3.216
 6805SOL     OW21313   0.573   4.550   6.012
 6805SOL    HW121314   0.484   4.588   5.988
 6805SOL    HW221315   0.575   4.531   6.110
 6806SOL     OW21316   6.801   1.235   4.118
 6806SOL    HW121317   6.884   1.285   4.142
 6806SOL    HW221318   6.728   1.300   4.098
 6807SOL     OW21319   3.698   2.891   3.847
 6807SOL    HW121320   3.781   2.930   3.888
 6807SOL    HW221321   3.719   2.801   3.810
 6808SOL     OW21322   5.407   0.907   4.818
 6808SOL    HW121323   5.356   0.865   4.892
 6808SOL    HW221324   5.447   0.993   4.849
 6809SOL     OW21325   6.649   4.255   1.274
 6809SOL    HW121326   6.700   4.261   1.188
 6809SOL    HW221327   6.551   4.256   1.255
 6810SOL     OW21328   3.319   1.183   3.437
 6810SOL    HW121329   3.341   1.089   3.410
 6810SOL    HW221330   3.355   1.201   3.528
 6811SOL     OW21331   6.611   2.537   2.214
 6811SOL    HW121332   6.564   2.519   2.128
 6811SOL    HW221333   6.688   2.473   2.225
 6812SOL     OW21334   3.341   3.589   4.442
 6812SOL    HW121335   3.353   3.634   4.531
 6812SOL    HW221336   3.298   3.652   4.378
 6813SOL     OW21337   4.982   3.661   1.869
 6813SOL    HW121338   4.930   3.590   1.917
 6813SOL    HW221339   5.067   3.679   1.917
 6814SOL     OW21340   4.358   1.514   6.150
 6814SOL    HW121341   4.390   1.437   6.204
 6814SOL    HW221342   4.410   1.519   6.064
 6815SOL     OW21343   1.497   5.163   6.940
 6815SOL    HW121344   1.449   5.238   6.894
 6815SOL    HW221345   1.583   5.146   6.892
 6816SOL     OW21346   6.705   1.482   4.364
 6816SOL    HW121347   6.693   1.386   4.387
 6816SOL    HW221348   6.789   1.495   4.312
 6817SOL     OW21349   2.880   2.181   3.228
 6817SOL    HW121350   2.796   2.147   3.270
 6817SOL    HW221351   2.953   2.183   3.297
 6818SOL     OW21352   2.309   6.500   5.924
 6818SOL    HW121353   2.229   6.441   5.924
 6818SOL    HW221354   2.309   6.557   6.006
 6819SOL     OW21355   4.993   6.165   2.906
 6819SOL    HW121356   4.998   6.083   2.849
 6819SOL    HW221357   5.077   6.218   2.896
 6820SOL     OW21358   1.711   6.158   1.457
 6820SOL    HW121359   1.615   6.149   1.433
 6820SOL    HW221360   1.725   6.133   1.553
 6821SOL     OW21361   4.936   2.520   5.676
 6821SOL    HW121362   4.997   2.502   5.599
 6821SOL    HW221363   4.922   2.436   5.729
 6822SOL     OW21364   6.805   2.437   6.651
 6822SOL    HW121365   6.777   2.341   6.649
 6822SOL    HW221366   6.740   2.492   6.599
 6823SOL     OW21367   5.413   3.324   6.532
 6823SOL    HW121368   5.315   3.306   6.527
 6823SOL    HW221369   5.446   3.306   6.625
 6824SOL     OW21370   1.307   1.904   6.838
 6824SOL    HW121371   1.287   1.806   6.833
 6824SOL    HW221372   1.279   1.948   6.752
 6825SOL     OW21373   6.504   6.153   0.703
 6825SOL    HW121374   6.411   6.172   0.734
 6825SOL    HW221375   6.515   6.054   0.693
 6826SOL     OW21376   0.652   3.268   3.092
 6826SOL    HW121377   0.599   3.204   3.036
 6826SOL    HW221378   0.700   3.218   3.165
 6827SOL     OW21379   5.210   5.063   5.636
 6827SOL    HW121380   5.263   5.143   5.608
 6827SOL    HW221381   5.273   4.990   5.664
 6828SOL     OW21382   3.395   1.493   2.634
 6828SOL    HW121383   3.368   1.445   2.550
 6828SOL    HW221384   3.481   1.542   2.617
 6829SOL     OW21385   4.802   6.924   5.284
 6829SOL    HW121386   4.833   6.862   5.212
 6829SOL    HW221387   4.879   6.946   5.344
 6830SOL     OW21388   6.050   1.514   3.053
 6830SOL    HW121389   6.074   1.445   3.122
 6830SOL    HW221390   6.117   1.510   2.978
 6831SOL     OW21391   0.957   1.199   5.700
 6831SOL    HW121392   0.979   1.160   5.611
 6831SOL    HW221393   0.861   1.180   5.722
 6832SOL     OW21394   2.840   2.715   0.052
 6832SOL    HW121395   2.747   2.730   0.020
 6832SOL    HW221396   2.897   2.793   0.027
 6833SOL     OW21397   3.766   5.630   6.127
 6833SOL    HW121398   3.856   5.648   6.086
 6833SOL    HW221399   3.715   5.716   6.135
 6834SOL     OW21400   5.217   0.044   0.415
 6834SOL    HW121401   5.179   7.016   0.494
 6834SOL    HW221402   5.227   0.141   0.438
 6835SOL     OW21403   3.750   1.511   4.228
 6835SOL    HW121404   3.848   1.520   4.209
 6835SOL    HW221405   3.737   1.473   4.319
 6836SOL     OW21406   1.975   4.356   6.837
 6836SOL    HW121407   2.015   4.435   6.882
 6836SOL    HW221408   1.928   4.385   6.753
 6837SOL     OW21409   1.167   1.343   2.703
 6837SOL    HW121410   1.156   1.397   2.620
 6837SOL    HW221411   1.202   1.402   2.777
 6838SOL     OW21412   3.037   4.286   5.263
 6838SOL    HW121413   2.967   4.215   5.256
 6838SOL    HW221414   3.003   4.371   5.222
 6839SOL     OW21415   5.347   2.119   3.760
 6839SOL    HW121416   5.317   2.045   3.701
 6839SOL    HW221417   5.363   2.201   3.705
 6840SOL     OW21418   2.608   6.889   4.819
 6840SOL    HW121419   2.648   6.885   4.728
 6840SOL    HW221420   2.547   6.811   4.833
 6841SOL     OW21421   4.191   5.073   2.040
 6841SOL    HW121422   4.167   5.117   1.954
 6841SOL    HW221423   4.171   4.976   2.035
 6842SOL     OW21424   1.051   3.066   6.753
 6842SOL    HW121425   1.038   3.045   6.850
 6842SOL    HW221426   0.975   3.026   6.701
 6843SOL     OW21427   5.096   1.390   1.853
 6843SOL    HW121428   5.025   1.382   1.783
 6843SOL    HW221429   5.087   1.479   1.898
 6844SOL     OW21430   5.096   5.419   4.592
 6844SOL    HW121431   5.122   5.511   4.623
 6844SOL    HW221432   5.121   5.408   4.496
 6845SOL     OW21433   4.788   4.136   2.075
 6845SOL    HW121434   4.830   4.090   1.996
 6845SOL    HW221435   4.699   4.172   2.049
 6846SOL     OW21436   4.075   3.197   1.017
 6846SOL    HW121437   4.115   3.168   0.930
 6846SOL    HW221438   4.147   3.235   1.076
 6847SOL     OW21439   5.290   4.020   2.004
 6847SOL    HW121440   5.220   4.090   1.990
 6847SOL    HW221441   5.355   4.052   2.074
 6848SOL     OW21442   1.073   4.954   4.343
 6848SOL    HW121443   1.109   4.885   4.281
 6848SOL    HW221444   1.114   5.043   4.322
 6849SOL     OW21445   3.531   5.865   4.211
 6849SOL    HW121446   3.544   5.819   4.123
 6849SOL    HW221447   3.453   5.824   4.258
 6850SOL     OW21448   5.847   2.514   2.863
 6850SOL    HW121449   5.938   2.529   2.826
 6850SOL    HW221450   5.818   2.594   2.916
 6851SOL     OW21451   1.328   4.835   5.497
 6851SOL    HW121452   1.404   4.831   5.562
 6851SOL    HW221453   1.347   4.905   5.428
 6852SOL     OW21454   1.351   4.068   1.152
 6852SOL    HW121455   1.337   4.159   1.191
 6852SOL    HW221456   1.266   4.037   1.109
 6853SOL     OW21457   7.002   4.790   6.579
 6853SOL    HW121458   6.973   4.698   6.606
 6853SOL    HW221459   6.924   4.840   6.541
 6854SOL     OW21460   5.875   1.071   5.895
 6854SOL    HW121461   5.920   1.114   5.974
 6854SOL    HW221462   5.864   1.138   5.822
 6855SOL     OW21463   3.351   6.949   3.023
 6855SOL    HW121464   3.338   6.997   2.936
 6855SOL    HW221465   3.307   6.860   3.020
 6856SOL     OW21466   5.046   4.522   5.285
 6856SOL    HW121467   5.096   4.443   5.250
 6856SOL    HW221468   4.963   4.492   5.331
 6857SOL     OW21469   3.292   0.911   6.390
 6857SOL    HW121470   3.208   0.857   6.386
 6857SOL    HW221471   3.277   1.000   6.347
 6858SOL     OW21472   4.006   3.095   4.743
 6858SOL    HW121473   4.064   3.059   4.670
 6858SOL    HW221474   4.059   3.101   4.827
 6859SOL     OW21475   1.648   6.590   1.194
 6859SOL    HW121476   1.675   6.495   1.210
 6859SOL    HW221477   1.696   6.650   1.259
 6860SOL     OW21478   6.076   4.912   1.718
 6860SOL    HW121479   6.077   4.817   1.749
 6860SOL    HW221480   6.060   4.914   1.619
 6861SOL     OW21481   5.487   4.322   1.070
 6861SOL    HW121482   5.523   4.253   1.133
 6861SOL    HW221483   5.408   4.285   1.021
 6862SOL     OW21484   2.663   4.857   4.671
 6862SOL    HW121485   2.684   4.796   4.594
 6862SOL    HW221486   2.724   4.936   4.668
 6863SOL     OW21487   5.884   1.215   5.144
 6863SOL    HW121488   5.862   1.294   5.088
 6863SOL    HW221489   5.820   1.141   5.125
 6864SOL     OW21490   3.740   6.026   4.137
 6864SOL    HW121491   3.657   5.988   4.177
 6864SOL    HW221492   3.784   5.957   4.079
 6865SOL     OW21493   6.457   4.808   3.475
 6865SOL    HW121494   6.522   4.762   3.414
 6865SOL    HW221495   6.508   4.851   3.550
 6866SOL     OW21496   6.531   4.435   1.895
 6866SOL    HW121497   6.451   4.475   1.940
 6866SOL    HW221498   6.539   4.470   1.802
 6867SOL     OW21499   1.271   4.487   0.768
 6867SOL    HW121500   1.296   4.582   0.785
 6867SOL    HW221501   1.303   4.459   0.677
 6868SOL     OW21502   1.526   5.888   5.187
 6868SOL    HW121503   1.567   5.863   5.275
 6868SOL    HW221504   1.539   5.986   5.171
 6869SOL     OW21505   5.424   2.620   5.573
 6869SOL    HW121506   5.450   2.534   5.529
 6869SOL    HW221507   5.325   2.629   5.574
 6870SOL     OW21508   6.362   3.614   3.052
 6870SOL    HW121509   6.351   3.515   3.056
 6870SOL    HW221510   6.398   3.640   2.963
 6871SOL     OW21511   6.213   4.785   2.218
 6871SOL    HW121512   6.302   4.752   2.249
 6871SOL    HW221513   6.226   4.855   2.147
 6872SOL     OW21514   2.527   3.821   0.941
 6872SOL    HW121515   2.455   3.752   0.944
 6872SOL    HW221516   2.516   3.876   0.858
 6873SOL     OW21517   6.098   3.140   5.704
 6873SOL    HW121518   6.177   3.181   5.660
 6873SOL    HW221519   6.123   3.051   5.743
 6874SOL     OW21520   0.762   3.755   3.760
 6874SOL    HW121521   0.821   3.808   3.698
 6874SOL    HW221522   0.707   3.691   3.707
 6875SOL     OW21523   1.729   2.405   3.823
 6875SOL    HW121524   1.759   2.405   3.727
 6875SOL    HW221525   1.746   2.495   3.863
 6876SOL     OW21526   3.749   5.568   6.871
 6876SOL    HW121527   3.753   5.468   6.878
 6876SOL    HW221528   3.660   5.595   6.835
 6877SOL     OW21529   2.525   4.130   0.007
 6877SOL    HW121530   2.491   4.046   6.983
 6877SOL    HW221531   2.459   4.158   0.077
 6878SOL     OW21532   2.118   1.469   5.410
 6878SOL    HW121533   2.092   1.522   5.490
 6878SOL    HW221534   2.130   1.530   5.332
 6879SOL     OW21535   0.942   2.230   0.230
 6879SOL    HW121536   0.881   2.152   0.240
 6879SOL    HW221537   0.894   2.305   0.184
 6880SOL     OW21538   2.129   3.498   5.122
 6880SOL    HW121539   2.180   3.498   5.036
 6880SOL    HW221540   2.057   3.429   5.118
 6881SOL     OW21541   6.850   4.512   2.003
 6881SOL    HW121542   6.796   4.595   1.991
 6881SOL    HW221543   6.793   4.439   2.040
 6882SOL     OW21544   2.238   0.224   5.785
 6882SOL    HW121545   2.296   0.290   5.738
 6882SOL    HW221546   2.292   0.178   5.856
 6883SOL     OW21547   3.616   0.824   0.822
 6883SOL    HW121548   3.554   0.884   0.872
 6883SOL    HW221549   3.594   0.827   0.724
 6884SOL     OW21550   2.297   4.125   3.958
 6884SOL    HW121551   2.275   4.221   3.940
 6884SOL    HW221552   2.360   4.092   3.887
 6885SOL     OW21553   2.823   5.482   3.902
 6885SOL    HW121554   2.897   5.549   3.895
 6885SOL    HW221555   2.843   5.419   3.976
 6886SOL     OW21556   6.729   0.756   2.348
 6886SOL    HW121557   6.776   0.765   2.436
 6886SOL    HW221558   6.774   0.685   2.293
 6887SOL     OW21559   5.140   0.180   5.462
 6887SOL    HW121560   5.145   0.088   5.422
 6887SOL    HW221561   5.085   0.178   5.545
 6888SOL     OW21562   5.811   6.527   5.980
 6888SOL    HW121563   5.892   6.524   6.039
 6888SOL    HW221564   5.838   6.559   5.889
 6889SOL     OW21565   1.198   2.767   5.409
 6889SOL    HW121566   1.224   2.828   5.485
 6889SOL    HW221567   1.102   2.744   5.416
 6890SOL     OW21568   2.522   6.292   0.621
 6890SOL    HW121569   2.549   6.196   0.626
 6890SOL    HW221570   2.602   6.350   0.633
 6891SOL     OW21571   2.076   3.954   4.659
 6891SOL    HW121572   2.123   3.895   4.724
 6891SOL    HW221573   2.064   3.906   4.572
 6892SOL     OW21574   4.364   0.764   4.351
 6892SOL    HW121575   4.454   0.736   4.317
 6892SOL    HW221576   4.331   0.697   4.417
 6893SOL     OW21577   5.758   6.724   1.858
 6893SOL    HW121578   5.741   6.646   1.919
 6893SOL    HW221579   5.762   6.808   1.912
 6894SOL     OW21580   5.978   6.045   0.604
 6894SOL    HW121581   5.998   6.091   0.517
 6894SOL    HW221582   5.977   6.112   0.677
 6895SOL     OW21583   3.055   4.922   0.167
 6895SOL    HW121584   2.974   4.893   0.218
 6895SOL    HW221585   3.136   4.908   0.223
 6896SOL     OW21586   3.558   6.894   3.668
 6896SOL    HW121587   3.511   6.821   3.717
 6896SOL    HW221588   3.637   6.925   3.720
 6897SOL     OW21589   2.989   3.712   0.073
 6897SOL    HW121590   2.940   3.627   0.093
 6897SOL    HW221591   2.923   3.787   0.062
 6898SOL     OW21592   3.825   1.612   1.917
 6898SOL    HW121593   3.782   1.522   1.911
 6898SOL    HW221594   3.797   1.669   1.840
 6899SOL     OW21595   4.888   6.891   6.868
 6899SOL    HW121596   4.889   6.853   6.960
 6899SOL    HW221597   4.966   6.856   6.816
 6900SOL     OW21598   6.253   0.223   5.970
 6900SOL    HW121599   6.321   0.238   6.042
 6900SOL    HW221600   6.218   0.129   5.976
 6901SOL     OW21601   0.207   0.405   6.560
 6901SOL    HW121602   0.213   0.318   6.609
 6901SOL    HW221603   0.111   0.425   6.541
 6902SOL     OW21604   0.122   6.327   0.806
 6902SOL    HW121605   0.042   6.268   0.814
 6902SOL    HW221606   0.200   6.274   0.772
 6903SOL     OW21607   3.314   3.766   6.469
 6903SOL    HW121608   3.412   3.755   6.454
 6903SOL    HW221609   3.287   3.859   6.444
 6904SOL     OW21610   6.925   0.870   3.310
 6904SOL    HW121611   6.924   0.968   3.333
 6904SOL    HW221612   7.012   0.830   3.340
 6905SOL     OW21613   6.534   6.244   6.941
 6905SOL    HW121614   6.461   6.312   6.932
 6905SOL    HW221615   6.496   6.160   6.980
 6906SOL     OW21616   4.093   1.294   4.035
 6906SOL    HW121617   4.065   1.208   4.077
 6906SOL    HW221618   4.190   1.309   4.052
 6907SOL     OW21619   4.350   2.125   0.820
 6907SOL    HW121620   4.394   2.207   0.783
 6907SOL    HW221621   4.306   2.147   0.907
 6908SOL     OW21622   0.937   0.101   5.312
 6908SOL    HW121623   0.941   0.010   5.269
 6908SOL    HW221624   0.972   0.095   5.405
 6909SOL     OW21625   5.036   4.985   1.320
 6909SOL    HW121626   5.040   4.892   1.282
 6909SOL    HW221627   5.015   5.050   1.247
 6910SOL     OW21628   6.627   2.386   2.815
 6910SOL    HW121629   6.716   2.377   2.861
 6910SOL    HW221630   6.632   2.346   2.724
 6911SOL     OW21631   3.638   0.870   3.151
 6911SOL    HW121632   3.579   0.857   3.071
 6911SOL    HW221633   3.594   0.935   3.214
 6912SOL     OW21634   5.134   4.972   1.676
 6912SOL    HW121635   5.199   4.944   1.605
 6912SOL    HW221636   5.058   5.022   1.634
 6913SOL     OW21637   5.028   4.209   5.448
 6913SOL    HW121638   5.100   4.180   5.511
 6913SOL    HW221639   4.979   4.128   5.414
 6914SOL     OW21640   5.814   5.220   0.035
 6914SOL    HW121641   5.885   5.155   0.062
 6914SOL    HW221642   5.764   5.250   0.117
 6915SOL     OW21643   0.175   4.580   1.595
 6915SOL    HW121644   0.174   4.664   1.540
 6915SOL    HW221645   0.128   4.597   1.681
 6916SOL     OW21646   6.188   3.850   6.847
 6916SOL    HW121647   6.132   3.782   6.895
 6916SOL    HW221648   6.168   3.941   6.883
 6917SOL     OW21649   4.115   5.233   0.102
 6917SOL    HW121650   4.094   5.279   0.016
 6917SOL    HW221651   4.032   5.190   0.137
 6918SOL     OW21652   0.270   4.134   4.614
 6918SOL    HW121653   0.317   4.068   4.556
 6918SOL    HW221654   0.335   4.201   4.649
 6919SOL     OW21655   1.505   5.600   2.325
 6919SOL    HW121656   1.505   5.560   2.234
 6919SOL    HW221657   1.530   5.697   2.319
 6920SOL     OW21658   4.937   5.066   5.579
 6920SOL    HW121659   5.035   5.055   5.597
 6920SOL    HW221660   4.891   5.097   5.662
 6921SOL     OW21661   5.116   5.915   3.383
 6921SOL    HW121662   5.172   5.871   3.313
 6921SOL    HW221663   5.083   6.003   3.348
 6922SOL     OW21664   1.826   5.902   0.041
 6922SOL    HW121665   1.767   5.912   6.982
 6922SOL    HW221666   1.840   5.991   0.084
 6923SOL     OW21667   5.567   6.695   3.708
 6923SOL    HW121668   5.643   6.645   3.748
 6923SOL    HW221669   5.589   6.792   3.703
 6924SOL     OW21670   0.931   4.079   6.822
 6924SOL    HW121671   1.009   4.140   6.836
 6924SOL    HW221672   0.865   4.093   6.896
 6925SOL     OW21673   4.130   5.981   4.241
 6925SOL    HW121674   4.074   5.912   4.196
 6925SOL    HW221675   4.160   6.048   4.173
 6926SOL     OW21676   3.353   3.228   2.697
 6926SOL    HW121677   3.270   3.269   2.661
 6926SOL    HW221678   3.433   3.276   2.662
 6927SOL     OW21679   5.930   2.890   6.738
 6927SOL    HW121680   5.908   2.824   6.809
 6927SOL    HW221681   5.921   2.847   6.648
 6928SOL     OW21682   5.624   6.987   0.761
 6928SOL    HW121683   5.553   0.036   0.761
 6928SOL    HW221684   5.710   0.006   0.729
 6929SOL     OW21685   4.960   5.633   0.277
 6929SOL    HW121686   4.904   5.580   0.212
 6929SOL    HW221687   4.920   5.626   0.368
 6930SOL     OW21688   0.214   6.712   1.691
 6930SOL    HW121689   0.123   6.732   1.654
 6930SOL    HW221690   0.217   6.734   1.788
 6931SOL     OW21691   0.991   0.764   1.705
 6931SOL    HW121692   1.055   0.834   1.672
 6931SOL    HW221693   0.898   0.801   1.706
 6932SOL     OW21694   3.703   0.953   0.107
 6932SOL    HW121695   3.744   0.879   0.160
 6932SOL    HW221696   3.606   0.962   0.130
 6933SOL     OW21697   3.586   6.180   4.697
 6933SOL    HW121698   3.622   6.262   4.742
 6933SOL    HW221699   3.552   6.204   4.606
 6934SOL     OW21700   4.988   4.097   5.740
 6934SOL    HW121701   4.903   4.146   5.722
 6934SOL    HW221702   5.065   4.153   5.709
 6935SOL     OW21703   4.094   6.680   3.050
 6935SOL    HW121704   4.049   6.741   2.984
 6935SOL    HW221705   4.038   6.671   3.132
 6936SOL     OW21706   6.472   2.338   2.336
 6936SOL    HW121707   6.503   2.404   2.267
 6936SOL    HW221708   6.422   2.264   2.291
 6937SOL     OW21709   6.097   6.665   0.214
 6937SOL    HW121710   6.053   6.749   0.243
 6937SOL    HW221711   6.087   6.654   0.116
 6938SOL     OW21712   4.928   3.718   5.611
 6938SOL    HW121713   4.956   3.807   5.648
 6938SOL    HW221714   4.911   3.727   5.513
 6939SOL     OW21715   0.280   4.544   2.974
 6939SOL    HW121716   0.288   4.467   3.037
 6939SOL    HW221717   0.307   4.629   3.020
 6940SOL     OW21718   4.651   0.984   0.562
 6940SOL    HW121719   4.555   0.958   0.574
 6940SOL    HW221720   4.683   0.950   0.473
 6941SOL     OW21721   4.017   3.093   2.631
 6941SOL    HW121722   3.918   3.108   2.631
 6941SOL    HW221723   4.043   3.050   2.718
 6942SOL     OW21724   6.735   2.918   1.226
 6942SOL    HW121725   6.669   2.980   1.184
 6942SOL    HW221726   6.773   2.858   1.156
 6943SOL     OW21727   5.154   6.360   0.038
 6943SOL    HW121728   5.059   6.380   0.016
 6943SOL    HW221729   5.159   6.280   0.097
 6944SOL     OW21730   1.430   4.479   5.536
 6944SOL    HW121731   1.480   4.441   5.614
 6944SOL    HW221732   1.495   4.518   5.471
 6945SOL     OW21733   5.905   2.693   6.942
 6945SOL    HW121734   5.820   2.739   6.916
 6945SOL    HW221735   5.895   2.658   0.015
 6946SOL     OW21736   6.171   5.512   2.403
 6946SOL    HW121737   6.118   5.461   2.334
 6946SOL    HW221738   6.116   5.522   2.486
 6947SOL     OW21739   3.746   6.856   4.953
 6947SOL    HW121740   3.647   6.864   4.946
 6947SOL    HW221741   3.782   6.931   5.009
 6948SOL     OW21742   6.063   0.528   0.353
 6948SOL    HW121743   6.058   0.545   0.452
 6948SOL    HW221744   5.998   0.586   0.305
 6949SOL     OW21745   5.343   6.826   3.831
 6949SOL    HW121746   5.333   6.789   3.923
 6949SOL    HW221747   5.411   6.772   3.781
 6950SOL     OW21748   2.338   6.906   3.280
 6950SOL    HW121749   2.264   6.897   3.347
 6950SOL    HW221750   2.426   6.886   3.323
 6951SOL     OW21751   6.282   6.343   5.989
 6951SOL    HW121752   6.265   6.353   6.087
 6951SOL    HW221753   6.369   6.296   5.974
 6952SOL     OW21754   0.446   5.490   3.409
 6952SOL    HW121755   0.394   5.408   3.434
 6952SOL    HW221756   0.403   5.534   3.330
 6953SOL     OW21757   4.877   0.206   6.315
 6953SOL    HW121758   4.966   0.210   6.270
 6953SOL    HW221759   4.889   0.183   6.411
 6954SOL     OW21760   0.884   4.019   4.462
 6954SOL    HW121761   0.949   4.093   4.444
 6954SOL    HW221762   0.905   3.978   4.551
 6955SOL     OW21763   6.813   0.333   2.046
 6955SOL    HW121764   6.772   0.356   1.957
 6955SOL    HW221765   6.779   0.243   2.075
 6956SOL     OW21766   4.001   6.192   2.632
 6956SOL    HW121767   4.093   6.223   2.607
 6956SOL    HW221768   4.003   6.093   2.649
 6957SOL     OW21769   6.879   4.858   1.657
 6957SOL    HW121770   6.783   4.865   1.632
 6957SOL    HW221771   6.902   4.763   1.676
 6958SOL     OW21772   3.018   3.677   5.428
 6958SOL    HW121773   3.002   3.684   5.329
 6958SOL    HW221774   3.107   3.635   5.445
 6959SOL     OW21775   2.060   1.293   4.872
 6959SOL    HW121776   1.989   1.348   4.829
 6959SOL    HW221777   2.023   1.245   4.951
 6960SOL     OW21778   0.738   5.206   0.415
 6960SOL    HW121779   0.747   5.128   0.477
 6960SOL    HW221780   0.706   5.286   0.466
 6961SOL     OW21781   0.225   2.549   4.196
 6961SOL    HW121782   0.208   2.484   4.271
 6961SOL    HW221783   0.252   2.637   4.234
 6962SOL     OW21784   5.102   5.325   2.513
 6962SOL    HW121785   5.081   5.229   2.493
 6962SOL    HW221786   5.141   5.368   2.432
 6963SOL     OW21787   0.600   5.631   0.368
 6963SOL    HW121788   0.601   5.575   0.451
 6963SOL    HW221789   0.506   5.638   0.334
 6964SOL     OW21790   5.252   4.744   4.526
 6964SOL    HW121791   5.214   4.730   4.618
 6964SOL    HW221792   5.197   4.694   4.460
 6965SOL     OW21793   0.584   3.619   6.196
 6965SOL    HW121794   0.513   3.568   6.148
 6965SOL    HW221795   0.585   3.592   6.292
 6966SOL     OW21796   5.922   2.716   3.060
 6966SOL    HW121797   5.904   2.720   3.158
 6966SOL    HW221798   6.004   2.660   3.044
 6967SOL     OW21799   1.442   1.729   5.628
 6967SOL    HW121800   1.364   1.742   5.689
 6967SOL    HW221801   1.514   1.679   5.676
 6968SOL     OW21802   3.577   6.301   2.550
 6968SOL    HW121803   3.657   6.347   2.588
 6968SOL    HW221804   3.495   6.355   2.570
 6969SOL     OW21805   3.955   2.018   1.576
 6969SOL    HW121806   3.957   2.038   1.478
 6969SOL    HW221807   3.886   2.076   1.620
 6970SOL     OW21808   4.521   3.899   0.251
 6970SOL    HW121809   4.613   3.926   0.221
 6970SOL    HW221810   4.514   3.906   0.350
 6971SOL     OW21811   6.491   3.905   2.272
 6971SOL    HW121812   6.549   3.887   2.352
 6971SOL    HW221813   6.397   3.875   2.292
 6972SOL     OW21814   6.170   5.265   3.950
 6972SOL    HW121815   6.194   5.197   3.881
 6972SOL    HW221816   6.149   5.218   4.036
 6973SOL     OW21817   1.156   4.026   4.751
 6973SOL    HW121818   1.214   3.963   4.699
 6973SOL    HW221819   1.101   3.974   4.816
 6974SOL     OW21820   3.435   3.114   3.344
 6974SOL    HW121821   3.514   3.094   3.287
 6974SOL    HW221822   3.428   3.046   3.417
 6975SOL     OW21823   3.130   6.776   5.935
 6975SOL    HW121824   3.213   6.832   5.941
 6975SOL    HW221825   3.052   6.829   5.969
 6976SOL     OW21826   3.945   4.510   6.121
 6976SOL    HW121827   3.861   4.493   6.070
 6976SOL    HW221828   3.989   4.423   6.144
 6977SOL     OW21829   5.165   2.448   1.761
 6977SOL    HW121830   5.168   2.484   1.854
 6977SOL    HW221831   5.121   2.516   1.701
 6978SOL     OW21832   6.374   1.852   1.107
 6978SOL    HW121833   6.301   1.920   1.096
 6978SOL    HW221834   6.413   1.860   1.199
 6979SOL     OW21835   1.148   5.026   1.260
 6979SOL    HW121836   1.247   5.011   1.255
 6979SOL    HW221837   1.127   5.092   1.332
 6980SOL     OW21838   1.633   0.174   3.986
 6980SOL    HW121839   1.638   0.270   3.960
 6980SOL    HW221840   1.666   0.162   4.079
 6981SOL     OW21841   2.274   2.788   6.991
 6981SOL    HW121842   2.322   2.836   0.044
 6981SOL    HW221843   2.335   2.722   6.949
 6982SOL     OW21844   1.409   1.608   3.820
 6982SOL    HW121845   1.353   1.557   3.885
 6982SOL    HW221846   1.488   1.553   3.793
 6983SOL     OW21847   5.802   2.357   3.288
 6983SOL    HW121848   5.852   2.436   3.322
 6983SOL    HW221849   5.838   2.330   3.199
 6984SOL     OW21850   2.453   1.991   4.890
 6984SOL    HW121851   2.550   2.002   4.870
 6984SOL    HW221852   2.437   1.903   4.934
 6985SOL     OW21853   3.758   5.180   2.399
 6985SOL    HW121854   3.816   5.194   2.319
 6985SOL    HW221855   3.663   5.204   2.376
 6986SOL     OW21856   1.307   6.313   6.417
 6986SOL    HW121857   1.318   6.405   6.454
 6986SOL    HW221858   1.360   6.303   6.333
 6987SOL     OW21859   0.957   2.096   6.486
 6987SOL    HW121860   0.981   2.031   6.558
 6987SOL    HW221861   0.965   2.189   6.522
 6988SOL     OW21862   6.262   0.885   5.017
 6988SOL    HW121863   6.197   0.958   5.037
 6988SOL    HW221864   6.335   0.920   4.958
 6989SOL     OW21865   0.856   3.012   3.788
 6989SOL    HW121866   0.954   3.017   3.770
 6989SOL    HW221867   0.808   3.083   3.738
 6990SOL     OW21868   4.889   1.977   0.283
 6990SOL    HW121869   4.829   1.916   0.230
 6990SOL    HW221870   4.979   1.981   0.239
 6991SOL     OW21871   2.523   4.564   3.917
 6991SOL    HW121872   2.577   4.616   3.983
 6991SOL    HW221873   2.545   4.595   3.825
 6992SOL     OW21874   6.290   6.342   4.832
 6992SOL    HW121875   6.384   6.314   4.816
 6992SOL    HW221876   6.231   6.261   4.834
 6993SOL     OW21877   6.611   0.212   2.502
 6993SOL    HW121878   6.537   0.204   2.569
 6993SOL    HW221879   6.574   0.202   2.410
 6994SOL     OW21880   0.899   3.090   4.874
 6994SOL    HW121881   0.947   3.005   4.851
 6994SOL    HW221882   0.864   3.085   4.967
 6995SOL     OW21883   5.958   5.672   5.028
 6995SOL    HW121884   6.053   5.701   5.020
 6995SOL    HW221885   5.899   5.753   5.034
 6996SOL     OW21886   1.962   1.055   5.042
 6996SOL    HW121887   1.991   0.985   5.108
 6996SOL    HW221888   1.891   1.112   5.084
 6997SOL     OW21889   5.195   6.083   4.959
 6997SOL    HW121890   5.120   6.139   4.994
 6997SOL    HW221891   5.279   6.137   4.958
 6998SOL     OW21892   1.682   2.169   1.848
 6998SOL    HW121893   1.760   2.185   1.788
 6998SOL    HW221894   1.698   2.087   1.903
 6999SOL     OW21895   2.197   2.275   6.728
 6999SOL    HW121896   2.117   2.277   6.668
 6999SOL    HW221897   2.279   2.255   6.674
 7000SOL     OW21898   0.198   5.932   2.890
 7000SOL    HW121899   0.171   6.027   2.908
 7000SOL    HW221900   0.205   5.919   2.791
 7001SOL     OW21901   2.464   3.015   5.822
 7001SOL    HW121902   2.528   3.083   5.858
 7001SOL    HW221903   2.422   3.050   5.738
 7002SOL     OW21904   2.392   4.699   2.914
 7002SOL    HW121905   2.400   4.615   2.861
 7002SOL    HW221906   2.296   4.729   2.915
 7003SOL     OW21907   3.840   6.198   6.989
 7003SOL    HW121908   3.901   6.234   0.040
 7003SOL    HW221909   3.832   6.099   7.000
 7004SOL     OW21910   2.139   4.895   1.774
 7004SOL    HW121911   2.217   4.932   1.724
 7004SOL    HW221912   2.064   4.878   1.711
 7005SOL     OW21913   0.569   6.213   5.855
 7005SOL    HW121914   0.575   6.121   5.894
 7005SOL    HW221915   0.553   6.206   5.756
 7006SOL     OW21916   6.133   5.225   4.375
 7006SOL    HW121917   6.191   5.281   4.317
 7006SOL    HW221918   6.094   5.282   4.448
 7007SOL     OW21919   4.945   6.883   3.184
 7007SOL    HW121920   4.922   6.871   3.280
 7007SOL    HW221921   5.038   6.920   3.176
 7008SOL     OW21922   2.088   5.575   4.550
 7008SOL    HW121923   2.151   5.499   4.533
 7008SOL    HW221924   2.115   5.654   4.495
 7009SOL     OW21925   5.791   5.339   2.356
 7009SOL    HW121926   5.877   5.311   2.398
 7009SOL    HW221927   5.777   5.287   2.271
 7010SOL     OW21928   4.061   3.722   6.019
 7010SOL    HW121929   4.065   3.737   5.920
 7010SOL    HW221930   4.119   3.646   6.045
 7011SOL     OW21931   1.724   0.584   6.419
 7011SOL    HW121932   1.767   0.656   6.474
 7011SOL    HW221933   1.790   0.549   6.353
 7012SOL     OW21934   2.400   1.164   2.326
 7012SOL    HW121935   2.430   1.145   2.419
 7012SOL    HW221936   2.463   1.229   2.283
 7013SOL     OW21937   6.981   6.372   1.221
 7013SOL    HW121938   6.986   6.471   1.215
 7013SOL    HW221939   0.051   6.332   1.213
 7014SOL     OW21940   4.771   3.103   1.197
 7014SOL    HW121941   4.678   3.066   1.191
 7014SOL    HW221942   4.809   3.082   1.287
 7015SOL     OW21943   5.656   4.619   2.265
 7015SOL    HW121944   5.616   4.541   2.314
 7015SOL    HW221945   5.632   4.614   2.168
 7016SOL     OW21946   3.791   4.869   2.268
 7016SOL    HW121947   3.781   4.955   2.220
 7016SOL    HW221948   3.720   4.805   2.239
 7017SOL     OW21949   2.234   0.186   1.972
 7017SOL    HW121950   2.175   0.201   1.893
 7017SOL    HW221951   2.235   0.268   2.029
 7018SOL     OW21952   6.501   4.148   5.107
 7018SOL    HW121953   6.540   4.224   5.055
 7018SOL    HW221954   6.411   4.125   5.069
 7019SOL     OW21955   2.883   4.461   6.602
 7019SOL    HW121956   2.967   4.425   6.643
 7019SOL    HW221957   2.829   4.385   6.566
 7020SOL     OW21958   6.250   6.750   6.472
 7020SOL    HW121959   6.307   6.778   6.395
 7020SOL    HW221960   6.251   6.821   6.543
 7021SOL     OW21961   2.211   1.222   5.378
 7021SOL    HW121962   2.295   1.251   5.333
 7021SOL    HW221963   2.163   1.301   5.416
 7022SOL     OW21964   4.692   4.667   1.108
 7022SOL    HW121965   4.710   4.575   1.075
 7022SOL    HW221966   4.626   4.663   1.183
 7023SOL     OW21967   0.359   2.018   3.467
 7023SOL    HW121968   0.394   2.111   3.481
 7023SOL    HW221969   0.403   1.955   3.531
 7024SOL     OW21970   1.153   5.372   5.603
 7024SOL    HW121971   1.182   5.467   5.595
 7024SOL    HW221972   1.196   5.331   5.683
 7025SOL     OW21973   3.265   1.083   0.067
 7025SOL    HW121974   3.167   1.099   0.057
 7025SOL    HW221975   3.307   1.075   6.997
 7026SOL     OW21976   2.801   1.542   1.901
 7026SOL    HW121977   2.877   1.593   1.943
 7026SOL    HW221978   2.722   1.602   1.892
 7027SOL     OW21979   2.837   5.191   3.033
 7027SOL    HW121980   2.810   5.214   2.940
 7027SOL    HW221981   2.798   5.256   3.097
 7028SOL     OW21982   6.133   6.695   4.329
 7028SOL    HW121983   6.218   6.720   4.375
 7028SOL    HW221984   6.131   6.738   4.238
 7029SOL     OW21985   3.955   6.742   0.053
 7029SOL    HW121986   4.043   6.790   0.053
 7029SOL    HW221987   3.907   6.762   6.989
 7030SOL     OW21988   6.373   2.519   5.758
 7030SOL    HW121989   6.374   2.511   5.858
 7030SOL    HW221990   6.445   2.583   5.730
 7031SOL     OW21991   2.110   5.854   3.787
 7031SOL    HW121992   2.196   5.853   3.736
 7031SOL    HW221993   2.054   5.931   3.756
 7032SOL     OW21994   3.402   6.786   3.924
 7032SOL    HW121995   3.358   6.876   3.926
 7032SOL    HW221996   3.445   6.768   4.012
 7033SOL     OW21997   6.630   1.662   3.329
 7033SOL    HW121998   6.630   1.572   3.374
 7033SOL    HW221999   6.536   1.689   3.308
 7034SOL     OW22000   6.204   0.264   2.836
 7034SOL    HW122001   6.199   0.358   2.870
 7034SOL    HW222002   6.183   0.200   2.911
 7035SOL     OW22003   1.721   6.667   2.105
 7035SOL    HW122004   1.766   6.754   2.124
 7035SOL    HW222005   1.663   6.642   2.183
 7036SOL     OW22006   6.889   0.491   1.727
 7036SOL    HW122007   6.979   0.525   1.700
 7036SOL    HW222008   6.851   0.550   1.798
 7037SOL     OW22009   1.082   0.397   6.322
 7037SOL    HW122010   1.146   0.322   6.308
 7037SOL    HW222011   1.049   0.396   6.416
 7038SOL     OW22012   1.640   3.693   4.269
 7038SOL    HW122013   1.725   3.660   4.228
 7038SOL    HW222014   1.574   3.618   4.273
 7039SOL     OW22015   3.172   5.553   0.828
 7039SOL    HW122016   3.164   5.642   0.872
 7039SOL    HW222017   3.162   5.562   0.729
 7040SOL     OW22018   5.429   2.085   5.199
 7040SOL    HW122019   5.486   2.117   5.124
 7040SOL    HW222020   5.388   1.997   5.175
 7041SOL     OW22021   0.887   1.794   3.147
 7041SOL    HW122022   0.865   1.740   3.066
 7041SOL    HW222023   0.811   1.789   3.212
 7042SOL     OW22024   5.510   5.433   6.777
 7042SOL    HW122025   5.544   5.506   6.718
 7042SOL    HW222026   5.563   5.349   6.761
 7043SOL     OW22027   2.358   2.692   3.450
 7043SOL    HW122028   2.319   2.602   3.431
 7043SOL    HW222029   2.395   2.731   3.366
 7044SOL     OW22030   4.932   4.783   3.359
 7044SOL    HW122031   4.985   4.851   3.409
 7044SOL    HW222032   4.959   4.691   3.388
 7045SOL     OW22033   5.184   5.752   2.409
 7045SOL    HW122034   5.204   5.657   2.385
 7045SOL    HW222035   5.089   5.773   2.384
 7046SOL     OW22036   3.743   2.069   3.457
 7046SOL    HW122037   3.679   2.076   3.534
 7046SOL    HW222038   3.701   2.109   3.375
 7047SOL     OW22039   1.018   2.390   3.063
 7047SOL    HW122040   0.981   2.297   3.058
 7047SOL    HW222041   1.039   2.413   3.158
 7048SOL     OW22042   6.909   5.448   1.850
 7048SOL    HW122043   6.849   5.371   1.833
 7048SOL    HW222044   6.857   5.524   1.888
 7049SOL     OW22045   2.432   1.386   0.650
 7049SOL    HW122046   2.333   1.370   0.650
 7049SOL    HW222047   2.452   1.470   0.701
 7050SOL     OW22048   3.817   4.042   3.188
 7050SOL    HW122049   3.907   4.003   3.210
 7050SOL    HW222050   3.826   4.140   3.172
 7051SOL     OW22051   0.236   1.053   1.062
 7051SOL    HW122052   0.197   1.071   0.972
 7051SOL    HW222053   0.308   1.120   1.081
 7052SOL     OW22054   6.286   2.688   4.055
 7052SOL    HW122055   6.269   2.761   4.120
 7052SOL    HW222056   6.202   2.636   4.040
 7053SOL     OW22057   1.047   3.321   4.994
 7053SOL    HW122058   1.020   3.333   5.090
 7053SOL    HW222059   1.002   3.240   4.956
 7054SOL     OW22060   0.948   5.847   1.500
 7054SOL    HW122061   0.967   5.857   1.598
 7054SOL    HW222062   1.030   5.871   1.448
 7055SOL     OW22063   3.850   6.355   5.480
 7055SOL    HW122064   3.909   6.430   5.449
 7055SOL    HW222065   3.898   6.300   5.547
 7056SOL     OW22066   5.596   5.705   2.958
 7056SOL    HW122067   5.559   5.782   3.010
 7056SOL    HW222068   5.582   5.620   3.011
 7057SOL     OW22069   1.343   5.073   3.882
 7057SOL    HW122070   1.378   5.058   3.975
 7057SOL    HW222071   1.386   5.008   3.819
 7058SOL     OW22072   6.087   5.375   6.316
 7058SOL    HW122073   6.052   5.328   6.397
 7058SOL    HW222074   6.094   5.473   6.336
 7059SOL     OW22075   0.121   0.719   3.048
 7059SOL    HW122076   0.205   0.717   3.103
 7059SOL    HW222077   0.050   0.666   3.094
 7060SOL     OW22078   3.353   6.804   1.690
 7060SOL    HW122079   3.282   6.817   1.758
 7060SOL    HW222080   3.413   6.884   1.687
 7061SOL     OW22081   0.463   2.511   3.854
 7061SOL    HW122082   0.541   2.451   3.871
 7061SOL    HW222083   0.450   2.572   3.932
 7062SOL     OW22084   5.437   1.241   6.071
 7062SOL    HW122085   5.476   1.154   6.040
 7062SOL    HW222086   5.490   1.316   6.032
 7063SOL     OW22087   0.247   0.238   1.113
 7063SOL    HW122088   0.341   0.235   1.080
 7063SOL    HW222089   0.246   0.238   1.213
 7064SOL     OW22090   4.194   2.250   1.975
 7064SOL    HW122091   4.168   2.329   1.919
 7064SOL    HW222092   4.118   2.185   1.978
 7065SOL     OW22093   4.249   3.832   0.262
 7065SOL    HW122094   4.198   3.918   0.267
 7065SOL    HW222095   4.347   3.851   0.262
 7066SOL     OW22096   4.365   0.440   0.427
 7066SOL    HW122097   4.280   0.487   0.406
 7066SOL    HW222098   4.346   0.343   0.442
 7067SOL     OW22099   1.658   1.880   5.481
 7067SOL    HW122100   1.617   1.971   5.475
 7067SOL    HW222101   1.590   1.815   5.514
 7068SOL     OW22102   0.654   4.212   4.200
 7068SOL    HW122103   0.624   4.242   4.110
 7068SOL    HW222104   0.723   4.275   4.236
 7069SOL     OW22105   5.814   2.699   4.283
 7069SOL    HW122106   5.898   2.750   4.303
 7069SOL    HW222107   5.838   2.605   4.258
 7070SOL     OW22108   0.025   6.283   4.989
 7070SOL    HW122109   0.082   6.230   4.926
 7070SOL    HW222110   6.960   6.234   5.007
 7071SOL     OW22111   1.137   6.393   6.224
 7071SOL    HW122112   1.186   6.380   6.311
 7071SOL    HW222113   1.106   6.304   6.191
 7072SOL     OW22114   0.120   6.382   6.115
 7072SOL    HW122115   0.178   6.432   6.179
 7072SOL    HW222116   0.115   6.286   6.142
 7073SOL     OW22117   5.921   0.208   4.607
 7073SOL    HW122118   6.006   0.259   4.618
 7073SOL    HW222119   5.864   0.220   4.688
 7074SOL     OW22120   4.102   2.711   1.618
 7074SOL    HW122121   4.008   2.681   1.630
 7074SOL    HW222122   4.148   2.653   1.551
 7075SOL     OW22123   1.263   5.575   5.855
 7075SOL    HW122124   1.169   5.558   5.882
 7075SOL    HW222125   1.274   5.556   5.757
 7076SOL     OW22126   4.028   2.279   7.002
 7076SOL    HW122127   4.072   2.202   0.029
 7076SOL    HW222128   4.011   2.254   6.907
 7077SOL     OW22129   2.219   4.289   5.333
 7077SOL    HW122130   2.289   4.224   5.361
 7077SOL    HW222131   2.175   4.258   5.249
 7078SOL     OW22132   6.237   0.557   1.674
 7078SOL    HW122133   6.236   0.460   1.651
 7078SOL    HW222134   6.329   0.584   1.703
 7079SOL     OW22135   6.737   6.529   5.084
 7079SOL    HW122136   6.694   6.586   5.015
 7079SOL    HW222137   6.829   6.503   5.054
 7080SOL     OW22138   3.433   2.037   4.086
 7080SOL    HW122139   3.340   2.071   4.099
 7080SOL    HW222140   3.480   2.034   4.175
 7081SOL     OW22141   3.039   0.808   6.427
 7081SOL    HW122142   2.956   0.780   6.474
 7081SOL    HW222143   3.015   0.857   6.343
 7082SOL     OW22144   5.843   4.875   6.656
 7082SOL    HW122145   5.898   4.848   6.578
 7082SOL    HW222146   5.759   4.920   6.625
 7083SOL     OW22147   3.344   0.705   6.704
 7083SOL    HW122148   3.349   0.798   6.667
 7083SOL    HW222149   3.314   0.710   6.800
 7084SOL     OW22150   0.284   6.828   5.965
 7084SOL    HW122151   0.192   6.815   5.929
 7084SOL    HW222152   0.297   6.925   5.988
 7085SOL     OW22153   1.955   1.798   2.463
 7085SOL    HW122154   1.887   1.835   2.526
 7085SOL    HW222155   1.975   1.703   2.487
 7086SOL     OW22156   4.889   0.502   5.599
 7086SOL    HW122157   4.972   0.484   5.547
 7086SOL    HW222158   4.863   0.420   5.651
 7087SOL     OW22159   5.984   4.172   4.051
 7087SOL    HW122160   6.013   4.250   3.996
 7087SOL    HW222161   5.897   4.193   4.096
 7088SOL     OW22162   5.255   2.501   3.192
 7088SOL    HW122163   5.174   2.465   3.239
 7088SOL    HW222164   5.268   2.597   3.217
 7089SOL     OW22165   3.557   1.983   5.590
 7089SOL    HW122166   3.483   2.001   5.654
 7089SOL    HW222167   3.611   2.066   5.576
 7090SOL     OW22168   2.009   1.536   6.589
 7090SOL    HW122169   1.955   1.451   6.595
 7090SOL    HW222170   2.014   1.578   6.680
 7091SOL     OW22171   7.019   2.009   6.867
 7091SOL    HW122172   0.009   2.099   6.826
 7091SOL    HW222173   0.077   1.952   6.843
 7092SOL     OW22174   4.476   2.604   6.232
 7092SOL    HW122175   4.574   2.620   6.234
 7092SOL    HW222176   4.437   2.618   6.323
 7093SOL     OW22177   3.014   3.751   3.210
 7093SOL    HW122178   2.988   3.760   3.113
 7093SOL    HW222179   3.021   3.842   3.251
 7094SOL     OW22180   0.773   5.484   6.152
 7094SOL    HW122181   0.771   5.446   6.244
 7094SOL    HW222182   0.693   5.541   6.138
 7095SOL     OW22183   3.694   2.854   6.275
 7095SOL    HW122184   3.594   2.847   6.274
 7095SOL    HW222185   3.731   2.801   6.351
 7096SOL     OW22186   6.405   0.220   3.944
 7096SOL    HW122187   6.473   0.252   3.878
 7096SOL    HW222188   6.325   0.280   3.943
 7097SOL     OW22189   5.875   1.176   1.597
 7097SOL    HW122190   5.956   1.215   1.641
 7097SOL    HW222191   5.853   1.228   1.515
 7098SOL     OW22192   0.668   0.411   3.643
 7098SOL    HW122193   0.593   0.349   3.668
 7098SOL    HW222194   0.751   0.383   3.691
 7099SOL     OW22195   2.723   0.728   5.142
 7099SOL    HW122196   2.817   0.699   5.156
 7099SOL    HW222197   2.677   0.735   5.231
 7100SOL     OW22198   5.752   3.209   1.257
 7100SOL    HW122199   5.658   3.185   1.284
 7100SOL    HW222200   5.802   3.126   1.233
 7101SOL     OW22201   1.974   0.404   4.838
 7101SOL    HW122202   1.880   0.414   4.805
 7101SOL    HW222203   1.996   0.307   4.850
 7102SOL     OW22204   4.721   0.809   0.793
 7102SOL    HW122205   4.750   0.876   0.725
 7102SOL    HW222206   4.746   0.717   0.762
 7103SOL     OW22207   4.347   5.153   1.056
 7103SOL    HW122208   4.269   5.164   0.996
 7103SOL    HW222209   4.431   5.171   1.005
 7104SOL     OW22210   1.241   3.782   5.016
 7104SOL    HW122211   1.148   3.816   5.025
 7104SOL    HW222212   1.283   3.774   5.106
 7105SOL     OW22213   2.669   2.535   5.328
 7105SOL    HW122214   2.643   2.483   5.409
 7105SOL    HW222215   2.741   2.487   5.278
 7106SOL     OW22216   2.945   3.295   2.622
 7106SOL    HW122217   3.014   3.366   2.629
 7106SOL    HW222218   2.898   3.301   2.534
 7107SOL     OW22219   3.605   0.837   0.558
 7107SOL    HW122220   3.591   0.769   0.486
 7107SOL    HW222221   3.633   0.924   0.516
 7108SOL     OW22222   4.282   6.301   2.484
 7108SOL    HW122223   4.329   6.231   2.539
 7108SOL    HW222224   4.290   6.279   2.387
 7109SOL     OW22225   3.853   6.809   6.114
 7109SOL    HW122226   3.935   6.826   6.169
 7109SOL    HW222227   3.876   6.751   6.036
 7110SOL     OW22228   4.119   6.234   3.679
 7110SOL    HW122229   4.140   6.269   3.588
 7110SOL    HW222230   4.144   6.137   3.685
 7111SOL     OW22231   2.290   1.919   4.605
 7111SOL    HW122232   2.254   1.950   4.693
 7111SOL    HW222233   2.216   1.916   4.538
 7112SOL     OW22234   2.413   6.022   3.968
 7112SOL    HW122235   2.452   6.101   4.015
 7112SOL    HW222236   2.486   5.956   3.947
 7113SOL     OW22237   3.061   3.802   4.616
 7113SOL    HW122238   3.002   3.764   4.545
 7113SOL    HW222239   3.127   3.733   4.646
 7114SOL     OW22240   3.956   6.401   1.076
 7114SOL    HW122241   3.953   6.476   1.142
 7114SOL    HW222242   3.863   6.371   1.055
 7115SOL     OW22243   5.162   3.190   2.351
 7115SOL    HW122244   5.131   3.206   2.257
 7115SOL    HW222245   5.253   3.147   2.349
 7116SOL     OW22246   5.218   3.743   3.539
 7116SOL    HW122247   5.309   3.769   3.571
 7116SOL    HW222248   5.215   3.644   3.524
 7117SOL     OW22249   0.204   6.465   4.543
 7117SOL    HW122250   0.215   6.558   4.510
 7117SOL    HW222251   0.182   6.467   4.641
 7118SOL     OW22252   2.922   4.301   0.346
 7118SOL    HW122253   2.825   4.319   0.333
 7118SOL    HW222254   2.975   4.374   0.302
 7119SOL     OW22255   5.401   1.637   3.360
 7119SOL    HW122256   5.327   1.620   3.296
 7119SOL    HW222257   5.376   1.603   3.450
 7120SOL     OW22258   4.264   1.703   2.534
 7120SOL    HW122259   4.352   1.726   2.575
 7120SOL    HW222260   4.222   1.785   2.495
 7121SOL     OW22261   2.743   0.172   2.243
 7121SOL    HW122262   2.779   0.140   2.330
 7121SOL    HW222263   2.742   0.272   2.242
 7122SOL     OW22264   0.070   1.027   5.661
 7122SOL    HW122265   0.058   0.970   5.579
 7122SOL    HW222266   7.014   1.011   5.723
 7123SOL     OW22267   2.454   4.965   1.960
 7123SOL    HW122268   2.404   4.924   2.037
 7123SOL    HW222269   2.403   5.043   1.925
 7124SOL     OW22270   0.231   2.899   0.709
 7124SOL    HW122271   0.242   2.833   0.634
 7124SOL    HW222272   0.146   2.949   0.698
 7125SOL     OW22273   6.449   6.558   1.147
 7125SOL    HW122274   6.495   6.638   1.108
 7125SOL    HW222275   6.409   6.503   1.074
 7126SOL     OW22276   3.541   4.725   0.438
 7126SOL    HW122277   3.561   4.648   0.498
 7126SOL    HW222278   3.455   4.768   0.467
 7127SOL     OW22279   2.623   6.015   4.651
 7127SOL    HW122280   2.630   5.932   4.596
 7127SOL    HW222281   2.542   6.011   4.709
 7128SOL     OW22282   2.466   5.775   0.252
 7128SOL    HW122283   2.489   5.846   0.186
 7128SOL    HW222284   2.496   5.802   0.343
 7129SOL     OW22285   2.973   0.401   0.594
 7129SOL    HW122286   3.019   0.404   0.682
 7129SOL    HW222287   3.039   0.417   0.521
 7130SOL     OW22288   3.414   4.565   5.342
 7130SOL    HW122289   3.353   4.486   5.333
 7130SOL    HW222290   3.414   4.597   5.436
 7131SOL     OW22291   2.614   1.721   0.366
 7131SOL    HW122292   2.564   1.808   0.365
 7131SOL    HW222293   2.558   1.650   0.324
 7132SOL     OW22294   3.431   3.822   0.436
 7132SOL    HW122295   3.448   3.787   0.528
 7132SOL    HW222296   3.375   3.757   0.385
 7133SOL     OW22297   4.721   5.650   4.165
 7133SOL    HW122298   4.786   5.631   4.092
 7133SOL    HW222299   4.719   5.574   4.229
 7134SOL     OW22300   5.899   6.238   2.132
 7134SOL    HW122301   5.931   6.310   2.071
 7134SOL    HW222302   5.963   6.228   2.208
 7135SOL     OW22303   1.943   2.445   2.996
 7135SOL    HW122304   2.027   2.443   3.050
 7135SOL    HW222305   1.957   2.395   2.911
 7136SOL     OW22306   1.619   2.594   0.826
 7136SOL    HW122307   1.655   2.587   0.732
 7136SOL    HW222308   1.592   2.504   0.858
 7137SOL     OW22309   4.467   0.178   6.674
 7137SOL    HW122310   4.457   0.124   6.758
 7137SOL    HW222311   4.376   0.200   6.638
 7138SOL     OW22312   1.581   2.921   0.555
 7138SOL    HW122313   1.557   2.840   0.501
 7138SOL    HW222314   1.643   2.895   0.628
 7139SOL     OW22315   5.066   4.267   2.667
 7139SOL    HW122316   5.158   4.267   2.706
 7139SOL    HW222317   5.004   4.218   2.728
 7140SOL     OW22318   5.645   3.343   4.842
 7140SOL    HW122319   5.707   3.355   4.764
 7140SOL    HW222320   5.574   3.414   4.839
 7141SOL     OW22321   3.130   5.856   1.646
 7141SOL    HW122322   3.229   5.864   1.636
 7141SOL    HW222323   3.104   5.759   1.639
 7142SOL     OW22324   4.210   0.144   3.324
 7142SOL    HW122325   4.251   0.128   3.234
 7142SOL    HW222326   4.200   0.242   3.338
 7143SOL     OW22327   1.760   2.839   6.158
 7143SOL    HW122328   1.780   2.933   6.129
 7143SOL    HW222329   1.710   2.792   6.086
 7144SOL     OW22330   1.600   1.386   3.775
 7144SOL    HW122331   1.571   1.304   3.823
 7144SOL    HW222332   1.689   1.370   3.731
 7145SOL     OW22333   4.344   6.635   6.407
 7145SOL    HW122334   4.321   6.546   6.447
 7145SOL    HW222335   4.443   6.649   6.409
 7146SOL     OW22336   2.446   0.686   6.955
 7146SOL    HW122337   2.433   0.646   0.025
 7146SOL    HW222338   2.359   0.683   6.905
 7147SOL     OW22339   6.673   6.513   3.171
 7147SOL    HW122340   6.580   6.489   3.144
 7147SOL    HW222341   6.738   6.452   3.127
 7148SOL     OW22342   0.069   6.751   1.019
 7148SOL    HW122343   0.141   6.682   1.018
 7148SOL    HW222344   0.103   6.836   0.979
 7149SOL     OW22345   6.571   6.742   3.053
 7149SOL    HW122346   6.522   6.702   2.976
 7149SOL    HW222347   6.626   6.671   3.098
 7150SOL     OW22348   4.224   1.648   2.031
 7150SOL    HW122349   4.164   1.693   2.097
 7150SOL    HW222350   4.196   1.673   1.938
 7151SOL     OW22351   1.780   6.284   0.749
 7151SOL    HW122352   1.805   6.210   0.810
 7151SOL    HW222353   1.684   6.307   0.762
 7152SOL     OW22354   0.737   1.637   4.781
 7152SOL    HW122355   0.828   1.623   4.821
 7152SOL    HW222356   0.713   1.559   4.724
 7153SOL     OW22357   2.980   5.773   3.032
 7153SOL    HW122358   2.967   5.872   3.027
 7153SOL    HW222359   2.925   5.736   3.107
 7154SOL     OW22360   3.960   0.243   4.410
 7154SOL    HW122361   3.915   0.204   4.329
 7154SOL    HW222362   3.963   0.175   4.483
 7155SOL     OW22363   2.496   5.064   1.555
 7155SOL    HW122364   2.511   4.982   1.611
 7155SOL    HW222365   2.577   5.081   1.499
 7156SOL     OW22366   0.121   3.934   4.667
 7156SOL    HW122367   0.061   3.910   4.591
 7156SOL    HW222368   0.184   4.006   4.639
 7157SOL     OW22369   6.315   4.432   0.768
 7157SOL    HW122370   6.235   4.388   0.725
 7157SOL    HW222371   6.311   4.531   0.753
 7158SOL     OW22372   0.894   0.095   2.620
 7158SOL    HW122373   0.921   0.115   2.713
 7158SOL    HW222374   0.862   0.179   2.576
 7159SOL     OW22375   0.563   3.848   2.834
 7159SOL    HW122376   0.518   3.937   2.843
 7159SOL    HW222377   0.526   3.800   2.755
 7160SOL     OW22378   5.748   0.667   3.399
 7160SOL    HW122379   5.661   0.677   3.351
 7160SOL    HW222380   5.779   0.758   3.429
 7161SOL     OW22381   3.343   4.128   4.755
 7161SOL    HW122382   3.313   4.195   4.823
 7161SOL    HW222383   3.440   4.142   4.736
 7162SOL     OW22384   2.056   5.651   5.717
 7162SOL    HW122385   2.070   5.606   5.805
 7162SOL    HW222386   2.036   5.582   5.647
 7163SOL     OW22387   2.719   6.655   3.039
 7163SOL    HW122388   2.738   6.754   3.035
 7163SOL    HW222389   2.707   6.628   3.135
 7164SOL     OW22390   1.978   0.982   4.022
 7164SOL    HW122391   2.061   1.037   4.016
 7164SOL    HW222392   1.898   1.042   4.011
 7165SOL     OW22393   6.961   1.391   1.422
 7165SOL    HW122394   0.012   1.460   1.429
 7165SOL    HW222395   6.874   1.430   1.449
 7166SOL     OW22396   5.708   3.072   6.855
 7166SOL    HW122397   5.796   3.064   6.902
 7166SOL    HW222398   5.672   2.981   6.835
 7167SOL     OW22399   5.184   3.630   4.923
 7167SOL    HW122400   5.107   3.573   4.897
 7167SOL    HW222401   5.269   3.590   4.888
 7168SOL     OW22402   1.627   2.795   4.123
 7168SOL    HW122403   1.560   2.721   4.119
 7168SOL    HW222404   1.584   2.878   4.158
 7169SOL     OW22405   0.104   3.714   4.834
 7169SOL    HW122406   0.089   3.638   4.771
 7169SOL    HW222407   0.106   3.800   4.783
 7170SOL     OW22408   4.296   6.562   3.759
 7170SOL    HW122409   4.349   6.480   3.739
 7170SOL    HW222410   4.355   6.631   3.800
 7171SOL     OW22411   5.595   4.788   6.350
 7171SOL    HW122412   5.604   4.696   6.312
 7171SOL    HW222413   5.671   4.845   6.320
 7172SOL     OW22414   1.426   0.597   5.639
 7172SOL    HW122415   1.390   0.536   5.709
 7172SOL    HW222416   1.363   0.674   5.626
 7173SOL     OW22417   0.466   4.847   5.661
 7173SOL    HW122418   0.449   4.798   5.575
 7173SOL    HW222419   0.557   4.822   5.696
 7174SOL     OW22420   1.151   4.907   6.795
 7174SOL    HW122421   1.090   4.838   6.758
 7174SOL    HW222422   1.100   4.966   6.858
 7175SOL     OW22423   5.740   3.823   0.001
 7175SOL    HW122424   5.764   3.835   0.098
 7175SOL    HW222425   5.648   3.858   7.007
 7176SOL     OW22426   1.348   6.210   3.370
 7176SOL    HW122427   1.313   6.131   3.319
 7176SOL    HW222428   1.441   6.190   3.402
 7177SOL     OW22429   2.416   6.826   4.461
 7177SOL    HW122430   2.486   6.811   4.531
 7177SOL    HW222431   2.414   6.924   4.437
 7178SOL     OW22432   2.394   3.380   5.741
 7178SOL    HW122433   2.454   3.450   5.702
 7178SOL    HW222434   2.355   3.414   5.827
 7179SOL     OW22435   1.872   3.483   4.762
 7179SOL    HW122436   1.967   3.514   4.766
 7179SOL    HW222437   1.826   3.506   4.848
 7180SOL     OW22438   1.509   4.651   6.340
 7180SOL    HW122439   1.569   4.603   6.276
 7180SOL    HW222440   1.465   4.585   6.401
 7181SOL     OW22441   2.271   5.853   0.617
 7181SOL    HW122442   2.236   5.878   0.527
 7181SOL    HW222443   2.195   5.837   0.679
 7182SOL     OW22444   2.008   3.192   5.613
 7182SOL    HW122445   2.038   3.272   5.664
 7182SOL    HW222446   2.074   3.118   5.626
 7183SOL     OW22447   1.502   5.753   0.762
 7183SOL    HW122448   1.502   5.849   0.790
 7183SOL    HW222449   1.596   5.725   0.744
 7184SOL     OW22450   0.875   0.358   2.891
 7184SOL    HW122451   0.939   0.281   2.897
 7184SOL    HW222452   0.900   0.415   2.812
 7185SOL     OW22453   5.423   1.057   5.449
 7185SOL    HW122454   5.356   1.014   5.388
 7185SOL    HW222455   5.498   1.094   5.394
 7186SOL     OW22456   6.904   6.918   6.825
 7186SOL    HW122457   6.853   6.929   6.911
 7186SOL    HW222458   6.996   6.955   6.836
 7187SOL     OW22459   3.286   4.392   0.549
 7187SOL    HW122460   3.316   4.429   0.461
 7187SOL    HW222461   3.217   4.453   0.588
 7188SOL     OW22462   6.026   0.121   0.542
 7188SOL    HW122463   6.081   0.126   0.458
 7188SOL    HW222464   6.062   0.187   0.609
 7189SOL     OW22465   6.321   0.867   6.386
 7189SOL    HW122466   6.237   0.908   6.348
 7189SOL    HW222467   6.401   0.911   6.345
 7190SOL     OW22468   7.017   3.909   3.004
 7190SOL    HW122469   0.078   3.885   2.952
 7190SOL    HW222470   6.942   3.849   2.978
 7191SOL     OW22471   0.548   4.156   3.150
 7191SOL    HW122472   0.611   4.224   3.112
 7191SOL    HW222473   0.510   4.190   3.236
 7192SOL     OW22474   3.552   5.205   5.211
 7192SOL    HW122475   3.563   5.279   5.277
 7192SOL    HW222476   3.542   5.118   5.260
 7193SOL     OW22477   2.290   1.888   2.781
 7193SOL    HW122478   2.239   1.966   2.817
 7193SOL    HW222479   2.356   1.919   2.713
 7194SOL     OW22480   3.100   2.319   0.742
 7194SOL    HW122481   3.070   2.306   0.837
 7194SOL    HW222482   3.182   2.377   0.742
 7195SOL     OW22483   0.108   5.517   6.180
 7195SOL    HW122484   0.104   5.453   6.256
 7195SOL    HW222485   0.098   5.468   6.094
 7196SOL     OW22486   3.287   4.327   1.632
 7196SOL    HW122487   3.351   4.253   1.653
 7196SOL    HW222488   3.337   4.414   1.628
 7197SOL     OW22489   0.053   2.229   5.922
 7197SOL    HW122490   0.109   2.312   5.932
 7197SOL    HW222491   6.984   2.254   5.885
 7198SOL     OW22492   0.489   1.158   6.058
 7198SOL    HW122493   0.448   1.070   6.035
 7198SOL    HW222494   0.426   1.232   6.035
 7199SOL     OW22495   2.196   0.773   2.224
 7199SOL    HW122496   2.186   0.859   2.275
 7199SOL    HW222497   2.270   0.720   2.265
 7200SOL     OW22498   2.541   2.001   7.003
 7200SOL    HW122499   2.472   1.934   6.973
 7200SOL    HW222500   2.496   2.089   7.017
 7201SOL     OW22501   1.322   5.453   4.281
 7201SOL    HW122502   1.348   5.539   4.325
 7201SOL    HW222503   1.398   5.388   4.286
 7202SOL     OW22504   4.277   0.303   6.021
 7202SOL    HW122505   4.314   0.332   5.933
 7202SOL    HW222506   4.333   0.341   6.095
 7203SOL     OW22507   0.043   2.005   1.117
 7203SOL    HW122508   0.048   1.925   1.177
 7203SOL    HW222509   7.012   1.981   1.035
 7204SOL     OW22510   6.572   6.967   5.086
 7204SOL    HW122511   6.512   6.914   5.026
 7204SOL    HW222512   6.667   6.948   5.064
 7205SOL     OW22513   1.620   5.764   3.248
 7205SOL    HW122514   1.693   5.804   3.192
 7205SOL    HW222515   1.659   5.725   3.331
 7206SOL     OW22516   2.172   0.325   1.146
 7206SOL    HW122517   2.193   0.228   1.162
 7206SOL    HW222518   2.076   0.341   1.166
 7207SOL     OW22519   3.937   6.653   1.701
 7207SOL    HW122520   3.949   6.752   1.711
 7207SOL    HW222521   3.843   6.633   1.674
 7208SOL     OW22522   4.361   6.302   3.816
 7208SOL    HW122523   4.285   6.313   3.752
 7208SOL    HW222524   4.400   6.211   3.807
 7209SOL     OW22525   3.393   3.218   1.708
 7209SOL    HW122526   3.427   3.126   1.689
 7209SOL    HW222527   3.384   3.230   1.807
 7210SOL     OW22528   4.519   0.293   4.148
 7210SOL    HW122529   4.559   0.351   4.077
 7210SOL    HW222530   4.420   0.288   4.135
 7211SOL     OW22531   2.605   5.648   3.962
 7211SOL    HW122532   2.534   5.581   3.983
 7211SOL    HW222533   2.686   5.602   3.927
 7212SOL     OW22534   0.744   6.260   3.758
 7212SOL    HW122535   0.664   6.241   3.701
 7212SOL    HW222536   0.789   6.343   3.725
 7213SOL     OW22537   6.346   0.162   6.325
 7213SOL    HW122538   6.429   0.120   6.362
 7213SOL    HW222539   6.295   0.206   6.399
 7214SOL     OW22540   1.314   5.779   4.853
 7214SOL    HW122541   1.305   5.795   4.951
 7214SOL    HW222542   1.224   5.781   4.810
 7215SOL     OW22543   0.699   2.911   3.988
 7215SOL    HW122544   0.761   2.947   3.917
 7215SOL    HW222545   0.701   2.973   4.067
 7216SOL     OW22546   2.206   6.210   0.193
 7216SOL    HW122547   2.142   6.271   0.239
 7216SOL    HW222548   2.228   6.245   0.102
 7217SOL     OW22549   1.987   4.552   2.617
 7217SOL    HW122550   2.033   4.599   2.542
 7217SOL    HW222551   1.918   4.489   2.580
 7218SOL     OW22552   4.427   2.589   5.210
 7218SOL    HW122553   4.473   2.656   5.269
 7218SOL    HW222554   4.490   2.559   5.138
 7219SOL     OW22555   4.953   6.187   4.256
 7219SOL    HW122556   4.988   6.102   4.217
 7219SOL    HW222557   5.003   6.208   4.340
 7220SOL     OW22558   0.549   5.613   4.302
 7220SOL    HW122559   0.501   5.690   4.345
 7220SOL    HW222560   0.615   5.649   4.236
 7221SOL     OW22561   5.403   4.856   4.924
 7221SOL    HW122562   5.387   4.926   4.993
 7221SOL    HW222563   5.462   4.894   4.852
 7222SOL     OW22564   6.206   0.382   2.039
 7222SOL    HW122565   6.158   0.444   1.977
 7222SOL    HW222566   6.148   0.303   2.059
 7223SOL     OW22567   2.952   1.878   1.532
 7223SOL    HW122568   2.991   1.867   1.624
 7223SOL    HW222569   3.026   1.894   1.467
 7224SOL     OW22570   5.570   2.101   4.263
 7224SOL    HW122571   5.571   2.078   4.166
 7224SOL    HW222572   5.491   2.159   4.282
 7225SOL     OW22573   1.305   5.989   6.115
 7225SOL    HW122574   1.230   6.055   6.104
 7225SOL    HW222575   1.298   5.945   6.204
 7226SOL     OW22576   0.903   0.689   0.401
 7226SOL    HW122577   0.944   0.754   0.465
 7226SOL    HW222578   0.806   0.712   0.389
 7227SOL     OW22579   0.495   2.167   0.856
 7227SOL    HW122580   0.588   2.184   0.887
 7227SOL    HW222581   0.460   2.083   0.899
 7228SOL     OW22582   0.257   1.298   1.743
 7228SOL    HW122583   0.220   1.275   1.652
 7228SOL    HW222584   0.263   1.397   1.752
 7229SOL     OW22585   0.746   0.556   4.827
 7229SOL    HW122586   0.755   0.653   4.803
 7229SOL    HW222587   0.773   0.500   4.748
 7230SOL     OW22588   5.125   5.545   5.010
 7230SOL    HW122589   5.055   5.614   4.991
 7230SOL    HW222590   5.091   5.481   5.079
 7231SOL     OW22591   4.350   6.599   6.976
 7231SOL    HW122592   4.425   6.545   7.014
 7231SOL    HW222593   4.266   6.545   6.978
 7232SOL     OW22594   4.680   5.203   3.648
 7232SOL    HW122595   4.713   5.216   3.741
 7232SOL    HW222596   4.662   5.106   3.632
 7233SOL     OW22597   0.463   2.373   4.355
 7233SOL    HW122598   0.363   2.369   4.349
 7233SOL    HW222599   0.490   2.443   4.421
 7234SOL     OW22600   5.569   2.621   3.093
 7234SOL    HW122601   5.652   2.566   3.088
 7234SOL    HW222602   5.560   2.660   3.185
 7235SOL     OW22603   6.302   4.407   3.090
 7235SOL    HW122604   6.352   4.341   3.146
 7235SOL    HW222605   6.285   4.490   3.143
 7236SOL     OW22606   3.370   1.421   2.886
 7236SOL    HW122607   3.374   1.461   2.795
 7236SOL    HW222608   3.312   1.478   2.945
 7237SOL     OW22609   6.302   6.570   5.388
 7237SOL    HW122610   6.288   6.639   5.316
 7237SOL    HW222611   6.396   6.536   5.383
 7238SOL     OW22612   2.056   2.075   1.178
 7238SOL    HW122613   2.136   2.067   1.117
 7238SOL    HW222614   2.015   2.165   1.168
 7239SOL     OW22615   2.667   0.989   3.901
 7239SOL    HW122616   2.673   0.908   3.960
 7239SOL    HW222617   2.735   0.982   3.828
 7240SOL     OW22618   2.333   3.730   6.607
 7240SOL    HW122619   2.355   3.679   6.691
 7240SOL    HW222620   2.250   3.784   6.623
 7241SOL     OW22621   3.166   0.096   0.006
 7241SOL    HW122622   3.222   0.021   0.040
 7241SOL    HW222623   3.225   0.167   6.989
 7242SOL     OW22624   6.829   5.306   0.249
 7242SOL    HW122625   6.856   5.304   0.153
 7242SOL    HW222626   6.816   5.212   0.281
 7243SOL     OW22627   0.661   4.162   6.246
 7243SOL    HW122628   0.610   4.076   6.239
 7243SOL    HW222629   0.759   4.142   6.240
 7244SOL     OW22630   4.999   1.022   1.179
 7244SOL    HW122631   5.016   0.949   1.246
 7244SOL    HW222632   4.916   1.072   1.205
 7245SOL     OW22633   0.595   1.622   5.191
 7245SOL    HW122634   0.649   1.652   5.270
 7245SOL    HW222635   0.621   1.529   5.166
 7246SOL     OW22636   5.875   6.792   4.816
 7246SOL    HW122637   5.842   6.788   4.722
 7246SOL    HW222638   5.960   6.844   4.820
 7247SOL     OW22639   2.974   6.612   3.226
 7247SOL    HW122640   3.000   6.703   3.191
 7247SOL    HW222641   2.875   6.602   3.223
 7248SOL     OW22642   3.642   1.194   2.773
 7248SOL    HW122643   3.563   1.154   2.820
 7248SOL    HW222644   3.679   1.128   2.708
 7249SOL     OW22645   5.827   5.029   1.815
 7249SOL    HW122646   5.909   4.991   1.773
 7249SOL    HW222647   5.841   5.126   1.835
 7250SOL     OW22648   3.474   5.443   5.818
 7250SOL    HW122649   3.567   5.429   5.852
 7250SOL    HW222650   3.420   5.490   5.887
 7251SOL     OW22651   6.867   6.375   5.383
 7251SOL    HW122652   6.950   6.324   5.361
 7251SOL    HW222653   6.871   6.466   5.341
 7252SOL     OW22654   3.620   3.144   3.650
 7252SOL    HW122655   3.668   3.226   3.619
 7252SOL    HW222656   3.653   3.064   3.599
 7253SOL     OW22657   1.763   0.192   0.400
 7253SOL    HW122658   1.816   0.261   0.351
 7253SOL    HW222659   1.727   0.231   0.484
 7254SOL     OW22660   4.356   4.936   5.115
 7254SOL    HW122661   4.363   5.005   5.044
 7254SOL    HW222662   4.277   4.956   5.174
 7255SOL     OW22663   3.170   3.940   1.368
 7255SOL    HW122664   3.096   3.873   1.377
 7255SOL    HW222665   3.189   3.957   1.272
 7256SOL     OW22666   5.221   5.151   4.243
 7256SOL    HW122667   5.151   5.090   4.280
 7256SOL    HW222668   5.308   5.134   4.289
 7257SOL     OW22669   5.436   2.857   3.683
 7257SOL    HW122670   5.522   2.836   3.637
 7257SOL    HW222671   5.445   2.842   3.781
 7258SOL     OW22672   4.142   1.113   3.541
 7258SOL    HW122673   4.158   1.110   3.639
 7258SOL    HW222674   4.072   1.181   3.520
 7259SOL     OW22675   3.505   4.181   1.288
 7259SOL    HW122676   3.535   4.097   1.333
 7259SOL    HW222677   3.420   4.213   1.330
 7260SOL     OW22678   3.437   1.744   2.913
 7260SOL    HW122679   3.358   1.691   2.881
 7260SOL    HW222680   3.417   1.784   3.002
 7261SOL     OW22681   3.063   2.925   1.142
 7261SOL    HW122682   3.068   2.918   1.242
 7261SOL    HW222683   3.122   2.856   1.101
 7262SOL     OW22684   5.854   2.437   4.197
 7262SOL    HW122685   5.809   2.391   4.120
 7262SOL    HW222686   5.842   2.382   4.280
 7263SOL     OW22687   0.219   5.671   1.984
 7263SOL    HW122688   0.250   5.606   2.053
 7263SOL    HW222689   0.253   5.644   1.894
 7264SOL     OW22690   6.584   1.333   6.785
 7264SOL    HW122691   6.575   1.245   6.740
 7264SOL    HW222692   6.502   1.388   6.768
 7265SOL     OW22693   5.484   4.878   5.909
 7265SOL    HW122694   5.455   4.863   5.814
 7265SOL    HW222695   5.405   4.874   5.969
 7266SOL     OW22696   4.057   0.505   0.448
 7266SOL    HW122697   3.984   0.451   0.407
 7266SOL    HW222698   4.018   0.585   0.494
 7267SOL     OW22699   6.684   4.829   5.440
 7267SOL    HW122700   6.748   4.787   5.505
 7267SOL    HW222701   6.661   4.921   5.471
 7268SOL     OW22702   4.444   5.015   3.517
 7268SOL    HW122703   4.536   4.976   3.521
 7268SOL    HW222704   4.402   5.010   3.608
 7269SOL     OW22705   6.892   6.143   1.481
 7269SOL    HW122706   6.957   6.213   1.511
 7269SOL    HW222707   6.842   6.107   1.559
 7270SOL     OW22708   1.440   2.571   3.537
 7270SOL    HW122709   1.419   2.477   3.511
 7270SOL    HW222710   1.357   2.616   3.569
 7271SOL     OW22711   0.701   4.960   3.719
 7271SOL    HW122712   0.763   5.033   3.747
 7271SOL    HW222713   0.747   4.901   3.653
 7272SOL     OW22714   5.938   3.617   2.194
 7272SOL    HW122715   5.906   3.522   2.188
 7272SOL    HW222716   6.016   3.621   2.256
 7273SOL     OW22717   6.139   4.347   2.021
 7273SOL    HW122718   6.154   4.330   1.923
 7273SOL    HW222719   6.042   4.367   2.036
 7274SOL     OW22720   0.221   6.715   6.469
 7274SOL    HW122721   0.126   6.741   6.490
 7274SOL    HW222722   0.280   6.743   6.545
 7275SOL     OW22723   6.705   0.800   1.203
 7275SOL    HW122724   6.742   0.817   1.111
 7275SOL    HW222725   6.616   0.756   1.194
 7276SOL     OW22726   3.362   1.475   3.774
 7276SOL    HW122727   3.316   1.505   3.690
 7276SOL    HW222728   3.435   1.540   3.797
 7277SOL     OW22729   5.479   0.821   5.110
 7277SOL    HW122730   5.546   0.748   5.114
 7277SOL    HW222731   5.391   0.785   5.080
 7278SOL     OW22732   3.655   2.128   3.193
 7278SOL    HW122733   3.747   2.159   3.168
 7278SOL    HW222734   3.616   2.073   3.119
 7279SOL     OW22735   4.287   3.616   6.661
 7279SOL    HW122736   4.227   3.672   6.605
 7279SOL    HW222737   4.357   3.674   6.704
 7280SOL     OW22738   5.862   2.309   5.221
 7280SOL    HW122739   5.778   2.358   5.197
 7280SOL    HW222740   5.843   2.211   5.228
 7281SOL     OW22741   3.407   0.232   0.939
 7281SOL    HW122742   3.357   0.266   0.859
 7281SOL    HW222743   3.374   0.140   0.961
 7282SOL     OW22744   6.529   5.535   1.490
 7282SOL    HW122745   6.532   5.616   1.432
 7282SOL    HW222746   6.491   5.560   1.579
 7283SOL     OW22747   2.722   6.766   2.256
 7283SOL    HW122748   2.799   6.808   2.306
 7283SOL    HW222749   2.708   6.673   2.290
 7284SOL     OW22750   6.648   2.933   3.894
 7284SOL    HW122751   6.630   3.002   3.964
 7284SOL    HW222752   6.660   2.844   3.937
 7285SOL     OW22753   5.176   3.634   1.684
 7285SOL    HW122754   5.238   3.567   1.724
 7285SOL    HW222755   5.094   3.642   1.741
 7286SOL     OW22756   0.654   1.172   0.396
 7286SOL    HW122757   0.640   1.111   0.474
 7286SOL    HW222758   0.739   1.148   0.349
 7287SOL     OW22759   6.502   3.036   4.108
 7287SOL    HW122760   6.501   3.126   4.150
 7287SOL    HW222761   6.560   2.975   4.162
 7288SOL     OW22762   1.764   2.757   2.261
 7288SOL    HW122763   1.864   2.762   2.254
 7288SOL    HW222764   1.728   2.703   2.186
 7289SOL     OW22765   5.517   3.483   2.318
 7289SOL    HW122766   5.486   3.486   2.223
 7289SOL    HW222767   5.476   3.404   2.364
 7290SOL     OW22768   3.230   0.661   5.340
 7290SOL    HW122769   3.250   0.705   5.427
 7290SOL    HW222770   3.314   0.650   5.287
 7291SOL     OW22771   4.165   0.070   0.757
 7291SOL    HW122772   4.110   0.139   0.711
 7291SOL    HW222773   4.257   0.106   0.773
 7292SOL     OW22774   1.624   6.690   3.479
 7292SOL    HW122775   1.667   6.780   3.487
 7292SOL    HW222776   1.542   6.697   3.422
 7293SOL     OW22777   1.405   1.440   6.149
 7293SOL    HW122778   1.355   1.380   6.086
 7293SOL    HW222779   1.495   1.400   6.168
 7294SOL     OW22780   3.258   4.858   1.431
 7294SOL    HW122781   3.313   4.941   1.435
 7294SOL    HW222782   3.195   4.863   1.354
 7295SOL     OW22783   6.308   4.361   1.502
 7295SOL    HW122784   6.337   4.324   1.414
 7295SOL    HW222785   6.222   4.411   1.491
 7296SOL     OW22786   3.788   5.116   2.838
 7296SOL    HW122787   3.871   5.167   2.859
 7296SOL    HW222788   3.794   5.024   2.877
 7297SOL     OW22789   3.360   6.438   2.594
 7297SOL    HW122790   3.281   6.388   2.630
 7297SOL    HW222791   3.343   6.462   2.498
 7298SOL     OW22792   4.945   6.115   0.108
 7298SOL    HW122793   4.862   6.116   0.053
 7298SOL    HW222794   4.937   6.047   0.181
 7299SOL     OW22795   1.032   1.834   0.211
 7299SOL    HW122796   1.057   1.753   0.263
 7299SOL    HW222797   0.932   1.844   0.210
 7300SOL     OW22798   0.960   5.067   1.947
 7300SOL    HW122799   0.986   4.973   1.968
 7300SOL    HW222800   1.004   5.130   2.012
 7301SOL     OW22801   6.923   0.417   5.695
 7301SOL    HW122802   6.914   0.327   5.651
 7301SOL    HW222803   6.836   0.465   5.689
 7302SOL     OW22804   6.624   1.562   5.342
 7302SOL    HW122805   6.663   1.470   5.332
 7302SOL    HW222806   6.545   1.570   5.281
 7303SOL     OW22807   3.207   1.160   6.819
 7303SOL    HW122808   3.108   1.143   6.816
 7303SOL    HW222809   3.252   1.104   6.749
 7304SOL     OW22810   2.283   5.196   1.971
 7304SOL    HW122811   2.263   5.220   1.876
 7304SOL    HW222812   2.224   5.120   1.999
 7305SOL     OW22813   5.312   2.604   1.135
 7305SOL    HW122814   5.351   2.525   1.086
 7305SOL    HW222815   5.384   2.672   1.150
 7306SOL     OW22816   4.130   1.442   1.638
 7306SOL    HW122817   4.127   1.533   1.679
 7306SOL    HW222818   4.124   1.450   1.539
 7307SOL     OW22819   3.738   6.542   2.316
 7307SOL    HW122820   3.741   6.514   2.412
 7307SOL    HW222821   3.831   6.567   2.286
 7308SOL     OW22822   6.698   1.454   2.903
 7308SOL    HW122823   6.788   1.494   2.884
 7308SOL    HW222824   6.628   1.525   2.898
 7309SOL     OW22825   2.432   6.420   2.739
 7309SOL    HW122826   2.452   6.386   2.647
 7309SOL    HW222827   2.391   6.347   2.793
 7310SOL     OW22828   1.247   3.453   6.852
 7310SOL    HW122829   1.255   3.535   6.795
 7310SOL    HW222830   1.339   3.415   6.868
 7311SOL     OW22831   1.033   0.217   0.407
 7311SOL    HW122832   1.072   0.203   0.316
 7311SOL    HW222833   0.961   0.287   0.403
 7312SOL     OW22834   0.574   1.349   4.888
 7312SOL    HW122835   0.498   1.412   4.905
 7312SOL    HW222836   0.549   1.285   4.816
 7313SOL     OW22837   2.773   1.085   0.811
 7313SOL    HW122838   2.802   1.023   0.737
 7313SOL    HW222839   2.829   1.068   0.892
 7314SOL     OW22840   0.365   3.758   6.831
 7314SOL    HW122841   0.346   3.666   6.865
 7314SOL    HW222842   0.372   3.756   6.731
 7315SOL     OW22843   6.389   5.130   2.551
 7315SOL    HW122844   6.477   5.155   2.511
 7315SOL    HW222845   6.331   5.087   2.481
 7316SOL     OW22846   3.479   1.838   5.958
 7316SOL    HW122847   3.561   1.784   5.937
 7316SOL    HW222848   3.405   1.776   5.983
 7317SOL     OW22849   3.798   1.560   1.548
 7317SOL    HW122850   3.702   1.543   1.572
 7317SOL    HW222851   3.825   1.650   1.582
 7318SOL     OW22852   3.803   6.753   2.058
 7318SOL    HW122853   3.708   6.728   2.040
 7318SOL    HW222854   3.860   6.722   1.981
 7319SOL     OW22855   6.716   2.962   6.256
 7319SOL    HW122856   6.801   2.948   6.307
 7319SOL    HW222857   6.734   2.957   6.158
 7320SOL     OW22858   6.992   3.960   1.107
 7320SOL    HW122859   6.910   3.971   1.050
 7320SOL    HW222860   7.012   3.863   1.118
 7321SOL     OW22861   1.405   6.581   6.143
 7321SOL    HW122862   1.317   6.544   6.115
 7321SOL    HW222863   1.394   6.677   6.169
 7322SOL     OW22864   0.847   2.714   3.191
 7322SOL    HW122865   0.771   2.770   3.224
 7322SOL    HW222866   0.930   2.737   3.242
 7323SOL     OW22867   2.444   1.759   1.566
 7323SOL    HW122868   2.391   1.842   1.549
 7323SOL    HW222869   2.503   1.741   1.487
 7324SOL     OW22870   6.242   4.372   2.349
 7324SOL    HW122871   6.239   4.348   2.252
 7324SOL    HW222872   6.317   4.321   2.393
 7325SOL     OW22873   2.992   0.745   5.860
 7325SOL    HW122874   3.027   0.677   5.925
 7325SOL    HW222875   2.973   0.700   5.772
 7326SOL     OW22876   4.035   0.211   6.172
 7326SOL    HW122877   4.104   0.236   6.103
 7326SOL    HW222878   3.967   0.150   6.130
 7327SOL     OW22879   5.759   3.972   3.974
 7327SOL    HW122880   5.723   4.018   4.055
 7327SOL    HW222881   5.787   4.041   3.906
 7328SOL     OW22882   4.230   5.403   5.758
 7328SOL    HW122883   4.156   5.397   5.691
 7328SOL    HW222884   4.191   5.412   5.850
 7329SOL     OW22885   0.685   2.773   0.257
 7329SOL    HW122886   0.778   2.739   0.249
 7329SOL    HW222887   0.639   2.767   0.168
 7330SOL     OW22888   3.297   3.140   0.981
 7330SOL    HW122889   3.362   3.077   1.024
 7330SOL    HW222890   3.300   3.228   1.028
 7331SOL     OW22891   4.586   0.113   1.724
 7331SOL    HW122892   4.636   0.048   1.783
 7331SOL    HW222893   4.581   0.202   1.769
 7332SOL     OW22894   4.149   4.245   6.904
 7332SOL    HW122895   4.055   4.278   6.904
 7332SOL    HW222896   4.211   4.318   6.931
 7333SOL     OW22897   6.005   3.357   3.375
 7333SOL    HW122898   5.943   3.332   3.450
 7333SOL    HW222899   6.011   3.281   3.311
 7334SOL     OW22900   2.924   5.978   6.046
 7334SOL    HW122901   2.900   6.046   5.977
 7334SOL    HW222902   3.008   6.007   6.093
 7335SOL     OW22903   0.268   3.371   2.887
 7335SOL    HW122904   0.274   3.451   2.948
 7335SOL    HW222905   0.294   3.289   2.938
 7336SOL     OW22906   2.457   6.400   0.998
 7336SOL    HW122907   2.481   6.450   0.914
 7336SOL    HW222908   2.501   6.310   0.996
 7337SOL     OW22909   3.388   2.776   1.253
 7337SOL    HW122910   3.467   2.727   1.217
 7337SOL    HW222911   3.306   2.752   1.201
 7338SOL     OW22912   5.891   2.328   1.487
 7338SOL    HW122913   5.873   2.388   1.565
 7338SOL    HW222914   5.917   2.383   1.408
 7339SOL     OW22915   0.233   6.610   5.705
 7339SOL    HW122916   0.332   6.599   5.708
 7339SOL    HW222917   0.210   6.708   5.704
 7340SOL     OW22918   3.888   0.947   6.612
 7340SOL    HW122919   3.824   0.884   6.657
 7340SOL    HW222920   3.848   0.977   6.525
 7341SOL     OW22921   1.750   5.186   4.682
 7341SOL    HW122922   1.771   5.214   4.775
 7341SOL    HW222923   1.652   5.198   4.664
 7342SOL     OW22924   6.642   6.657   0.390
 7342SOL    HW122925   6.595   6.705   0.464
 7342SOL    HW222926   6.741   6.663   0.404
 7343SOL     OW22927   5.501   4.155   1.779
 7343SOL    HW122928   5.576   4.094   1.805
 7343SOL    HW222929   5.460   4.123   1.693
 7344SOL     OW22930   1.798   0.127   6.803
 7344SOL    HW122931   1.718   0.166   6.850
 7344SOL    HW222932   1.774   0.037   6.766
 7345SOL     OW22933   4.112   5.139   6.065
 7345SOL    HW122934   4.196   5.176   6.106
 7345SOL    HW222935   4.121   5.138   5.965
 7346SOL     OW22936   4.280   3.879   0.909
 7346SOL    HW122937   4.363   3.830   0.934
 7346SOL    HW222938   4.238   3.917   0.992
 7347SOL     OW22939   6.883   2.646   1.964
 7347SOL    HW122940   6.819   2.691   2.026
 7347SOL    HW222941   6.836   2.572   1.916
 7348SOL     OW22942   1.771   4.195   3.643
 7348SOL    HW122943   1.747   4.099   3.632
 7348SOL    HW222944   1.757   4.243   3.557
 7349SOL     OW22945   3.798   1.635   1.027
 7349SOL    HW122946   3.750   1.641   1.115
 7349SOL    HW222947   3.785   1.543   0.989
 7350SOL     OW22948   0.539   2.655   4.052
 7350SOL    HW122949   0.548   2.755   4.058
 7350SOL    HW222950   0.619   2.612   4.094
 7351SOL     OW22951   3.913   4.496   6.903
 7351SOL    HW122952   3.924   4.552   6.821
 7351SOL    HW222953   3.964   4.537   6.978
 7352SOL     OW22954   1.793   1.969   3.836
 7352SOL    HW122955   1.804   1.910   3.916
 7352SOL    HW222956   1.846   1.933   3.759
 7353SOL     OW22957   0.364   1.378   5.396
 7353SOL    HW122958   0.289   1.316   5.418
 7353SOL    HW222959   0.349   1.420   5.306
 7354SOL     OW22960   0.325   0.882   6.533
 7354SOL    HW122961   0.265   0.819   6.584
 7354SOL    HW222962   0.365   0.948   6.595
 7355SOL     OW22963   1.463   6.207   1.026
 7355SOL    HW122964   1.383   6.203   0.966
 7355SOL    HW222965   1.508   6.118   1.027
 7356SOL     OW22966   5.005   2.589   6.399
 7356SOL    HW122967   4.991   2.651   6.477
 7356SOL    HW222968   5.086   2.619   6.348
 7357SOL     OW22969   4.768   0.924   1.434
 7357SOL    HW122970   4.700   0.968   1.492
 7357SOL    HW222971   4.830   0.869   1.491
 7358SOL     OW22972   2.701   2.003   2.260
 7358SOL    HW122973   2.629   2.065   2.292
 7358SOL    HW222974   2.790   2.038   2.287
 7359SOL     OW22975   3.561   2.923   0.837
 7359SOL    HW122976   3.600   2.847   0.889
 7359SOL    HW222977   3.461   2.917   0.839
 7360SOL     OW22978   2.259   2.081   5.679
 7360SOL    HW122979   2.197   2.113   5.751
 7360SOL    HW222980   2.241   2.131   5.595
 7361SOL     OW22981   4.939   6.306   2.026
 7361SOL    HW122982   5.030   6.273   2.001
 7361SOL    HW222983   4.870   6.249   1.981
 7362SOL     OW22984   0.831   6.559   4.863
 7362SOL    HW122985   0.752   6.509   4.827
 7362SOL    HW222986   0.822   6.656   4.842
 7363SOL     OW22987   4.574   1.783   0.189
 7363SOL    HW122988   4.475   1.780   0.177
 7363SOL    HW222989   4.615   1.837   0.115
 7364SOL     OW22990   4.053   6.640   1.447
 7364SOL    HW122991   3.994   6.633   1.527
 7364SOL    HW222992   4.019   6.579   1.375
 7365SOL     OW22993   2.265   6.389   2.475
 7365SOL    HW122994   2.246   6.291   2.483
 7365SOL    HW222995   2.187   6.440   2.511
 7366SOL     OW22996   1.361   5.519   0.135
 7366SOL    HW122997   1.420   5.441   0.156
 7366SOL    HW222998   1.411   5.586   0.081
 7367SOL     OW22999   4.740   3.622   0.889
 7367SOL    HW123000   4.809   3.600   0.958
 7367SOL    HW223001   4.784   3.635   0.800
 7368SOL     OW23002   3.446   2.957   3.894
 7368SOL    HW123003   3.378   2.904   3.842
 7368SOL    HW223004   3.538   2.928   3.868
 7369SOL     OW23005   5.310   3.658   0.859
 7369SOL    HW123006   5.313   3.678   0.761
 7369SOL    HW223007   5.365   3.725   0.908
 7370SOL     OW23008   2.218   0.294   6.365
 7370SOL    HW123009   2.185   0.364   6.428
 7370SOL    HW223010   2.159   0.290   6.285
 7371SOL     OW23011   3.171   5.450   4.216
 7371SOL    HW123012   3.144   5.375   4.277
 7371SOL    HW223013   3.112   5.529   4.232
 7372SOL     OW23014   3.176   0.361   5.464
 7372SOL    HW123015   3.272   0.354   5.437
 7372SOL    HW223016   3.121   0.384   5.384
 7373SOL     OW23017   4.541   1.448   3.661
 7373SOL    HW123018   4.446   1.461   3.690
 7373SOL    HW223019   4.601   1.499   3.722
 7374SOL     OW23020   2.416   2.812   5.543
 7374SOL    HW123021   2.419   2.793   5.641
 7374SOL    HW223022   2.500   2.858   5.516
 7375SOL     OW23023   1.532   2.200   3.743
 7375SOL    HW123024   1.479   2.229   3.823
 7375SOL    HW223025   1.606   2.265   3.727
 7376SOL     OW23026   3.297   2.306   0.162
 7376SOL    HW123027   3.295   2.378   0.092
 7376SOL    HW223028   3.382   2.253   0.153
 7377SOL     OW23029   4.706   5.675   1.836
 7377SOL    HW123030   4.695   5.675   1.936
 7377SOL    HW223031   4.771   5.604   1.810
 7378SOL     OW23032   0.276   1.835   4.298
 7378SOL    HW123033   0.222   1.767   4.249
 7378SOL    HW223034   0.306   1.798   4.386
 7379SOL     OW23035   3.927   1.730   2.707
 7379SOL    HW123036   3.994   1.667   2.746
 7379SOL    HW223037   3.921   1.812   2.764
 7380SOL     OW23038   0.329   3.243   5.888
 7380SOL    HW123039   0.410   3.214   5.939
 7380SOL    HW223040   0.302   3.170   5.825
 7381SOL     OW23041   4.882   3.090   2.425
 7381SOL    HW123042   4.974   3.061   2.452
 7381SOL    HW223043   4.832   3.122   2.505
 7382SOL     OW23044   6.808   5.569   4.693
 7382SOL    HW123045   6.869   5.539   4.766
 7382SOL    HW223046   6.718   5.592   4.732
 7383SOL     OW23047   6.861   6.719   2.597
 7383SOL    HW123048   6.945   6.678   2.633
 7383SOL    HW223049   6.873   6.738   2.499
 7384SOL     OW23050   5.099   1.095   1.863
 7384SOL    HW123051   5.012   1.087   1.814
 7384SOL    HW223052   5.120   1.191   1.879
 7385SOL     OW23053   3.654   5.932   2.163
 7385SOL    HW123054   3.675   6.029   2.178
 7385SOL    HW223055   3.614   5.893   2.245
 7386SOL     OW23056   0.596   2.502   5.448
 7386SOL    HW123057   0.582   2.573   5.379
 7386SOL    HW223058   0.646   2.425   5.408
 7387SOL     OW23059   4.462   6.512   4.885
 7387SOL    HW123060   4.444   6.578   4.958
 7387SOL    HW223061   4.385   6.513   4.821
 7388SOL     OW23062   0.101   5.567   3.639
 7388SOL    HW123063   0.017   5.514   3.628
 7388SOL    HW223064   0.150   5.535   3.719
 7389SOL     OW23065   1.423   4.971   6.647
 7389SOL    HW123066   1.510   4.970   6.696
 7389SOL    HW223067   1.359   4.908   6.691
 7390SOL     OW23068   1.274   2.049   6.577
 7390SOL    HW123069   1.336   1.983   6.536
 7390SOL    HW223070   1.317   2.140   6.577
 7391SOL     OW23071   4.565   3.873   5.492
 7391SOL    HW123072   4.618   3.789   5.476
 7391SOL    HW223073   4.494   3.881   5.421
 7392SOL     OW23074   2.577   5.958   6.477
 7392SOL    HW123075   2.556   5.946   6.380
 7392SOL    HW223076   2.638   6.035   6.488
 7393SOL     OW23077   5.851   5.692   1.577
 7393SOL    HW123078   5.846   5.719   1.673
 7393SOL    HW223079   5.869   5.773   1.521
 7394SOL     OW23080   3.173   3.188   6.343
 7394SOL    HW123081   3.195   3.178   6.440
 7394SOL    HW223082   3.239   3.137   6.288
 7395SOL     OW23083   0.844   1.103   6.829
 7395SOL    HW123084   0.789   1.178   6.793
 7395SOL    HW223085   0.784   1.029   6.859
 7396SOL     OW23086   1.116   1.054   6.857
 7396SOL    HW123087   1.112   0.998   6.940
 7396SOL    HW223088   1.024   1.081   6.830
 7397SOL     OW23089   6.305   5.356   4.177
 7397SOL    HW123090   6.266   5.355   4.085
 7397SOL    HW223091   6.351   5.443   4.193
 7398SOL     OW23092   3.508   4.905   4.164
 7398SOL    HW123093   3.473   4.985   4.213
 7398SOL    HW223094   3.452   4.888   4.083
 7399SOL     OW23095   0.562   3.781   5.401
 7399SOL    HW123096   0.513   3.867   5.406
 7399SOL    HW223097   0.507   3.709   5.444
 7400SOL     OW23098   3.148   3.952   0.049
 7400SOL    HW123099   3.246   3.960   0.067
 7400SOL    HW223100   3.123   3.855   0.045
 7401SOL     OW23101   0.577   1.137   3.692
 7401SOL    HW123102   0.664   1.130   3.642
 7401SOL    HW223103   0.538   1.046   3.704
 7402SOL     OW23104   2.167   6.394   4.426
 7402SOL    HW123105   2.074   6.357   4.415
 7402SOL    HW223106   2.191   6.396   4.523
 7403SOL     OW23107   2.017   3.283   3.236
 7403SOL    HW123108   1.923   3.292   3.267
 7403SOL    HW223109   2.053   3.373   3.211
 7404SOL     OW23110   2.355   6.386   1.422
 7404SOL    HW123111   2.395   6.443   1.350
 7404SOL    HW223112   2.331   6.297   1.384
 7405SOL     OW23113   1.173   5.160   4.751
 7405SOL    HW123114   1.257   5.145   4.802
 7405SOL    HW223115   1.191   5.219   4.673
 7406SOL     OW23116   1.714   3.902   2.417
 7406SOL    HW123117   1.619   3.914   2.388
 7406SOL    HW223118   1.719   3.909   2.517
 7407SOL     OW23119   0.669   6.348   4.755
 7407SOL    HW123120   0.593   6.307   4.804
 7407SOL    HW223121   0.706   6.282   4.689
 7408SOL     OW23122   0.990   4.362   5.069
 7408SOL    HW123123   1.033   4.308   4.997
 7408SOL    HW223124   1.050   4.438   5.094
 7409SOL     OW23125   0.624   0.838   4.405
 7409SOL    HW123126   0.615   0.916   4.466
 7409SOL    HW223127   0.544   0.833   4.346
 7410SOL     OW23128   6.756   5.152   0.678
 7410SOL    HW123129   6.778   5.101   0.761
 7410SOL    HW223130   6.718   5.090   0.609
 7411SOL     OW23131   3.058   6.963   4.182
 7411SOL    HW123132   3.039   6.873   4.222
 7411SOL    HW223133   3.115   6.953   4.101
 7412SOL     OW23134   4.019   1.327   0.844
 7412SOL    HW123135   4.115   1.356   0.840
 7412SOL    HW223136   3.973   1.353   0.760
 7413SOL     OW23137   0.095   4.719   3.880
 7413SOL    HW123138   0.170   4.785   3.873
 7413SOL    HW223139   0.124   4.640   3.933
 7414SOL     OW23140   0.161   0.252   2.879
 7414SOL    HW123141   0.204   0.289   2.797
 7414SOL    HW223142   0.081   0.198   2.853
 7415SOL     OW23143   0.656   3.788   3.089
 7415SOL    HW123144   0.631   3.813   2.995
 7415SOL    HW223145   0.640   3.690   3.103
 7416SOL     OW23146   3.430   0.625   3.923
 7416SOL    HW123147   3.413   0.685   4.001
 7416SOL    HW223148   3.528   0.614   3.910
 7417SOL     OW23149   1.369   6.866   6.727
 7417SOL    HW123150   1.410   6.775   6.730
 7417SOL    HW223151   1.391   6.915   6.811
 7418SOL     OW23152   3.914   5.098   1.071
 7418SOL    HW123153   3.817   5.124   1.066
 7418SOL    HW223154   3.936   5.073   1.165
 7419SOL     OW23155   6.563   2.371   4.623
 7419SOL    HW123156   6.614   2.357   4.708
 7419SOL    HW223157   6.607   2.441   4.568
 7420SOL     OW23158   6.367   6.192   2.621
 7420SOL    HW123159   6.303   6.116   2.616
 7420SOL    HW223160   6.449   6.170   2.569
 7421SOL     OW23161   3.381   2.781   1.960
 7421SOL    HW123162   3.312   2.817   1.897
 7421SOL    HW223163   3.472   2.799   1.924
 7422SOL     OW23164   0.335   3.497   2.623
 7422SOL    HW123165   0.369   3.440   2.698
 7422SOL    HW223166   0.411   3.522   2.563
 7423SOL     OW23167   6.965   3.543   6.595
 7423SOL    HW123168   6.932   3.581   6.509
 7423SOL    HW223169   0.043   3.526   6.588
 7424SOL     OW23170   6.308   1.431   4.139
 7424SOL    HW123171   6.216   1.469   4.138
 7424SOL    HW223172   6.368   1.490   4.193
 7425SOL     OW23173   4.199   4.716   6.533
 7425SOL    HW123174   4.246   4.788   6.583
 7425SOL    HW223175   4.231   4.715   6.438
 7426SOL     OW23176   1.015   1.858   6.873
 7426SOL    HW123177   0.998   1.914   6.954
 7426SOL    HW223178   1.112   1.837   6.867
 7427SOL     OW23179   2.953   6.398   4.887
 7427SOL    HW123180   2.894   6.317   4.887
 7427SOL    HW223181   2.984   6.417   4.794
 7428SOL     OW23182   3.094   1.143   5.323
 7428SOL    HW123183   3.075   1.151   5.226
 7428SOL    HW223184   3.075   1.231   5.368
 7429SOL     OW23185   6.129   0.319   3.438
 7429SOL    HW123186   6.187   0.271   3.504
 7429SOL    HW223187   6.087   0.254   3.376
 7430SOL     OW23188   0.318   4.681   6.009
 7430SOL    HW123189   0.342   4.672   6.106
 7430SOL    HW223190   0.293   4.775   5.989
 7431SOL     OW23191   0.442   3.867   2.164
 7431SOL    HW123192   0.418   3.944   2.105
 7431SOL    HW223193   0.383   3.867   2.245
 7432SOL     OW23194   0.538   0.080   3.791
 7432SOL    HW123195   0.455   0.024   3.796
 7432SOL    HW223196   0.586   0.077   3.879
 7433SOL     OW23197   6.632   5.520   0.347
 7433SOL    HW123198   6.645   5.461   0.268
 7433SOL    HW223199   6.622   5.465   0.429
 7434SOL     OW23200   4.143   1.001   6.500
 7434SOL    HW123201   4.121   1.092   6.463
 7434SOL    HW223202   4.065   0.966   6.551
 7435SOL     OW23203   3.358   6.373   6.549
 7435SOL    HW123204   3.274   6.427   6.553
 7435SOL    HW223205   3.436   6.430   6.579
 7436SOL     OW23206   6.540   2.844   6.439
 7436SOL    HW123207   6.471   2.779   6.408
 7436SOL    HW223208   6.583   2.887   6.359
 7437SOL     OW23209   6.972   5.660   6.949
 7437SOL    HW123210   6.985   5.632   6.853
 7437SOL    HW223211   6.878   5.641   6.977
 7438SOL     OW23212   0.636   4.796   0.669
 7438SOL    HW123213   0.729   4.759   0.665
 7438SOL    HW223214   0.633   4.883   0.619
 7439SOL     OW23215   2.145   6.708   4.694
 7439SOL    HW123216   2.150   6.754   4.605
 7439SOL    HW223217   2.058   6.658   4.700
 7440SOL     OW23218   0.617   2.903   4.727
 7440SOL    HW123219   0.665   2.948   4.652
 7440SOL    HW223220   0.682   2.850   4.782
 7441SOL     OW23221   5.799   6.787   4.529
 7441SOL    HW123222   5.855   6.823   4.454
 7441SOL    HW223223   5.752   6.704   4.498
 7442SOL     OW23224   0.980   1.100   6.180
 7442SOL    HW123225   1.007   1.017   6.227
 7442SOL    HW223226   0.881   1.113   6.188
 7443SOL     OW23227   0.542   1.510   1.200
 7443SOL    HW123228   0.606   1.572   1.246
 7443SOL    HW223229   0.533   1.426   1.254
 7444SOL     OW23230   0.188   3.311   4.899
 7444SOL    HW123231   0.261   3.264   4.849
 7444SOL    HW223232   0.226   3.355   4.980
 7445SOL     OW23233   4.197   0.898   1.421
 7445SOL    HW123234   4.123   0.964   1.432
 7445SOL    HW223235   4.250   0.893   1.506
 7446SOL     OW23236   5.274   4.246   0.150
 7446SOL    HW123237   5.205   4.316   0.167
 7446SOL    HW223238   5.243   4.186   0.076
 7447SOL     OW23239   2.251   3.645   6.850
 7447SOL    HW123240   2.217   3.551   6.849
 7447SOL    HW223241   2.341   3.647   6.894
 7448SOL     OW23242   5.073   6.044   5.811
 7448SOL    HW123243   4.990   6.074   5.763
 7448SOL    HW223244   5.065   6.068   5.908
 7449SOL     OW23245   5.128   2.930   2.088
 7449SOL    HW123246   5.040   2.944   2.134
 7449SOL    HW223247   5.186   2.870   2.144
 7450SOL     OW23248   5.341   2.485   4.623
 7450SOL    HW123249   5.309   2.406   4.571
 7450SOL    HW223250   5.263   2.528   4.669
 7451SOL     OW23251   1.506   0.276   3.481
 7451SOL    HW123252   1.439   0.302   3.412
 7451SOL    HW223253   1.501   0.341   3.558
 7452SOL     OW23254   0.770   6.952   5.006
 7452SOL    HW123255   0.852   6.916   5.051
 7452SOL    HW223256   0.698   6.964   5.074
 7453SOL     OW23257   5.544   5.796   5.519
 7453SOL    HW123258   5.518   5.872   5.458
 7453SOL    HW223259   5.640   5.807   5.545
 7454SOL     OW23260   0.965   3.164   2.022
 7454SOL    HW123261   0.998   3.099   1.953
 7454SOL    HW223262   1.014   3.148   2.108
 7455SOL     OW23263   6.928   1.228   1.973
 7455SOL    HW123264   6.896   1.316   2.008
 7455SOL    HW223265   6.927   1.229   1.873
 7456SOL     OW23266   1.212   1.974   4.784
 7456SOL    HW123267   1.180   1.888   4.824
 7456SOL    HW223268   1.136   2.019   4.738
 7457SOL     OW23269   4.192   0.651   5.887
 7457SOL    HW123270   4.161   0.556   5.888
 7457SOL    HW223271   4.119   0.711   5.854
 7458SOL     OW23272   1.367   0.673   6.728
 7458SOL    HW123273   1.408   0.582   6.729
 7458SOL    HW223274   1.438   0.742   6.715
 7459SOL     OW23275   4.909   6.891   0.419
 7459SOL    HW123276   4.834   6.842   0.462
 7459SOL    HW223277   4.996   6.855   0.452
 7460SOL     OW23278   2.053   4.161   1.027
 7460SOL    HW123279   2.114   4.240   1.039
 7460SOL    HW223280   2.102   4.090   0.976
 7461SOL     OW23281   5.054   1.425   5.889
 7461SOL    HW123282   4.989   1.501   5.891
 7461SOL    HW223283   5.031   1.359   5.960
 7462SOL     OW23284   2.072   2.662   2.155
 7462SOL    HW123285   2.163   2.654   2.195
 7462SOL    HW223286   2.080   2.697   2.061
 7463SOL     OW23287   3.813   4.337   1.325
 7463SOL    HW123288   3.735   4.277   1.309
 7463SOL    HW223289   3.781   4.425   1.361
 7464SOL     OW23290   3.157   6.619   6.377
 7464SOL    HW123291   3.185   6.619   6.473
 7464SOL    HW223292   3.142   6.525   6.346
 7465SOL     OW23293   1.810   0.786   0.638
 7465SOL    HW123294   1.842   0.779   0.733
 7465SOL    HW223295   1.710   0.780   0.637
 7466SOL     OW23296   0.474   0.549   6.981
 7466SOL    HW123297   0.474   0.550   6.881
 7466SOL    HW223298   0.565   0.572   7.014
 7467SOL     OW23299   6.749   1.750   0.865
 7467SOL    HW123300   6.822   1.682   0.850
 7467SOL    HW223301   6.683   1.713   0.930
 7468SOL     OW23302   5.324   2.576   2.429
 7468SOL    HW123303   5.309   2.627   2.514
 7468SOL    HW223304   5.422   2.563   2.415
 7469SOL     OW23305   0.409   0.387   0.776
 7469SOL    HW123306   0.487   0.356   0.722
 7469SOL    HW223307   0.420   0.356   0.871
 7470SOL     OW23308   0.280   2.939   3.815
 7470SOL    HW123309   0.284   2.947   3.715
 7470SOL    HW223310   0.276   2.843   3.841
 7471SOL     OW23311   6.221   0.089   4.503
 7471SOL    HW123312   6.232   0.072   4.405
 7471SOL    HW223313   6.126   0.071   4.530
 7472SOL     OW23314   5.823   6.786   4.212
 7472SOL    HW123315   5.744   6.848   4.213
 7472SOL    HW223316   5.795   6.696   4.248
 7473SOL     OW23317   0.643   4.500   3.167
 7473SOL    HW123318   0.548   4.508   3.138
 7473SOL    HW223319   0.648   4.490   3.267
 7474SOL     OW23320   2.242   0.887   5.160
 7474SOL    HW123321   2.333   0.918   5.187
 7474SOL    HW223322   2.173   0.935   5.214
 7475SOL     OW23323   3.563   1.425   2.282
 7475SOL    HW123324   3.647   1.457   2.237
 7475SOL    HW223325   3.577   1.423   2.381
 7476SOL     OW23326   3.590   6.580   4.058
 7476SOL    HW123327   3.651   6.633   4.117
 7476SOL    HW223328   3.619   6.591   3.963
 7477SOL     OW23329   5.602   1.855   3.750
 7477SOL    HW123330   5.652   1.781   3.796
 7477SOL    HW223331   5.666   1.928   3.726
 7478SOL     OW23332   3.762   4.190   6.197
 7478SOL    HW123333   3.679   4.151   6.158
 7478SOL    HW223334   3.755   4.193   6.296
 7479SOL     OW23335   4.258   2.775   0.754
 7479SOL    HW123336   4.189   2.843   0.776
 7479SOL    HW223337   4.319   2.812   0.684
 7480SOL     OW23338   6.147   4.624   1.779
 7480SOL    HW123339   6.076   4.591   1.842
 7480SOL    HW223340   6.237   4.600   1.814
 7481SOL     OW23341   5.685   5.402   1.643
 7481SOL    HW123342   5.690   5.304   1.623
 7481SOL    HW223343   5.728   5.419   1.732
 7482SOL     OW23344   4.688   1.850   2.653
 7482SOL    HW123345   4.668   1.932   2.600
 7482SOL    HW223346   4.626   1.776   2.625
 7483SOL     OW23347   4.521   2.103   4.999
 7483SOL    HW123348   4.425   2.111   5.023
 7483SOL    HW223349   4.563   2.194   4.999
 7484SOL     OW23350   0.084   0.183   2.420
 7484SOL    HW123351   7.010   0.168   2.394
 7484SOL    HW223352   0.087   0.239   2.503
 7485SOL     OW23353   3.159   5.898   5.434
 7485SOL    HW123354   3.108   5.902   5.348
 7485SOL    HW223355   3.125   5.822   5.489
 7486SOL     OW23356   2.507   0.386   5.821
 7486SOL    HW123357   2.599   0.358   5.793
 7486SOL    HW223358   2.503   0.485   5.830
 7487SOL     OW23359   1.917   6.458   2.429
 7487SOL    HW123360   1.820   6.482   2.422
 7487SOL    HW223361   1.972   6.534   2.394
 7488SOL     OW23362   1.853   6.729   4.973
 7488SOL    HW123363   1.887   6.637   4.954
 7488SOL    HW223364   1.756   6.733   4.951
 7489SOL     OW23365   5.245   2.187   5.461
 7489SOL    HW123366   5.278   2.130   5.386
 7489SOL    HW223367   5.145   2.187   5.461
 7490SOL     OW23368   1.169   1.545   1.370
 7490SOL    HW123369   1.194   1.474   1.436
 7490SOL    HW223370   1.116   1.616   1.416
 7491SOL     OW23371   0.307   4.476   6.622
 7491SOL    HW123372   0.348   4.394   6.583
 7491SOL    HW223373   0.272   4.534   6.549
 7492SOL     OW23374   2.755   1.261   4.839
 7492SOL    HW123375   2.841   1.284   4.794
 7492SOL    HW223376   2.716   1.179   4.798
 7493SOL     OW23377   6.168   4.120   6.248
 7493SOL    HW123378   6.236   4.099   6.318
 7493SOL    HW223379   6.145   4.217   6.251
 7494SOL     OW23380   6.066   1.146   2.471
 7494SOL    HW123381   6.144   1.090   2.444
 7494SOL    HW223382   6.000   1.149   2.397
 7495SOL     OW23383   2.590   1.426   1.199
 7495SOL    HW123384   2.580   1.381   1.288
 7495SOL    HW223385   2.556   1.366   1.127
 7496SOL     OW23386   0.832   3.626   6.055
 7496SOL    HW123387   0.798   3.652   6.145
 7496SOL    HW223388   0.854   3.708   6.002
 7497SOL     OW23389   2.382   5.013   0.858
 7497SOL    HW123390   2.380   4.977   0.951
 7497SOL    HW223391   2.424   5.103   0.857
 7498SOL     OW23392   1.656   0.789   4.738
 7498SOL    HW123393   1.681   0.820   4.646
 7498SOL    HW223394   1.556   0.794   4.748
 7499SOL     OW23395   6.048   1.348   3.271
 7499SOL    HW123396   5.996   1.369   3.354
 7499SOL    HW223397   5.994   1.288   3.212
 7500SOL     OW23398   3.931   6.420   3.531
 7500SOL    HW123399   3.848   6.379   3.568
 7500SOL    HW223400   3.997   6.348   3.509
 7501SOL     OW23401   6.485   4.158   4.293
 7501SOL    HW123402   6.494   4.073   4.242
 7501SOL    HW223403   6.541   4.229   4.251
 7502SOL     OW23404   1.182   0.874   5.459
 7502SOL    HW123405   1.203   0.887   5.556
 7502SOL    HW223406   1.086   0.847   5.448
 7503SOL     OW23407   2.020   1.773   0.038
 7503SOL    HW123408   2.103   1.741   0.084
 7503SOL    HW223409   2.020   1.873   0.036
 7504SOL     OW23410   3.142   0.620   3.754
 7504SOL    HW123411   3.231   0.638   3.794
 7504SOL    HW223412   3.121   0.690   3.686
 7505SOL     OW23413   2.201   0.580   5.591
 7505SOL    HW123414   2.254   0.502   5.559
 7505SOL    HW223415   2.103   0.559   5.582
 7506SOL     OW23416   3.894   0.205   2.860
 7506SOL    HW123417   3.919   0.300   2.843
 7506SOL    HW223418   3.797   0.192   2.838
 7507SOL     OW23419   7.016   0.938   1.102
 7507SOL    HW123420   0.013   0.843   1.128
 7507SOL    HW223421   0.082   0.985   1.086
 7508SOL     OW23422   5.740   0.218   2.212
 7508SOL    HW123423   5.799   0.250   2.285
 7508SOL    HW223424   5.675   0.289   2.187
 7509SOL     OW23425   5.711   3.985   0.945
 7509SOL    HW123426   5.755   4.020   0.863
 7509SOL    HW223427   5.778   3.939   1.003
 7510SOL     OW23428   2.844   4.125   5.366
 7510SOL    HW123429   2.840   4.050   5.300
 7510SOL    HW223430   2.791   4.101   5.447
 7511SOL     OW23431   1.222   0.427   3.495
 7511SOL    HW123432   1.153   0.377   3.443
 7511SOL    HW223433   1.180   0.508   3.536
 7512SOL     OW23434   3.213   4.551   1.304
 7512SOL    HW123435   3.273   4.624   1.270
 7512SOL    HW223436   3.258   4.463   1.291
 7513SOL     OW23437   1.946   1.713   1.772
 7513SOL    HW123438   1.906   1.749   1.857
 7513SOL    HW223439   1.876   1.709   1.701
 7514SOL     OW23440   2.839   5.674   2.608
 7514SOL    HW123441   2.807   5.768   2.622
 7514SOL    HW223442   2.765   5.610   2.630
 7515SOL     OW23443   1.553   6.263   2.153
 7515SOL    HW123444   1.629   6.200   2.143
 7515SOL    HW223445   1.514   6.254   2.244
 7516SOL     OW23446   0.136   6.103   4.264
 7516SOL    HW123447   0.210   6.060   4.213
 7516SOL    HW223448   0.048   6.079   4.223
 7517SOL     OW23449   6.821   3.350   1.633
 7517SOL    HW123450   6.834   3.440   1.592
 7517SOL    HW223451   6.806   3.283   1.560
 7518SOL     OW23452   3.855   5.725   3.570
 7518SOL    HW123453   3.819   5.818   3.579
 7518SOL    HW223454   3.933   5.714   3.631
 7519SOL     OW23455   0.103   6.751   3.498
 7519SOL    HW123456   0.038   6.809   3.547
 7519SOL    HW223457   0.054   6.687   3.439
 7520SOL     OW23458   3.345   6.887   2.014
 7520SOL    HW123459   3.258   6.919   2.051
 7520SOL    HW223460   3.414   6.959   2.023
 7521SOL     OW23461   4.195   4.549   5.902
 7521SOL    HW123462   4.159   4.642   5.898
 7521SOL    HW223463   4.208   4.522   5.998
 7522SOL     OW23464   2.812   0.694   6.547
 7522SOL    HW123465   2.765   0.687   6.635
 7522SOL    HW223466   2.829   0.603   6.510
 7523SOL     OW23467   5.304   0.400   5.676
 7523SOL    HW123468   5.214   0.359   5.661
 7523SOL    HW223469   5.366   0.369   5.604
 7524SOL     OW23470   1.131   2.335   6.601
 7524SOL    HW123471   1.093   2.288   6.680
 7524SOL    HW223472   1.120   2.434   6.611
 7525SOL     OW23473   2.578   6.795   0.159
 7525SOL    HW123474   2.596   6.803   0.257
 7525SOL    HW223475   2.652   6.743   0.116
 7526SOL     OW23476   3.535   2.991   2.501
 7526SOL    HW123477   3.590   2.962   2.422
 7526SOL    HW223478   3.508   3.087   2.489
 7527SOL     OW23479   3.974   5.747   3.286
 7527SOL    HW123480   4.070   5.719   3.294
 7527SOL    HW223481   3.927   5.726   3.372
 7528SOL     OW23482   3.872   1.838   6.558
 7528SOL    HW123483   3.898   1.935   6.561
 7528SOL    HW223484   3.951   1.782   6.585
 7529SOL     OW23485   5.947   0.811   4.273
 7529SOL    HW123486   5.882   0.759   4.218
 7529SOL    HW223487   6.015   0.750   4.312
 7530SOL     OW23488   6.091   3.993   2.475
 7530SOL    HW123489   6.089   4.079   2.425
 7530SOL    HW223490   6.141   3.924   2.422
 7531SOL     OW23491   4.638   2.343   3.972
 7531SOL    HW123492   4.622   2.412   3.901
 7531SOL    HW223493   4.555   2.330   4.025
 7532SOL     OW23494   5.474   5.591   1.534
 7532SOL    HW123495   5.417   5.624   1.458
 7532SOL    HW223496   5.440   5.630   1.620
 7533SOL     OW23497   2.310   0.693   2.868
 7533SOL    HW123498   2.223   0.724   2.830
 7533SOL    HW223499   2.377   0.767   2.864
 7534SOL     OW23500   3.555   6.431   5.503
 7534SOL    HW123501   3.651   6.402   5.501
 7534SOL    HW223502   3.548   6.524   5.467
 7535SOL     OW23503   2.660   0.755   5.848
 7535SOL    HW123504   2.749   0.800   5.843
 7535SOL    HW223505   2.603   0.784   5.771
 7536SOL     OW23506   5.604   4.916   4.767
 7536SOL    HW123507   5.633   5.008   4.794
 7536SOL    HW223508   5.639   4.895   4.676
 7537SOL     OW23509   2.719   5.473   4.667
 7537SOL    HW123510   2.729   5.492   4.569
 7537SOL    HW223511   2.650   5.534   4.706
 7538SOL     OW23512   3.622   2.833   1.748
 7538SOL    HW123513   3.574   2.897   1.689
 7538SOL    HW223514   3.577   2.744   1.743
 7539SOL     OW23515   2.475   2.554   4.299
 7539SOL    HW123516   2.494   2.470   4.349
 7539SOL    HW223517   2.515   2.549   4.207
 7540SOL     OW23518   2.527   0.944   5.643
 7540SOL    HW123519   2.616   0.980   5.616
 7540SOL    HW223520   2.469   0.934   5.563
 7541SOL     OW23521   6.797   3.314   4.684
 7541SOL    HW123522   6.799   3.238   4.748
 7541SOL    HW223523   6.882   3.367   4.692
 7542SOL     OW23524   0.804   6.096   7.018
 7542SOL    HW123525   0.741   6.143   0.058
 7542SOL    HW223526   0.808   5.999   0.021
 7543SOL     OW23527   4.001   2.389   0.841
 7543SOL    HW123528   3.992   2.341   0.753
 7543SOL    HW223529   3.934   2.354   0.905
 7544SOL     OW23530   0.377   2.280   3.725
 7544SOL    HW123531   0.386   2.363   3.779
 7544SOL    HW223532   0.447   2.214   3.753
 7545SOL     OW23533   5.736   6.506   3.126
 7545SOL    HW123534   5.778   6.543   3.043
 7545SOL    HW223535   5.789   6.533   3.206
 7546SOL     OW23536   4.373   1.306   1.620
 7546SOL    HW123537   4.443   1.325   1.690
 7546SOL    HW223538   4.286   1.343   1.650
 7547SOL     OW23539   4.699   0.011   0.774
 7547SOL    HW123540   4.701   6.935   0.799
 7547SOL    HW223541   4.609   0.034   0.737
 7548SOL     OW23542   2.865   2.211   0.678
 7548SOL    HW123543   2.943   2.269   0.702
 7548SOL    HW223544   2.864   2.195   0.580
 7549SOL     OW23545   5.510   1.914   1.467
 7549SOL    HW123546   5.483   1.835   1.412
 7549SOL    HW223547   5.606   1.903   1.495
 7550SOL     OW23548   2.514   4.474   1.843
 7550SOL    HW123549   2.519   4.391   1.787
 7550SOL    HW223550   2.600   4.525   1.835
 7551SOL     OW23551   4.858   3.880   6.926
 7551SOL    HW123552   4.920   3.868   7.004
 7551SOL    HW223553   4.764   3.863   6.956
 7552SOL     OW23554   2.105   5.525   4.037
 7552SOL    HW123555   2.154   5.478   3.963
 7552SOL    HW223556   2.115   5.472   4.121
 7553SOL     OW23557   4.241   5.232   5.417
 7553SOL    HW123558   4.172   5.302   5.401
 7553SOL    HW223559   4.332   5.274   5.421
 7554SOL     OW23560   4.910   0.313   0.641
 7554SOL    HW123561   4.995   0.305   0.692
 7554SOL    HW223562   4.903   0.239   0.575
 7555SOL     OW23563   2.012   5.214   5.096
 7555SOL    HW123564   2.057   5.130   5.065
 7555SOL    HW223565   2.001   5.211   5.195
 7556SOL     OW23566   0.667   2.520   5.726
 7556SOL    HW123567   0.632   2.500   5.634
 7556SOL    HW223568   0.659   2.439   5.783
 7557SOL     OW23569   5.270   2.941   6.288
 7557SOL    HW123570   5.230   2.850   6.278
 7557SOL    HW223571   5.338   2.955   6.217
 7558SOL     OW23572   2.516   2.298   3.131
 7558SOL    HW123573   2.441   2.348   3.175
 7558SOL    HW223574   2.598   2.307   3.186
 7559SOL     OW23575   6.560   5.858   0.798
 7559SOL    HW123576   6.589   5.786   0.861
 7559SOL    HW223577   6.461   5.856   0.788
 7560SOL     OW23578   5.570   6.257   0.304
 7560SOL    HW123579   5.527   6.322   0.366
 7560SOL    HW223580   5.577   6.298   0.213
 7561SOL     OW23581   0.947   3.019   0.767
 7561SOL    HW123582   0.928   3.044   0.861
 7561SOL    HW223583   0.978   2.924   0.763
 7562SOL     OW23584   5.378   6.567   4.683
 7562SOL    HW123585   5.283   6.548   4.659
 7562SOL    HW223586   5.423   6.483   4.712
 7563SOL     OW23587   2.848   6.466   1.186
 7563SOL    HW123588   2.799   6.537   1.235
 7563SOL    HW223589   2.945   6.469   1.210
 7564SOL     OW23590   5.199   1.479   2.789
 7564SOL    HW123591   5.164   1.572   2.801
 7564SOL    HW223592   5.158   1.419   2.858
 7565SOL     OW23593   5.162   4.588   0.050
 7565SOL    HW123594   5.087   4.525   0.074
 7565SOL    HW223595   5.148   4.622   6.978
 7566SOL     OW23596   0.634   5.301   3.229
 7566SOL    HW123597   0.731   5.278   3.240
 7566SOL    HW223598   0.603   5.351   3.310
 7567SOL     OW23599   2.100   2.624   5.068
 7567SOL    HW123600   2.086   2.689   5.143
 7567SOL    HW223601   2.171   2.559   5.094
 7568SOL     OW23602   5.693   6.268   3.819
 7568SOL    HW123603   5.657   6.218   3.740
 7568SOL    HW223604   5.782   6.229   3.845
 7569SOL     OW23605   3.985   4.608   6.658
 7569SOL    HW123606   3.902   4.656   6.631
 7569SOL    HW223607   4.062   4.644   6.605
 7570SOL     OW23608   5.355   4.522   5.554
 7570SOL    HW123609   5.449   4.552   5.541
 7570SOL    HW223610   5.349   4.462   5.633
 7571SOL     OW23611   5.046   5.054   2.560
 7571SOL    HW123612   5.127   5.050   2.618
 7571SOL    HW223613   5.020   4.961   2.534
 7572SOL     OW23614   4.974   0.472   3.367
 7572SOL    HW123615   4.998   0.436   3.457
 7572SOL    HW223616   4.950   0.397   3.306
 7573SOL     OW23617   5.969   6.217   4.414
 7573SOL    HW123618   6.062   6.241   4.444
 7573SOL    HW223619   5.903   6.249   4.481
 7574SOL     OW23620   6.777   0.809   4.937
 7574SOL    HW123621   6.766   0.749   4.857
 7574SOL    HW223622   6.869   0.848   4.936
 7575SOL     OW23623   4.331   0.040   6.113
 7575SOL    HW123624   4.312   0.136   6.092
 7575SOL    HW223625   4.266   7.003   6.066
 7576SOL     OW23626   6.108   5.691   0.329
 7576SOL    HW123627   6.076   5.610   0.281
 7576SOL    HW223628   6.114   5.671   0.427
 7577SOL     OW23629   6.861   6.951   5.591
 7577SOL    HW123630   6.773   6.906   5.605
 7577SOL    HW223631   6.884   6.948   5.493
 7578SOL     OW23632   2.368   6.138   3.234
 7578SOL    HW123633   2.361   6.039   3.230
 7578SOL    HW223634   2.294   6.175   3.290
 7579SOL     OW23635   4.880   2.137   2.263
 7579SOL    HW123636   4.786   2.107   2.280
 7579SOL    HW223637   4.892   2.153   2.165
 7580SOL     OW23638   1.114   4.166   4.362
 7580SOL    HW123639   1.187   4.101   4.377
 7580SOL    HW223640   1.151   4.259   4.366
 7581SOL     OW23641   5.126   0.541   1.136
 7581SOL    HW123642   5.075   0.513   1.055
 7581SOL    HW223643   5.213   0.581   1.109
 7582SOL     OW23644   2.987   1.073   0.092
 7582SOL    HW123645   2.931   1.025   0.024
 7582SOL    HW223646   2.928   1.128   0.151
 7583SOL     OW23647   6.269   2.889   1.495
 7583SOL    HW123648   6.222   2.968   1.455
 7583SOL    HW223649   6.260   2.892   1.594
 7584SOL     OW23650   3.043   6.621   0.867
 7584SOL    HW123651   3.037   6.646   0.964
 7584SOL    HW223652   3.137   6.600   0.843
 7585SOL     OW23653   1.503   3.274   6.346
 7585SOL    HW123654   1.493   3.213   6.425
 7585SOL    HW223655   1.460   3.232   6.266
 7586SOL     OW23656   3.406   0.926   3.431
 7586SOL    HW123657   3.500   0.918   3.465
 7586SOL    HW223658   3.383   0.845   3.378
 7587SOL     OW23659   3.316   1.436   6.607
 7587SOL    HW123660   3.324   1.423   6.706
 7587SOL    HW223661   3.334   1.349   6.561
 7588SOL     OW23662   0.965   3.750   2.346
 7588SOL    HW123663   1.063   3.732   2.341
 7588SOL    HW223664   0.945   3.840   2.307
 7589SOL     OW23665   6.288   6.874   1.042
 7589SOL    HW123666   6.236   6.836   1.119
 7589SOL    HW223667   6.385   6.856   1.056
 7590SOL     OW23668   3.141   2.119   6.834
 7590SOL    HW123669   3.207   2.193   6.822
 7590SOL    HW223670   3.185   2.043   6.883
 7591SOL     OW23671   6.694   4.749   0.563
 7591SOL    HW123672   6.651   4.831   0.523
 7591SOL    HW223673   6.700   4.760   0.662
 7592SOL     OW23674   6.751   4.640   6.517
 7592SOL    HW123675   6.698   4.709   6.567
 7592SOL    HW223676   6.704   4.552   6.522
 7593SOL     OW23677   5.015   2.663   0.738
 7593SOL    HW123678   5.111   2.655   0.710
 7593SOL    HW223679   4.990   2.584   0.794
 7594SOL     OW23680   0.261   4.346   2.146
 7594SOL    HW123681   0.356   4.359   2.173
 7594SOL    HW223682   0.213   4.293   2.216
 7595SOL     OW23683   6.827   2.303   5.807
 7595SOL    HW123684   6.874   2.386   5.776
 7595SOL    HW223685   6.756   2.328   5.872
 7596SOL     OW23686   3.936   5.512   3.134
 7596SOL    HW123687   3.932   5.449   3.211
 7596SOL    HW223688   3.946   5.606   3.168
 7597SOL     OW23689   2.582   5.823   2.133
 7597SOL    HW123690   2.509   5.755   2.137
 7597SOL    HW223691   2.664   5.785   2.177
 7598SOL     OW23692   0.087   1.533   2.674
 7598SOL    HW123693   0.025   1.461   2.706
 7598SOL    HW223694   0.127   1.580   2.753
 7599SOL     OW23695   5.638   1.973   3.253
 7599SOL    HW123696   5.559   1.951   3.310
 7599SOL    HW223697   5.631   1.924   3.166
 7600SOL     OW23698   1.810   1.152   2.540
 7600SOL    HW123699   1.831   1.068   2.591
 7600SOL    HW223700   1.806   1.131   2.442
 7601SOL     OW23701   1.967   5.716   2.509
 7601SOL    HW123702   2.029   5.646   2.474
 7601SOL    HW223703   1.935   5.689   2.600
 7602SOL     OW23704   1.430   4.333   6.732
 7602SOL    HW123705   1.366   4.335   6.656
 7602SOL    HW223706   1.492   4.256   6.722
 7603SOL     OW23707   1.036   5.423   5.911
 7603SOL    HW123708   1.110   5.357   5.896
 7603SOL    HW223709   0.948   5.381   5.887
 7604SOL     OW23710   2.244   4.245   4.233
 7604SOL    HW123711   2.302   4.326   4.230
 7604SOL    HW223712   2.254   4.194   4.147
 7605SOL     OW23713   0.725   6.620   0.677
 7605SOL    HW123714   0.775   6.605   0.763
 7605SOL    HW223715   0.764   6.698   0.629
 7606SOL     OW23716   6.892   3.013   3.878
 7606SOL    HW123717   6.800   2.977   3.868
 7606SOL    HW223718   6.928   3.038   3.787
 7607SOL     OW23719   4.659   6.057   0.296
 7607SOL    HW123720   4.657   6.061   0.196
 7607SOL    HW223721   4.669   5.963   0.326
 7608SOL     OW23722   3.256   4.051   2.534
 7608SOL    HW123723   3.236   4.084   2.442
 7608SOL    HW223724   3.226   3.956   2.543
 7609SOL     OW23725   6.919   4.088   3.734
 7609SOL    HW123726   6.883   4.181   3.744
 7609SOL    HW223727   6.858   4.023   3.779
 7610SOL     OW23728   6.164   6.969   6.865
 7610SOL    HW123729   6.090   6.962   6.931
 7610SOL    HW223730   6.132   7.016   6.783
 7611SOL     OW23731   0.736   2.027   0.250
 7611SOL    HW123732   0.692   2.086   0.183
 7611SOL    HW223733   0.722   1.931   0.225
 7612SOL     OW23734   5.186   2.618   4.816
 7612SOL    HW123735   5.141   2.559   4.883
 7612SOL    HW223736   5.195   2.710   4.854
 7613SOL     OW23737   5.641   2.866   1.599
 7613SOL    HW123738   5.697   2.826   1.672
 7613SOL    HW223739   5.626   2.963   1.618
 7614SOL     OW23740   5.194   3.094   1.569
 7614SOL    HW123741   5.180   3.093   1.470
 7614SOL    HW223742   5.245   3.013   1.597
 7615SOL     OW23743   4.463   3.803   6.337
 7615SOL    HW123744   4.528   3.761   6.273
 7615SOL    HW223745   4.500   3.798   6.430
 7616SOL     OW23746   6.824   4.451   4.404
 7616SOL    HW123747   6.864   4.506   4.331
 7616SOL    HW223748   6.895   4.395   4.447
 7617SOL     OW23749   3.087   5.302   2.996
 7617SOL    HW123750   3.005   5.248   2.977
 7617SOL    HW223751   3.077   5.394   2.957
 7618SOL     OW23752   0.621   2.458   6.728
 7618SOL    HW123753   0.673   2.490   6.649
 7618SOL    HW223754   0.633   2.359   6.738
 7619SOL     OW23755   5.496   3.261   5.465
 7619SOL    HW123756   5.428   3.194   5.493
 7619SOL    HW223757   5.500   3.266   5.365
 7620SOL     OW23758   3.468   5.222   0.056
 7620SOL    HW123759   3.376   5.253   0.032
 7620SOL    HW223760   3.529   5.232   6.999
 7621SOL     OW23761   0.254   1.773   0.560
 7621SOL    HW123762   0.176   1.781   0.622
 7621SOL    HW223763   0.315   1.701   0.592
 7622SOL     OW23764   4.870   5.490   1.748
 7622SOL    HW123765   4.916   5.533   1.671
 7622SOL    HW223766   4.920   5.408   1.776
 7623SOL     OW23767   4.574   4.640   6.632
 7623SOL    HW123768   4.534   4.631   6.541
 7623SOL    HW223769   4.567   4.736   6.662
 7624SOL     OW23770   0.125   2.324   4.642
 7624SOL    HW123771   0.147   2.382   4.563
 7624SOL    HW223772   0.027   2.304   4.642
 7625SOL     OW23773   4.737   0.571   1.623
 7625SOL    HW123774   4.653   0.536   1.581
 7625SOL    HW223775   4.796   0.494   1.648
 7626SOL     OW23776   6.860   6.511   4.384
 7626SOL    HW123777   6.849   6.413   4.403
 7626SOL    HW223778   6.935   6.524   4.319
 7627SOL     OW23779   5.217   3.093   6.697
 7627SOL    HW123780   5.185   3.037   6.774
 7627SOL    HW223781   5.263   3.036   6.630
 7628SOL     OW23782   3.664   0.563   2.052
 7628SOL    HW123783   3.721   0.496   2.005
 7628SOL    HW223784   3.569   0.553   2.022
 7629SOL     OW23785   6.940   0.077   2.889
 7629SOL    HW123786   6.933   0.146   2.961
 7629SOL    HW223787   6.854   0.027   2.882
 7630SOL     OW23788   5.937   6.842   1.641
 7630SOL    HW123789   5.863   6.776   1.627
 7630SOL    HW223790   5.905   6.915   1.701
 7631SOL     OW23791   0.624   1.063   5.299
 7631SOL    HW123792   0.642   1.090   5.204
 7631SOL    HW223793   0.565   0.982   5.300
 7632SOL     OW23794   3.526   2.557   1.724
 7632SOL    HW123795   3.495   2.551   1.629
 7632SOL    HW223796   3.554   2.467   1.757
 7633SOL     OW23797   4.354   2.506   0.507
 7633SOL    HW123798   4.303   2.508   0.593
 7633SOL    HW223799   4.322   2.430   0.451
 7634SOL     OW23800   0.713   1.809   2.621
 7634SOL    HW123801   0.644   1.875   2.650
 7634SOL    HW223802   0.670   1.719   2.609
 7635SOL     OW23803   2.784   6.070   5.215
 7635SOL    HW123804   2.782   6.160   5.171
 7635SOL    HW223805   2.691   6.046   5.245
 7636SOL     OW23806   1.660   2.099   3.515
 7636SOL    HW123807   1.618   2.145   3.437
 7636SOL    HW223808   1.604   2.114   3.597
 7637SOL     OW23809   2.734   6.414   2.941
 7637SOL    HW123810   2.727   6.511   2.964
 7637SOL    HW223811   2.826   6.381   2.962
 7638SOL     OW23812   3.896   5.764   1.666
 7638SOL    HW123813   3.877   5.857   1.634
 7638SOL    HW223814   3.848   5.748   1.752
 7639SOL     OW23815   1.686   1.988   0.744
 7639SOL    HW123816   1.770   1.953   0.704
 7639SOL    HW223817   1.691   2.087   0.752
 7640SOL     OW23818   3.239   1.770   0.134
 7640SOL    HW123819   3.165   1.784   0.068
 7640SOL    HW223820   3.219   1.689   0.190
 7641SOL     OW23821   0.778   4.191   1.658
 7641SOL    HW123822   0.823   4.256   1.719
 7641SOL    HW223823   0.727   4.241   1.587
 7642SOL     OW23824   2.481   1.623   2.172
 7642SOL    HW123825   2.428   1.646   2.090
 7642SOL    HW223826   2.579   1.625   2.151
 7643SOL     OW23827   4.704   2.809   4.210
 7643SOL    HW123828   4.707   2.747   4.131
 7643SOL    HW223829   4.611   2.846   4.218
 7644SOL     OW23830   5.797   2.633   2.091
 7644SOL    HW123831   5.849   2.697   2.148
 7644SOL    HW223832   5.841   2.626   2.001
 7645SOL     OW23833   4.394   3.992   5.314
 7645SOL    HW123834   4.315   4.029   5.362
 7645SOL    HW223835   4.368   3.911   5.263
 7646SOL     OW23836   2.525   2.486   2.432
 7646SOL    HW123837   2.439   2.475   2.383
 7646SOL    HW223838   2.520   2.437   2.519
 7647SOL     OW23839   0.157   3.362   2.450
 7647SOL    HW123840   0.214   3.317   2.382
 7647SOL    HW223841   0.214   3.420   2.508
 7648SOL     OW23842   3.286   1.451   3.455
 7648SOL    HW123843   3.382   1.477   3.445
 7648SOL    HW223844   3.277   1.352   3.451
 7649SOL     OW23845   0.913   1.281   2.780
 7649SOL    HW123846   1.011   1.301   2.778
 7649SOL    HW223847   0.895   1.193   2.737
 7650SOL     OW23848   5.166   2.486   1.314
 7650SOL    HW123849   5.175   2.520   1.408
 7650SOL    HW223850   5.235   2.528   1.256
 7651SOL     OW23851   2.422   6.737   5.336
 7651SOL    HW123852   2.342   6.786   5.302
 7651SOL    HW223853   2.403   6.701   5.427
 7652SOL     OW23854   6.781   4.054   4.367
 7652SOL    HW123855   6.799   4.035   4.270
 7652SOL    HW223856   6.706   3.995   4.399
 7653SOL     OW23857   2.917   1.322   0.568
 7653SOL    HW123858   2.885   1.392   0.504
 7653SOL    HW223859   2.904   1.353   0.662
 7654SOL     OW23860   5.450   3.351   4.026
 7654SOL    HW123861   5.546   3.337   4.005
 7654SOL    HW223862   5.408   3.405   3.952
 7655SOL     OW23863   3.362   0.499   3.485
 7655SOL    HW123864   3.276   0.512   3.435
 7655SOL    HW223865   3.376   0.401   3.501
 7656SOL     OW23866   1.856   4.799   6.211
 7656SOL    HW123867   1.796   4.833   6.138
 7656SOL    HW223868   1.815   4.818   6.300
 7657SOL     OW23869   2.719   2.412   3.311
 7657SOL    HW123870   2.750   2.446   3.400
 7657SOL    HW223871   2.789   2.352   3.272
 7658SOL     OW23872   3.649   6.926   5.798
 7658SOL    HW123873   3.625   6.829   5.795
 7658SOL    HW223874   3.577   6.979   5.754
 7659SOL     OW23875   5.985   5.620   6.771
 7659SOL    HW123876   5.906   5.566   6.742
 7659SOL    HW223877   5.988   5.706   6.720
 7660SOL     OW23878   0.160   6.723   4.120
 7660SOL    HW123879   0.157   6.689   4.026
 7660SOL    HW223880   0.236   6.787   4.130
 7661SOL     OW23881   5.478   2.715   4.685
 7661SOL    HW123882   5.424   2.631   4.686
 7661SOL    HW223883   5.528   2.722   4.599
 7662SOL     OW23884   0.675   2.418   2.503
 7662SOL    HW123885   0.585   2.390   2.537
 7662SOL    HW223886   0.741   2.417   2.579
 7663SOL     OW23887   0.266   6.947   6.284
 7663SOL    HW123888   0.177   6.958   6.240
 7663SOL    HW223889   0.263   6.870   6.348
 7664SOL     OW23890   3.819   0.510   2.328
 7664SOL    HW123891   3.806   0.555   2.416
 7664SOL    HW223892   3.809   0.577   2.254
 7665SOL     OW23893   4.625   6.956   4.985
 7665SOL    HW123894   4.552   7.015   4.949
 7665SOL    HW223895   4.586   6.893   5.052
 7666SOL     OW23896   1.160   6.661   1.830
 7666SOL    HW123897   1.096   6.735   1.853
 7666SOL    HW223898   1.197   6.622   1.914
 7667SOL     OW23899   4.633   6.033   2.004
 7667SOL    HW123900   4.608   6.127   1.977
 7667SOL    HW223901   4.558   5.971   1.980
 7668SOL     OW23902   3.243   4.335   1.098
 7668SOL    HW123903   3.148   4.310   1.080
 7668SOL    HW223904   3.286   4.266   1.155
 7669SOL     OW23905   5.617   1.745   5.907
 7669SOL    HW123906   5.535   1.788   5.946
 7669SOL    HW223907   5.612   1.751   5.807
 7670SOL     OW23908   0.799   4.673   6.497
 7670SOL    HW123909   0.869   4.609   6.465
 7670SOL    HW223910   0.778   4.738   6.424
 7671SOL     OW23911   4.631   0.665   4.285
 7671SOL    HW123912   4.695   0.588   4.291
 7671SOL    HW223913   4.675   0.741   4.238
 7672SOL     OW23914   6.105   6.750   3.485
 7672SOL    HW123915   6.016   6.746   3.441
 7672SOL    HW223916   6.101   6.708   3.575
 7673SOL     OW23917   1.770   5.153   6.816
 7673SOL    HW123918   1.833   5.123   6.888
 7673SOL    HW223919   1.795   5.108   6.730
 7674SOL     OW23920   5.971   2.348   3.632
 7674SOL    HW123921   6.008   2.427   3.582
 7674SOL    HW223922   5.874   2.338   3.612
 7675SOL     OW23923   5.091   6.892   2.844
 7675SOL    HW123924   5.105   6.970   2.782
 7675SOL    HW223925   5.164   6.892   2.912
 7676SOL     OW23926   1.794   1.977   0.358
 7676SOL    HW123927   1.820   2.034   0.280
 7676SOL    HW223928   1.876   1.942   0.403
 7677SOL     OW23929   0.266   4.018   2.345
 7677SOL    HW123930   0.268   3.977   2.436
 7677SOL    HW223931   0.191   4.083   2.339
 7678SOL     OW23932   2.420   1.787   5.101
 7678SOL    HW123933   2.454   1.698   5.070
 7678SOL    HW223934   2.353   1.774   5.173
 7679SOL     OW23935   2.259   6.185   6.041
 7679SOL    HW123936   2.296   6.242   6.115
 7679SOL    HW223937   2.318   6.193   5.961
 7680SOL     OW23938   1.654   1.760   0.281
 7680SOL    HW123939   1.559   1.775   0.309
 7680SOL    HW223940   1.704   1.847   0.284
 7681SOL     OW23941   2.857   6.755   0.100
 7681SOL    HW123942   2.935   6.699   0.074
 7681SOL    HW223943   2.866   6.783   0.196
 7682SOL     OW23944   3.417   0.528   1.940
 7682SOL    HW123945   3.453   0.495   1.853
 7682SOL    HW223946   3.339   0.588   1.923
 7683SOL     OW23947   6.727   2.122   3.452
 7683SOL    HW123948   6.764   2.030   3.468
 7683SOL    HW223949   6.799   2.180   3.413
 7684SOL     OW23950   4.232   2.106   1.230
 7684SOL    HW123951   4.139   2.070   1.239
 7684SOL    HW223952   4.297   2.030   1.227
 7685SOL     OW23953   3.063   3.489   6.855
 7685SOL    HW123954   3.142   3.450   6.903
 7685SOL    HW223955   3.026   3.566   6.907
 7686SOL     OW23956   5.485   0.033   2.957
 7686SOL    HW123957   5.545   0.027   3.037
 7686SOL    HW223958   5.487   0.127   2.921
 7687SOL     OW23959   5.827   4.977   5.136
 7687SOL    HW123960   5.877   4.949   5.218
 7687SOL    HW223961   5.770   5.056   5.156
 7688SOL     OW23962   0.329   6.833   5.579
 7688SOL    HW123963   0.317   6.928   5.611
 7688SOL    HW223964   0.294   6.825   5.485
 7689SOL     OW23965   5.240   6.273   2.810
 7689SOL    HW123966   5.310   6.289   2.879
 7689SOL    HW223967   5.264   6.191   2.757
 7690SOL     OW23968   6.401   4.851   0.999
 7690SOL    HW123969   6.462   4.772   0.985
 7690SOL    HW223970   6.308   4.826   0.970
 7691SOL     OW23971   5.486   3.077   4.073
 7691SOL    HW123972   5.456   3.170   4.053
 7691SOL    HW223973   5.459   3.051   4.165
 7692SOL     OW23974   1.303   6.530   2.011
 7692SOL    HW123975   1.382   6.486   1.968
 7692SOL    HW223976   1.282   6.484   2.097
 7693SOL     OW23977   3.570   0.231   1.460
 7693SOL    HW123978   3.502   0.159   1.456
 7693SOL    HW223979   3.661   0.193   1.444
 7694SOL     OW23980   6.829   4.345   3.753
 7694SOL    HW123981   6.818   4.435   3.794
 7694SOL    HW223982   6.747   4.323   3.700
 7695SOL     OW23983   3.990   6.361   0.204
 7695SOL    HW123984   4.020   6.313   0.287
 7695SOL    HW223985   4.014   6.458   0.212
 7696SOL     OW23986   6.961   1.649   4.380
 7696SOL    HW123987   6.985   1.683   4.289
 7696SOL    HW223988   0.011   1.585   4.411
 7697SOL     OW23989   3.000   0.088   1.777
 7697SOL    HW123990   2.962   0.099   1.869
 7697SOL    HW223991   2.925   0.072   1.712
 7698SOL     OW23992   0.014   1.954   3.978
 7698SOL    HW123993   7.017   2.010   3.897
 7698SOL    HW223994   0.084   1.999   4.034
 7699SOL     OW23995   3.595   5.779   0.480
 7699SOL    HW123996   3.635   5.817   0.397
 7699SOL    HW223997   3.607   5.680   0.481
 7700SOL     OW23998   4.756   6.365   4.715
 7700SOL    HW123999   4.779   6.443   4.773
 7700SOL    HW224000   4.821   6.291   4.732
 7701SOL     OW24001   6.954   1.410   6.878
 7701SOL    HW124002   6.880   1.477   6.870
 7701SOL    HW224003   0.004   1.445   6.939
 7702SOL     OW24004   2.754   6.412   6.097
 7702SOL    HW124005   2.746   6.507   6.127
 7702SOL    HW224006   2.675   6.388   6.042
 7703SOL     OW24007   6.431   0.725   5.199
 7703SOL    HW124008   6.427   0.644   5.140
 7703SOL    HW224009   6.404   0.806   5.146
 7704SOL     OW24010   5.587   4.668   5.528
 7704SOL    HW124011   5.639   4.735   5.475
 7704SOL    HW224012   5.637   4.646   5.612
 7705SOL     OW24013   3.843   5.073   6.116
 7705SOL    HW124014   3.813   4.990   6.070
 7705SOL    HW224015   3.931   5.102   6.079
 7706SOL     OW24016   4.619   2.348   4.990
 7706SOL    HW124017   4.627   2.396   5.078
 7706SOL    HW224018   4.547   2.392   4.935
 7707SOL     OW24019   0.982   5.621   6.416
 7707SOL    HW124020   0.922   5.669   6.352
 7707SOL    HW224021   0.985   5.672   6.503
 7708SOL     OW24022   5.695   6.861   5.269
 7708SOL    HW124023   5.702   6.936   5.202
 7708SOL    HW224024   5.714   6.774   5.224
 7709SOL     OW24025   5.865   4.488   1.312
 7709SOL    HW124026   5.776   4.441   1.319
 7709SOL    HW224027   5.855   4.567   1.252
 7710SOL     OW24028   4.052   0.601   0.783
 7710SOL    HW124029   3.971   0.630   0.733
 7710SOL    HW224030   4.038   0.617   0.881
 7711SOL     OW24031   6.195   6.078   5.199
 7711SOL    HW124032   6.196   6.174   5.227
 7711SOL    HW224033   6.221   6.071   5.103
 7712SOL     OW24034   5.603   4.920   2.318
 7712SOL    HW124035   5.652   4.956   2.238
 7712SOL    HW224036   5.669   4.903   2.392
 7713SOL     OW24037   1.338   4.989   0.538
 7713SOL    HW124038   1.413   4.925   0.522
 7713SOL    HW224039   1.333   5.054   0.462
 7714SOL     OW24040   6.398   4.740   5.354
 7714SOL    HW124041   6.441   4.683   5.284
 7714SOL    HW224042   6.466   4.802   5.393
 7715SOL     OW24043   4.707   1.957   0.008
 7715SOL    HW124044   4.682   1.955   6.932
 7715SOL    HW224045   4.731   2.051   0.034
 7716SOL     OW24046   6.184   4.411   4.025
 7716SOL    HW124047   6.230   4.491   3.987
 7716SOL    HW224048   6.248   4.334   4.029
 7717SOL     OW24049   1.785   1.025   4.839
 7717SOL    HW124050   1.869   1.032   4.893
 7717SOL    HW224051   1.766   0.929   4.819
 7718SOL     OW24052   1.806   1.970   3.195
 7718SOL    HW124053   1.708   1.986   3.200
 7718SOL    HW224054   1.829   1.886   3.245
 7719SOL     OW24055   7.006   3.388   4.423
 7719SOL    HW124056   0.045   3.315   4.454
 7719SOL    HW224057   6.911   3.356   4.424
 7720SOL     OW24058   0.114   0.035   0.517
 7720SOL    HW124059   0.122   0.020   0.418
 7720SOL    HW224060   0.138   0.129   0.539
 7721SOL     OW24061   1.120   5.211   2.389
 7721SOL    HW124062   1.180   5.262   2.452
 7721SOL    HW224063   1.025   5.232   2.410
 7722SOL     OW24064   0.380   5.875   3.076
 7722SOL    HW124065   0.442   5.813   3.028
 7722SOL    HW224066   0.304   5.901   3.016
 7723SOL     OW24067   6.494   3.905   6.821
 7723SOL    HW124068   6.545   3.847   6.758
 7723SOL    HW224069   6.396   3.887   6.811
 7724SOL     OW24070   2.462   4.324   1.520
 7724SOL    HW124071   2.551   4.365   1.501
 7724SOL    HW224072   2.464   4.277   1.608
 7725SOL     OW24073   5.182   3.138   3.630
 7725SOL    HW124074   5.133   3.060   3.591
 7725SOL    HW224075   5.126   3.221   3.622
 7726SOL     OW24076   1.293   6.328   4.777
 7726SOL    HW124077   1.253   6.274   4.703
 7726SOL    HW224078   1.327   6.415   4.741
 7727SOL     OW24079   0.091   0.553   2.804
 7727SOL    HW124080   0.134   0.587   2.887
 7727SOL    HW224081   7.016   0.583   2.802
 7728SOL     OW24082   1.005   5.638   3.520
 7728SOL    HW124083   1.083   5.586   3.555
 7728SOL    HW224084   1.037   5.726   3.486
 7729SOL     OW24085   5.941   2.783   0.622
 7729SOL    HW124086   6.032   2.797   0.585
 7729SOL    HW224087   5.897   2.871   0.640
 7730SOL     OW24088   5.857   6.017   1.957
 7730SOL    HW124089   5.810   6.054   1.876
 7730SOL    HW224090   5.891   6.093   2.013
 7731SOL     OW24091   6.622   0.982   0.870
 7731SOL    HW124092   6.551   1.044   0.902
 7731SOL    HW224093   6.656   1.013   0.781
 7732SOL     OW24094   4.622   6.213   0.747
 7732SOL    HW124095   4.636   6.302   0.703
 7732SOL    HW224096   4.612   6.226   0.846
 7733SOL     OW24097   3.988   0.170   2.507
 7733SOL    HW124098   3.971   0.075   2.533
 7733SOL    HW224099   4.072   0.203   2.551
 7734SOL     OW24100   2.384   5.029   3.343
 7734SOL    HW124101   2.388   4.978   3.258
 7734SOL    HW224102   2.294   5.019   3.384
 7735SOL     OW24103   4.573   6.288   6.206
 7735SOL    HW124104   4.564   6.257   6.301
 7735SOL    HW224105   4.485   6.321   6.174
 7736SOL     OW24106   4.055   3.760   7.003
 7736SOL    HW124107   4.121   3.825   6.965
 7736SOL    HW224108   4.011   3.800   0.062
 7737SOL     OW24109   4.118   0.787   2.364
 7737SOL    HW124110   4.040   0.843   2.336
 7737SOL    HW224111   4.085   0.695   2.389
 7738SOL     OW24112   1.910   5.569   6.621
 7738SOL    HW124113   1.937   5.525   6.535
 7738SOL    HW224114   1.818   5.607   6.611
 7739SOL     OW24115   0.828   1.877   2.142
 7739SOL    HW124116   0.868   1.785   2.148
 7739SOL    HW224117   0.883   1.941   2.195
 7740SOL     OW24118   1.653   0.739   3.187
 7740SOL    HW124119   1.671   0.666   3.252
 7740SOL    HW224120   1.563   0.779   3.205
 7741SOL     OW24121   1.100   5.812   4.682
 7741SOL    HW124122   1.084   5.764   4.596
 7741SOL    HW224123   1.012   5.836   4.724
 7742SOL     OW24124   5.843   2.149   3.074
 7742SOL    HW124125   5.935   2.123   3.104
 7742SOL    HW224126   5.777   2.082   3.106
 7743SOL     OW24127   4.860   1.392   6.489
 7743SOL    HW124128   4.839   1.387   6.586
 7743SOL    HW224129   4.794   1.451   6.443
 7744SOL     OW24130   1.127   6.320   3.500
 7744SOL    HW124131   1.047   6.276   3.459
 7744SOL    HW224132   1.210   6.288   3.453
 7745SOL     OW24133   2.770   1.048   5.601
 7745SOL    HW124134   2.809   0.972   5.550
 7745SOL    HW224135   2.844   1.108   5.632
 7746SOL     OW24136   2.249   6.579   0.238
 7746SOL    HW124137   2.250   6.522   0.320
 7746SOL    HW224138   2.173   6.552   0.179
 7747SOL     OW24139   4.384   5.655   1.575
 7747SOL    HW124140   4.439   5.573   1.560
 7747SOL    HW224141   4.442   5.729   1.609
 7748SOL     OW24142   3.718   3.035   5.367
 7748SOL    HW124143   3.715   2.946   5.322
 7748SOL    HW224144   3.735   3.106   5.299
 7749SOL     OW24145   2.797   2.732   5.478
 7749SOL    HW124146   2.772   2.661   5.412
 7749SOL    HW224147   2.750   2.818   5.455
 7750SOL     OW24148   6.631   6.300   1.645
 7750SOL    HW124149   6.537   6.264   1.644
 7750SOL    HW224150   6.692   6.230   1.682
 7751SOL     OW24151   1.497   1.845   2.291
 7751SOL    HW124152   1.455   1.755   2.285
 7751SOL    HW224153   1.569   1.852   2.222
 7752SOL     OW24154   4.883   6.794   5.596
 7752SOL    HW124155   4.958   6.764   5.655
 7752SOL    HW224156   4.860   6.722   5.531
 7753SOL     OW24157   2.291   1.512   4.814
 7753SOL    HW124158   2.226   1.437   4.823
 7753SOL    HW224159   2.351   1.513   4.894
 7754SOL     OW24160   3.694   6.370   1.316
 7754SOL    HW124161   3.784   6.333   1.342
 7754SOL    HW224162   3.659   6.321   1.237
 7755SOL     OW24163   1.318   2.358   6.028
 7755SOL    HW124164   1.340   2.279   6.085
 7755SOL    HW224165   1.251   2.416   6.076
 7756SOL     OW24166   2.963   6.692   1.915
 7756SOL    HW124167   2.878   6.710   1.965
 7756SOL    HW224168   3.024   6.638   1.973
 7757SOL     OW24169   6.633   4.913   1.539
 7757SOL    HW124170   6.662   4.914   1.444
 7757SOL    HW224171   6.533   4.917   1.543
 7758SOL     OW24172   1.687   6.562   5.981
 7758SOL    HW124173   1.781   6.582   6.008
 7758SOL    HW224174   1.624   6.596   6.050
 7759SOL     OW24175   2.447   1.408   5.526
 7759SOL    HW124176   2.356   1.397   5.564
 7759SOL    HW224177   2.511   1.350   5.576
 7760SOL     OW24178   5.230   2.328   2.416
 7760SOL    HW124179   5.269   2.419   2.422
 7760SOL    HW224180   5.131   2.333   2.430
 7761SOL     OW24181   6.893   5.936   4.717
 7761SOL    HW124182   6.885   5.909   4.621
 7761SOL    HW224183   6.984   5.912   4.750
 7762SOL     OW24184   1.964   0.064   3.952
 7762SOL    HW124185   2.053   0.100   3.924
 7762SOL    HW224186   1.912   0.039   3.870
 7763SOL     OW24187   2.339   0.061   6.505
 7763SOL    HW124188   2.286   0.142   6.478
 7763SOL    HW224189   2.435   0.087   6.519
 7764SOL     OW24190   3.278   4.052   5.839
 7764SOL    HW124191   3.287   4.000   5.924
 7764SOL    HW224192   3.369   4.075   5.804
 7765SOL     OW24193   6.325   2.938   5.231
 7765SOL    HW124194   6.351   2.879   5.154
 7765SOL    HW224195   6.262   2.889   5.291
 7766SOL     OW24196   6.785   3.757   0.775
 7766SOL    HW124197   6.704   3.736   0.830
 7766SOL    HW224198   6.867   3.731   0.826
 7767SOL     OW24199   4.771   6.549   2.428
 7767SOL    HW124200   4.672   6.541   2.420
 7767SOL    HW224201   4.815   6.513   2.346
 7768SOL     OW24202   4.960   4.476   3.894
 7768SOL    HW124203   4.896   4.399   3.904
 7768SOL    HW224204   4.931   4.534   3.818
 7769SOL     OW24205   4.169   1.497   4.946
 7769SOL    HW124206   4.220   1.579   4.973
 7769SOL    HW224207   4.084   1.492   4.999
 7770SOL     OW24208   0.003   3.493   4.724
 7770SOL    HW124209   0.041   3.452   4.640
 7770SOL    HW224210   0.026   3.436   4.802
 7771SOL     OW24211   2.590   1.261   5.715
 7771SOL    HW124212   2.523   1.204   5.763
 7771SOL    HW224213   2.658   1.201   5.671
 7772SOL     OW24214   5.519   6.697   0.710
 7772SOL    HW124215   5.598   6.641   0.685
 7772SOL    HW224216   5.546   6.793   0.714
 7773SOL     OW24217   2.195   5.995   5.771
 7773SOL    HW124218   2.119   5.957   5.824
 7773SOL    HW224219   2.281   5.960   5.808
 7774SOL     OW24220   4.751   2.671   4.470
 7774SOL    HW124221   4.716   2.624   4.390
 7774SOL    HW224222   4.779   2.764   4.445
 7775SOL     OW24223   3.995   6.636   0.315
 7775SOL    HW124224   4.061   6.694   0.363
 7775SOL    HW224225   3.962   6.685   0.234
 7776SOL     OW24226   1.050   6.378   6.741
 7776SOL    HW124227   1.000   6.385   6.655
 7776SOL    HW224228   1.110   6.457   6.751
 7777SOL     OW24229   6.350   5.401   5.109
 7777SOL    HW124230   6.421   5.399   5.038
 7777SOL    HW224231   6.280   5.334   5.088
 7778SOL     OW24232   5.689   4.236   2.075
 7778SOL    HW124233   5.747   4.155   2.065
 7778SOL    HW224234   5.747   4.318   2.076
 7779SOL     OW24235   2.640   1.022   2.939
 7779SOL    HW124236   2.655   0.962   2.861
 7779SOL    HW224237   2.638   1.117   2.907
 7780SOL     OW24238   0.869   5.432   5.650
 7780SOL    HW124239   0.820   5.382   5.721
 7780SOL    HW224240   0.959   5.392   5.636
 7781SOL     OW24241   0.749   3.524   0.630
 7781SOL    HW124242   0.776   3.440   0.676
 7781SOL    HW224243   0.757   3.601   0.694
 7782SOL     OW24244   5.506   5.594   3.964
 7782SOL    HW124245   5.422   5.557   3.923
 7782SOL    HW224246   5.513   5.691   3.942
 7783SOL     OW24247   0.631   0.076   6.113
 7783SOL    HW124248   0.609   7.007   6.149
 7783SOL    HW224249   0.722   0.074   6.070
 7784SOL     OW24250   2.962   2.668   1.753
 7784SOL    HW124251   2.955   2.601   1.827
 7784SOL    HW224252   2.980   2.622   1.667
 7785SOL     OW24253   1.564   6.493   3.996
 7785SOL    HW124254   1.584   6.425   3.925
 7785SOL    HW224255   1.475   6.475   4.036
 7786SOL     OW24256   4.202   0.560   6.328
 7786SOL    HW124257   4.143   0.517   6.259
 7786SOL    HW224258   4.200   0.507   6.412
 7787SOL     OW24259   1.760   3.096   0.432
 7787SOL    HW124260   1.845   3.102   0.484
 7787SOL    HW224261   1.695   3.038   0.481
 7788SOL     OW24262   0.739   5.695   1.818
 7788SOL    HW124263   0.718   5.788   1.786
 7788SOL    HW224264   0.837   5.677   1.806
 7789SOL     OW24265   3.241   6.615   6.645
 7789SOL    HW124266   3.147   6.622   6.679
 7789SOL    HW224267   3.304   6.611   6.722
 7790SOL     OW24268   6.105   4.865   2.566
 7790SOL    HW124269   6.093   4.888   2.662
 7790SOL    HW224270   6.042   4.792   2.540
 7791SOL     OW24271   2.398   5.688   2.384
 7791SOL    HW124272   2.458   5.644   2.452
 7791SOL    HW224273   2.393   5.786   2.403
 7792SOL     OW24274   1.041   6.976   3.356
 7792SOL    HW124275   1.028   0.034   3.296
 7792SOL    HW224276   0.966   6.911   3.342
 7793SOL     OW24277   4.662   0.500   0.224
 7793SOL    HW124278   4.751   0.529   0.188
 7793SOL    HW224279   4.652   0.533   0.318
 7794SOL     OW24280   0.384   4.916   1.889
 7794SOL    HW124281   0.301   4.874   1.926
 7794SOL    HW224282   0.363   5.009   1.857
 7795SOL     OW24283   3.510   5.599   5.573
 7795SOL    HW124284   3.496   5.536   5.649
 7795SOL    HW224285   3.423   5.616   5.527
 7796SOL     OW24286   3.026   2.599   5.558
 7796SOL    HW124287   3.082   2.569   5.481
 7796SOL    HW224288   2.949   2.654   5.525
 7797SOL     OW24289   0.856   5.609   1.350
 7797SOL    HW124290   0.921   5.666   1.401
 7797SOL    HW224291   0.779   5.665   1.319
 7798SOL     OW24292   1.599   1.298   2.630
 7798SOL    HW124293   1.687   1.263   2.599
 7798SOL    HW224294   1.605   1.325   2.726
 7799SOL     OW24295   2.023   5.738   3.189
 7799SOL    HW124296   2.099   5.673   3.189
 7799SOL    HW224297   1.946   5.698   3.241
 7800SOL     OW24298   0.119   5.942   3.278
 7800SOL    HW124299   0.189   5.951   3.350
 7800SOL    HW224300   0.119   6.024   3.221
 7801SOL     OW24301   1.677   1.176   3.368
 7801SOL    HW124302   1.635   1.239   3.303
 7801SOL    HW224303   1.755   1.130   3.326
 7802SOL     OW24304   0.002   3.323   0.011
 7802SOL    HW124305   6.938   3.366   0.038
 7802SOL    HW224306   0.000   3.304   6.934
 7803SOL     OW24307   4.538   1.578   6.863
 7803SOL    HW124308   4.528   1.528   6.949
 7803SOL    HW224309   4.585   1.520   6.796
 7804SOL     OW24310   3.985   2.093   5.067
 7804SOL    HW124311   3.899   2.118   5.021
 7804SOL    HW224312   3.980   2.119   5.163
 7805SOL     OW24313   5.071   3.724   2.680
 7805SOL    HW124314   5.159   3.678   2.665
 7805SOL    HW224315   5.010   3.706   2.603
 7806SOL     OW24316   6.437   1.421   6.399
 7806SOL    HW124317   6.483   1.510   6.398
 7806SOL    HW224318   6.377   1.416   6.480
 7807SOL     OW24319   0.947   4.079   5.290
 7807SOL    HW124320   0.905   4.000   5.334
 7807SOL    HW224321   0.894   4.105   5.209
 7808SOL     OW24322   5.102   3.875   3.314
 7808SOL    HW124323   5.180   3.895   3.253
 7808SOL    HW224324   5.136   3.856   3.406
 7809SOL     OW24325   5.502   5.102   4.375
 7809SOL    HW124326   5.579   5.126   4.435
 7809SOL    HW224327   5.438   5.044   4.425
 7810SOL     OW24328   3.165   6.490   5.048
 7810SOL    HW124329   3.081   6.470   4.996
 7810SOL    HW224330   3.200   6.405   5.088
 7811SOL     OW24331   1.505   5.575   2.598
 7811SOL    HW124332   1.479   5.566   2.501
 7811SOL    HW224333   1.507   5.485   2.640
 7812SOL     OW24334   2.333   3.217   5.320
 7812SOL    HW124335   2.248   3.185   5.277
 7812SOL    HW224336   2.411   3.174   5.275
 7813SOL     OW24337   4.428   2.712   1.183
 7813SOL    HW124338   4.511   2.674   1.142
 7813SOL    HW224339   4.378   2.764   1.113
 7814SOL     OW24340   6.898   3.617   2.779
 7814SOL    HW124341   6.817   3.614   2.838
 7814SOL    HW224342   6.940   3.526   2.774
 7815SOL     OW24343   5.681   1.959   4.989
 7815SOL    HW124344   5.617   2.035   4.999
 7815SOL    HW224345   5.707   1.925   5.080
 7816SOL     OW24346   0.374   2.704   5.835
 7816SOL    HW124347   0.470   2.679   5.843
 7816SOL    HW224348   0.335   2.661   5.753
 7817SOL     OW24349   4.614   3.570   5.677
 7817SOL    HW124350   4.633   3.512   5.756
 7817SOL    HW224351   4.534   3.534   5.628
 7818SOL     OW24352   4.779   0.933   2.794
 7818SOL    HW124353   4.829   0.883   2.724
 7818SOL    HW224354   4.745   1.019   2.755
 7819SOL     OW24355   0.327   3.560   3.599
 7819SOL    HW124356   0.281   3.499   3.662
 7819SOL    HW224357   0.356   3.509   3.518
 7820SOL     OW24358   1.678   0.984   5.788
 7820SOL    HW124359   1.583   0.967   5.759
 7820SOL    HW224360   1.739   0.921   5.739
 7821SOL     OW24361   5.453   5.629   0.445
 7821SOL    HW124362   5.422   5.637   0.540
 7821SOL    HW224363   5.433   5.536   0.411
 7822SOL     OW24364   1.169   1.844   6.169
 7822SOL    HW124365   1.176   1.746   6.152
 7822SOL    HW224366   1.256   1.877   6.207
 7823SOL     OW24367   1.998   4.244   6.428
 7823SOL    HW124368   2.070   4.210   6.368
 7823SOL    HW224369   2.022   4.335   6.461
 7824SOL     OW24370   6.281   0.567   4.811
 7824SOL    HW124371   6.348   0.601   4.746
 7824SOL    HW224372   6.218   0.641   4.837
 7825SOL     OW24373   2.093   2.979   1.418
 7825SOL    HW124374   2.169   3.044   1.414
 7825SOL    HW224375   2.039   2.985   1.335
 7826SOL     OW24376   5.070   2.023   6.333
 7826SOL    HW124377   5.072   2.085   6.412
 7826SOL    HW224378   5.035   1.934   6.362
 7827SOL     OW24379   2.909   5.271   1.312
 7827SOL    HW124380   2.890   5.348   1.251
 7827SOL    HW224381   2.965   5.302   1.389
 7828SOL     OW24382   0.402   5.229   0.535
 7828SOL    HW124383   0.411   5.130   0.523
 7828SOL    HW224384   0.311   5.258   0.504
 7829SOL     OW24385   1.962   3.346   1.187
 7829SOL    HW124386   1.910   3.275   1.141
 7829SOL    HW224387   2.060   3.330   1.174
 7830SOL     OW24388   5.478   3.908   6.173
 7830SOL    HW124389   5.416   3.904   6.252
 7830SOL    HW224390   5.552   3.842   6.186
 7831SOL     OW24391   1.256   5.173   0.326
 7831SOL    HW124392   1.354   5.176   0.303
 7831SOL    HW224393   1.216   5.090   0.287
 7832SOL     OW24394   3.380   0.878   4.489
 7832SOL    HW124395   3.457   0.920   4.536
 7832SOL    HW224396   3.413   0.798   4.438
 7833SOL     OW24397   0.344   0.878   0.599
 7833SOL    HW124398   0.354   0.925   0.511
 7833SOL    HW224399   0.361   0.781   0.587
 7834SOL     OW24400   0.719   1.467   2.400
 7834SOL    HW124401   0.716   1.565   2.382
 7834SOL    HW224402   0.784   1.424   2.338
 7835SOL     OW24403   2.408   2.536   5.499
 7835SOL    HW124404   2.395   2.634   5.514
 7835SOL    HW224405   2.409   2.517   5.401
 7836SOL     OW24406   3.283   1.235   6.043
 7836SOL    HW124407   3.342   1.296   5.990
 7836SOL    HW224408   3.194   1.226   5.998
 7837SOL     OW24409   6.717   6.306   1.302
 7837SOL    HW124410   6.748   6.251   1.379
 7837SOL    HW224411   6.795   6.326   1.242
 7838SOL     OW24412   4.337   6.375   6.520
 7838SOL    HW124413   4.288   6.334   6.598
 7838SOL    HW224414   4.363   6.303   6.456
 7839SOL     OW24415   6.444   4.400   5.229
 7839SOL    HW124416   6.522   4.413   5.291
 7839SOL    HW224417   6.426   4.302   5.218
 7840SOL     OW24418   4.848   3.786   3.796
 7840SOL    HW124419   4.833   3.853   3.868
 7840SOL    HW224420   4.835   3.828   3.707
 7841SOL     OW24421   5.600   1.655   6.340
 7841SOL    HW124422   5.568   1.569   6.379
 7841SOL    HW224423   5.668   1.636   6.269
 7842SOL     OW24424   1.285   0.877   3.465
 7842SOL    HW124425   1.375   0.915   3.484
 7842SOL    HW224426   1.291   0.816   3.386
 7843SOL     OW24427   5.621   4.601   1.981
 7843SOL    HW124428   5.624   4.514   1.933
 7843SOL    HW224429   5.554   4.661   1.937
 7844SOL     OW24430   4.412   0.538   3.942
 7844SOL    HW124431   4.455   0.629   3.940
 7844SOL    HW224432   4.475   0.471   3.903
 7845SOL     OW24433   0.527   1.030   4.085
 7845SOL    HW124434   0.510   0.957   4.019
 7845SOL    HW224435   0.495   1.117   4.047
 7846SOL     OW24436   2.053   0.174   1.523
 7846SOL    HW124437   1.983   0.222   1.471
 7846SOL    HW224438   2.052   0.077   1.497
 7847SOL     OW24439   0.105   2.125   1.353
 7847SOL    HW124440   0.067   2.217   1.341
 7847SOL    HW224441   0.109   2.078   1.265
 7848SOL     OW24442   3.292   4.583   0.968
 7848SOL    HW124443   3.271   4.661   1.028
 7848SOL    HW224444   3.263   4.498   1.012
 7849SOL     OW24445   5.239   4.002   4.502
 7849SOL    HW124446   5.154   3.969   4.461
 7849SOL    HW224447   5.291   4.054   4.434
 7850SOL     OW24448   0.599   0.842   3.542
 7850SOL    HW124449   0.568   0.747   3.547
 7850SOL    HW224450   0.527   0.899   3.504
 7851SOL     OW24451   6.926   6.765   0.749
 7851SOL    HW124452   6.988   6.819   0.805
 7851SOL    HW224453   6.927   6.670   0.781
 7852SOL     OW24454   3.263   6.908   6.252
 7852SOL    HW124455   3.349   6.957   6.236
 7852SOL    HW224456   3.283   6.811   6.266
 7853SOL     OW24457   4.040   1.739   1.433
 7853SOL    HW124458   4.015   1.661   1.376
 7853SOL    HW224459   4.139   1.737   1.450
 7854SOL     OW24460   3.765   4.885   0.848
 7854SOL    HW124461   3.667   4.881   0.825
 7854SOL    HW224462   3.779   4.843   0.938
 7855SOL     OW24463   4.142   5.452   6.018
 7855SOL    HW124464   4.238   5.458   6.047
 7855SOL    HW224465   4.085   5.435   6.099
 7856SOL     OW24466   6.257   5.065   3.761
 7856SOL    HW124467   6.224   4.980   3.719
 7856SOL    HW224468   6.293   5.125   3.689
 7857SOL     OW24469   6.755   2.501   5.603
 7857SOL    HW124470   6.768   2.443   5.522
 7857SOL    HW224471   6.844   2.528   5.639
 7858SOL     OW24472   5.061   5.349   3.561
 7858SOL    HW124473   4.993   5.360   3.489
 7858SOL    HW224474   5.150   5.332   3.521
 7859SOL     OW24475   6.510   4.147   5.994
 7859SOL    HW124476   6.539   4.083   6.065
 7859SOL    HW224477   6.497   4.097   5.908
 7860SOL     OW24478   4.161   5.942   2.683
 7860SOL    HW124479   4.194   5.885   2.608
 7860SOL    HW224480   4.107   5.886   2.747
 7861SOL     OW24481   4.252   5.604   2.317
 7861SOL    HW124482   4.329   5.635   2.373
 7861SOL    HW224483   4.185   5.678   2.310
 7862SOL     OW24484   3.079   4.553   1.640
 7862SOL    HW124485   3.019   4.518   1.712
 7862SOL    HW224486   3.053   4.514   1.552
 7863SOL     OW24487   6.994   5.812   3.720
 7863SOL    HW124488   0.022   5.732   3.685
 7863SOL    HW224489   6.991   5.808   3.820
 7864SOL     OW24490   6.841   6.372   5.819
 7864SOL    HW124491   6.893   6.412   5.743
 7864SOL    HW224492   6.873   6.279   5.835
 7865SOL     OW24493   4.489   6.708   4.322
 7865SOL    HW124494   4.540   6.748   4.246
 7865SOL    HW224495   4.508   6.610   4.327
 7866SOL     OW24496   2.331   2.058   1.077
 7866SOL    HW124497   2.379   2.074   1.164
 7866SOL    HW224498   2.373   2.115   1.006
 7867SOL     OW24499   5.698   5.083   2.744
 7867SOL    HW124500   5.692   5.028   2.660
 7867SOL    HW224501   5.611   5.080   2.793
 7868SOL     OW24502   5.552   6.801   2.747
 7868SOL    HW124503   5.490   6.754   2.684
 7868SOL    HW224504   5.500   6.867   2.802
 7869SOL     OW24505   6.423   3.658   0.610
 7869SOL    HW124506   6.452   3.612   0.694
 7869SOL    HW224507   6.504   3.677   0.554
 7870SOL     OW24508   5.208   6.147   4.019
 7870SOL    HW124509   5.208   6.105   4.109
 7870SOL    HW224510   5.289   6.206   4.009
 7871SOL     OW24511   6.103   3.786   2.893
 7871SOL    HW124512   6.106   3.763   2.990
 7871SOL    HW224513   6.012   3.817   2.868
 7872SOL     OW24514   0.956   4.399   1.859
 7872SOL    HW124515   0.881   4.457   1.890
 7872SOL    HW224516   1.043   4.441   1.884
 7873SOL     OW24517   5.487   0.123   5.283
 7873SOL    HW124518   5.533   0.078   5.205
 7873SOL    HW224519   5.472   0.055   5.355
 7874SOL     OW24520   6.128   1.355   0.033
 7874SOL    HW124521   6.053   1.417   0.057
 7874SOL    HW224522   6.170   1.385   6.968
 7875SOL     OW24523   3.931   3.192   6.646
 7875SOL    HW124524   3.897   3.116   6.590
 7875SOL    HW224525   3.872   3.205   6.725
 7876SOL     OW24526   0.057   6.695   4.965
 7876SOL    HW124527   0.127   6.639   4.920
 7876SOL    HW224528   0.097   6.782   4.993
 7877SOL     OW24529   0.541   3.067   2.492
 7877SOL    HW124530   0.627   3.028   2.527
 7877SOL    HW224531   0.538   3.059   2.393
 7878SOL     OW24532   4.704   4.887   3.958
 7878SOL    HW124533   4.706   4.829   4.040
 7878SOL    HW224534   4.736   4.979   3.982
 7879SOL     OW24535   4.283   6.475   3.274
 7879SOL    HW124536   4.334   6.467   3.360
 7879SOL    HW224537   4.328   6.420   3.203
 7880SOL     OW24538   0.093   5.770   1.452
 7880SOL    HW124539   0.056   5.692   1.503
 7880SOL    HW224540   0.174   5.742   1.400
 7881SOL     OW24541   6.422   3.265   4.924
 7881SOL    HW124542   6.386   3.311   5.005
 7881SOL    HW224543   6.456   3.333   4.859
 7882SOL     OW24544   2.066   2.508   3.606
 7882SOL    HW124545   2.050   2.606   3.615
 7882SOL    HW224546   1.984   2.463   3.573
 7883SOL     OW24547   2.028   0.065   0.927
 7883SOL    HW124548   1.966   0.003   0.879
 7883SOL    HW224549   2.103   0.014   0.968
 7884SOL     OW24550   1.511   4.356   3.704
 7884SOL    HW124551   1.596   4.310   3.730
 7884SOL    HW224552   1.482   4.324   3.614
 7885SOL     OW24553   5.591   6.026   2.599
 7885SOL    HW124554   5.678   6.056   2.641
 7885SOL    HW224555   5.587   5.926   2.598
 7886SOL     OW24556   4.849   3.538   1.151
 7886SOL    HW124557   4.847   3.634   1.178
 7886SOL    HW224558   4.936   3.518   1.105
 7887SOL     OW24559   3.462   2.608   5.381
 7887SOL    HW124560   3.430   2.625   5.474
 7887SOL    HW224561   3.521   2.684   5.352
 7888SOL     OW24562   0.237   0.159   4.763
 7888SOL    HW124563   0.319   0.115   4.728
 7888SOL    HW224564   0.261   0.218   4.840
 7889SOL     OW24565   0.486   5.294   6.443
 7889SOL    HW124566   0.463   5.254   6.531
 7889SOL    HW224567   0.411   5.353   6.412
 7890SOL     OW24568   0.827   3.325   4.061
 7890SOL    HW124569   0.836   3.311   3.963
 7890SOL    HW224570   0.915   3.356   4.099
 7891SOL     OW24571   1.156   3.744   4.520
 7891SOL    HW124572   1.090   3.815   4.546
 7891SOL    HW224573   1.224   3.734   4.593
 7892SOL     OW24574   1.244   2.339   4.538
 7892SOL    HW124575   1.324   2.352   4.480
 7892SOL    HW224576   1.191   2.261   4.504
 7893SOL     OW24577   5.503   5.934   2.272
 7893SOL    HW124578   5.591   5.979   2.291
 7893SOL    HW224579   5.428   5.994   2.300
 7894SOL     OW24580   3.321   1.016   0.629
 7894SOL    HW124581   3.302   0.923   0.660
 7894SOL    HW224582   3.245   1.047   0.571
 7895SOL     OW24583   3.905   6.332   4.702
 7895SOL    HW124584   3.977   6.282   4.749
 7895SOL    HW224585   3.830   6.351   4.765
 7896SOL     OW24586   5.557   3.445   1.647
 7896SOL    HW124587   5.555   3.520   1.580
 7896SOL    HW224588   5.651   3.431   1.679
 7897SOL     OW24589   3.250   3.053   6.892
 7897SOL    HW124590   3.319   2.989   6.856
 7897SOL    HW224591   3.162   3.034   6.849
 7898SOL     OW24592   4.106   0.238   4.120
 7898SOL    HW124593   4.097   0.255   4.022
 7898SOL    HW224594   4.163   0.158   4.136
 7899SOL     OW24595   5.724   6.528   2.047
 7899SOL    HW124596   5.687   6.440   2.076
 7899SOL    HW224597   5.696   6.599   2.112
 7900SOL     OW24598   0.441   4.038   0.652
 7900SOL    HW124599   0.427   4.095   0.734
 7900SOL    HW224600   0.519   3.978   0.667
 7901SOL     OW24601   5.155   0.800   5.918
 7901SOL    HW124602   5.118   0.884   5.879
 7901SOL    HW224603   5.089   0.763   5.984
 7902SOL     OW24604   6.776   5.846   3.541
 7902SOL    HW124605   6.861   5.840   3.594
 7902SOL    HW224606   6.702   5.801   3.590
 7903SOL     OW24607   4.549   2.027   3.219
 7903SOL    HW124608   4.526   1.945   3.166
 7903SOL    HW224609   4.469   2.086   3.225
 7904SOL     OW24610   5.532   0.673   3.257
 7904SOL    HW124611   5.448   0.728   3.259
 7904SOL    HW224612   5.521   0.598   3.191
 7905SOL     OW24613   6.047   1.890   0.814
 7905SOL    HW124614   6.021   1.964   0.753
 7905SOL    HW224615   6.064   1.807   0.761
 7906SOL     OW24616   1.272   5.672   0.610
 7906SOL    HW124617   1.292   5.608   0.535
 7906SOL    HW224618   1.353   5.682   0.667
 7907SOL     OW24619   6.270   1.156   2.874
 7907SOL    HW124620   6.201   1.225   2.853
 7907SOL    HW224621   6.351   1.202   2.912
 7908SOL     OW24622   1.158   1.571   6.073
 7908SOL    HW124623   1.083   1.518   6.034
 7908SOL    HW224624   1.197   1.522   6.151
 7909SOL     OW24625   4.679   4.243   3.637
 7909SOL    HW124626   4.668   4.155   3.591
 7909SOL    HW224627   4.671   4.317   3.571
 7910SOL     OW24628   1.806   3.615   1.079
 7910SOL    HW124629   1.845   3.543   1.022
 7910SOL    HW224630   1.737   3.576   1.140
 7911SOL     OW24631   0.996   3.875   1.484
 7911SOL    HW124632   1.086   3.873   1.526
 7911SOL    HW224633   0.927   3.894   1.554
 7912SOL     OW24634   5.211   4.228   0.622
 7912SOL    HW124635   5.124   4.200   0.662
 7912SOL    HW224636   5.210   4.327   0.606
 7913SOL     OW24637   1.673   4.614   0.909
 7913SOL    HW124638   1.702   4.700   0.950
 7913SOL    HW224639   1.686   4.539   0.974
 7914SOL     OW24640   0.297   4.445   0.682
 7914SOL    HW124641   0.343   4.372   0.733
 7914SOL    HW224642   0.260   4.408   0.597
 7915SOL     OW24643   4.586   1.957   2.927
 7915SOL    HW124644   4.501   1.995   2.892
 7915SOL    HW224645   4.650   1.944   2.851
 7916SOL     OW24646   0.648   6.882   5.294
 7916SOL    HW124647   0.695   6.892   5.382
 7916SOL    HW224648   0.571   6.820   5.304
 7917SOL     OW24649   4.149   2.816   5.443
 7917SOL    HW124650   4.151   2.902   5.394
 7917SOL    HW224651   4.236   2.802   5.491
 7918SOL     OW24652   0.219   0.742   4.991
 7918SOL    HW124653   0.178   0.670   5.048
 7918SOL    HW224654   0.279   0.700   4.923
 7919SOL     OW24655   1.094   4.824   2.001
 7919SOL    HW124656   1.170   4.861   2.054
 7919SOL    HW224657   1.034   4.770   2.060
 7920SOL     OW24658   5.427   0.729   1.825
 7920SOL    HW124659   5.396   0.678   1.905
 7920SOL    HW224660   5.392   0.822   1.829
 7921SOL     OW24661   5.348   0.256   1.932
 7921SOL    HW124662   5.293   0.199   1.871
 7921SOL    HW224663   5.395   0.199   1.998
 7922SOL     OW24664   0.568   6.045   0.243
 7922SOL    HW124665   0.502   6.119   0.249
 7922SOL    HW224666   0.523   5.962   0.212
 7923SOL     OW24667   3.308   1.523   6.192
 7923SOL    HW124668   3.271   1.565   6.109
 7923SOL    HW224669   3.238   1.464   6.233
 7924SOL     OW24670   4.747   0.164   1.477
 7924SOL    HW124671   4.697   0.152   1.563
 7924SOL    HW224672   4.688   0.209   1.410
 7925SOL     OW24673   1.287   0.194   0.910
 7925SOL    HW124674   1.187   0.198   0.906
 7925SOL    HW224675   1.318   0.103   0.882
 7926SOL     OW24676   4.842   1.654   6.756
 7926SOL    HW124677   4.804   1.566   6.728
 7926SOL    HW224678   4.881   1.646   6.848
 7927SOL     OW24679   4.959   6.991   1.933
 7927SOL    HW124680   4.864   6.969   1.908
 7927SOL    HW224681   4.962   0.061   1.973
 7928SOL     OW24682   0.212   1.664   3.707
 7928SOL    HW124683   0.268   1.730   3.757
 7928SOL    HW224684   0.116   1.692   3.710
 7929SOL     OW24685   3.622   4.020   5.944
 7929SOL    HW124686   3.626   4.103   5.888
 7929SOL    HW224687   3.678   3.948   5.903
 7930SOL     OW24688   3.776   5.435   6.528
 7930SOL    HW124689   3.760   5.388   6.615
 7930SOL    HW224690   3.847   5.387   6.477
 7931SOL     OW24691   4.122   3.075   0.460
 7931SOL    HW124692   4.177   3.144   0.507
 7931SOL    HW224693   4.180   3.000   0.430
 7932SOL     OW24694   0.978   5.024   0.762
 7932SOL    HW124695   1.051   4.983   0.708
 7932SOL    HW224696   0.996   5.008   0.859
 7933SOL     OW24697   6.549   7.007   6.053
 7933SOL    HW124698   6.645   0.012   6.060
 7933SOL    HW224699   6.524   6.999   5.957
 7934SOL     OW24700   1.465   4.965   0.119
 7934SOL    HW124701   1.476   5.043   0.057
 7934SOL    HW224702   1.368   4.954   0.141
 7935SOL     OW24703   5.545   5.558   2.199
 7935SOL    HW124704   5.498   5.470   2.193
 7935SOL    HW224705   5.536   5.594   2.292
 7936SOL     OW24706   3.055   5.249   3.435
 7936SOL    HW124707   3.100   5.260   3.346
 7936SOL    HW224708   3.054   5.152   3.461
 7937SOL     OW24709   1.632   5.791   4.211
 7937SOL    HW124710   1.713   5.743   4.180
 7937SOL    HW224711   1.586   5.835   4.133
 7938SOL     OW24712   5.468   5.934   5.178
 7938SOL    HW124713   5.485   5.997   5.254
 7938SOL    HW224714   5.484   5.981   5.091
 7939SOL     OW24715   1.214   1.756   5.801
 7939SOL    HW124716   1.264   1.697   5.864
 7939SOL    HW224717   1.120   1.723   5.792
 7940SOL     OW24718   3.377   1.922   2.686
 7940SOL    HW124719   3.413   1.830   2.668
 7940SOL    HW224720   3.388   1.979   2.604
 7941SOL     OW24721   5.091   6.454   3.075
 7941SOL    HW124722   5.041   6.534   3.041
 7941SOL    HW224723   5.087   6.452   3.174
 7942SOL     OW24724   1.180   2.988   3.248
 7942SOL    HW124725   1.254   2.944   3.197
 7942SOL    HW224726   1.112   3.024   3.184
 7943SOL     OW24727   0.865   4.220   5.952
 7943SOL    HW124728   0.799   4.154   5.917
 7943SOL    HW224729   0.839   4.312   5.923
 7944SOL     OW24730   0.689   2.945   1.792
 7944SOL    HW124731   0.772   2.941   1.736
 7944SOL    HW224732   0.691   3.027   1.848
 7945SOL     OW24733   6.316   5.403   2.693
 7945SOL    HW124734   6.341   5.369   2.602
 7945SOL    HW224735   6.217   5.417   2.697
 7946SOL     OW24736   3.370   6.915   5.970
 7946SOL    HW124737   3.320   6.992   6.010
 7946SOL    HW224738   3.464   6.914   6.004
 7947SOL     OW24739   2.286   1.794   5.732
 7947SOL    HW124740   2.284   1.833   5.824
 7947SOL    HW224741   2.278   1.867   5.664
 7948SOL     OW24742   0.990   5.615   0.941
 7948SOL    HW124743   0.969   5.703   0.984
 7948SOL    HW224744   0.997   5.627   0.842
 7949SOL     OW24745   4.429   4.133   6.084
 7949SOL    HW124746   4.337   4.155   6.051
 7949SOL    HW224747   4.488   4.214   6.074
 7950SOL     OW24748   4.510   5.821   4.734
 7950SOL    HW124749   4.495   5.745   4.797
 7950SOL    HW224750   4.596   5.807   4.684
 7951SOL     OW24751   2.181   5.108   2.315
 7951SOL    HW124752   2.267   5.158   2.327
 7951SOL    HW224753   2.198   5.024   2.264
 7952SOL     OW24754   0.078   3.362   0.267
 7952SOL    HW124755   0.059   3.357   0.169
 7952SOL    HW224756   0.145   3.434   0.284
 7953SOL     OW24757   4.688   2.387   2.004
 7953SOL    HW124758   4.651   2.420   2.091
 7953SOL    HW224759   4.637   2.429   1.929
 7954SOL     OW24760   3.547   4.447   6.307
 7954SOL    HW124761   3.515   4.352   6.310
 7954SOL    HW224762   3.469   4.509   6.303
 7955SOL     OW24763   2.232   1.446   6.923
 7955SOL    HW124764   2.293   1.405   6.854
 7955SOL    HW224765   2.192   1.529   6.886
 7956SOL     OW24766   5.355   1.348   1.719
 7956SOL    HW124767   5.350   1.409   1.640
 7956SOL    HW224768   5.271   1.356   1.772
 7957SOL     OW24769   2.064   1.350   0.094
 7957SOL    HW124770   2.133   1.375   0.026
 7957SOL    HW224771   2.008   1.431   0.115
 7958SOL     OW24772   5.470   3.983   5.752
 7958SOL    HW124773   5.484   4.064   5.808
 7958SOL    HW224774   5.406   3.921   5.797
 7959SOL     OW24775   5.227   0.139   6.832
 7959SOL    HW124776   5.145   0.156   6.887
 7959SOL    HW224777   5.306   0.181   6.877
 7960SOL     OW24778   1.313   1.485   5.816
 7960SOL    HW124779   1.313   1.439   5.904
 7960SOL    HW224780   1.229   1.463   5.767
 7961SOL     OW24781   6.339   0.105   0.945
 7961SOL    HW124782   6.433   0.110   0.909
 7961SOL    HW224783   6.323   0.013   0.980
 7962SOL     OW24784   0.473   1.556   5.809
 7962SOL    HW124785   0.560   1.542   5.763
 7962SOL    HW224786   0.486   1.616   5.888
 7963SOL     OW24787   6.369   5.641   4.322
 7963SOL    HW124788   6.286   5.591   4.345
 7963SOL    HW224789   6.448   5.595   4.362
 7964SOL     OW24790   5.936   2.952   2.511
 7964SOL    HW124791   5.964   2.869   2.462
 7964SOL    HW224792   5.943   2.936   2.609
 7965SOL     OW24793   3.973   2.089   6.118
 7965SOL    HW124794   3.911   2.121   6.189
 7965SOL    HW224795   4.058   2.143   6.120
 7966SOL     OW24796   3.500   2.750   6.012
 7966SOL    HW124797   3.572   2.703   5.961
 7966SOL    HW224798   3.414   2.742   5.962
 7967SOL     OW24799   2.241   5.629   1.893
 7967SOL    HW124800   2.157   5.582   1.867
 7967SOL    HW224801   2.233   5.726   1.874
 7968SOL     OW24802   6.337   2.182   4.639
 7968SOL    HW124803   6.419   2.234   4.662
 7968SOL    HW224804   6.340   2.158   4.542
 7969SOL     OW24805   5.793   6.394   1.081
 7969SOL    HW124806   5.846   6.437   1.008
 7969SOL    HW224807   5.843   6.399   1.167
 7970SOL     OW24808   6.227   3.760   2.403
 7970SOL    HW124809   6.168   3.774   2.483
 7970SOL    HW224810   6.230   3.663   2.380
 7971SOL     OW24811   3.222   1.378   1.096
 7971SOL    HW124812   3.244   1.450   1.162
 7971SOL    HW224813   3.276   1.391   1.014
 7972SOL     OW24814   3.454   3.458   1.322
 7972SOL    HW124815   3.413   3.549   1.321
 7972SOL    HW224816   3.552   3.466   1.306
 7973SOL     OW24817   5.100   4.271   4.700
 7973SOL    HW124818   5.182   4.310   4.743
 7973SOL    HW224819   5.036   4.344   4.677
 7974SOL     OW24820   6.192   0.977   6.028
 7974SOL    HW124821   6.128   1.009   6.098
 7974SOL    HW224822   6.176   0.880   6.009
 7975SOL     OW24823   5.450   0.033   1.152
 7975SOL    HW124824   5.479   6.978   1.094
 7975SOL    HW224825   5.389   0.093   1.101
 7976SOL     OW24826   1.303   0.250   6.286
 7976SOL    HW124827   1.288   0.170   6.228
 7976SOL    HW224828   1.382   0.301   6.253
 7977SOL     OW24829   4.396   5.987   2.247
 7977SOL    HW124830   4.493   5.982   2.223
 7977SOL    HW224831   4.366   6.082   2.248
 7978SOL     OW24832   0.117   2.550   6.128
 7978SOL    HW124833   0.120   2.599   6.041
 7978SOL    HW224834   0.205   2.562   6.175
 7979SOL     OW24835   2.012   4.971   5.592
 7979SOL    HW124836   2.084   4.948   5.526
 7979SOL    HW224837   2.005   4.899   5.661
 7980SOL     OW24838   2.936   5.148   6.638
 7980SOL    HW124839   2.965   5.216   6.705
 7980SOL    HW224840   2.851   5.179   6.594
 7981SOL     OW24841   0.681   5.067   1.921
 7981SOL    HW124842   0.763   5.067   1.977
 7981SOL    HW224843   0.665   4.976   1.885
 7982SOL     OW24844   1.425   1.930   6.228
 7982SOL    HW124845   1.433   1.840   6.185
 7982SOL    HW224846   1.509   1.949   6.279
 7983SOL     OW24847   6.534   2.286   1.096
 7983SOL    HW124848   6.596   2.358   1.128
 7983SOL    HW224849   6.440   2.319   1.100
 7984SOL     OW24850   0.225   1.273   0.512
 7984SOL    HW124851   0.163   1.294   0.588
 7984SOL    HW224852   0.316   1.309   0.532
 7985SOL     OW24853   2.729   1.668   4.749
 7985SOL    HW124854   2.637   1.662   4.709
 7985SOL    HW224855   2.791   1.712   4.684
 7986SOL     OW24856   2.827   0.728   6.141
 7986SOL    HW124857   2.821   0.826   6.159
 7986SOL    HW224858   2.736   0.688   6.145
 7987SOL     OW24859   2.016   3.076   0.551
 7987SOL    HW124860   2.023   3.048   0.647
 7987SOL    HW224861   2.054   3.003   0.494
 7988SOL     OW24862   1.276   0.939   2.596
 7988SOL    HW124863   1.321   0.866   2.647
 7988SOL    HW224864   1.331   1.023   2.601
 7989SOL     OW24865   2.657   3.240   6.993
 7989SOL    HW124866   2.626   3.158   6.946
 7989SOL    HW224867   2.578   3.294   0.002
 7990SOL     OW24868   2.365   5.306   4.648
 7990SOL    HW124869   2.464   5.312   4.660
 7990SOL    HW224870   2.345   5.283   4.553
 7991SOL     OW24871   6.262   1.990   3.810
 7991SOL    HW124872   6.182   2.025   3.761
 7991SOL    HW224873   6.342   1.993   3.750
 7992SOL     OW24874   1.618   0.529   0.441
 7992SOL    HW124875   1.622   0.443   0.493
 7992SOL    HW224876   1.570   0.598   0.496
 7993SOL     OW24877   0.382   0.069   1.515
 7993SOL    HW124878   0.322   0.075   1.594
 7993SOL    HW224879   0.477   0.060   1.546
 7994SOL     OW24880   4.216   0.419   3.301
 7994SOL    HW124881   4.192   0.454   3.210
 7994SOL    HW224882   4.210   0.493   3.368
 7995SOL     OW24883   6.167   5.295   3.182
 7995SOL    HW124884   6.237   5.364   3.165
 7995SOL    HW224885   6.129   5.308   3.274
 7996SOL     OW24886   3.957   6.104   4.510
 7996SOL    HW124887   3.913   6.117   4.599
 7996SOL    HW224888   3.907   6.156   4.441
 7997SOL     OW24889   6.831   1.705   0.074
 7997SOL    HW124890   6.789   1.778   0.128
 7997SOL    HW224891   6.857   1.629   0.133
 7998SOL     OW24892   3.618   6.788   6.748
 7998SOL    HW124893   3.600   6.768   6.845
 7998SOL    HW224894   3.592   6.709   6.692
 7999SOL     OW24895   0.697   1.296   5.963
 7999SOL    HW124896   0.735   1.234   5.893
 7999SOL    HW224897   0.618   1.253   6.006
 8000SOL     OW24898   5.315   6.152   6.592
 8000SOL    HW124899   5.286   6.160   6.687
 8000SOL    HW224900   5.261   6.214   6.536
 8001SOL     OW24901   4.281   6.090   1.607
 8001SOL    HW124902   4.372   6.101   1.567
 8001SOL    HW224903   4.281   6.010   1.668
 8002SOL     OW24904   0.668   0.678   6.247
 8002SOL    HW124905   0.571   0.694   6.264
 8002SOL    HW224906   0.680   0.641   6.155
 8003SOL     OW24907   2.352   5.520   1.678
 8003SOL    HW124908   2.386   5.586   1.611
 8003SOL    HW224909   2.312   5.568   1.756
 8004SOL     OW24910   1.645   3.954   3.613
 8004SOL    HW124911   1.594   3.896   3.678
 8004SOL    HW224912   1.588   3.971   3.533
 8005SOL     OW24913   2.111   0.299   3.237
 8005SOL    HW124914   2.209   0.289   3.220
 8005SOL    HW224915   2.060   0.276   3.154
 8006SOL     OW24916   2.299   6.006   5.457
 8006SOL    HW124917   2.247   6.034   5.376
 8006SOL    HW224918   2.280   6.069   5.532
 8007SOL     OW24919   6.143   1.830   6.222
 8007SOL    HW124920   6.180   1.872   6.304
 8007SOL    HW224921   6.210   1.767   6.183
 8008SOL     OW24922   3.630   5.894   6.779
 8008SOL    HW124923   3.608   5.799   6.756
 8008SOL    HW224924   3.614   5.952   6.699
 8009SOL     OW24925   4.817   0.567   0.672
 8009SOL    HW124926   4.868   0.483   0.655
 8009SOL    HW224927   4.736   0.570   0.613
 8010SOL     OW24928   2.373   2.252   4.953
 8010SOL    HW124929   2.430   2.320   4.905
 8010SOL    HW224930   2.409   2.161   4.934
 8011SOL     OW24931   3.695   1.908   1.167
 8011SOL    HW124932   3.596   1.891   1.165
 8011SOL    HW224933   3.727   1.931   1.075
 8012SOL     OW24934   1.569   2.833   0.146
 8012SOL    HW124935   1.581   2.932   0.147
 8012SOL    HW224936   1.485   2.810   0.097
 8013SOL     OW24937   1.276   4.580   3.496
 8013SOL    HW124938   1.278   4.480   3.502
 8013SOL    HW224939   1.213   4.617   3.564
 8014SOL     OW24940   1.705   0.333   4.744
 8014SOL    HW124941   1.699   0.238   4.714
 8014SOL    HW224942   1.634   0.351   4.813
 8015SOL     OW24943   1.946   0.491   6.240
 8015SOL    HW124944   2.024   0.530   6.190
 8015SOL    HW224945   1.870   0.476   6.176
 8016SOL     OW24946   3.912   1.243   4.851
 8016SOL    HW124947   3.932   1.252   4.949
 8016SOL    HW224948   3.996   1.260   4.799
 8017SOL     OW24949   6.327   0.067   0.055
 8017SOL    HW124950   6.399   0.118   0.009
 8017SOL    HW224951   6.282   0.007   7.010
 8018SOL     OW24952   3.246   2.775   0.174
 8018SOL    HW124953   3.156   2.813   0.196
 8018SOL    HW224954   3.317   2.844   0.190
 8019SOL     OW24955   2.080   4.548   1.205
 8019SOL    HW124956   2.096   4.522   1.300
 8019SOL    HW224957   2.125   4.483   1.144
 8020SOL     OW24958   6.510   6.983   6.492
 8020SOL    HW124959   6.556   0.050   6.499
 8020SOL    HW224960   6.478   6.954   6.582
 8021SOL     OW24961   1.788   3.020   1.947
 8021SOL    HW124962   1.853   3.084   1.906
 8021SOL    HW224963   1.770   3.046   2.042
 8022SOL     OW24964   6.070   0.582   1.895
 8022SOL    HW124965   5.971   0.597   1.888
 8022SOL    HW224966   6.113   0.604   1.807
 8023SOL     OW24967   5.960   4.440   2.393
 8023SOL    HW124968   5.925   4.392   2.473
 8023SOL    HW224969   6.057   4.418   2.381
 8024SOL     OW24970   1.343   5.390   6.456
 8024SOL    HW124971   1.268   5.359   6.514
 8024SOL    HW224972   1.430   5.362   6.496
 8025SOL     OW24973   1.796   5.845   1.091
 8025SOL    HW124974   1.876   5.880   1.139
 8025SOL    HW224975   1.804   5.746   1.080
 8026SOL     OW24976   7.005   4.164   1.312
 8026SOL    HW124977   7.009   4.118   1.401
 8026SOL    HW224978   7.002   4.096   1.239
 8027SOL     OW24979   3.384   0.066   5.760
 8027SOL    HW124980   3.354   0.002   5.831
 8027SOL    HW224981   3.304   0.114   5.723
 8028SOL     OW24982   3.727   4.961   4.941
 8028SOL    HW124983   3.739   4.910   4.856
 8028SOL    HW224984   3.651   5.026   4.929
 8029SOL     OW24985   5.380   2.703   2.091
 8029SOL    HW124986   5.355   2.608   2.104
 8029SOL    HW224987   5.445   2.731   2.162
 8030SOL     OW24988   5.981   5.708   0.884
 8030SOL    HW124989   5.995   5.794   0.932
 8030SOL    HW224990   5.956   5.726   0.789
 8031SOL     OW24991   0.035   6.473   2.965
 8031SOL    HW124992   0.038   6.424   3.052
 8031SOL    HW224993   0.125   6.515   2.948
 8032SOL     OW24994   5.448   4.006   1.528
 8032SOL    HW124995   5.520   3.972   1.467
 8032SOL    HW224996   5.390   4.070   1.477
 8033SOL     OW24997   4.517   2.713   6.776
 8033SOL    HW124998   4.516   2.801   6.823
 8033SOL    HW224999   4.598   2.661   6.804
 8034SOL     OW25000   4.792   6.884   5.914
 8034SOL    HW125001   4.739   6.968   5.926
 8034SOL    HW225002   4.817   6.875   5.817
 8035SOL     OW25003   4.880   1.887   2.028
 8035SOL    HW125004   4.871   1.982   1.998
 8035SOL    HW225005   4.967   1.876   2.077
 8036SOL     OW25006   6.607   3.770   3.833
 8036SOL    HW125007   6.566   3.710   3.902
 8036SOL    HW225008   6.557   3.857   3.831
 8037SOL     OW25009   1.801   3.260   0.037
 8037SOL    HW125010   1.806   3.358   0.015
 8037SOL    HW225011   1.893   3.220   0.027
 8038SOL     OW25012   4.338   6.817   3.077
 8038SOL    HW125013   4.296   6.904   3.053
 8038SOL    HW225014   4.281   6.742   3.043
 8039SOL     OW25015   6.805   1.870   4.423
 8039SOL    HW125016   6.845   1.927   4.351
 8039SOL    HW225017   6.824   1.774   4.404
 8040SOL     OW25018   1.594   6.277   6.785
 8040SOL    HW125019   1.689   6.258   6.807
 8040SOL    HW225020   1.541   6.193   6.791
 8041SOL     OW25021   3.019   0.918   2.486
 8041SOL    HW125022   3.063   0.855   2.423
 8041SOL    HW225023   3.055   0.905   2.578
 8042SOL     OW25024   4.223   3.700   5.693
 8042SOL    HW125025   4.219   3.664   5.600
 8042SOL    HW225026   4.312   3.678   5.734
 8043SOL     OW25027   3.672   4.952   0.566
 8043SOL    HW125028   3.743   4.883   0.556
 8043SOL    HW225029   3.619   4.957   0.481
 8044SOL     OW25030   3.804   3.630   0.461
 8044SOL    HW125031   3.903   3.633   0.450
 8044SOL    HW225032   3.763   3.711   0.420
 8045SOL     OW25033   6.134   2.395   2.303
 8045SOL    HW125034   6.194   2.467   2.336
 8045SOL    HW225035   6.046   2.401   2.350
 8046SOL     OW25036   0.731   4.096   2.560
 8046SOL    HW125037   0.688   4.101   2.471
 8046SOL    HW225038   0.777   4.008   2.570
 8047SOL     OW25039   3.454   6.195   6.298
 8047SOL    HW125040   3.421   6.102   6.307
 8047SOL    HW225041   3.444   6.243   6.385
 8048SOL     OW25042   3.217   2.188   0.382
 8048SOL    HW125043   3.221   2.094   0.349
 8048SOL    HW225044   3.257   2.249   0.313
 8049SOL     OW25045   0.663   0.013   0.478
 8049SOL    HW125046   0.567   7.016   0.500
 8049SOL    HW225047   0.668   0.072   0.397
 8050SOL     OW25048   1.854   3.547   3.836
 8050SOL    HW125049   1.795   3.467   3.831
 8050SOL    HW225050   1.840   3.603   3.754
 8051SOL     OW25051   4.956   6.227   4.794
 8051SOL    HW125052   4.981   6.270   4.881
 8051SOL    HW225053   4.944   6.129   4.808
 8052SOL     OW25054   2.954   2.080   1.285
 8052SOL    HW125055   3.010   1.997   1.297
 8052SOL    HW225056   2.864   2.066   1.326
 8053SOL     OW25057   3.258   2.870   5.178
 8053SOL    HW125058   3.313   2.892   5.259
 8053SOL    HW225059   3.224   2.776   5.185
 8054SOL     OW25060   6.882   4.283   4.998
 8054SOL    HW125061   6.802   4.295   4.938
 8054SOL    HW225062   6.944   4.217   4.956
 8055SOL     OW25063   6.662   0.531   5.538
 8055SOL    HW125064   6.642   0.439   5.504
 8055SOL    HW225065   6.727   0.576   5.476
 8056SOL     OW25066   3.007   0.674   5.168
 8056SOL    HW125067   3.083   0.683   5.232
 8056SOL    HW225068   3.041   0.676   5.075
 8057SOL     OW25069   2.697   2.387   2.834
 8057SOL    HW125070   2.666   2.360   2.743
 8057SOL    HW225071   2.767   2.322   2.866
 8058SOL     OW25072   3.110   6.880   2.788
 8058SOL    HW125073   3.108   6.923   2.878
 8058SOL    HW225074   3.043   6.806   2.785
 8059SOL     OW25075   2.478   1.323   5.283
 8059SOL    HW125076   2.482   1.360   5.375
 8059SOL    HW225077   2.556   1.263   5.268
 8060SOL     OW25078   0.389   2.301   6.172
 8060SOL    HW125079   0.333   2.240   6.228
 8060SOL    HW225080   0.478   2.312   6.215
 8061SOL     OW25081   0.561   0.143   2.190
 8061SOL    HW125082   0.653   0.153   2.152
 8061SOL    HW225083   0.555   0.059   2.243
 8062SOL     OW25084   3.990   5.343   4.055
 8062SOL    HW125085   3.950   5.355   3.964
 8062SOL    HW225086   4.055   5.416   4.073
 8063SOL     OW25087   2.352   1.071   3.408
 8063SOL    HW125088   2.412   1.128   3.464
 8063SOL    HW225089   2.278   1.036   3.465
 8064SOL     OW25090   5.815   2.082   0.280
 8064SOL    HW125091   5.815   1.989   0.243
 8064SOL    HW225092   5.840   2.147   0.208
 8065SOL     OW25093   2.797   6.454   4.407
 8065SOL    HW125094   2.745   6.489   4.329
 8065SOL    HW225095   2.762   6.365   4.435
 8066SOL     OW25096   6.494   6.950   5.355
 8066SOL    HW125097   6.414   7.010   5.361
 8066SOL    HW225098   6.515   6.932   5.259
 8067SOL     OW25099   5.008   2.529   2.977
 8067SOL    HW125100   5.102   2.561   2.969
 8067SOL    HW225101   5.006   2.442   3.025
 8068SOL     OW25102   0.237   4.815   1.429
 8068SOL    HW125103   0.193   4.873   1.361
 8068SOL    HW225104   0.336   4.815   1.413
 8069SOL     OW25105   2.112   4.964   1.190
 8069SOL    HW125106   2.176   5.033   1.159
 8069SOL    HW225107   2.081   4.910   1.111
 8070SOL     OW25108   3.913   3.105   0.247
 8070SOL    HW125109   3.962   3.037   0.193
 8070SOL    HW225110   3.962   3.123   0.332
 8071SOL     OW25111   2.866   6.913   5.470
 8071SOL    HW125112   2.854   6.819   5.500
 8071SOL    HW225113   2.924   6.915   5.388
 8072SOL     OW25114   3.431   1.724   0.991
 8072SOL    HW125115   3.479   1.647   1.031
 8072SOL    HW225116   3.335   1.698   0.975
 8073SOL     OW25117   3.347   5.927   5.142
 8073SOL    HW125118   3.419   5.969   5.087
 8073SOL    HW225119   3.383   5.900   5.231
 8074SOL     OW25120   2.985   1.817   0.471
 8074SOL    HW125121   2.976   1.886   0.544
 8074SOL    HW225122   2.935   1.848   0.390
 8075SOL     OW25123   6.297   0.048   0.568
 8075SOL    HW125124   6.270   0.138   0.601
 8075SOL    HW225125   6.247   6.998   0.618
 8076SOL     OW25126   6.266   6.774   4.870
 8076SOL    HW125127   6.265   6.834   4.950
 8076SOL    HW225128   6.217   6.689   4.890
 8077SOL     OW25129   3.147   5.842   2.604
 8077SOL    HW125130   3.214   5.799   2.665
 8077SOL    HW225131   3.055   5.814   2.631
 8078SOL     OW25132   0.641   2.139   1.287
 8078SOL    HW125133   0.716   2.074   1.295
 8078SOL    HW225134   0.563   2.095   1.242
 8079SOL     OW25135   6.385   1.498   3.110
 8079SOL    HW125136   6.377   1.431   3.184
 8079SOL    HW225137   6.363   1.454   3.023
 8080SOL     OW25138   1.166   1.870   2.614
 8080SOL    HW125139   1.240   1.815   2.651
 8080SOL    HW225140   1.160   1.956   2.664
 8081SOL     OW25141   6.171   5.653   5.967
 8081SOL    HW125142   6.226   5.574   5.940
 8081SOL    HW225143   6.232   5.730   5.988
 8082SOL     OW25144   3.167   0.704   2.358
 8082SOL    HW125145   3.213   0.639   2.298
 8082SOL    HW225146   3.105   0.655   2.420
 8083SOL     OW25147   5.177   2.792   4.121
 8083SOL    HW125148   5.199   2.864   4.056
 8083SOL    HW225149   5.108   2.731   4.082
 8084SOL     OW25150   3.045   6.878   6.586
 8084SOL    HW125151   3.031   6.944   6.660
 8084SOL    HW225152   3.056   6.786   6.624
 8085SOL     OW25153   5.904   5.663   2.561
 8085SOL    HW125154   5.889   5.657   2.463
 8085SOL    HW225155   5.833   5.719   2.603
 8086SOL     OW25156   6.883   0.671   1.942
 8086SOL    HW125157   6.883   0.623   2.030
 8086SOL    HW225158   6.866   0.768   1.956
 8087SOL     OW25159   1.520   0.365   0.208
 8087SOL    HW125160   1.583   0.417   0.266
 8087SOL    HW225161   1.469   0.429   0.149
 8088SOL     OW25162   5.866   0.926   0.890
 8088SOL    HW125163   5.769   0.915   0.911
 8088SOL    HW225164   5.910   0.979   0.962
 8089SOL     OW25165   5.301   2.884   0.012
 8089SOL    HW125166   5.391   2.892   0.055
 8089SOL    HW225167   5.304   2.811   6.965
 8090SOL     OW25168   4.252   0.984   5.770
 8090SOL    HW125169   4.292   1.070   5.802
 8090SOL    HW225170   4.318   0.937   5.711
 8091SOL     OW25171   1.739   3.480   4.991
 8091SOL    HW125172   1.651   3.512   4.956
 8091SOL    HW225173   1.726   3.394   5.040
 8092SOL     OW25174   5.114   1.743   5.043
 8092SOL    HW125175   5.046   1.793   4.990
 8092SOL    HW225176   5.205   1.783   5.027
 8093SOL     OW25177   2.780   5.198   3.476
 8093SOL    HW125178   2.748   5.234   3.564
 8093SOL    HW225179   2.865   5.245   3.450
 8094SOL     OW25180   0.123   2.974   4.618
 8094SOL    HW125181   0.077   2.978   4.707
 8094SOL    HW225182   0.054   2.968   4.546
 8095SOL     OW25183   0.535   4.457   5.169
 8095SOL    HW125184   0.473   4.438   5.246
 8095SOL    HW225185   0.595   4.533   5.193
 8096SOL     OW25186   2.372   0.644   2.360
 8096SOL    HW125187   2.457   0.619   2.315
 8096SOL    HW225188   2.391   0.710   2.434
 8097SOL     OW25189   4.542   6.859   5.243
 8097SOL    HW125190   4.633   6.894   5.266
 8097SOL    HW225191   4.495   6.828   5.326
 8098SOL     OW25192   2.213   6.558   3.658
 8098SOL    HW125193   2.195   6.551   3.560
 8098SOL    HW225194   2.232   6.467   3.695
 8099SOL     OW25195   4.534   6.466   3.998
 8099SOL    HW125196   4.480   6.430   3.922
 8099SOL    HW225197   4.609   6.522   3.962
 8100SOL     OW25198   6.751   0.757   0.050
 8100SOL    HW125199   6.664   0.722   0.015
 8100SOL    HW225200   6.733   0.833   0.113
 8101SOL     OW25201   1.735   5.731   1.446
 8101SOL    HW125202   1.745   5.635   1.469
 8101SOL    HW225203   1.638   5.755   1.442
 8102SOL     OW25204   0.668   3.569   3.583
 8102SOL    HW125205   0.571   3.590   3.570
 8102SOL    HW225206   0.712   3.561   3.493
 8103SOL     OW25207   3.319   0.105   1.453
 8103SOL    HW125208   3.326   0.009   1.428
 8103SOL    HW225209   3.280   0.113   1.545
 8104SOL     OW25210   1.577   0.860   6.736
 8104SOL    HW125211   1.540   0.892   6.823
 8104SOL    HW225212   1.624   0.773   6.749
 8105SOL     OW25213   0.045   3.233   3.094
 8105SOL    HW125214   0.041   3.332   3.084
 8105SOL    HW225215   6.980   3.201   3.135
 8106SOL     OW25216   3.183   5.696   3.638
 8106SOL    HW125217   3.179   5.611   3.585
 8106SOL    HW225218   3.120   5.691   3.715
 8107SOL     OW25219   0.938   5.585   3.874
 8107SOL    HW125220   0.905   5.662   3.819
 8107SOL    HW225221   1.021   5.547   3.832
 8108SOL     OW25222   6.592   2.605   6.751
 8108SOL    HW125223   6.557   2.553   6.829
 8108SOL    HW225224   6.638   2.687   6.785
 8109SOL     OW25225   6.860   3.581   6.341
 8109SOL    HW125226   6.818   3.637   6.270
 8109SOL    HW225227   6.865   3.486   6.310
 8110SOL     OW25228   3.987   5.555   2.480
 8110SOL    HW125229   4.063   5.491   2.466
 8110SOL    HW225230   3.959   5.555   2.576
 8111SOL     OW25231   5.006   1.215   4.446
 8111SOL    HW125232   5.046   1.273   4.375
 8111SOL    HW225233   4.951   1.143   4.404
 8112SOL     OW25234   2.170   3.188   4.300
 8112SOL    HW125235   2.074   3.166   4.316
 8112SOL    HW225236   2.227   3.135   4.363
 8113SOL     OW25237   0.666   3.847   1.139
 8113SOL    HW125238   0.750   3.794   1.134
 8113SOL    HW225239   0.588   3.786   1.153
 8114SOL     OW25240   1.981   3.730   2.389
 8114SOL    HW125241   1.974   3.827   2.367
 8114SOL    HW225242   1.965   3.717   2.487
 8115SOL     OW25243   3.890   6.763   6.794
 8115SOL    HW125244   3.792   6.771   6.773
 8115SOL    HW225245   3.935   6.850   6.774
 8116SOL     OW25246   4.296   4.916   0.507
 8116SOL    HW125247   4.369   4.930   0.574
 8116SOL    HW225248   4.287   4.997   0.450
 8117SOL     OW25249   1.378   0.328   3.251
 8117SOL    HW125250   1.444   0.302   3.181
 8117SOL    HW225251   1.348   0.422   3.234
 8118SOL     OW25252   4.817   4.298   5.980
 8118SOL    HW125253   4.912   4.325   5.998
 8118SOL    HW225254   4.806   4.276   5.883
 8119SOL     OW25255   5.332   5.754   6.473
 8119SOL    HW125256   5.373   5.802   6.550
 8119SOL    HW225257   5.326   5.814   6.394
 8120SOL     OW25258   3.578   4.676   1.058
 8120SOL    HW125259   3.536   4.598   1.103
 8120SOL    HW225260   3.564   4.669   0.959
 8121SOL     OW25261   0.663   5.090   1.647
 8121SOL    HW125262   0.607   5.156   1.598
 8121SOL    HW225263   0.643   5.096   1.745
 8122SOL     OW25264   0.218   4.431   2.712
 8122SOL    HW125265   0.258   4.504   2.767
 8122SOL    HW225266   0.172   4.471   2.633
 8123SOL     OW25267   6.678   1.833   6.517
 8123SOL    HW125268   6.703   1.855   6.611
 8123SOL    HW225269   6.756   1.852   6.457
 8124SOL     OW25270   4.962   6.006   2.122
 8124SOL    HW125271   5.038   5.950   2.156
 8124SOL    HW225272   4.990   6.102   2.120
 8125SOL     OW25273   1.471   1.707   3.465
 8125SOL    HW125274   1.497   1.801   3.487
 8125SOL    HW225275   1.532   1.671   3.394
 8126SOL     OW25276   5.284   4.640   3.256
 8126SOL    HW125277   5.376   4.605   3.235
 8126SOL    HW225278   5.216   4.569   3.236
 8127SOL     OW25279   2.708   3.318   6.175
 8127SOL    HW125280   2.796   3.348   6.136
 8127SOL    HW225281   2.721   3.289   6.269
 8128SOL     OW25282   2.938   2.150   2.298
 8128SOL    HW125283   2.942   2.197   2.210
 8128SOL    HW225284   2.917   2.216   2.370
 8129SOL     OW25285   3.886   1.416   6.130
 8129SOL    HW125286   3.799   1.464   6.121
 8129SOL    HW225287   3.869   1.320   6.154
 8130SOL     OW25288   0.675   4.338   6.752
 8130SOL    HW125289   0.613   4.334   6.831
 8130SOL    HW225290   0.755   4.394   6.775
 8131SOL     OW25291   2.318   1.966   1.453
 8131SOL    HW125292   2.284   1.886   1.404
 8131SOL    HW225293   2.369   2.025   1.391
 8132SOL     OW25294   5.282   6.871   5.106
 8132SOL    HW125295   5.354   6.933   5.073
 8132SOL    HW225296   5.206   6.871   5.041
 8133SOL     OW25297   3.053   5.146   2.555
 8133SOL    HW125298   3.060   5.050   2.530
 8133SOL    HW225299   3.131   5.196   2.517
 8134SOL     OW25300   6.869   1.895   6.299
 8134SOL    HW125301   6.892   1.916   6.204
 8134SOL    HW225302   6.875   1.978   6.354
 8135SOL     OW25303   2.693   0.347   1.421
 8135SOL    HW125304   2.708   0.443   1.444
 8135SOL    HW225305   2.705   0.334   1.323
 8136SOL     OW25306   4.635   5.495   3.018
 8136SOL    HW125307   4.649   5.523   2.923
 8136SOL    HW225308   4.713   5.523   3.073
 8137SOL     OW25309   3.112   1.569   5.143
 8137SOL    HW125310   3.106   1.666   5.169
 8137SOL    HW225311   3.207   1.539   5.151
 8138SOL     OW25312   5.108   1.157   0.723
 8138SOL    HW125313   5.010   1.153   0.702
 8138SOL    HW225314   5.134   1.251   0.744
 8139SOL     OW25315   0.120   0.611   1.675
 8139SOL    HW125316   0.096   0.673   1.601
 8139SOL    HW225317   0.135   0.664   1.759
 8140SOL     OW25318   5.724   0.638   6.080
 8140SOL    HW125319   5.656   0.692   6.031
 8140SOL    HW225320   5.680   0.557   6.119
 8141SOL     OW25321   4.440   5.220   4.702
 8141SOL    HW125322   4.392   5.134   4.689
 8141SOL    HW225323   4.391   5.293   4.654
 8142SOL     OW25324   0.189   5.261   6.864
 8142SOL    HW125325   0.110   5.220   6.819
 8142SOL    HW225326   0.164   5.352   6.898
 8143SOL     OW25327   5.819   4.096   0.697
 8143SOL    HW125328   5.861   4.023   0.643
 8143SOL    HW225329   5.799   4.174   0.638
 8144SOL     OW25330   6.098   6.348   6.694
 8144SOL    HW125331   6.042   6.280   6.648
 8144SOL    HW225332   6.165   6.386   6.630
 8145SOL     OW25333   5.585   6.206   1.041
 8145SOL    HW125334   5.619   6.112   1.029
 8145SOL    HW225335   5.663   6.268   1.050
 8146SOL     OW25336   3.849   0.946   4.436
 8146SOL    HW125337   3.930   0.982   4.483
 8146SOL    HW225338   3.876   0.869   4.378
 8147SOL     OW25339   5.977   2.109   1.615
 8147SOL    HW125340   5.949   2.188   1.561
 8147SOL    HW225341   5.955   2.126   1.712
 8148SOL     OW25342   5.287   4.603   1.423
 8148SOL    HW125343   5.376   4.573   1.387
 8148SOL    HW225344   5.214   4.563   1.367
 8149SOL     OW25345   2.583   6.068   2.023
 8149SOL    HW125346   2.612   5.978   2.055
 8149SOL    HW225347   2.603   6.136   2.094
 8150SOL     OW25348   0.217   4.722   0.113
 8150SOL    HW125349   0.227   4.696   0.209
 8150SOL    HW225350   0.303   4.761   0.080
 8151SOL     OW25351   6.243   2.239   1.677
 8151SOL    HW125352   6.261   2.178   1.754
 8151SOL    HW225353   6.182   2.194   1.612
 8152SOL     OW25354   0.545   1.815   2.900
 8152SOL    HW125355   0.643   1.836   2.906
 8152SOL    HW225356   0.506   1.810   2.992
 8153SOL     OW25357   3.227   0.366   2.850
 8153SOL    HW125358   3.304   0.375   2.787
 8153SOL    HW225359   3.260   0.333   2.938
 8154SOL     OW25360   2.840   5.924   3.781
 8154SOL    HW125361   2.750   5.896   3.748
 8154SOL    HW225362   2.889   5.973   3.709
 8155SOL     OW25363   2.478   3.769   1.604
 8155SOL    HW125364   2.440   3.845   1.551
 8155SOL    HW225365   2.412   3.743   1.675
 8156SOL     OW25366   5.226   6.793   6.337
 8156SOL    HW125367   5.229   6.694   6.353
 8156SOL    HW225368   5.166   6.836   6.405
 8157SOL     OW25369   5.763   5.190   6.376
 8157SOL    HW125370   5.769   5.111   6.316
 8157SOL    HW225371   5.848   5.200   6.427
 8158SOL     OW25372   0.097   5.008   1.587
 8158SOL    HW125373   0.145   4.940   1.531
 8158SOL    HW225374   0.009   4.971   1.617
 8159SOL     OW25375   2.788   6.028   2.973
 8159SOL    HW125376   2.753   6.102   2.915
 8159SOL    HW225377   2.869   5.988   2.930
 8160SOL     OW25378   4.695   1.297   2.491
 8160SOL    HW125379   4.597   1.307   2.475
 8160SOL    HW225380   4.719   1.332   2.582
 8161SOL     OW25381   5.092   1.450   6.940
 8161SOL    HW125382   5.000   1.440   6.977
 8161SOL    HW225383   5.159   1.423   7.010
 8162SOL     OW25384   6.346   6.565   5.833
 8162SOL    HW125385   6.303   6.487   5.879
 8162SOL    HW225386   6.445   6.560   5.843
 8163SOL     OW25387   2.806   3.517   5.504
 8163SOL    HW125388   2.761   3.434   5.472
 8163SOL    HW225389   2.863   3.554   5.430
 8164SOL     OW25390   6.055   3.104   0.658
 8164SOL    HW125391   5.984   3.074   0.722
 8164SOL    HW225392   6.123   3.158   0.707
 8165SOL     OW25393   1.000   5.323   6.423
 8165SOL    HW125394   1.058   5.295   6.500
 8165SOL    HW225395   0.990   5.422   6.423
 8166SOL     OW25396   2.449   0.993   2.062
 8166SOL    HW125397   2.355   1.025   2.052
 8166SOL    HW225398   2.483   1.018   2.152
 8167SOL     OW25399   6.041   1.276   4.204
 8167SOL    HW125400   6.134   1.239   4.204
 8167SOL    HW225401   6.003   1.267   4.112
 8168SOL     OW25402   3.201   1.669   3.300
 8168SOL    HW125403   3.246   1.605   3.362
 8168SOL    HW225404   3.185   1.756   3.347
 8169SOL     OW25405   5.227   3.037   1.280
 8169SOL    HW125406   5.171   2.961   1.247
 8169SOL    HW225407   5.215   3.116   1.219
 8170SOL     OW25408   1.404   5.785   2.744
 8170SOL    HW125409   1.443   5.716   2.682
 8170SOL    HW225410   1.464   5.797   2.823
 8171SOL     OW25411   1.049   1.564   0.272
 8171SOL    HW125412   1.011   1.523   0.188
 8171SOL    HW225413   1.074   1.491   0.336
 8172SOL     OW25414   0.765   0.842   1.809
 8172SOL    HW125415   0.794   0.919   1.865
 8172SOL    HW225416   0.680   0.865   1.762
 8173SOL     OW25417   3.473   1.812   0.506
 8173SOL    HW125418   3.487   1.841   0.601
 8173SOL    HW225419   3.397   1.863   0.467
 8174SOL     OW25420   4.886   2.099   0.508
 8174SOL    HW125421   4.903   2.031   0.436
 8174SOL    HW225422   4.909   2.190   0.473
 8175SOL     OW25423   7.013   2.494   5.701
 8175SOL    HW125424   0.019   2.563   5.769
 8175SOL    HW225425   0.062   2.423   5.696
 8176SOL     OW25426   2.566   5.534   2.564
 8176SOL    HW125427   2.532   5.449   2.605
 8176SOL    HW225428   2.617   5.512   2.481
 8177SOL     OW25429   2.287   6.629   4.286
 8177SOL    HW125430   2.326   6.708   4.333
 8177SOL    HW225431   2.261   6.560   4.353
 8178SOL     OW25432   2.141   6.725   6.799
 8178SOL    HW125433   2.223   6.759   6.846
 8178SOL    HW225434   2.077   6.800   6.785
 8179SOL     OW25435   3.724   2.622   6.997
 8179SOL    HW125436   3.648   2.611   6.932
 8179SOL    HW225437   3.701   2.693   0.042
 8180SOL     OW25438   6.628   0.261   4.498
 8180SOL    HW125439   6.653   0.355   4.476
 8180SOL    HW225440   6.701   0.199   4.470
 8181SOL     OW25441   1.944   1.523   2.557
 8181SOL    HW125442   2.040   1.498   2.543
 8181SOL    HW225443   1.906   1.469   2.631
 8182SOL     OW25444   3.875   1.461   7.005
 8182SOL    HW125445   3.822   1.499   6.929
 8182SOL    HW225446   3.927   1.533   0.028
 8183SOL     OW25447   0.625   2.523   5.013
 8183SOL    HW125448   0.621   2.464   5.093
 8183SOL    HW225449   0.603   2.469   4.931
 8184SOL     OW25450   5.435   1.558   5.756
 8184SOL    HW125451   5.380   1.630   5.715
 8184SOL    HW225452   5.455   1.488   5.687
 8185SOL     OW25453   3.357   0.177   0.381
 8185SOL    HW125454   3.376   0.234   0.301
 8185SOL    HW225455   3.259   0.179   0.401
 8186SOL     OW25456   3.208   6.048   6.382
 8186SOL    HW125457   3.213   5.948   6.381
 8186SOL    HW225458   3.261   6.083   6.460
 8187SOL     OW25459   1.593   2.429   4.821
 8187SOL    HW125460   1.652   2.368   4.767
 8187SOL    HW225461   1.645   2.510   4.848
 8188SOL     OW25462   5.532   1.926   2.544
 8188SOL    HW125463   5.435   1.913   2.565
 8188SOL    HW225464   5.541   1.975   2.457
 8189SOL     OW25465   5.132   4.251   1.966
 8189SOL    HW125466   5.214   4.297   1.931
 8189SOL    HW225467   5.099   4.300   2.047
 8190SOL     OW25468   4.914   5.618   4.474
 8190SOL    HW125469   4.947   5.563   4.550
 8190SOL    HW225470   4.900   5.560   4.394
 8191SOL     OW25471   2.762   5.248   3.771
 8191SOL    HW125472   2.669   5.236   3.804
 8191SOL    HW225473   2.795   5.339   3.796
 8192SOL     OW25474   3.133   5.679   0.072
 8192SOL    HW125475   3.039   5.709   0.086
 8192SOL    HW225476   3.185   5.691   0.156
 8193SOL     OW25477   6.599   0.219   4.165
 8193SOL    HW125478   6.683   0.253   4.123
 8193SOL    HW225479   6.526   0.215   4.096
 8194SOL     OW25480   6.136   2.616   0.293
 8194SOL    HW125481   6.051   2.565   0.308
 8194SOL    HW225482   6.192   2.567   0.226
 8195SOL     OW25483   0.598   0.735   0.784
 8195SOL    HW125484   0.512   0.777   0.811
 8195SOL    HW225485   0.582   0.671   0.709
 8196SOL     OW25486   3.579   0.283   5.717
 8196SOL    HW125487   3.542   0.191   5.725
 8196SOL    HW225488   3.599   0.303   5.621
 8197SOL     OW25489   5.126   1.785   6.050
 8197SOL    HW125490   5.071   1.744   6.123
 8197SOL    HW225491   5.204   1.725   6.030
 8198SOL     OW25492   3.003   6.818   2.374
 8198SOL    HW125493   3.057   6.768   2.442
 8198SOL    HW225494   2.970   6.903   2.414
 8199SOL     OW25495   6.904   3.932   0.588
 8199SOL    HW125496   6.856   3.863   0.643
 8199SOL    HW225497   6.930   3.892   0.500
 8200SOL     OW25498   4.618   3.987   1.090
 8200SOL    HW125499   4.571   3.926   1.026
 8200SOL    HW225500   4.557   4.062   1.115
 8201SOL     OW25501   5.299   0.910   4.564
 8201SOL    HW125502   5.289   1.003   4.527
 8201SOL    HW225503   5.345   0.915   4.653
 8202SOL     OW25504   0.997   5.512   4.138
 8202SOL    HW125505   0.997   5.527   4.039
 8202SOL    HW225506   1.070   5.566   4.180
 8203SOL     OW25507   4.773   3.481   0.283
 8203SOL    HW125508   4.780   3.417   0.360
 8203SOL    HW225509   4.695   3.456   0.226
 8204SOL     OW25510   3.458   5.456   1.388
 8204SOL    HW125511   3.547   5.492   1.362
 8204SOL    HW225512   3.427   5.500   1.472
 8205SOL     OW25513   6.396   4.646   2.374
 8205SOL    HW125514   6.318   4.587   2.390
 8205SOL    HW225515   6.475   4.591   2.347
 8206SOL     OW25516   3.051   2.253   5.531
 8206SOL    HW125517   2.992   2.233   5.610
 8206SOL    HW225518   3.050   2.352   5.514
 8207SOL     OW25519   3.507   4.983   5.350
 8207SOL    HW125520   3.560   4.917   5.298
 8207SOL    HW225521   3.417   4.946   5.370
 8208SOL     OW25522   2.696   6.273   1.630
 8208SOL    HW125523   2.705   6.365   1.592
 8208SOL    HW225524   2.712   6.205   1.559
 8209SOL     OW25525   0.777   1.312   5.471
 8209SOL    HW125526   0.849   1.313   5.401
 8209SOL    HW225527   0.735   1.221   5.473
 8210SOL     OW25528   3.337   0.283   6.900
 8210SOL    HW125529   3.329   0.379   6.875
 8210SOL    HW225530   3.409   0.240   6.845
 8211SOL     OW25531   3.593   4.152   3.966
 8211SOL    HW125532   3.630   4.138   3.875
 8211SOL    HW225533   3.662   4.129   4.034
 8212SOL     OW25534   3.264   0.791   0.805
 8212SOL    HW125535   3.169   0.793   0.836
 8212SOL    HW225536   3.285   0.702   0.764
 8213SOL     OW25537   4.845   5.349   3.406
 8213SOL    HW125538   4.791   5.327   3.488
 8213SOL    HW225539   4.829   5.444   3.380
 8214SOL     OW25540   1.977   6.101   3.758
 8214SOL    HW125541   1.911   6.075   3.828
 8214SOL    HW225542   2.056   6.143   3.801
 8215SOL     OW25543   4.330   5.157   0.346
 8215SOL    HW125544   4.347   5.200   0.257
 8215SOL    HW225545   4.271   5.216   0.400
 8216SOL     OW25546   5.445   0.091   3.354
 8216SOL    HW125547   5.437   0.185   3.386
 8216SOL    HW225548   5.355   0.047   3.354
 8217SOL     OW25549   2.375   4.399   2.058
 8217SOL    HW125550   2.345   4.309   2.027
 8217SOL    HW225551   2.437   4.439   1.990
 8218SOL     OW25552   1.352   0.246   4.695
 8218SOL    HW125553   1.300   0.178   4.747
 8218SOL    HW225554   1.410   0.298   4.758
 8219SOL     OW25555   2.775   4.615   0.988
 8219SOL    HW125556   2.782   4.559   1.071
 8219SOL    HW225557   2.679   4.639   0.973
 8220SOL     OW25558   3.483   4.186   5.152
 8220SOL    HW125559   3.557   4.217   5.093
 8220SOL    HW225560   3.478   4.087   5.151
 8221SOL     OW25561   5.899   4.323   3.292
 8221SOL    HW125562   5.968   4.319   3.219
 8221SOL    HW225563   5.843   4.240   3.288
 8222SOL     OW25564   5.503   2.110   0.519
 8222SOL    HW125565   5.476   2.202   0.491
 8222SOL    HW225566   5.537   2.114   0.613
 8223SOL     OW25567   0.077   4.910   5.530
 8223SOL    HW125568   0.013   4.949   5.596
 8223SOL    HW225569   0.163   4.962   5.534
 8224SOL     OW25570   4.419   1.935   1.193
 8224SOL    HW125571   4.484   1.998   1.151
 8224SOL    HW225572   4.464   1.848   1.211
 8225SOL     OW25573   4.354   6.972   1.050
 8225SOL    HW125574   4.400   6.977   0.962
 8225SOL    HW225575   4.364   6.880   1.089
 8226SOL     OW25576   3.465   0.096   0.624
 8226SOL    HW125577   3.441   0.143   0.539
 8226SOL    HW225578   3.392   0.033   0.649
 8227SOL     OW25579   6.161   1.435   2.398
 8227SOL    HW125580   6.219   1.370   2.350
 8227SOL    HW225581   6.173   1.423   2.497
 8228SOL     OW25582   0.517   1.224   5.573
 8228SOL    HW125583   0.547   1.188   5.485
 8228SOL    HW225584   0.458   1.303   5.558
 8229SOL     OW25585   4.690   4.348   1.341
 8229SOL    HW125586   4.736   4.273   1.293
 8229SOL    HW225587   4.604   4.314   1.381
 8230SOL     OW25588   3.931   6.849   5.736
 8230SOL    HW125589   3.834   6.839   5.714
 8230SOL    HW225590   3.958   6.945   5.723
 8231SOL     OW25591   3.433   1.727   2.374
 8231SOL    HW125592   3.348   1.758   2.416
 8231SOL    HW225593   3.503   1.716   2.445
 8232SOL     OW25594   5.396   1.188   2.244
 8232SOL    HW125595   5.365   1.258   2.180
 8232SOL    HW225596   5.430   1.231   2.327
 8233SOL     OW25597   0.898   0.326   5.874
 8233SOL    HW125598   0.919   0.370   5.961
 8233SOL    HW225599   0.840   0.386   5.819
 8234SOL     OW25600   3.433   3.014   0.122
 8234SOL    HW125601   3.491   3.087   0.157
 8234SOL    HW225602   3.375   3.050   0.048
 8235SOL     OW25603   0.041   4.465   0.063
 8235SOL    HW125604   0.078   4.555   0.085
 8235SOL    HW225605   0.008   4.464   6.990
 8236SOL     OW25606   0.170   5.922   5.925
 8236SOL    HW125607   0.077   5.892   5.945
 8236SOL    HW225608   0.170   6.020   5.908
 8237SOL     OW25609   4.394   5.257   6.055
 8237SOL    HW125610   4.352   5.250   5.964
 8237SOL    HW225611   4.404   5.166   6.095
 8238SOL     OW25612   0.956   5.715   6.724
 8238SOL    HW125613   0.941   5.616   6.733
 8238SOL    HW225614   0.999   5.750   6.808
 8239SOL     OW25615   0.272   1.012   4.687
 8239SOL    HW125616   0.180   1.019   4.651
 8239SOL    HW225617   0.327   0.954   4.627
 8240SOL     OW25618   2.978   3.370   3.034
 8240SOL    HW125619   2.974   3.311   2.954
 8240SOL    HW225620   3.040   3.447   3.016
 8241SOL     OW25621   1.065   3.519   0.092
 8241SOL    HW125622   1.105   3.427   0.084
 8241SOL    HW225623   1.049   3.556   0.001
 8242SOL     OW25624   1.258   3.464   4.585
 8242SOL    HW125625   1.200   3.545   4.576
 8242SOL    HW225626   1.351   3.493   4.608
 8243SOL     OW25627   0.660   4.480   6.273
 8243SOL    HW125628   0.754   4.507   6.251
 8243SOL    HW225629   0.649   4.382   6.258
 8244SOL     OW25630   1.103   0.610   3.647
 8244SOL    HW125631   1.117   0.654   3.736
 8244SOL    HW225632   1.037   0.664   3.593
 8245SOL     OW25633   4.683   1.999   3.472
 8245SOL    HW125634   4.748   1.979   3.544
 8245SOL    HW225635   4.667   2.098   3.467
 8246SOL     OW25636   1.302   4.146   6.140
 8246SOL    HW125637   1.303   4.246   6.137
 8246SOL    HW225638   1.228   4.111   6.083
 8247SOL     OW25639   3.245   5.343   3.975
 8247SOL    HW125640   3.152   5.319   3.945
 8247SOL    HW225641   3.241   5.383   4.066
 8248SOL     OW25642   1.262   5.899   4.366
 8248SOL    HW125643   1.313   5.819   4.396
 8248SOL    HW225644   1.218   5.880   4.278
 8249SOL     OW25645   2.334   1.836   5.374
 8249SOL    HW125646   2.366   1.759   5.429
 8249SOL    HW225647   2.412   1.893   5.349
 8250SOL     OW25648   3.126   1.760   0.807
 8250SOL    HW125649   3.118   1.775   0.906
 8250SOL    HW225650   3.107   1.846   0.759
 8251SOL     OW25651   6.475   2.027   4.102
 8251SOL    HW125652   6.462   2.034   4.201
 8251SOL    HW225653   6.421   2.097   4.056
 8252SOL     OW25654   2.646   2.054   6.623
 8252SOL    HW125655   2.604   2.121   6.684
 8252SOL    HW225656   2.692   2.101   6.548
 8253SOL     OW25657   4.081   5.682   6.633
 8253SOL    HW125658   4.142   5.719   6.563
 8253SOL    HW225659   3.987   5.681   6.598
 8254SOL     OW25660   5.933   5.081   5.652
 8254SOL    HW125661   5.959   4.999   5.600
 8254SOL    HW225662   5.845   5.115   5.619
 8255SOL     OW25663   1.003   6.780   5.927
 8255SOL    HW125664   0.908   6.765   5.957
 8255SOL    HW225665   1.065   6.729   5.987
 8256SOL     OW25666   6.904   6.992   3.212
 8256SOL    HW125667   6.868   0.044   3.155
 8256SOL    HW225668   6.999   6.974   3.188
 8257SOL     OW25669   5.779   4.255   4.211
 8257SOL    HW125670   5.768   4.183   4.279
 8257SOL    HW225671   5.816   4.337   4.255
 8258SOL     OW25672   5.692   2.487   1.032
 8258SOL    HW125673   5.788   2.462   1.036
 8258SOL    HW225674   5.675   2.544   0.952
 8259SOL     OW25675   4.015   1.824   5.029
 8259SOL    HW125676   3.990   1.793   4.937
 8259SOL    HW225677   3.996   1.922   5.038
 8260SOL     OW25678   2.047   6.411   0.675
 8260SOL    HW125679   1.955   6.376   0.689
 8260SOL    HW225680   2.113   6.350   0.719
 8261SOL     OW25681   5.587   6.664   3.449
 8261SOL    HW125682   5.582   6.759   3.419
 8261SOL    HW225683   5.564   6.659   3.547
 8262SOL     OW25684   0.413   4.954   0.532
 8262SOL    HW125685   0.447   4.925   0.442
 8262SOL    HW225686   0.400   4.874   0.590
 8263SOL     OW25687   6.772   2.835   6.597
 8263SOL    HW125688   6.754   2.933   6.609
 8263SOL    HW225689   6.697   2.794   6.546
 8264SOL     OW25690   1.321   6.791   1.402
 8264SOL    HW125691   1.329   6.807   1.303
 8264SOL    HW225692   1.380   6.715   1.428
 8265SOL     OW25693   4.114   0.126   1.473
 8265SOL    HW125694   4.186   0.193   1.488
 8265SOL    HW225695   4.150   0.049   1.421
 8266SOL     OW25696   2.734   0.477   4.532
 8266SOL    HW125697   2.710   0.403   4.594
 8266SOL    HW225698   2.796   0.441   4.461
 8267SOL     OW25699   1.407   5.166   2.150
 8267SOL    HW125700   1.394   5.067   2.142
 8267SOL    HW225701   1.427   5.189   2.245
 8268SOL     OW25702   2.004   3.863   6.876
 8268SOL    HW125703   2.044   3.952   6.855
 8268SOL    HW225704   2.063   3.814   6.940
 8269SOL     OW25705   4.816   2.973   2.987
 8269SOL    HW125706   4.832   3.067   3.018
 8269SOL    HW225707   4.802   2.973   2.888
 8270SOL     OW25708   2.655   6.438   5.740
 8270SOL    HW125709   2.715   6.406   5.666
 8270SOL    HW225710   2.595   6.509   5.705
 8271SOL     OW25711   6.042   6.534   4.617
 8271SOL    HW125712   6.013   6.572   4.705
 8271SOL    HW225713   5.970   6.547   4.549
 8272SOL     OW25714   0.568   0.493   2.012
 8272SOL    HW125715   0.545   0.585   2.042
 8272SOL    HW225716   0.497   0.459   1.950
 8273SOL     OW25717   3.194   6.805   6.945
 8273SOL    HW125718   3.227   6.712   6.958
 8273SOL    HW225719   3.190   6.852   0.013
 8274SOL     OW25720   4.015   4.341   6.545
 8274SOL    HW125721   4.004   4.428   6.592
 8274SOL    HW225722   4.063   4.355   6.459
 8275SOL     OW25723   6.210   0.231   4.745
 8275SOL    HW125724   6.268   0.173   4.688
 8275SOL    HW225725   6.218   0.326   4.715
 8276SOL     OW25726   6.757   2.625   6.010
 8276SOL    HW125727   6.701   2.701   5.977
 8276SOL    HW225728   6.698   2.553   6.046
 8277SOL     OW25729   2.413   5.622   5.441
 8277SOL    HW125730   2.488   5.676   5.479
 8277SOL    HW225731   2.326   5.660   5.471
 8278SOL     OW25732   3.233   1.142   6.295
 8278SOL    HW125733   3.271   1.165   6.205
 8278SOL    HW225734   3.181   1.220   6.330
 8279SOL     OW25735   5.234   5.545   6.870
 8279SOL    HW125736   5.155   5.603   6.850
 8279SOL    HW225737   5.302   5.555   6.797
 8280SOL     OW25738   4.513   2.505   0.037
 8280SOL    HW125739   4.489   2.413   0.068
 8280SOL    HW225740   4.558   2.499   6.969
 8281SOL     OW25741   2.019   4.472   0.488
 8281SOL    HW125742   2.003   4.454   0.585
 8281SOL    HW225743   2.117   4.484   0.472
 8282SOL     OW25744   3.113   2.295   1.017
 8282SOL    HW125745   3.182   2.358   0.982
 8282SOL    HW225746   3.104   2.307   1.116
 8283SOL     OW25747   0.387   5.301   3.649
 8283SOL    HW125748   0.375   5.220   3.707
 8283SOL    HW225749   0.481   5.335   3.659
 8284SOL     OW25750   1.935   2.545   2.558
 8284SOL    HW125751   2.033   2.564   2.555
 8284SOL    HW225752   1.904   2.514   2.468
 8285SOL     OW25753   3.351   3.750   5.737
 8285SOL    HW125754   3.450   3.739   5.744
 8285SOL    HW225755   3.324   3.831   5.789
 8286SOL     OW25756   5.621   1.317   4.544
 8286SOL    HW125757   5.662   1.386   4.604
 8286SOL    HW225758   5.668   1.230   4.558
 8287SOL     OW25759   1.576   6.918   4.451
 8287SOL    HW125760   1.491   6.933   4.501
 8287SOL    HW225761   1.558   6.862   4.370
 8288SOL     OW25762   1.726   2.071   2.318
 8288SOL    HW125763   1.761   2.108   2.404
 8288SOL    HW225764   1.800   2.027   2.268
 8289SOL     OW25765   6.101   0.689   5.909
 8289SOL    HW125766   6.139   0.598   5.901
 8289SOL    HW225767   6.063   0.702   6.000
 8290SOL     OW25768   4.089   3.350   1.522
 8290SOL    HW125769   4.065   3.272   1.464
 8290SOL    HW225770   4.110   3.318   1.614
 8291SOL     OW25771   5.787   6.453   6.478
 8291SOL    HW125772   5.822   6.374   6.529
 8291SOL    HW225773   5.725   6.421   6.406
 8292SOL     OW25774   2.102   5.387   5.608
 8292SOL    HW125775   2.175   5.332   5.649
 8292SOL    HW225776   2.015   5.366   5.652
 8293SOL     OW25777   2.144   4.735   1.997
 8293SOL    HW125778   2.126   4.753   1.900
 8293SOL    HW225779   2.103   4.648   2.022
 8294SOL     OW25780   6.533   3.561   5.627
 8294SOL    HW125781   6.506   3.499   5.700
 8294SOL    HW225782   6.467   3.636   5.620
 8295SOL     OW25783   4.996   3.988   2.837
 8295SOL    HW125784   4.912   4.007   2.785
 8295SOL    HW225785   5.040   3.906   2.801
 8296SOL     OW25786   3.510   5.705   0.107
 8296SOL    HW125787   3.529   5.628   0.045
 8296SOL    HW225788   3.595   5.732   0.153
 8297SOL     OW25789   6.063   4.055   1.534
 8297SOL    HW125790   6.029   3.969   1.572
 8297SOL    HW225791   6.135   4.091   1.593
 8298SOL     OW25792   0.714   1.108   6.207
 8298SOL    HW125793   0.702   1.159   6.292
 8298SOL    HW225794   0.641   1.131   6.144
 8299SOL     OW25795   0.151   3.835   1.355
 8299SOL    HW125796   0.229   3.775   1.339
 8299SOL    HW225797   0.164   3.886   1.440
 8300SOL     OW25798   5.963   5.780   4.391
 8300SOL    HW125799   5.889   5.768   4.326
 8300SOL    HW225800   5.926   5.785   4.484
 8301SOL     OW25801   4.201   0.057   6.900
 8301SOL    HW125802   4.182   0.155   6.893
 8301SOL    HW225803   4.297   0.040   6.882
 8302SOL     OW25804   3.055   6.828   5.254
 8302SOL    HW125805   3.067   6.817   5.155
 8302SOL    HW225806   3.144   6.842   5.297
 8303SOL     OW25807   0.059   0.397   2.589
 8303SOL    HW125808   0.078   0.451   2.671
 8303SOL    HW225809   6.983   0.403   2.566
 8304SOL     OW25810   5.819   4.165   3.049
 8304SOL    HW125811   5.914   4.190   3.033
 8304SOL    HW225812   5.761   4.245   3.037
 8305SOL     OW25813   4.631   5.358   4.042
 8305SOL    HW125814   4.536   5.347   4.013
 8305SOL    HW225815   4.636   5.429   4.112
 8306SOL     OW25816   6.313   1.022   2.374
 8306SOL    HW125817   6.379   1.071   2.431
 8306SOL    HW225818   6.352   0.934   2.348
 8307SOL     OW25819   1.407   5.207   0.997
 8307SOL    HW125820   1.455   5.277   0.944
 8307SOL    HW225821   1.347   5.252   1.064
 8308SOL     OW25822   1.558   3.958   6.899
 8308SOL    HW125823   1.567   4.018   6.819
 8308SOL    HW225824   1.461   3.945   6.920
 8309SOL     OW25825   6.472   4.887   4.817
 8309SOL    HW125826   6.436   4.959   4.875
 8309SOL    HW225827   6.572   4.883   4.826
 8310SOL     OW25828   0.925   6.438   1.247
 8310SOL    HW125829   1.013   6.466   1.286
 8310SOL    HW225830   0.888   6.514   1.192
 8311SOL     OW25831   5.282   0.073   4.568
 8311SOL    HW125832   5.376   0.104   4.582
 8311SOL    HW225833   5.283   6.998   4.540
 8312SOL     OW25834   5.712   0.237   0.579
 8312SOL    HW125835   5.650   0.286   0.641
 8312SOL    HW225836   5.659   0.194   0.506
 8313SOL     OW25837   3.749   0.157   5.484
 8313SOL    HW125838   3.662   0.130   5.443
 8313SOL    HW225839   3.783   0.239   5.439
 8314SOL     OW25840   5.596   6.178   6.664
 8314SOL    HW125841   5.509   6.208   6.627
 8314SOL    HW225842   5.580   6.113   6.739
 8315SOL     OW25843   3.785   3.730   3.694
 8315SOL    HW125844   3.778   3.749   3.596
 8315SOL    HW225845   3.712   3.667   3.721
 8316SOL     OW25846   1.035   3.463   6.451
 8316SOL    HW125847   1.103   3.475   6.523
 8316SOL    HW225848   0.947   3.439   6.491
 8317SOL     OW25849   2.091   2.145   4.906
 8317SOL    HW125850   2.179   2.186   4.930
 8317SOL    HW225851   2.047   2.200   4.835
 8318SOL     OW25852   4.542   1.070   6.002
 8318SOL    HW125853   4.492   0.984   5.990
 8318SOL    HW225854   4.573   1.104   5.913
 8319SOL     OW25855   1.177   0.451   6.067
 8319SOL    HW125856   1.236   0.531   6.080
 8319SOL    HW225857   1.141   0.422   6.156
 8320SOL     OW25858   3.434   4.030   3.630
 8320SOL    HW125859   3.531   4.050   3.647
 8320SOL    HW225860   3.380   4.061   3.709
 8321SOL     OW25861   6.961   0.437   6.493
 8321SOL    HW125862   6.883   0.495   6.469
 8321SOL    HW225863   6.975   0.368   6.422
 8322SOL     OW25864   0.049   1.233   0.737
 8322SOL    HW125865   0.106   1.294   0.792
 8322SOL    HW225866   0.059   1.139   0.769
 8323SOL     OW25867   4.802   4.627   1.375
 8323SOL    HW125868   4.788   4.532   1.348
 8323SOL    HW225869   4.866   4.670   1.312
 8324SOL     OW25870   5.806   0.192   0.132
 8324SOL    HW125871   5.712   0.218   0.110
 8324SOL    HW225872   5.835   0.239   0.215
 8325SOL     OW25873   1.384   5.274   5.307
 8325SOL    HW125874   1.303   5.221   5.334
 8325SOL    HW225875   1.355   5.358   5.261
 8326SOL     OW25876   3.384   3.750   0.089
 8326SOL    HW125877   3.344   3.670   0.135
 8326SOL    HW225878   3.474   3.769   0.128
 8327SOL     OW25879   0.504   0.819   5.339
 8327SOL    HW125880   0.556   0.737   5.312
 8327SOL    HW225881   0.431   0.792   5.402
 8328SOL     OW25882   1.039   6.600   5.694
 8328SOL    HW125883   1.013   6.673   5.757
 8328SOL    HW225884   0.990   6.611   5.608
 8329SOL     OW25885   0.861   2.968   5.386
 8329SOL    HW125886   0.888   2.887   5.437
 8329SOL    HW225887   0.803   3.026   5.444
 8330SOL     OW25888   3.854   1.155   6.201
 8330SOL    HW125889   3.849   1.085   6.130
 8330SOL    HW225890   3.797   1.127   6.279
 8331SOL     OW25891   2.615   2.022   0.407
 8331SOL    HW125892   2.707   1.983   0.405
 8331SOL    HW225893   2.620   2.119   0.380
 8332SOL     OW25894   5.430   5.310   2.102
 8332SOL    HW125895   5.398   5.233   2.158
 8332SOL    HW225896   5.400   5.297   2.008
 8333SOL     OW25897   1.674   5.359   0.890
 8333SOL    HW125898   1.593   5.414   0.870
 8333SOL    HW225899   1.688   5.292   0.816
 8334SOL     OW25900   3.066   1.388   6.248
 8334SOL    HW125901   3.003   1.464   6.261
 8334SOL    HW225902   3.055   1.351   6.156
 8335SOL     OW25903   4.136   2.388   6.655
 8335SOL    HW125904   4.124   2.298   6.697
 8335SOL    HW225905   4.227   2.424   6.678
 8336SOL     OW25906   1.465   3.971   2.318
 8336SOL    HW125907   1.395   3.903   2.296
 8336SOL    HW225908   1.511   4.001   2.234
 8337SOL     OW25909   0.868   0.625   5.116
 8337SOL    HW125910   0.946   0.687   5.126
 8337SOL    HW225911   0.832   0.631   5.023
 8338SOL     OW25912   4.051   4.782   2.350
 8338SOL    HW125913   3.966   4.797   2.299
 8338SOL    HW225914   4.092   4.695   2.322
 8339SOL     OW25915   6.951   0.962   0.626
 8339SOL    HW125916   6.986   0.899   0.556
 8339SOL    HW225917   6.856   0.985   0.604
 8340SOL     OW25918   5.215   3.234   0.507
 8340SOL    HW125919   5.203   3.183   0.592
 8340SOL    HW225920   5.310   3.265   0.501
 8341SOL     OW25921   3.170   0.556   6.289
 8341SOL    HW125922   3.134   0.464   6.276
 8341SOL    HW225923   3.175   0.575   6.387
 8342SOL     OW25924   3.544   6.203   0.326
 8342SOL    HW125925   3.452   6.166   0.333
 8342SOL    HW225926   3.563   6.228   0.230
 8343SOL     OW25927   6.853   5.491   3.980
 8343SOL    HW125928   6.912   5.445   3.914
 8343SOL    HW225929   6.760   5.456   3.972
 8344SOL     OW25930   0.167   4.500   4.034
 8344SOL    HW125931   0.265   4.500   4.053
 8344SOL    HW225932   0.150   4.453   3.948
 8345SOL     OW25933   5.300   1.321   3.291
 8345SOL    HW125934   5.338   1.381   3.361
 8345SOL    HW225935   5.275   1.375   3.211
 8346SOL     OW25936   4.227   2.827   6.106
 8346SOL    HW125937   4.136   2.847   6.141
 8346SOL    HW225938   4.265   2.909   6.064
 8347SOL     OW25939   2.360   6.541   6.218
 8347SOL    HW125940   2.344   6.618   6.280
 8347SOL    HW225941   2.404   6.467   6.269
 8348SOL     OW25942   2.947   0.095   1.316
 8348SOL    HW125943   3.016   0.032   1.352
 8348SOL    HW225944   2.986   0.146   1.239
 8349SOL     OW25945   1.026   6.359   1.837
 8349SOL    HW125946   1.066   6.448   1.859
 8349SOL    HW225947   1.048   6.335   1.743
 8350SOL     OW25948   2.679   6.834   6.441
 8350SOL    HW125949   2.767   6.802   6.405
 8350SOL    HW225950   2.626   6.756   6.474
 8351SOL     OW25951   5.811   5.680   3.711
 8351SOL    HW125952   5.737   5.726   3.762
 8351SOL    HW225953   5.896   5.685   3.764
 8352SOL     OW25954   2.674   6.179   2.787
 8352SOL    HW125955   2.643   6.180   2.692
 8352SOL    HW225956   2.673   6.272   2.823
 8353SOL     OW25957   1.580   4.347   1.411
 8353SOL    HW125958   1.584   4.315   1.505
 8353SOL    HW225959   1.650   4.417   1.397
 8354SOL     OW25960   3.450   6.873   4.185
 8354SOL    HW125961   3.429   6.966   4.214
 8354SOL    HW225962   3.448   6.812   4.265
 8355SOL     OW25963   1.434   0.611   6.356
 8355SOL    HW125964   1.504   0.627   6.426
 8355SOL    HW225965   1.347   0.651   6.386
 8356SOL     OW25966   1.436   5.260   1.886
 8356SOL    HW125967   1.434   5.217   1.976
 8356SOL    HW225968   1.526   5.247   1.845
 8357SOL     OW25969   3.501   5.557   6.090
 8357SOL    HW125970   3.593   5.575   6.055
 8357SOL    HW225971   3.503   5.554   6.190
 8358SOL     OW25972   0.972   2.976   5.812
 8358SOL    HW125973   1.023   2.954   5.895
 8358SOL    HW225974   0.910   2.902   5.790
 8359SOL     OW25975   1.979   1.529   4.561
 8359SOL    HW125976   2.065   1.479   4.572
 8359SOL    HW225977   1.944   1.554   4.651
 8360SOL     OW25978   4.942   6.626   0.598
 8360SOL    HW125979   4.858   6.677   0.577
 8360SOL    HW225980   4.931   6.577   0.685
 8361SOL     OW25981   2.454   6.600   6.570
 8361SOL    HW125982   2.451   6.579   6.668
 8361SOL    HW225983   2.399   6.681   6.552
 8362SOL     OW25984   6.169   2.088   0.544
 8362SOL    HW125985   6.212   2.175   0.567
 8362SOL    HW225986   6.076   2.085   0.581
 8363SOL     OW25987   4.186   1.858   0.425
 8363SOL    HW125988   4.091   1.834   0.405
 8363SOL    HW225989   4.190   1.907   0.512
 8364SOL     OW25990   1.084   2.941   4.055
 8364SOL    HW125991   1.128   3.021   4.095
 8364SOL    HW225992   1.134   2.913   3.973
 8365SOL     OW25993   2.128   2.645   2.886
 8365SOL    HW125994   2.063   2.686   2.950
 8365SOL    HW225995   2.111   2.547   2.878
 8366SOL     OW25996   4.111   5.308   1.477
 8366SOL    HW125997   4.105   5.388   1.537
 8366SOL    HW225998   4.027   5.255   1.483
 8367SOL     OW25999   2.959   5.142   5.079
 8367SOL    HW126000   3.055   5.163   5.100
 8367SOL    HW226001   2.926   5.073   5.143
 8368SOL     OW26002   1.260   6.140   6.797
 8368SOL    HW126003   1.200   6.107   6.869
 8368SOL    HW226004   1.224   6.226   6.760
 8369SOL     OW26005   0.801   1.119   0.686
 8369SOL    HW126006   0.701   1.126   0.689
 8369SOL    HW226007   0.841   1.210   0.671
 8370SOL     OW26008   2.545   1.780   6.665
 8370SOL    HW126009   2.579   1.741   6.580
 8370SOL    HW226010   2.603   1.857   6.692
 8371SOL     OW26011   1.663   3.319   5.935
 8371SOL    HW126012   1.676   3.313   5.836
 8371SOL    HW226013   1.700   3.406   5.967
 8372SOL     OW26014   2.171   6.132   1.736
 8372SOL    HW126015   2.224   6.186   1.802
 8372SOL    HW226016   2.145   6.190   1.660
 8373SOL     OW26017   1.395   1.568   4.708
 8373SOL    HW126018   1.400   1.662   4.676
 8373SOL    HW226019   1.378   1.567   4.806
 8374SOL     OW26020   0.756   0.599   4.388
 8374SOL    HW126021   0.798   0.596   4.297
 8374SOL    HW226022   0.713   0.688   4.402
 8375SOL     OW26023   3.319   0.637   5.830
 8375SOL    HW126024   3.243   0.577   5.853
 8375SOL    HW226025   3.404   0.584   5.823
 8376SOL     OW26026   1.751   1.126   3.973
 8376SOL    HW126027   1.673   1.063   3.975
 8376SOL    HW226028   1.730   1.208   4.025
 8377SOL     OW26029   5.195   5.378   0.655
 8377SOL    HW126030   5.143   5.307   0.605
 8377SOL    HW226031   5.192   5.463   0.603
 8378SOL     OW26032   5.445   5.226   3.197
 8378SOL    HW126033   5.391   5.143   3.179
 8378SOL    HW226034   5.392   5.288   3.255
 8379SOL     OW26035   4.935   2.556   1.179
 8379SOL    HW126036   5.031   2.530   1.185
 8379SOL    HW226037   4.878   2.475   1.197
 8380SOL     OW26038   0.301   6.784   6.722
 8380SOL    HW126039   0.398   6.797   6.742
 8380SOL    HW226040   0.247   6.839   6.785
 8381SOL     OW26041   0.294   2.772   3.520
 8381SOL    HW126042   0.256   2.730   3.437
 8381SOL    HW226043   0.232   2.756   3.597
 8382SOL     OW26044   2.564   0.507   1.070
 8382SOL    HW126045   2.488   0.494   1.135
 8382SOL    HW226046   2.540   0.466   0.982
 8383SOL     OW26047   2.433   0.489   5.285
 8383SOL    HW126048   2.452   0.544   5.365
 8383SOL    HW226049   2.373   0.540   5.223
 8384SOL     OW26050   6.983   1.536   0.879
 8384SOL    HW126051   6.910   1.467   0.882
 8384SOL    HW226052   0.051   1.491   0.877
 8385SOL     OW26053   4.659   2.996   0.527
 8385SOL    HW126054   4.730   2.928   0.546
 8385SOL    HW226055   4.592   2.997   0.602
 8386SOL     OW26056   2.013   5.630   1.212
 8386SOL    HW126057   1.922   5.591   1.207
 8386SOL    HW226058   2.044   5.631   1.308
 8387SOL     OW26059   1.810   1.463   1.830
 8387SOL    HW126060   1.714   1.455   1.858
 8387SOL    HW226061   1.826   1.553   1.790
 8388SOL     OW26062   1.797   0.476   0.802
 8388SOL    HW126063   1.817   0.556   0.858
 8388SOL    HW226064   1.719   0.427   0.841
 8389SOL     OW26065   1.049   3.477   4.143
 8389SOL    HW126066   1.129   3.511   4.193
 8389SOL    HW226067   0.981   3.549   4.136
 8390SOL     OW26068   3.262   0.080   6.651
 8390SOL    HW126069   3.196   0.142   6.693
 8390SOL    HW226070   3.326   0.048   6.721
 8391SOL     OW26071   5.394   4.923   0.815
 8391SOL    HW126072   5.361   4.870   0.737
 8391SOL    HW226073   5.368   5.019   0.804
 8392SOL     OW26074   6.321   5.694   5.397
 8392SOL    HW126075   6.232   5.704   5.353
 8392SOL    HW226076   6.393   5.711   5.329
 8393SOL     OW26077   0.157   0.409   3.821
 8393SOL    HW126078   0.060   0.403   3.802
 8393SOL    HW226079   0.186   0.505   3.814
 8394SOL     OW26080   0.557   2.029   2.135
 8394SOL    HW126081   0.605   2.074   2.210
 8394SOL    HW226082   0.596   1.938   2.120
 8395SOL     OW26083   1.115   6.460   3.876
 8395SOL    HW126084   1.029   6.490   3.834
 8395SOL    HW226085   1.164   6.402   3.811
 8396SOL     OW26086   4.712   4.152   2.439
 8396SOL    HW126087   4.672   4.223   2.381
 8396SOL    HW226088   4.749   4.079   2.382
 8397SOL     OW26089   2.221   0.171   2.597
 8397SOL    HW126090   2.313   0.190   2.563
 8397SOL    HW226091   2.189   0.083   2.560
 8398SOL     OW26092   3.460   1.408   0.145
 8398SOL    HW126093   3.534   1.349   0.113
 8398SOL    HW226094   3.411   1.363   0.219
 8399SOL     OW26095   6.791   6.633   6.949
 8399SOL    HW126096   6.867   6.694   6.966
 8399SOL    HW226097   6.715   6.656   7.009
 8400SOL     OW26098   1.034   0.997   3.458
 8400SOL    HW126099   1.037   1.097   3.460
 8400SOL    HW226100   1.122   0.962   3.425
 8401SOL     OW26101   4.171   2.998   5.808
 8401SOL    HW126102   4.160   3.048   5.723
 8401SOL    HW226103   4.093   2.936   5.821
 8402SOL     OW26104   2.812   1.540   5.481
 8402SOL    HW126105   2.787   1.513   5.574
 8402SOL    HW226106   2.880   1.614   5.485
 8403SOL     OW26107   0.431   1.278   3.310
 8403SOL    HW126108   0.442   1.281   3.410
 8403SOL    HW226109   0.373   1.200   3.286
 8404SOL     OW26110   5.871   6.211   6.605
 8404SOL    HW126111   5.780   6.196   6.644
 8404SOL    HW226112   5.883   6.153   6.524
 8405SOL     OW26113   1.801   1.757   6.729
 8405SOL    HW126114   1.713   1.804   6.735
 8405SOL    HW226115   1.811   1.694   6.805
 8406SOL     OW26116   3.634   0.790   1.140
 8406SOL    HW126117   3.717   0.756   1.095
 8406SOL    HW226118   3.554   0.745   1.100
 8407SOL     OW26119   5.295   5.738   4.353
 8407SOL    HW126120   5.362   5.670   4.323
 8407SOL    HW226121   5.250   5.706   4.436
 8408SOL     OW26122   4.596   1.596   3.423
 8408SOL    HW126123   4.688   1.636   3.418
 8408SOL    HW226124   4.600   1.512   3.477
 8409SOL     OW26125   6.415   2.500   3.668
 8409SOL    HW126126   6.485   2.453   3.616
 8409SOL    HW226127   6.435   2.493   3.766
 8410SOL     OW26128   4.301   0.616   1.928
 8410SOL    HW126129   4.291   0.690   1.995
 8410SOL    HW226130   4.227   0.623   1.861
 8411SOL     OW26131   1.719   5.422   4.204
 8411SOL    HW126132   1.748   5.473   4.285
 8411SOL    HW226133   1.753   5.328   4.210
 8412SOL     OW26134   3.955   1.969   1.305
 8412SOL    HW126135   4.005   1.889   1.338
 8412SOL    HW226136   3.871   1.939   1.260
 8413SOL     OW26137   4.759   4.528   0.112
 8413SOL    HW126138   4.712   4.441   0.096
 8413SOL    HW226139   4.768   4.576   0.025
 8414SOL     OW26140   3.949   0.080   2.249
 8414SOL    HW126141   3.925   0.114   2.340
 8414SOL    HW226142   4.033   0.025   2.255
 8415SOL     OW26143   0.261   5.123   4.046
 8415SOL    HW126144   0.242   5.120   3.948
 8415SOL    HW226145   0.359   5.136   4.061
 8416SOL     OW26146   4.883   5.079   3.323
 8416SOL    HW126147   4.841   5.027   3.397
 8416SOL    HW226148   4.862   5.176   3.334
 8417SOL     OW26149   1.440   5.657   5.388
 8417SOL    HW126150   1.424   5.754   5.408
 8417SOL    HW226151   1.399   5.634   5.300
 8418SOL     OW26152   5.881   5.455   1.335
 8418SOL    HW126153   5.967   5.506   1.329
 8418SOL    HW226154   5.874   5.391   1.258
 8419SOL     OW26155   4.599   0.995   2.046
 8419SOL    HW126156   4.534   0.941   2.099
 8419SOL    HW226157   4.600   1.089   2.080
 8420SOL     OW26158   3.722   6.327   0.915
 8420SOL    HW126159   3.774   6.276   0.847
 8420SOL    HW226160   3.702   6.419   0.880
 8421SOL     OW26161   3.098   6.464   1.266
 8421SOL    HW126162   3.096   6.497   1.361
 8421SOL    HW226163   3.102   6.542   1.204
 8422SOL     OW26164   4.819   6.317   1.505
 8422SOL    HW126165   4.808   6.410   1.540
 8422SOL    HW226166   4.844   6.321   1.408
 8423SOL     OW26167   4.155   3.963   6.111
 8423SOL    HW126168   4.092   3.885   6.100
 8423SOL    HW226169   4.195   3.960   6.203
 8424SOL     OW26170   2.399   2.691   3.123
 8424SOL    HW126171   2.389   2.789   3.141
 8424SOL    HW226172   2.428   2.678   3.028
 8425SOL     OW26173   6.503   5.293   0.937
 8425SOL    HW126174   6.432   5.341   0.885
 8425SOL    HW226175   6.582   5.354   0.949
 8426SOL     OW26176   3.832   2.981   4.220
 8426SOL    HW126177   3.874   3.061   4.264
 8426SOL    HW226178   3.779   2.930   4.287
 8427SOL     OW26179   1.486   4.041   5.909
 8427SOL    HW126180   1.556   3.977   5.877
 8427SOL    HW226181   1.512   4.077   5.998
 8428SOL     OW26182   6.449   4.709   1.781
 8428SOL    HW126183   6.534   4.754   1.807
 8428SOL    HW226184   6.465   4.646   1.705
 8429SOL     OW26185   1.923   4.601   4.350
 8429SOL    HW126186   1.888   4.509   4.330
 8429SOL    HW226187   1.922   4.616   4.448
 8430SOL     OW26188   4.231   5.236   3.068
 8430SOL    HW126189   4.329   5.228   3.087
 8430SOL    HW226190   4.215   5.318   3.013
 8431SOL     OW26191   2.051   5.096   1.470
 8431SOL    HW126192   1.968   5.151   1.465
 8431SOL    HW226193   2.068   5.053   1.381
 8432SOL     OW26194   4.472   5.781   5.732
 8432SOL    HW126195   4.473   5.693   5.685
 8432SOL    HW226196   4.564   5.804   5.763
 8433SOL     OW26197   6.781   2.560   6.298
 8433SOL    HW126198   6.806   2.599   6.387
 8433SOL    HW226199   6.754   2.634   6.236
 8434SOL     OW26200   2.889   0.687   4.711
 8434SOL    HW126201   2.816   0.631   4.671
 8434SOL    HW226202   2.862   0.784   4.706
 8435SOL     OW26203   4.899   1.514   1.255
 8435SOL    HW126204   4.887   1.422   1.292
 8435SOL    HW226205   4.994   1.527   1.226
 8436SOL     OW26206   3.517   6.377   4.186
 8436SOL    HW126207   3.529   6.462   4.134
 8436SOL    HW226208   3.486   6.305   4.124
 8437SOL     OW26209   1.983   0.275   2.314
 8437SOL    HW126210   1.957   0.238   2.403
 8437SOL    HW226211   1.918   0.346   2.287
 8438SOL     OW26212   3.318   4.898   2.284
 8438SOL    HW126213   3.308   4.857   2.375
 8438SOL    HW226214   3.238   4.875   2.229
 8439SOL     OW26215   6.612   5.784   1.423
 8439SOL    HW126216   6.628   5.827   1.512
 8439SOL    HW226217   6.664   5.833   1.352
 8440SOL     OW26218   0.448   1.008   2.920
 8440SOL    HW126219   0.472   0.926   2.867
 8440SOL    HW226220   0.349   1.016   2.926
 8441SOL     OW26221   6.667   6.138   0.269
 8441SOL    HW126222   6.678   6.234   0.243
 8441SOL    HW226223   6.591   6.129   0.334
 8442SOL     OW26224   3.427   3.262   6.145
 8442SOL    HW126225   3.467   3.246   6.055
 8442SOL    HW226226   3.394   3.357   6.150
 8443SOL     OW26227   1.307   6.807   2.947
 8443SOL    HW126228   1.309   6.831   2.850
 8443SOL    HW226229   1.213   6.793   2.976
 8444SOL     OW26230   3.068   6.393   3.643
 8444SOL    HW126231   3.025   6.458   3.581
 8444SOL    HW226232   3.128   6.442   3.706
 8445SOL     OW26233   3.349   5.223   2.094
 8445SOL    HW126234   3.415   5.151   2.074
 8445SOL    HW226235   3.390   5.289   2.157
 8446SOL     OW26236   5.328   5.703   1.271
 8446SOL    HW126237   5.317   5.794   1.311
 8446SOL    HW226238   5.340   5.712   1.172
 8447SOL     OW26239   5.763   2.360   2.052
 8447SOL    HW126240   5.684   2.328   2.103
 8447SOL    HW226241   5.797   2.446   2.092
 8448SOL     OW26242   6.677   3.472   5.396
 8448SOL    HW126243   6.671   3.388   5.342
 8448SOL    HW226244   6.593   3.483   5.449
 8449SOL     OW26245   7.010   2.793   4.426
 8449SOL    HW126246   0.070   2.779   4.369
 8449SOL    HW226247   6.947   2.856   4.379
 8450SOL     OW26248   1.874   6.175   2.214
 8450SOL    HW126249   1.836   6.094   2.169
 8450SOL    HW226250   1.970   6.184   2.188
 8451SOL     OW26251   4.520   2.977   6.887
 8451SOL    HW126252   4.480   3.067   6.869
 8451SOL    HW226253   4.483   2.941   6.972
 8452SOL     OW26254   0.215   0.242   1.389
 8452SOL    HW126255   0.278   0.183   1.439
 8452SOL    HW226256   0.134   0.260   1.446
 8453SOL     OW26257   6.170   4.258   5.993
 8453SOL    HW126258   6.262   4.224   6.011
 8453SOL    HW226259   6.139   4.315   6.069
 8454SOL     OW26260   1.265   5.581   1.542
 8454SOL    HW126261   1.223   5.624   1.623
 8454SOL    HW226262   1.202   5.512   1.505
 8455SOL     OW26263   4.624   2.653   0.622
 8455SOL    HW126264   4.547   2.648   0.558
 8455SOL    HW226265   4.707   2.677   0.573
 8456SOL     OW26266   5.438   4.794   3.395
 8456SOL    HW126267   5.418   4.892   3.408
 8456SOL    HW226268   5.361   4.750   3.350
 8457SOL     OW26269   6.216   6.395   5.613
 8457SOL    HW126270   6.217   6.421   5.709
 8457SOL    HW226271   6.231   6.476   5.556
 8458SOL     OW26272   2.377   1.114   6.854
 8458SOL    HW126273   2.401   1.191   6.795
 8458SOL    HW226274   2.337   1.149   6.939
 8459SOL     OW26275   3.120   6.909   1.409
 8459SOL    HW126276   3.066   6.853   1.471
 8459SOL    HW226277   3.215   6.876   1.409
 8460SOL     OW26278   4.432   2.179   5.748
 8460SOL    HW126279   4.349   2.139   5.788
 8460SOL    HW226280   4.486   2.223   5.819
 8461SOL     OW26281   1.148   4.019   1.847
 8461SOL    HW126282   1.102   4.058   1.767
 8461SOL    HW226283   1.084   3.965   1.900
 8462SOL     OW26284   2.837   2.499   0.210
 8462SOL    HW126285   2.853   2.574   0.146
 8462SOL    HW226286   2.821   2.537   0.302
 8463SOL     OW26287   6.575   1.190   0.442
 8463SOL    HW126288   6.570   1.213   0.345
 8463SOL    HW226289   6.597   1.272   0.495
 8464SOL     OW26290   0.118   4.407   5.091
 8464SOL    HW126291   0.087   4.387   4.999
 8464SOL    HW226292   0.041   4.439   5.146
 8465SOL     OW26293   3.311   2.091   0.634
 8465SOL    HW126294   3.330   1.993   0.646
 8465SOL    HW226295   3.284   2.108   0.540
 8466SOL     OW26296   5.680   6.676   5.005
 8466SOL    HW126297   5.606   6.704   4.942
 8466SOL    HW226298   5.761   6.731   4.986
 8467SOL     OW26299   4.166   1.108   1.121
 8467SOL    HW126300   4.216   1.131   1.205
 8467SOL    HW226301   4.108   1.029   1.138
 8468SOL     OW26302   5.368   3.395   0.090
 8468SOL    HW126303   5.436   3.338   0.135
 8468SOL    HW226304   5.327   3.346   0.014
 8469SOL     OW26305   2.698   1.857   5.536
 8469SOL    HW126306   2.640   1.938   5.543
 8469SOL    HW226307   2.641   1.775   5.526
 8470SOL     OW26308   1.120   4.575   0.443
 8470SOL    HW126309   1.201   4.526   0.475
 8470SOL    HW226310   1.097   4.648   0.507
 8471SOL     OW26311   3.923   0.766   5.819
 8471SOL    HW126312   3.915   0.754   5.918
 8471SOL    HW226313   3.855   0.709   5.773
 8472SOL     OW26314   5.659   0.636   5.102
 8472SOL    HW126315   5.752   0.636   5.067
 8472SOL    HW226316   5.660   0.628   5.201
 8473SOL     OW26317   6.176   5.220   0.425
 8473SOL    HW126318   6.236   5.164   0.482
 8473SOL    HW226319   6.211   5.220   0.331
 8474SOL     OW26320   3.625   3.907   1.666
 8474SOL    HW126321   3.638   4.003   1.691
 8474SOL    HW226322   3.542   3.898   1.611
 8475SOL     OW26323   6.985   2.880   2.777
 8475SOL    HW126324   7.011   2.806   2.839
 8475SOL    HW226325   6.969   2.841   2.686
 8476SOL     OW26326   6.835   1.852   1.306
 8476SOL    HW126327   6.756   1.914   1.300
 8476SOL    HW226328   6.807   1.760   1.280
 8477SOL     OW26329   4.220   6.678   2.808
 8477SOL    HW126330   4.157   6.678   2.885
 8477SOL    HW226331   4.301   6.623   2.830
 8478SOL     OW26332   0.654   0.923   5.899
 8478SOL    HW126333   0.639   0.957   5.992
 8478SOL    HW226334   0.572   0.875   5.867
 8479SOL     OW26335   1.193   3.662   0.953
 8479SOL    HW126336   1.267   3.649   1.019
 8479SOL    HW226337   1.203   3.750   0.908
 8480SOL     OW26338   5.296   3.259   6.890
 8480SOL    HW126339   5.243   3.336   6.855
 8480SOL    HW226340   5.319   3.197   6.814
 8481SOL     OW26341   4.849   2.426   4.873
 8481SOL    HW126342   4.834   2.462   4.781
 8481SOL    HW226343   4.763   2.393   4.910
 8482SOL     OW26344   5.065   0.238   2.363
 8482SOL    HW126345   5.090   0.305   2.293
 8482SOL    HW226346   5.144   0.222   2.423
 8483SOL     OW26347   3.061   5.778   3.387
 8483SOL    HW126348   3.124   5.849   3.357
 8483SOL    HW226349   3.067   5.767   3.486
 8484SOL     OW26350   6.820   6.253   4.427
 8484SOL    HW126351   6.883   6.242   4.504
 8484SOL    HW226352   6.767   6.169   4.415
 8485SOL     OW26353   3.802   2.854   0.370
 8485SOL    HW126354   3.866   2.782   0.344
 8485SOL    HW226355   3.851   2.940   0.383
 8486SOL     OW26356   1.844   0.821   3.011
 8486SOL    HW126357   1.781   0.792   3.083
 8486SOL    HW226358   1.877   0.914   3.031
 8487SOL     OW26359   5.888   2.224   6.117
 8487SOL    HW126360   5.901   2.249   6.020
 8487SOL    HW226361   5.867   2.127   6.124
 8488SOL     OW26362   5.274   6.252   2.388
 8488SOL    HW126363   5.292   6.321   2.318
 8488SOL    HW226364   5.352   6.246   2.450
 8489SOL     OW26365   6.143   1.260   1.567
 8489SOL    HW126366   6.225   1.279   1.621
 8489SOL    HW226367   6.158   1.290   1.473
 8490SOL     OW26368   3.125   6.889   5.658
 8490SOL    HW126369   3.124   6.867   5.755
 8490SOL    HW226370   3.183   6.824   5.609
 8491SOL     OW26371   1.477   6.231   2.432
 8491SOL    HW126372   1.411   6.166   2.471
 8491SOL    HW226373   1.565   6.219   2.477
 8492SOL     OW26374   5.769   4.900   4.495
 8492SOL    HW126375   5.841   4.853   4.547
 8492SOL    HW226376   5.756   4.992   4.530
 8493SOL     OW26377   1.829   2.352   6.699
 8493SOL    HW126378   1.751   2.384   6.754
 8493SOL    HW226379   1.871   2.429   6.651
 8494SOL     OW26380   4.377   5.278   1.987
 8494SOL    HW126381   4.362   5.375   2.003
 8494SOL    HW226382   4.328   5.225   2.057
 8495SOL     OW26383   0.057   5.075   0.984
 8495SOL    HW126384   0.150   5.047   0.959
 8495SOL    HW226385   0.046   5.173   0.966
 8496SOL     OW26386   6.963   1.290   2.677
 8496SOL    HW126387   7.005   1.214   2.725
 8496SOL    HW226388   6.979   1.281   2.578
 8497SOL     OW26389   7.010   1.177   3.383
 8497SOL    HW126390   0.054   1.227   3.440
 8497SOL    HW226391   6.918   1.186   3.422
 8498SOL     OW26392   6.680   6.862   3.304
 8498SOL    HW126393   6.651   6.822   3.216
 8498SOL    HW226394   6.778   6.879   3.301
 8499SOL     OW26395   1.027   3.851   6.968
 8499SOL    HW126396   1.000   3.762   6.930
 8499SOL    HW226397   0.979   3.924   6.920
 8500SOL     OW26398   1.538   6.373   6.250
 8500SOL    HW126399   1.530   6.461   6.205
 8500SOL    HW226400   1.622   6.327   6.221
 8501SOL     OW26401   0.557   2.942   6.194
 8501SOL    HW126402   0.619   2.867   6.170
 8501SOL    HW226403   0.471   2.932   6.144
 8502SOL     OW26404   0.292   3.167   1.619
 8502SOL    HW126405   0.219   3.128   1.562
 8502SOL    HW226406   0.380   3.159   1.572
 8503SOL     OW26407   0.147   5.474   5.048
 8503SOL    HW126408   0.235   5.483   5.003
 8503SOL    HW226409   0.141   5.539   5.124
 8504SOL     OW26410   1.876   5.723   2.197
 8504SOL    HW126411   1.959   5.772   2.223
 8504SOL    HW226412   1.796   5.778   2.220
 8505SOL     OW26413   6.380   3.350   2.758
 8505SOL    HW126414   6.401   3.382   2.666
 8505SOL    HW226415   6.434   3.269   2.779
 8506SOL     OW26416   1.268   1.159   6.660
 8506SOL    HW126417   1.235   1.098   6.732
 8506SOL    HW226418   1.222   1.248   6.668
 8507SOL     OW26419   3.709   6.398   4.895
 8507SOL    HW126420   3.726   6.348   4.980
 8507SOL    HW226421   3.726   6.496   4.911
 8508SOL     OW26422   4.431   1.762   5.708
 8508SOL    HW126423   4.353   1.734   5.765
 8508SOL    HW226424   4.399   1.822   5.635
 8509SOL     OW26425   5.696   0.400   3.297
 8509SOL    HW126426   5.762   0.404   3.222
 8509SOL    HW226427   5.688   0.490   3.340
 8510SOL     OW26428   5.611   4.049   2.565
 8510SOL    HW126429   5.614   3.951   2.545
 8510SOL    HW226430   5.704   4.082   2.584
 8511SOL     OW26431   6.231   3.032   2.737
 8511SOL    HW126432   6.278   3.091   2.671
 8511SOL    HW226433   6.156   2.984   2.691
 8512SOL     OW26434   2.828   0.487   2.732
 8512SOL    HW126435   2.742   0.481   2.682
 8512SOL    HW226436   2.830   0.572   2.785
 8513SOL     OW26437   0.355   5.272   0.807
 8513SOL    HW126438   0.397   5.243   0.721
 8513SOL    HW226439   0.276   5.331   0.788
 8514SOL     OW26440   2.298   0.490   3.555
 8514SOL    HW126441   2.333   0.546   3.630
 8514SOL    HW226442   2.374   0.446   3.508
 8515SOL     OW26443   4.896   2.504   0.906
 8515SOL    HW126444   4.914   2.504   1.005
 8515SOL    HW226445   4.800   2.481   0.890
 8516SOL     OW26446   6.964   2.158   2.421
 8516SOL    HW126447   6.945   2.064   2.390
 8516SOL    HW226448   6.906   2.222   2.371
 8517SOL     OW26449   0.673   3.090   5.573
 8517SOL    HW126450   0.724   3.176   5.574
 8517SOL    HW226451   0.653   3.062   5.666
 8518SOL     OW26452   4.428   4.020   6.726
 8518SOL    HW126453   4.425   4.105   6.674
 8518SOL    HW226454   4.479   3.951   6.675
 8519SOL     OW26455   2.193   5.420   2.111
 8519SOL    HW126456   2.198   5.501   2.052
 8519SOL    HW226457   2.223   5.340   2.059
 8520SOL     OW26458   3.904   0.838   0.320
 8520SOL    HW126459   3.991   0.868   0.282
 8520SOL    HW226460   3.893   0.875   0.413
 8521SOL     OW26461   1.830   5.803   5.683
 8521SOL    HW126462   1.786   5.795   5.772
 8521SOL    HW226463   1.923   5.765   5.688
 8522SOL     OW26464   1.269   5.478   2.240
 8522SOL    HW126465   1.328   5.558   2.256
 8522SOL    HW226466   1.321   5.407   2.193
 8523SOL     OW26467   2.889   6.488   6.501
 8523SOL    HW126468   2.797   6.460   6.475
 8523SOL    HW226469   2.955   6.445   6.440
 8524SOL     OW26470   1.485   2.845   4.687
 8524SOL    HW126471   1.467   2.762   4.740
 8524SOL    HW226472   1.553   2.826   4.617
 8525SOL     OW26473   5.997   3.934   3.629
 8525SOL    HW126474   6.049   4.018   3.642
 8525SOL    HW226475   6.032   3.863   3.691
 8526SOL     OW26476   2.669   4.157   1.116
 8526SOL    HW126477   2.705   4.141   1.025
 8526SOL    HW226478   2.585   4.211   1.110
 8527SOL     OW26479   3.456   6.889   4.907
 8527SOL    HW126480   3.420   6.854   4.820
 8527SOL    HW226481   3.472   6.988   4.898
 8528SOL     OW26482   5.383   3.302   6.031
 8528SOL    HW126483   5.302   3.265   6.075
 8528SOL    HW226484   5.357   3.350   5.947
 8529SOL     OW26485   1.179   0.232   0.147
 8529SOL    HW126486   1.265   0.208   0.191
 8529SOL    HW226487   1.182   0.204   0.051
 8530SOL     OW26488   1.135   5.006   5.950
 8530SOL    HW126489   1.091   5.071   6.012
 8530SOL    HW226490   1.187   4.939   6.003
 8531SOL     OW26491   5.642   4.375   3.005
 8531SOL    HW126492   5.582   4.319   2.949
 8531SOL    HW226493   5.702   4.430   2.947
 8532SOL     OW26494   4.417   4.763   4.909
 8532SOL    HW126495   4.392   4.815   4.991
 8532SOL    HW226496   4.411   4.665   4.928
 8533SOL     OW26497   1.658   0.663   5.273
 8533SOL    HW126498   1.649   0.610   5.356
 8533SOL    HW226499   1.721   0.617   5.210
 8534SOL     OW26500   0.388   4.071   3.487
 8534SOL    HW126501   0.445   4.069   3.569
 8534SOL    HW226502   0.394   3.983   3.440
 8535SOL     OW26503   0.882   2.148   5.121
 8535SOL    HW126504   0.818   2.072   5.112
 8535SOL    HW226505   0.861   2.218   5.053
 8536SOL     OW26506   6.315   2.207   4.990
 8536SOL    HW126507   6.305   2.273   4.915
 8536SOL    HW226508   6.224   2.183   5.025
 8537SOL     OW26509   6.582   1.414   0.905
 8537SOL    HW126510   6.675   1.394   0.936
 8537SOL    HW226511   6.556   1.506   0.935
 8538SOL     OW26512   0.548   0.463   4.989
 8538SOL    HW126513   0.575   0.488   5.082
 8538SOL    HW226514   0.626   0.472   4.928
 8539SOL     OW26515   6.283   2.160   2.227
 8539SOL    HW126516   6.243   2.233   2.282
 8539SOL    HW226517   6.214   2.126   2.163
 8540SOL     OW26518   3.837   1.261   0.311
 8540SOL    HW126519   3.894   1.240   0.391
 8540SOL    HW226520   3.820   1.360   0.307
 8541SOL     OW26521   2.733   2.198   5.067
 8541SOL    HW126522   2.754   2.157   4.978
 8541SOL    HW226523   2.680   2.133   5.121
 8542SOL     OW26524   3.108   4.407   6.734
 8542SOL    HW126525   3.106   4.506   6.747
 8542SOL    HW226526   3.081   4.362   6.819
 8543SOL     OW26527   2.850   1.493   5.217
 8543SOL    HW126528   2.838   1.484   5.316
 8543SOL    HW226529   2.948   1.499   5.196
 8544SOL     OW26530   5.428   3.143   5.191
 8544SOL    HW126531   5.449   3.114   5.097
 8544SOL    HW226532   5.460   3.073   5.255
 8545SOL     OW26533   3.108   6.697   4.626
 8545SOL    HW126534   3.082   6.602   4.643
 8545SOL    HW226535   3.042   6.739   4.563
 8546SOL     OW26536   5.729   0.446   1.348
 8546SOL    HW126537   5.814   0.472   1.303
 8546SOL    HW226538   5.706   0.352   1.323
 8547SOL     OW26539   6.810   0.798   5.444
 8547SOL    HW126540   6.710   0.798   5.444
 8547SOL    HW226541   6.843   0.856   5.369
 8548SOL     OW26542   0.445   2.985   5.405
 8548SOL    HW126543   0.476   2.980   5.310
 8548SOL    HW226544   0.518   3.024   5.461
 8549SOL     OW26545   0.966   2.247   4.211
 8549SOL    HW126546   1.017   2.331   4.191
 8549SOL    HW226547   0.976   2.225   4.308
 8550SOL     OW26548   0.852   3.662   6.354
 8550SOL    HW126549   0.937   3.609   6.358
 8550SOL    HW226550   0.774   3.600   6.359
 8551SOL     OW26551   2.415   2.571   6.900
 8551SOL    HW126552   2.477   2.542   6.972
 8551SOL    HW226553   2.324   2.535   6.918
 8552SOL     OW26554   3.002   0.409   2.042
 8552SOL    HW126555   2.910   0.392   2.078
 8552SOL    HW226556   2.995   0.446   1.949
 8553SOL     OW26557   4.346   4.204   0.488
 8553SOL    HW126558   4.288   4.140   0.436
 8553SOL    HW226559   4.358   4.169   0.581
 8554SOL     OW26560   0.786   6.246   1.940
 8554SOL    HW126561   0.757   6.153   1.920
 8554SOL    HW226562   0.879   6.261   1.904
 8555SOL     OW26563   4.349   1.781   3.181
 8555SOL    HW126564   4.429   1.721   3.177
 8555SOL    HW226565   4.353   1.838   3.262
 8556SOL     OW26566   1.669   6.378   5.597
 8556SOL    HW126567   1.751   6.326   5.574
 8556SOL    HW226568   1.636   6.351   5.687
 8557SOL     OW26569   6.294   1.168   1.180
 8557SOL    HW126570   6.346   1.165   1.095
 8557SOL    HW226571   6.336   1.107   1.247
 8558SOL     OW26572   2.134   5.107   3.120
 8558SOL    HW126573   2.183   5.076   3.201
 8558SOL    HW226574   2.089   5.194   3.140
 8559SOL     OW26575   1.663   6.637   2.981
 8559SOL    HW126576   1.582   6.581   2.964
 8559SOL    HW226577   1.738   6.578   3.011
 8560SOL     OW26578   1.448   5.655   1.921
 8560SOL    HW126579   1.351   5.677   1.918
 8560SOL    HW226580   1.463   5.581   1.987
 8561SOL     OW26581   4.140   7.010   3.531
 8561SOL    HW126582   4.219   6.972   3.579
 8561SOL    HW226583   4.170   0.054   3.461
 8562SOL     OW26584   3.862   0.020   6.992
 8562SOL    HW126585   3.849   0.079   6.912
 8562SOL    HW226586   3.933   0.059   0.030
 8563SOL     OW26587   0.827   5.236   2.371
 8563SOL    HW126588   0.867   5.148   2.346
 8563SOL    HW226589   0.778   5.274   2.292
 8564SOL     OW26590   3.731   6.117   5.996
 8564SOL    HW126591   3.663   6.144   5.928
 8564SOL    HW226592   3.810   6.077   5.951
 8565SOL     OW26593   3.761   5.222   1.928
 8565SOL    HW126594   3.820   5.204   2.007
 8565SOL    HW226595   3.806   5.190   1.845
 8566SOL     OW26596   2.174   1.007   2.356
 8566SOL    HW126597   2.255   1.063   2.334
 8566SOL    HW226598   2.093   1.066   2.361
 8567SOL     OW26599   1.474   1.964   2.026
 8567SOL    HW126600   1.377   1.945   2.013
 8567SOL    HW226601   1.486   2.023   2.106
 8568SOL     OW26602   6.054   1.284   0.785
 8568SOL    HW126603   6.108   1.200   0.776
 8568SOL    HW226604   5.960   1.261   0.808
 8569SOL     OW26605   5.143   2.034   5.919
 8569SOL    HW126606   5.152   1.993   5.828
 8569SOL    HW226607   5.138   1.961   5.987
 8570SOL     OW26608   1.743   2.034   4.316
 8570SOL    HW126609   1.767   2.008   4.410
 8570SOL    HW226610   1.647   2.010   4.299
 8571SOL     OW26611   0.845   0.356   4.645
 8571SOL    HW126612   0.941   0.385   4.642
 8571SOL    HW226613   0.817   0.326   4.554
 8572SOL     OW26614   1.858   4.094   5.717
 8572SOL    HW126615   1.795   4.029   5.760
 8572SOL    HW226616   1.823   4.120   5.627
 8573SOL     OW26617   2.911   5.923   6.494
 8573SOL    HW126618   2.913   5.948   6.591
 8573SOL    HW226619   2.933   5.826   6.484
 8574SOL     OW26620   6.034   6.668   5.821
 8574SOL    HW126621   6.066   6.737   5.887
 8574SOL    HW226622   6.086   6.675   5.737
 8575SOL     OW26623   3.336   1.010   2.715
 8575SOL    HW126624   3.363   1.001   2.619
 8575SOL    HW226625   3.266   0.942   2.737
 8576SOL     OW26626   1.928   4.875   4.306
 8576SOL    HW126627   1.880   4.914   4.384
 8576SOL    HW226628   1.943   4.777   4.320
 8577SOL     OW26629   1.348   0.670   6.113
 8577SOL    HW126630   1.318   0.765   6.120
 8577SOL    HW226631   1.386   0.641   6.201
 8578SOL     OW26632   6.291   5.428   5.899
 8578SOL    HW126633   6.387   5.440   5.872
 8578SOL    HW226634   6.276   5.334   5.928
 8579SOL     OW26635   1.243   6.372   2.226
 8579SOL    HW126636   1.270   6.343   2.318
 8579SOL    HW226637   1.160   6.324   2.200
 8580SOL     OW26638   2.255   5.745   1.151
 8580SOL    HW126639   2.243   5.814   1.223
 8580SOL    HW226640   2.171   5.692   1.141
 8581SOL     OW26641   3.953   4.734   1.732
 8581SOL    HW126642   4.051   4.729   1.749
 8581SOL    HW226643   3.912   4.644   1.748
 8582SOL     OW26644   4.840   4.401   5.388
 8582SOL    HW126645   4.865   4.305   5.375
 8582SOL    HW226646   4.778   4.429   5.314
 8583SOL     OW26647   2.928   6.646   2.753
 8583SOL    HW126648   2.997   6.591   2.800
 8583SOL    HW226649   2.838   6.622   2.788
 8584SOL     OW26650   0.331   0.302   4.989
 8584SOL    HW126651   0.359   0.218   5.034
 8584SOL    HW226652   0.410   0.363   4.981
 8585SOL     OW26653   6.220   1.610   1.098
 8585SOL    HW126654   6.229   1.556   1.014
 8585SOL    HW226655   6.274   1.693   1.090
 8586SOL     OW26656   4.319   6.635   1.478
 8586SOL    HW126657   4.333   6.734   1.484
 8586SOL    HW226658   4.222   6.615   1.464
 8587SOL     OW26659   1.189   1.374   4.967
 8587SOL    HW126660   1.263   1.436   4.994
 8587SOL    HW226661   1.142   1.341   5.048
 8588SOL     OW26662   4.749   0.836   0.294
 8588SOL    HW126663   4.740   0.867   0.199
 8588SOL    HW226664   4.840   0.795   0.306
 8589SOL     OW26665   6.649   2.511   5.234
 8589SOL    HW126666   6.707   2.458   5.296
 8589SOL    HW226667   6.584   2.566   5.287
 8590SOL     OW26668   0.573   0.896   2.355
 8590SOL    HW126669   0.600   0.927   2.264
 8590SOL    HW226670   0.513   0.965   2.397
 8591SOL     OW26671   6.959   4.383   0.473
 8591SOL    HW126672   6.923   4.345   0.388
 8591SOL    HW226673   6.992   4.309   0.532
 8592SOL     OW26674   0.130   2.702   6.756
 8592SOL    HW126675   0.162   2.709   6.851
 8592SOL    HW226676   0.066   2.626   6.748
 8593SOL     OW26677   3.340   0.985   6.667
 8593SOL    HW126678   3.320   0.962   6.572
 8593SOL    HW226679   3.438   1.004   6.676
 8594SOL     OW26680   6.159   2.208   6.195
 8594SOL    HW126681   6.235   2.144   6.184
 8594SOL    HW226682   6.085   2.183   6.134
 8595SOL     OW26683   6.347   1.050   3.672
 8595SOL    HW126684   6.346   0.950   3.666
 8595SOL    HW226685   6.255   1.083   3.692
 8596SOL     OW26686   1.088   4.696   2.931
 8596SOL    HW126687   1.183   4.667   2.919
 8596SOL    HW226688   1.042   4.697   2.842
 8597SOL     OW26689   5.566   1.879   1.138
 8597SOL    HW126690   5.615   1.792   1.130
 8597SOL    HW226691   5.561   1.905   1.234
 8598SOL     OW26692   4.996   0.238   5.689
 8598SOL    HW126693   4.923   0.178   5.658
 8598SOL    HW226694   4.989   0.252   5.787
 8599SOL     OW26695   1.316   2.656   4.272
 8599SOL    HW126696   1.346   2.574   4.320
 8599SOL    HW226697   1.301   2.730   4.337
 8600SOL     OW26698   5.329   3.637   0.580
 8600SOL    HW126699   5.413   3.665   0.532
 8600SOL    HW226700   5.274   3.580   0.519
 8601SOL     OW26701   6.871   1.796   3.448
 8601SOL    HW126702   6.867   1.769   3.544
 8601SOL    HW226703   6.815   1.734   3.394
 8602SOL     OW26704   2.480   6.659   2.893
 8602SOL    HW126705   2.556   6.644   2.958
 8602SOL    HW226706   2.453   6.573   2.853
 8603SOL     OW26707   5.356   6.900   6.855
 8603SOL    HW126708   5.352   6.897   6.755
 8603SOL    HW226709   5.292   6.968   6.889
 8604SOL     OW26710   0.882   2.979   6.105
 8604SOL    HW126711   0.978   2.953   6.099
 8604SOL    HW226712   0.875   3.077   6.124
 8605SOL     OW26713   1.044   4.814   3.898
 8605SOL    HW126714   1.073   4.909   3.883
 8605SOL    HW226715   1.042   4.796   3.996
 8606SOL     OW26716   2.727   2.236   0.076
 8606SOL    HW126717   2.714   2.141   0.045
 8606SOL    HW226718   2.769   2.289   0.003
 8607SOL     OW26719   2.269   4.336   6.934
 8607SOL    HW126720   2.346   4.306   6.878
 8607SOL    HW226721   2.232   4.421   6.896
 8608SOL     OW26722   1.951   4.898   2.225
 8608SOL    HW126723   1.913   4.866   2.139
 8608SOL    HW226724   1.990   4.821   2.275
 8609SOL     OW26725   4.913   0.539   3.997
 8609SOL    HW126726   4.957   0.627   3.982
 8609SOL    HW226727   4.890   0.498   3.909
 8610SOL     OW26728   6.582   0.419   3.086
 8610SOL    HW126729   6.540   0.455   3.003
 8610SOL    HW226730   6.510   0.392   3.150
 8611SOL     OW26731   2.900   1.132   4.462
 8611SOL    HW126732   2.967   1.059   4.452
 8611SOL    HW226733   2.823   1.115   4.400
 8612SOL     OW26734   2.749   3.565   1.712
 8612SOL    HW126735   2.789   3.535   1.625
 8612SOL    HW226736   2.683   3.497   1.743
 8613SOL     OW26737   2.967   2.310   1.714
 8613SOL    HW126738   2.921   2.352   1.792
 8613SOL    HW226739   2.913   2.233   1.680
 8614SOL     OW26740   1.712   2.491   3.558
 8614SOL    HW126741   1.621   2.522   3.532
 8614SOL    HW226742   1.723   2.394   3.535
 8615SOL     OW26743   4.696   2.125   5.326
 8615SOL    HW126744   4.721   2.117   5.423
 8615SOL    HW226745   4.673   2.220   5.305
 8616SOL     OW26746   2.758   4.659   1.678
 8616SOL    HW126747   2.796   4.630   1.765
 8616SOL    HW226748   2.727   4.580   1.626
 8617SOL     OW26749   5.935   1.488   3.686
 8617SOL    HW126750   5.921   1.573   3.737
 8617SOL    HW226751   5.882   1.491   3.601
 8618SOL     OW26752   6.375   4.563   1.245
 8618SOL    HW126753   6.390   4.607   1.157
 8618SOL    HW226754   6.315   4.620   1.301
 8619SOL     OW26755   3.500   5.198   3.335
 8619SOL    HW126756   3.423   5.242   3.289
 8619SOL    HW226757   3.559   5.155   3.268
 8620SOL     OW26758   2.077   6.956   4.507
 8620SOL    HW126759   2.047   0.029   4.524
 8620SOL    HW226760   2.011   6.911   4.447
 8621SOL     OW26761   4.872   3.251   2.209
 8621SOL    HW126762   4.886   3.205   2.296
 8621SOL    HW226763   4.829   3.188   2.144
 8622SOL     OW26764   5.328   4.874   1.501
 8622SOL    HW126765   5.308   4.787   1.455
 8622SOL    HW226766   5.386   4.856   1.580
 8623SOL     OW26767   0.585   4.174   4.953
 8623SOL    HW126768   0.497   4.222   4.963
 8623SOL    HW226769   0.653   4.217   5.013
 8624SOL     OW26770   3.598   4.044   5.458
 8624SOL    HW126771   3.582   4.142   5.468
 8624SOL    HW226772   3.529   3.992   5.509
 8625SOL     OW26773   4.438   0.530   5.589
 8625SOL    HW126774   4.415   0.621   5.625
 8625SOL    HW226775   4.451   0.536   5.490
 8626SOL     OW26776   4.031   3.008   6.853
 8626SOL    HW126777   4.041   3.039   6.759
 8626SOL    HW226778   4.092   2.931   6.869
 8627SOL     OW26779   2.176   1.799   2.180
 8627SOL    HW126780   2.206   1.794   2.276
 8627SOL    HW226781   2.174   1.706   2.142
 8628SOL     OW26782   6.423   6.632   6.799
 8628SOL    HW126783   6.516   6.616   6.767
 8628SOL    HW226784   6.371   6.547   6.796
 8629SOL     OW26785   1.618   6.335   5.326
 8629SOL    HW126786   1.578   6.419   5.290
 8629SOL    HW226787   1.599   6.328   5.424
 8630SOL     OW26788   4.898   3.814   4.259
 8630SOL    HW126789   4.858   3.867   4.184
 8630SOL    HW226790   4.896   3.716   4.235
 8631SOL     OW26791   1.484   6.083   6.434
 8631SOL    HW126792   1.424   6.004   6.439
 8631SOL    HW226793   1.432   6.165   6.458
 8632SOL     OW26794   3.943   4.020   5.084
 8632SOL    HW126795   3.936   4.025   4.985
 8632SOL    HW226796   3.875   4.081   5.125
 8633SOL     OW26797   5.783   2.993   5.719
 8633SOL    HW126798   5.760   3.085   5.686
 8633SOL    HW226799   5.851   3.000   5.792
 8634SOL     OW26800   4.818   4.065   0.238
 8634SOL    HW126801   4.807   3.965   0.244
 8634SOL    HW226802   4.900   4.092   0.288
 8635SOL     OW26803   5.651   2.794   6.884
 8635SOL    HW126804   5.598   2.737   6.946
 8635SOL    HW226805   5.611   2.788   6.792
 8636SOL     OW26806   4.980   5.765   1.134
 8636SOL    HW126807   4.881   5.756   1.122
 8636SOL    HW226808   5.012   5.694   1.196
 8637SOL     OW26809   1.615   1.428   6.396
 8637SOL    HW126810   1.539   1.383   6.443
 8637SOL    HW226811   1.626   1.389   6.305
 8638SOL     OW26812   4.038   2.272   5.335
 8638SOL    HW126813   4.059   2.365   5.306
 8638SOL    HW226814   3.985   2.274   5.420
 8639SOL     OW26815   4.469   3.317   6.806
 8639SOL    HW126816   4.404   3.267   6.864
 8639SOL    HW226817   4.419   3.380   6.747
 8640SOL     OW26818   4.269   3.598   0.847
 8640SOL    HW126819   4.321   3.527   0.896
 8640SOL    HW226820   4.281   3.686   0.893
 8641SOL     OW26821   4.050   4.797   4.131
 8641SOL    HW126822   3.959   4.767   4.100
 8641SOL    HW226823   4.045   4.891   4.163
 8642SOL     OW26824   0.966   0.313   3.375
 8642SOL    HW126825   0.990   0.240   3.439
 8642SOL    HW226826   0.935   0.393   3.426
 8643SOL     OW26827   2.165   0.158   6.960
 8643SOL    HW126828   2.121   0.245   6.941
 8643SOL    HW226829   2.214   0.163   0.026
 8644SOL     OW26830   5.965   2.765   6.507
 8644SOL    HW126831   5.994   2.690   6.567
 8644SOL    HW226832   5.947   2.729   6.416
 8645SOL     OW26833   4.448   4.793   1.692
 8645SOL    HW126834   4.532   4.830   1.732
 8645SOL    HW226835   4.443   4.819   1.596
 8646SOL     OW26836   0.619   1.983   6.760
 8646SOL    HW126837   0.520   1.970   6.765
 8646SOL    HW226838   0.658   1.918   6.695
 8647SOL     OW26839   1.961   5.081   6.972
 8647SOL    HW126840   1.972   5.139   0.033
 8647SOL    HW226841   1.952   4.986   7.000
 8648SOL     OW26842   6.139   6.601   0.613
 8648SOL    HW126843   6.049   6.605   0.568
 8648SOL    HW226844   6.166   6.694   0.640
 8649SOL     OW26845   5.791   6.269   0.564
 8649SOL    HW126846   5.822   6.309   0.478
 8649SOL    HW226847   5.746   6.182   0.545
 8650SOL     OW26848   1.573   6.760   4.919
 8650SOL    HW126849   1.485   6.774   4.964
 8650SOL    HW226850   1.558   6.718   4.829
 8651SOL     OW26851   3.858   1.517   0.550
 8651SOL    HW126852   3.762   1.541   0.566
 8651SOL    HW226853   3.880   1.433   0.600
 8652SOL     OW26854   0.933   5.156   3.618
 8652SOL    HW126855   0.985   5.234   3.583
 8652SOL    HW226856   0.968   5.072   3.576
 8653SOL     OW26857   6.372   1.406   5.898
 8653SOL    HW126858   6.373   1.346   5.978
 8653SOL    HW226859   6.417   1.493   5.921
 8654SOL     OW26860   0.237   4.671   1.166
 8654SOL    HW126861   0.221   4.763   1.128
 8654SOL    HW226862   0.317   4.675   1.226
 8655SOL     OW26863   5.360   0.685   4.121
 8655SOL    HW126864   5.274   0.645   4.152
 8655SOL    HW226865   5.403   0.734   4.196
 8656SOL     OW26866   5.453   0.973   2.090
 8656SOL    HW126867   5.466   1.064   2.129
 8656SOL    HW226868   5.450   0.980   1.990
 8657SOL     OW26869   5.798   5.937   0.045
 8657SOL    HW126870   5.822   5.953   6.970
 8657SOL    HW226871   5.829   5.846   0.073
 8658SOL     OW26872   6.239   5.584   0.574
 8658SOL    HW126873   6.300   5.652   0.531
 8658SOL    HW226874   6.293   5.523   0.632
 8659SOL     OW26875   4.606   2.343   2.710
 8659SOL    HW126876   4.599   2.316   2.613
 8659SOL    HW226877   4.699   2.375   2.728
 8660SOL     OW26878   0.313   3.022   2.639
 8660SOL    HW126879   0.391   3.033   2.578
 8660SOL    HW226880   0.329   2.945   2.701
 8661SOL     OW26881   5.942   4.102   1.300
 8661SOL    HW126882   5.982   4.064   1.384
 8661SOL    HW226883   6.014   4.147   1.247
 8662SOL     OW26884   4.125   5.826   2.227
 8662SOL    HW126885   4.084   5.848   2.138
 8662SOL    HW226886   4.168   5.908   2.265
 8663SOL     OW26887   2.594   5.020   2.428
 8663SOL    HW126888   2.652   4.973   2.495
 8663SOL    HW226889   2.613   4.986   2.336
 8664SOL     OW26890   2.418   5.208   2.366
 8664SOL    HW126891   2.465   5.289   2.332
 8664SOL    HW226892   2.485   5.137   2.387
 8665SOL     OW26893   6.130   5.536   4.441
 8665SOL    HW126894   6.075   5.617   4.418
 8665SOL    HW226895   6.105   5.505   4.533
 8666SOL     OW26896   5.111   0.639   4.254
 8666SOL    HW126897   5.038   0.587   4.212
 8666SOL    HW226898   5.162   0.581   4.318
 8667SOL     OW26899   5.202   1.717   3.888
 8667SOL    HW126900   5.295   1.751   3.902
 8667SOL    HW226901   5.203   1.646   3.817
 8668SOL     OW26902   5.425   3.463   4.956
 8668SOL    HW126903   5.514   3.441   4.997
 8668SOL    HW226904   5.356   3.400   4.991
 8669SOL     OW26905   0.615   6.129   6.288
 8669SOL    HW126906   0.584   6.221   6.314
 8669SOL    HW226907   0.644   6.079   6.370
 8670SOL     OW26908   4.802   5.117   5.802
 8670SOL    HW126909   4.853   5.202   5.816
 8670SOL    HW226910   4.719   5.118   5.857
 8671SOL     OW26911   0.213   1.772   2.337
 8671SOL    HW126912   0.216   1.830   2.418
 8671SOL    HW226913   0.211   1.676   2.365
 8672SOL     OW26914   0.676   0.095   3.565
 8672SOL    HW126915   0.694   7.017   3.564
 8672SOL    HW226916   0.639   0.122   3.653
 8673SOL     OW26917   6.614   1.563   0.376
 8673SOL    HW126918   6.586   1.525   0.287
 8673SOL    HW226919   6.647   1.656   0.364
 8674SOL     OW26920   6.717   4.725   2.547
 8674SOL    HW126921   6.810   4.750   2.573
 8674SOL    HW226922   6.658   4.724   2.629
 8675SOL     OW26923   4.341   0.957   5.496
 8675SOL    HW126924   4.337   0.857   5.496
 8675SOL    HW226925   4.436   0.987   5.487
 8676SOL     OW26926   5.226   0.209   1.536
 8676SOL    HW126927   5.208   0.285   1.474
 8676SOL    HW226928   5.309   0.161   1.506
 8677SOL     OW26929   1.796   6.021   6.052
 8677SOL    HW126930   1.711   6.073   6.051
 8677SOL    HW226931   1.852   6.046   5.973
 8678SOL     OW26932   1.124   0.549   0.865
 8678SOL    HW126933   1.167   0.465   0.831
 8678SOL    HW226934   1.027   0.548   0.843
 8679SOL     OW26935   1.851   1.097   3.645
 8679SOL    HW126936   1.842   1.112   3.547
 8679SOL    HW226937   1.841   1.185   3.693
 8680SOL     OW26938   6.034   2.550   6.651
 8680SOL    HW126939   6.056   2.453   6.650
 8680SOL    HW226940   6.117   2.603   6.670
 8681SOL     OW26941   4.545   5.181   1.378
 8681SOL    HW126942   4.507   5.102   1.329
 8681SOL    HW226943   4.577   5.152   1.468
 8682SOL     OW26944   6.834   0.646   1.427
 8682SOL    HW126945   6.758   0.638   1.492
 8682SOL    HW226946   6.812   0.716   1.359
 8683SOL     OW26947   1.738   2.912   4.859
 8683SOL    HW126948   1.755   2.915   4.761
 8683SOL    HW226949   1.689   2.994   4.887
 8684SOL     OW26950   6.782   2.899   4.696
 8684SOL    HW126951   6.863   2.909   4.753
 8684SOL    HW226952   6.714   2.968   4.722
 8685SOL     OW26953   5.759   3.103   6.353
 8685SOL    HW126954   5.821   3.075   6.279
 8685SOL    HW226955   5.777   3.046   6.434
 8686SOL     OW26956   6.263   0.061   2.318
 8686SOL    HW126957   6.232   7.007   2.259
 8686SOL    HW226958   6.196   0.075   2.392
 8687SOL     OW26959   6.103   5.097   2.998
 8687SOL    HW126960   6.112   5.177   3.056
 8687SOL    HW226961   6.191   5.075   2.957
 8688SOL     OW26962   1.332   4.019   6.637
 8688SOL    HW126963   1.302   3.993   6.729
 8688SOL    HW226964   1.418   4.069   6.643
 8689SOL     OW26965   4.228   3.234   6.903
 8689SOL    HW126966   4.195   3.292   6.978
 8689SOL    HW226967   4.150   3.199   6.852
 8690SOL     OW26968   0.881   3.065   2.745
 8690SOL    HW126969   0.949   3.086   2.674
 8690SOL    HW226970   0.875   2.965   2.755
 8691SOL     OW26971   2.785   1.878   5.269
 8691SOL    HW126972   2.732   1.961   5.251
 8691SOL    HW226973   2.764   1.843   5.360
 8692SOL     OW26974   3.622   0.986   4.623
 8692SOL    HW126975   3.639   1.046   4.701
 8692SOL    HW226976   3.696   0.995   4.556
 8693SOL     OW26977   6.209   0.613   6.331
 8693SOL    HW126978   6.247   0.701   6.360
 8693SOL    HW226979   6.120   0.627   6.289
 8694SOL     OW26980   6.157   2.052   4.803
 8694SOL    HW126981   6.208   2.114   4.743
 8694SOL    HW226982   6.206   1.966   4.811
 8695SOL     OW26983   3.957   2.847   5.753
 8695SOL    HW126984   3.957   2.783   5.676
 8695SOL    HW226985   3.886   2.821   5.818
 8696SOL     OW26986   2.965   5.859   5.237
 8696SOL    HW126987   2.935   5.764   5.229
 8696SOL    HW226988   2.887   5.920   5.231
 8697SOL     OW26989   0.283   4.161   6.460
 8697SOL    HW126990   0.257   4.220   6.383
 8697SOL    HW226991   0.366   4.197   6.503
 8698SOL     OW26992   4.919   6.368   5.577
 8698SOL    HW126993   4.954   6.399   5.489
 8698SOL    HW226994   4.989   6.381   5.647
 8699SOL     OW26995   1.797   3.072   6.031
 8699SOL    HW126996   1.761   3.165   6.034
 8699SOL    HW226997   1.803   3.041   5.936
 8700SOL     OW26998   1.228   0.975   5.205
 8700SOL    HW126999   1.215   0.957   5.302
 8700SOL    HW227000   1.309   0.927   5.172
 8701SOL     OW27001   1.807   1.054   0.088
 8701SOL    HW127002   1.794   1.137   0.034
 8701SOL    HW227003   1.866   1.073   0.166
 8702SOL     OW27004   5.381   5.029   1.984
 8702SOL    HW127005   5.300   4.973   1.965
 8702SOL    HW227006   5.399   5.029   2.082
 8703SOL     OW27007   3.207   4.695   6.707
 8703SOL    HW127008   3.157   4.771   6.667
 8703SOL    HW227009   3.162   4.666   6.791
 8704SOL     OW27010   6.278   3.908   3.410
 8704SOL    HW127011   6.340   3.972   3.455
 8704SOL    HW227012   6.252   3.836   3.475
 8705SOL     OW27013   4.381   1.786   6.276
 8705SOL    HW127014   4.396   1.744   6.366
 8705SOL    HW227015   4.375   1.715   6.206
 8706SOL     OW27016   5.010   1.988   6.882
 8706SOL    HW127017   4.965   1.912   6.930
 8706SOL    HW227018   4.941   2.054   6.852
 8707SOL     OW27019   1.258   2.929   4.383
 8707SOL    HW127020   1.222   2.990   4.312
 8707SOL    HW227021   1.335   2.974   4.428
 8708SOL     OW27022   4.096   1.954   3.937
 8708SOL    HW127023   4.084   2.051   3.960
 8708SOL    HW227024   4.066   1.939   3.843
 8709SOL     OW27025   6.687   6.567   6.699
 8709SOL    HW127026   6.733   6.628   6.635
 8709SOL    HW227027   6.731   6.574   6.789
 8710SOL     OW27028   2.045   2.680   3.341
 8710SOL    HW127029   1.959   2.667   3.391
 8710SOL    HW227030   2.076   2.774   3.352
 8711SOL     OW27031   1.663   6.501   2.548
 8711SOL    HW127032   1.692   6.573   2.612
 8711SOL    HW227033   1.646   6.417   2.599
 8712SOL     OW27034   3.355   1.419   4.162
 8712SOL    HW127035   3.284   1.351   4.147
 8712SOL    HW227036   3.410   1.393   4.241
 8713SOL     OW27037   0.238   4.246   1.234
 8713SOL    HW127038   0.145   4.210   1.240
 8713SOL    HW227039   0.250   4.290   1.145
 8714SOL     OW27040   0.871   6.995   6.309
 8714SOL    HW127041   0.855   6.982   6.407
 8714SOL    HW227042   0.823   6.924   6.258
 8715SOL     OW27043   4.016   1.269   0.102
 8715SOL    HW127044   3.962   1.323   0.038
 8715SOL    HW227045   3.955   1.228   0.170
 8716SOL     OW27046   0.612   6.474   1.031
 8716SOL    HW127047   0.540   6.422   1.076
 8716SOL    HW227048   0.694   6.418   1.023
 8717SOL     OW27049   2.383   3.720   5.822
 8717SOL    HW127050   2.429   3.795   5.870
 8717SOL    HW227051   2.430   3.701   5.736
 8718SOL     OW27052   2.029   3.032   6.200
 8718SOL    HW127053   1.949   3.028   6.139
 8718SOL    HW227054   2.112   3.017   6.147
 8719SOL     OW27055   3.827   0.291   0.399
 8719SOL    HW127056   3.800   0.292   0.303
 8719SOL    HW227057   3.746   0.304   0.457
 8720SOL     OW27058   0.157   6.323   6.464
 8720SOL    HW127059   0.145   6.324   6.563
 8720SOL    HW227060   0.239   6.374   6.439
 8721SOL     OW27061   6.349   0.342   0.352
 8721SOL    HW127062   6.265   0.291   0.336
 8721SOL    HW227063   6.427   0.279   0.355
 8722SOL     OW27064   3.844   0.950   6.901
 8722SOL    HW127065   3.913   0.878   6.906
 8722SOL    HW227066   3.789   0.949   6.984
 8723SOL     OW27067   5.559   0.011   2.418
 8723SOL    HW127068   5.609   6.974   2.482
 8723SOL    HW227069   5.461   0.007   2.438
 8724SOL     OW27070   5.905   0.802   3.938
 8724SOL    HW127071   5.877   0.894   3.909
 8724SOL    HW227072   5.970   0.765   3.871
 8725SOL     OW27073   0.789   6.178   5.383
 8725SOL    HW127074   0.785   6.111   5.309
 8725SOL    HW227075   0.883   6.211   5.392
 8726SOL     OW27076   6.652   0.676   0.749
 8726SOL    HW127077   6.566   0.680   0.800
 8726SOL    HW227078   6.726   0.712   0.806
 8727SOL     OW27079   5.808   6.666   6.956
 8727SOL    HW127080   5.856   6.687   6.871
 8727SOL    HW227081   5.729   6.726   6.966
 8728SOL     OW27082   5.109   1.809   2.176
 8728SOL    HW127083   5.136   1.714   2.186
 8728SOL    HW227084   5.060   1.839   2.258
 8729SOL     OW27085   3.072   5.187   5.405
 8729SOL    HW127086   3.031   5.276   5.426
 8729SOL    HW227087   3.134   5.161   5.478
 8730SOL     OW27088   5.047   4.494   3.464
 8730SOL    HW127089   5.044   4.404   3.508
 8730SOL    HW227090   5.063   4.483   3.366
 8731SOL     OW27091   0.860   3.099   3.267
 8731SOL    HW127092   0.904   3.103   3.178
 8731SOL    HW227093   0.794   3.023   3.269
 8732SOL     OW27094   5.874   4.438   2.125
 8732SOL    HW127095   5.903   4.428   2.220
 8732SOL    HW227096   5.828   4.526   2.113
 8733SOL     OW27097   0.804   6.169   0.322
 8733SOL    HW127098   0.725   6.107   0.317
 8733SOL    HW227099   0.786   6.240   0.389
 8734SOL     OW27100   6.568   3.167   2.845
 8734SOL    HW127101   6.597   3.075   2.820
 8734SOL    HW227102   6.647   3.229   2.841
 8735SOL     OW27103   1.037   3.400   5.261
 8735SOL    HW127104   1.063   3.320   5.315
 8735SOL    HW227105   0.939   3.417   5.272
 8736SOL     OW27106   0.289   5.161   2.151
 8736SOL    HW127107   0.359   5.171   2.080
 8736SOL    HW227108   0.328   5.183   2.240
 8737SOL     OW27109   2.601   6.304   6.987
 8737SOL    HW127110   2.691   6.263   6.974
 8737SOL    HW227111   2.533   6.232   7.001
 8738SOL     OW27112   2.171   5.420   3.495
 8738SOL    HW127113   2.087   5.384   3.453
 8738SOL    HW227114   2.226   5.466   3.425
 8739SOL     OW27115   5.351   4.459   5.849
 8739SOL    HW127116   5.421   4.519   5.886
 8739SOL    HW227117   5.264   4.508   5.842
 8740SOL     OW27118   3.656   2.082   2.622
 8740SOL    HW127119   3.657   1.994   2.668
 8740SOL    HW227120   3.574   2.091   2.566
 8741SOL     OW27121   2.389   0.517   2.641
 8741SOL    HW127122   2.332   0.584   2.688
 8741SOL    HW227123   2.332   0.460   2.581
 8742SOL     OW27124   4.352   6.945   1.789
 8742SOL    HW127125   4.361   6.870   1.723
 8742SOL    HW227126   4.397   0.005   1.753
 8743SOL     OW27127   2.041   0.819   1.251
 8743SOL    HW127128   2.085   0.780   1.171
 8743SOL    HW227129   2.083   0.907   1.273
 8744SOL     OW27130   4.360   2.907   0.512
 8744SOL    HW127131   4.405   2.987   0.471
 8744SOL    HW227132   4.400   2.823   0.473
 8745SOL     OW27133   6.576   2.232   6.388
 8745SOL    HW127134   6.557   2.145   6.343
 8745SOL    HW227135   6.574   2.218   6.488
 8746SOL     OW27136   4.937   5.748   4.943
 8746SOL    HW127137   4.881   5.818   4.987
 8746SOL    HW227138   4.878   5.686   4.890
 8747SOL     OW27139   0.457   1.125   2.431
 8747SOL    HW127140   0.449   1.221   2.456
 8747SOL    HW227141   0.368   1.081   2.438
 8748SOL     OW27142   0.962   2.081   4.767
 8748SOL    HW127143   0.924   2.156   4.822
 8748SOL    HW227144   0.888   2.020   4.739
 8749SOL     OW27145   1.787   0.928   5.337
 8749SOL    HW127146   1.726   1.007   5.339
 8749SOL    HW227147   1.733   0.844   5.329
 8750SOL     OW27148   3.901   3.489   5.642
 8750SOL    HW127149   3.842   3.440   5.707
 8750SOL    HW227150   3.904   3.586   5.666
 8751SOL     OW27151   0.101   1.009   1.636
 8751SOL    HW127152   0.131   0.972   1.724
 8751SOL    HW227153   0.064   0.935   1.579
 8752SOL     OW27154   4.221   2.759   6.395
 8752SOL    HW127155   4.167   2.676   6.380
 8752SOL    HW227156   4.259   2.790   6.308
 8753SOL     OW27157   2.428   3.072   6.919
 8753SOL    HW127158   2.407   3.041   6.826
 8753SOL    HW227159   2.344   3.103   6.963
 8754SOL     OW27160   3.209   4.462   5.678
 8754SOL    HW127161   3.151   4.532   5.720
 8754SOL    HW227162   3.158   4.416   5.605
 8755SOL     OW27163   2.300   1.269   1.350
 8755SOL    HW127164   2.224   1.322   1.389
 8755SOL    HW227165   2.385   1.298   1.393
 8756SOL     OW27166   1.429   2.901   3.617
 8756SOL    HW127167   1.346   2.850   3.636
 8756SOL    HW227168   1.457   2.885   3.522
 8757SOL     OW27169   5.015   5.782   6.336
 8757SOL    HW127170   5.104   5.754   6.372
 8757SOL    HW227171   4.995   5.876   6.363
 8758SOL     OW27172   4.696   6.538   3.508
 8758SOL    HW127173   4.707   6.453   3.559
 8758SOL    HW227174   4.703   6.520   3.410
 8759SOL     OW27175   6.132   2.300   6.700
 8759SOL    HW127176   6.230   2.292   6.714
 8759SOL    HW227177   6.084   2.267   6.781
 8760SOL     OW27178   2.427   1.521   4.391
 8760SOL    HW127179   2.404   1.618   4.393
 8760SOL    HW227180   2.502   1.503   4.455
 8761SOL     OW27181   6.254   1.669   1.710
 8761SOL    HW127182   6.340   1.623   1.732
 8761SOL    HW227183   6.185   1.601   1.686
 8762SOL     OW27184   1.136   5.853   4.107
 8762SOL    HW127185   1.125   5.825   4.012
 8762SOL    HW227186   1.047   5.849   4.153
 8763SOL     OW27187   5.342   0.616   5.347
 8763SOL    HW127188   5.329   0.538   5.286
 8763SOL    HW227189   5.392   0.688   5.298
 8764SOL     OW27190   4.620   6.132   5.920
 8764SOL    HW127191   4.622   6.100   5.825
 8764SOL    HW227192   4.689   6.203   5.933
 8765SOL     OW27193   5.737   1.532   4.701
 8765SOL    HW127194   5.721   1.629   4.721
 8765SOL    HW227195   5.797   1.493   4.769
 8766SOL     OW27196   4.179   4.183   5.386
 8766SOL    HW127197   4.199   4.238   5.305
 8766SOL    HW227198   4.082   4.191   5.410
 8767SOL     OW27199   4.155   0.050   3.028
 8767SOL    HW127200   4.097   0.053   2.947
 8767SOL    HW227201   4.099   0.055   3.111
 8768SOL     OW27202   1.264   2.241   0.998
 8768SOL    HW127203   1.320   2.170   0.954
 8768SOL    HW227204   1.287   2.247   1.095
 8769SOL     OW27205   0.017   1.562   1.844
 8769SOL    HW127206   0.049   1.637   1.786
 8769SOL    HW227207   0.077   1.553   1.923
 8770SOL     OW27208   5.074   4.566   2.378
 8770SOL    HW127209   5.167   4.548   2.408
 8770SOL    HW227210   5.059   4.665   2.373
 8771SOL     OW27211   0.381   2.620   6.206
 8771SOL    HW127212   0.406   2.556   6.278
 8771SOL    HW227213   0.348   2.705   6.247
 8772SOL     OW27214   4.808   0.579   5.880
 8772SOL    HW127215   4.825   0.576   5.782
 8772SOL    HW227216   4.893   0.559   5.929
 8773SOL     OW27217   5.497   2.850   2.956
 8773SOL    HW127218   5.542   2.862   2.868
 8773SOL    HW227219   5.506   2.755   2.986
 8774SOL     OW27220   0.522   0.447   0.287
 8774SOL    HW127221   0.494   0.357   0.319
 8774SOL    HW227222   0.621   0.450   0.274
 8775SOL     OW27223   5.026   1.010   5.406
 8775SOL    HW127224   5.035   0.947   5.484
 8775SOL    HW227225   5.090   0.984   5.334
 8776SOL     OW27226   5.130   3.287   1.770
 8776SOL    HW127227   5.036   3.305   1.797
 8776SOL    HW227228   5.132   3.220   1.696
 8777SOL     OW27229   0.229   3.347   3.749
 8777SOL    HW127230   0.272   3.264   3.715
 8777SOL    HW227231   0.229   3.346   3.849
 8778SOL     OW27232   5.020   3.452   5.572
 8778SOL    HW127233   5.071   3.418   5.651
 8778SOL    HW227234   5.011   3.551   5.579
 8779SOL     OW27235   2.744   5.497   2.802
 8779SOL    HW127236   2.811   5.427   2.824
 8779SOL    HW227237   2.652   5.462   2.821
 8780SOL     OW27238   0.363   6.743   3.505
 8780SOL    HW127239   0.396   6.660   3.549
 8780SOL    HW227240   0.265   6.735   3.488
 8781SOL     OW27241   4.582   0.227   3.409
 8781SOL    HW127242   4.536   0.295   3.352
 8781SOL    HW227243   4.568   0.136   3.371
 8782SOL     OW27244   5.812   1.751   1.781
 8782SOL    HW127245   5.731   1.692   1.782
 8782SOL    HW227246   5.890   1.702   1.819
 8783SOL     OW27247   6.662   4.032   4.749
 8783SOL    HW127248   6.597   3.973   4.701
 8783SOL    HW227249   6.717   3.977   4.811
 8784SOL     OW27250   6.409   6.133   0.373
 8784SOL    HW127251   6.326   6.085   0.403
 8784SOL    HW227252   6.416   6.221   0.420
 8785SOL     OW27253   6.554   5.221   6.401
 8785SOL    HW127254   6.510   5.170   6.327
 8785SOL    HW227255   6.508   5.310   6.412
 8786SOL     OW27256   3.534   1.528   1.644
 8786SOL    HW127257   3.509   1.589   1.719
 8786SOL    HW227258   3.477   1.445   1.648
 8787SOL     OW27259   3.299   0.499   2.221
 8787SOL    HW127260   3.306   0.490   2.122
 8787SOL    HW227261   3.381   0.460   2.263
 8788SOL     OW27262   6.702   1.289   5.372
 8788SOL    HW127263   6.768   1.281   5.447
 8788SOL    HW227264   6.615   1.248   5.400
 8789SOL     OW27265   6.874   4.256   5.389
 8789SOL    HW127266   6.902   4.174   5.339
 8789SOL    HW227267   6.792   4.236   5.443
 8790SOL     OW27268   6.561   1.061   6.720
 8790SOL    HW127269   6.612   1.028   6.799
 8790SOL    HW227270   6.616   1.049   6.638
 8791SOL     OW27271   4.721   6.481   5.117
 8791SOL    HW127272   4.758   6.515   5.031
 8791SOL    HW227273   4.625   6.455   5.103
 8792SOL     OW27274   3.280   4.953   2.753
 8792SOL    HW127275   3.207   4.936   2.687
 8792SOL    HW227276   3.369   4.945   2.707
 8793SOL     OW27277   0.456   4.836   3.844
 8793SOL    HW127278   0.473   4.775   3.922
 8793SOL    HW227279   0.543   4.864   3.805
 8794SOL     OW27280   6.074   1.106   3.670
 8794SOL    HW127281   6.042   1.126   3.763
 8794SOL    HW227282   5.996   1.095   3.609
 8795SOL     OW27283   1.405   5.175   4.905
 8795SOL    HW127284   1.438   5.099   4.961
 8795SOL    HW227285   1.448   5.260   4.935
 8796SOL     OW27286   5.980   3.450   2.944
 8796SOL    HW127287   5.898   3.462   2.999
 8796SOL    HW227288   6.057   3.427   3.003
 8797SOL     OW27289   6.837   0.188   4.302
 8797SOL    HW127290   6.745   0.180   4.263
 8797SOL    HW227291   6.875   0.097   4.316
 8798SOL     OW27292   4.226   6.058   5.913
 8798SOL    HW127293   4.216   6.019   6.005
 8798SOL    HW227294   4.258   6.152   5.921
 8799SOL     OW27295   3.050   4.877   2.494
 8799SOL    HW127296   2.972   4.835   2.540
 8799SOL    HW227297   3.034   4.879   2.396
 8800SOL     OW27298   6.106   5.127   5.425
 8800SOL    HW127299   6.121   5.184   5.505
 8800SOL    HW227300   6.138   5.174   5.343
 8801SOL     OW27301   6.264   1.757   4.552
 8801SOL    HW127302   6.262   1.789   4.646
 8801SOL    HW227303   6.346   1.792   4.507
 8802SOL     OW27304   1.625   5.533   5.744
 8802SOL    HW127305   1.609   5.523   5.646
 8802SOL    HW227306   1.664   5.623   5.763
 8803SOL     OW27307   6.700   0.484   0.310
 8803SOL    HW127308   6.641   0.564   0.302
 8803SOL    HW227309   6.754   0.491   0.394
 8804SOL     OW27310   1.985   6.340   1.192
 8804SOL    HW127311   1.983   6.439   1.200
 8804SOL    HW227312   1.891   6.306   1.180
 8805SOL     OW27313   3.894   5.375   3.778
 8805SOL    HW127314   3.955   5.407   3.706
 8805SOL    HW227315   3.830   5.448   3.803
 8806SOL     OW27316   2.064   4.881   0.800
 8806SOL    HW127317   2.057   4.829   0.885
 8806SOL    HW227318   2.152   4.862   0.757
 8807SOL     OW27319   4.468   1.296   6.655
 8807SOL    HW127320   4.440   1.332   6.566
 8807SOL    HW227321   4.392   1.300   6.719
 8808SOL     OW27322   0.046   2.267   6.768
 8808SOL    HW127323   0.064   2.327   6.690
 8808SOL    HW227324   0.055   2.320   6.852
 8809SOL     OW27325   1.990   4.411   3.504
 8809SOL    HW127326   2.007   4.499   3.459
 8809SOL    HW227327   2.077   4.363   3.517
 8810SOL     OW27328   5.630   1.188   5.307
 8810SOL    HW127329   5.706   1.225   5.361
 8810SOL    HW227330   5.665   1.128   5.235
 8811SOL     OW27331   3.625   0.629   2.876
 8811SOL    HW127332   3.677   0.625   2.961
 8811SOL    HW227333   3.581   0.718   2.867
 8812SOL     OW27334   3.137   0.463   0.398
 8812SOL    HW127335   3.177   0.420   0.317
 8812SOL    HW227336   3.180   0.552   0.412
 8813SOL     OW27337   1.721   4.738   2.883
 8813SOL    HW127338   1.809   4.700   2.910
 8813SOL    HW227339   1.649   4.697   2.939
 8814SOL     OW27340   5.703   6.475   0.704
 8814SOL    HW127341   5.699   6.465   0.803
 8814SOL    HW227342   5.754   6.399   0.664
 8815SOL     OW27343   5.627   0.193   1.294
 8815SOL    HW127344   5.559   0.231   1.357
 8815SOL    HW227345   5.581   0.138   1.224
 8816SOL     OW27346   0.660   0.256   6.822
 8816SOL    HW127347   0.756   0.260   6.796
 8816SOL    HW227348   0.614   0.341   6.794
 8817SOL     OW27349   6.897   3.642   4.375
 8817SOL    HW127350   6.916   3.546   4.396
 8817SOL    HW227351   6.895   3.695   4.460
 8818SOL     OW27352   1.254   6.276   3.754
 8818SOL    HW127353   1.204   6.235   3.677
 8818SOL    HW227354   1.328   6.334   3.719
 8819SOL     OW27355   6.048   4.363   5.448
 8819SOL    HW127356   6.109   4.313   5.510
 8819SOL    HW227357   6.100   4.429   5.395
 8820SOL     OW27358   2.908   1.769   4.572
 8820SOL    HW127359   2.882   1.817   4.488
 8820SOL    HW227360   2.962   1.829   4.630
 8821SOL     OW27361   1.011   5.628   0.665
 8821SOL    HW127362   1.105   5.660   0.651
 8821SOL    HW227363   1.004   5.532   0.636
 8822SOL     OW27364   0.640   0.284   3.382
 8822SOL    HW127365   0.644   0.206   3.444
 8822SOL    HW227366   0.667   0.367   3.431
 8823SOL     OW27367   2.436   0.818   2.568
 8823SOL    HW127368   2.501   0.786   2.637
 8823SOL    HW227369   2.417   0.915   2.582
 8824SOL     OW27370   1.313   0.841   0.937
 8824SOL    HW127371   1.221   0.847   0.975
 8824SOL    HW227372   1.352   0.933   0.929
 8825SOL     OW27373   0.525   0.820   1.489
 8825SOL    HW127374   0.564   0.904   1.528
 8825SOL    HW227375   0.598   0.763   1.453
 8826SOL     OW27376   1.362   3.332   1.134
 8826SOL    HW127377   1.332   3.427   1.144
 8826SOL    HW227378   1.378   3.293   1.225
 8827SOL     OW27379   3.834   0.165   3.149
 8827SOL    HW127380   3.856   0.150   3.053
 8827SOL    HW227381   3.863   0.087   3.203
 8828SOL     OW27382   3.910   4.836   0.101
 8828SOL    HW127383   3.929   4.934   0.105
 8828SOL    HW227384   3.817   4.818   0.135
 8829SOL     OW27385   6.251   1.946   1.640
 8829SOL    HW127386   6.161   1.988   1.649
 8829SOL    HW227387   6.249   1.856   1.683
 8830SOL     OW27388   2.026   1.664   3.122
 8830SOL    HW127389   1.963   1.625   3.054
 8830SOL    HW227390   2.114   1.684   3.078
 8831SOL     OW27391   5.921   2.953   2.791
 8831SOL    HW127392   5.929   3.052   2.801
 8831SOL    HW227393   5.991   2.908   2.847
 8832SOL     OW27394   0.710   6.415   4.356
 8832SOL    HW127395   0.656   6.455   4.431
 8832SOL    HW227396   0.770   6.344   4.392
 8833SOL     OW27397   3.642   3.833   0.122
 8833SOL    HW127398   3.703   3.846   0.044
 8833SOL    HW227399   3.692   3.849   0.207
 8834SOL     OW27400   5.902   3.785   4.828
 8834SOL    HW127401   5.862   3.696   4.851
 8834SOL    HW227402   5.974   3.807   4.893
 8835SOL     OW27403   5.600   1.362   6.660
 8835SOL    HW127404   5.610   1.459   6.683
 8835SOL    HW227405   5.558   1.354   6.570
 8836SOL     OW27406   5.005   2.636   0.249
 8836SOL    HW127407   5.023   2.571   0.175
 8836SOL    HW227408   5.053   2.722   0.230
 8837SOL     OW27409   6.860   6.953   1.619
 8837SOL    HW127410   6.852   6.980   1.715
 8837SOL    HW227411   6.818   0.003   1.562
 8838SOL     OW27412   0.848   4.952   2.346
 8838SOL    HW127413   0.840   4.896   2.428
 8838SOL    HW227414   0.772   4.932   2.285
 8839SOL     OW27415   3.684   5.820   2.433
 8839SOL    HW127416   3.774   5.860   2.416
 8839SOL    HW227417   3.632   5.879   2.495
 8840SOL     OW27418   6.040   0.192   2.148
 8840SOL    HW127419   5.960   0.224   2.198
 8840SOL    HW227420   6.075   0.109   2.191
 8841SOL     OW27421   5.426   1.291   2.486
 8841SOL    HW127422   5.447   1.389   2.477
 8841SOL    HW227423   5.337   1.281   2.531
 8842SOL     OW27424   3.186   3.913   3.518
 8842SOL    HW127425   3.274   3.958   3.536
 8842SOL    HW227426   3.145   3.952   3.435
 8843SOL     OW27427   1.468   3.440   4.194
 8843SOL    HW127428   1.439   3.382   4.270
 8843SOL    HW227429   1.501   3.383   4.119
 8844SOL     OW27430   0.090   1.797   4.568
 8844SOL    HW127431   0.140   1.722   4.611
 8844SOL    HW227432   0.014   1.761   4.514
 8845SOL     OW27433   2.125   4.841   0.183
 8845SOL    HW127434   2.188   4.903   0.230
 8845SOL    HW227435   2.175   4.760   0.151
 8846SOL     OW27436   5.397   4.456   4.475
 8846SOL    HW127437   5.335   4.472   4.551
 8846SOL    HW227438   5.363   4.502   4.393
 8847SOL     OW27439   2.144   1.512   3.421
 8847SOL    HW127440   2.130   1.458   3.503
 8847SOL    HW227441   2.176   1.603   3.446
 8848SOL     OW27442   3.293   1.706   2.080
 8848SOL    HW127443   3.269   1.802   2.061
 8848SOL    HW227444   3.358   1.703   2.155
 8849SOL     OW27445   3.016   4.942   3.580
 8849SOL    HW127446   3.066   4.931   3.666
 8849SOL    HW227447   3.079   4.934   3.503
 8850SOL     OW27448   3.292   1.361   0.835
 8850SOL    HW127449   3.248   1.419   0.767
 8850SOL    HW227450   3.391   1.373   0.830
 8851SOL     OW27451   1.174   4.517   1.971
 8851SOL    HW127452   1.226   4.491   2.053
 8851SOL    HW227453   1.138   4.609   1.983
 8852SOL     OW27454   4.616   3.168   5.805
 8852SOL    HW127455   4.566   3.136   5.725
 8852SOL    HW227456   4.674   3.245   5.780
 8853SOL     OW27457   3.039   0.616   4.126
 8853SOL    HW127458   3.017   0.712   4.112
 8853SOL    HW227459   3.130   0.609   4.167
 8854SOL     OW27460   2.820   0.464   6.390
 8854SOL    HW127461   2.804   0.476   6.292
 8854SOL    HW227462   2.899   0.405   6.404
 8855SOL     OW27463   0.164   6.470   0.404
 8855SOL    HW127464   0.246   6.527   0.399
 8855SOL    HW227465   0.105   6.490   0.326
 8856SOL     OW27466   6.005   0.177   5.675
 8856SOL    HW127467   6.015   0.254   5.612
 8856SOL    HW227468   5.981   0.211   5.766
 8857SOL     OW27469   6.435   2.206   3.684
 8857SOL    HW127470   6.517   2.251   3.647
 8857SOL    HW227471   6.365   2.275   3.703
 8858SOL     OW27472   2.118   3.429   5.706
 8858SOL    HW127473   2.216   3.414   5.715
 8858SOL    HW227474   2.101   3.504   5.642
 8859SOL     OW27475   0.213   6.868   5.270
 8859SOL    HW127476   0.152   6.934   5.314
 8859SOL    HW227477   0.224   6.892   5.174
 8860SOL     OW27478   1.696   4.070   2.942
 8860SOL    HW127479   1.673   4.167   2.934
 8860SOL    HW227480   1.764   4.058   3.015
 8861SOL     OW27481   3.361   1.998   5.751
 8861SOL    HW127482   3.407   1.955   5.828
 8861SOL    HW227483   3.262   1.994   5.764
 8862SOL     OW27484   6.485   1.385   3.488
 8862SOL    HW127485   6.440   1.444   3.555
 8862SOL    HW227486   6.575   1.357   3.521
 8863SOL     OW27487   1.758   5.850   4.582
 8863SOL    HW127488   1.839   5.819   4.632
 8863SOL    HW227489   1.748   5.797   4.499
 8864SOL     OW27490   2.748   3.298   6.431
 8864SOL    HW127491   2.770   3.391   6.459
 8864SOL    HW227492   2.703   3.250   6.506
 8865SOL     OW27493   3.072   1.848   4.804
 8865SOL    HW127494   3.010   1.773   4.826
 8865SOL    HW227495   3.048   1.929   4.859
 8866SOL     OW27496   5.136   6.927   4.116
 8866SOL    HW127497   5.114   6.935   4.213
 8866SOL    HW227498   5.093   7.003   4.066
 8867SOL     OW27499   5.168   3.154   2.742
 8867SOL    HW127500   5.074   3.130   2.718
 8867SOL    HW227501   5.174   3.172   2.840
 8868SOL     OW27502   5.997   3.613   0.742
 8868SOL    HW127503   6.062   3.664   0.799
 8868SOL    HW227504   5.908   3.657   0.745
 8869SOL     OW27505   4.580   5.843   3.285
 8869SOL    HW127506   4.587   5.750   3.320
 8869SOL    HW227507   4.650   5.858   3.214
 8870SOL     OW27508   3.921   7.013   0.359
 8870SOL    HW127509   3.862   6.982   0.284
 8870SOL    HW227510   3.931   0.091   0.355
 8871SOL     OW27511   3.276   1.042   3.814
 8871SOL    HW127512   3.297   0.982   3.891
 8871SOL    HW227513   3.180   1.069   3.817
 8872SOL     OW27514   1.790   4.308   4.542
 8872SOL    HW127515   1.764   4.291   4.447
 8872SOL    HW227516   1.784   4.222   4.594
 8873SOL     OW27517   6.409   5.960   1.960
 8873SOL    HW127518   6.501   5.920   1.958
 8873SOL    HW227519   6.341   5.888   1.948
 8874SOL     OW27520   2.286   6.247   0.796
 8874SOL    HW127521   2.304   6.294   0.882
 8874SOL    HW227522   2.366   6.254   0.737
 8875SOL     OW27523   0.791   3.103   5.142
 8875SOL    HW127524   0.780   3.193   5.183
 8875SOL    HW227525   0.831   3.040   5.209
 8876SOL     OW27526   0.983   6.925   4.742
 8876SOL    HW127527   1.044   6.950   4.817
 8876SOL    HW227528   1.037   6.912   4.658
 8877SOL     OW27529   3.113   0.678   4.906
 8877SOL    HW127530   3.044   0.660   4.836
 8877SOL    HW227531   3.202   0.647   4.875
 8878SOL     OW27532   0.617   5.406   0.561
 8878SOL    HW127533   0.656   5.410   0.653
 8878SOL    HW227534   0.535   5.348   0.562
 8879SOL     OW27535   5.872   4.733   1.177
 8879SOL    HW127536   5.792   4.738   1.237
 8879SOL    HW227537   5.952   4.768   1.226
 8880SOL     OW27538   0.134   5.503   4.425
 8880SOL    HW127539   0.091   5.559   4.496
 8880SOL    HW227540   0.134   5.553   4.338
 8881SOL     OW27541   6.068   0.220   4.143
 8881SOL    HW127542   6.139   0.178   4.199
 8881SOL    HW227543   6.001   0.265   4.202
 8882SOL     OW27544   5.008   1.657   0.713
 8882SOL    HW127545   4.985   1.728   0.780
 8882SOL    HW227546   4.928   1.599   0.698
 8883SOL     OW27547   0.828   0.753   5.722
 8883SOL    HW127548   0.764   0.809   5.775
 8883SOL    HW227549   0.853   0.801   5.638
 8884SOL     OW27550   5.720   5.641   6.374
 8884SOL    HW127551   5.636   5.598   6.405
 8884SOL    HW227552   5.722   5.641   6.274
 8885SOL     OW27553   6.818   3.582   1.419
 8885SOL    HW127554   6.806   3.678   1.442
 8885SOL    HW227555   6.893   3.573   1.354
 8886SOL     OW27556   3.296   6.845   5.343
 8886SOL    HW127557   3.364   6.904   5.385
 8886SOL    HW227558   3.340   6.780   5.281
 8887SOL     OW27559   3.168   1.101   0.911
 8887SOL    HW127560   3.193   1.198   0.909
 8887SOL    HW227561   3.231   1.050   0.852
 8888SOL     OW27562   1.159   1.841   1.108
 8888SOL    HW127563   1.170   1.886   1.019
 8888SOL    HW227564   1.153   1.742   1.094
 8889SOL     OW27565   5.321   6.547   5.476
 8889SOL    HW127566   5.275   6.468   5.517
 8889SOL    HW227567   5.398   6.574   5.534
 8890SOL     OW27568   6.518   5.983   3.985
 8890SOL    HW127569   6.524   5.984   3.886
 8890SOL    HW227570   6.441   6.040   4.014
 8891SOL     OW27571   6.020   3.264   6.009
 8891SOL    HW127572   5.970   3.345   6.040
 8891SOL    HW227573   6.061   3.283   5.920
 8892SOL     OW27574   3.400   5.845   3.603
 8892SOL    HW127575   3.304   5.819   3.599
 8892SOL    HW227576   3.408   5.945   3.600
 8893SOL     OW27577   1.120   0.695   1.927
 8893SOL    HW127578   1.179   0.775   1.939
 8893SOL    HW227579   1.060   0.710   1.848
 8894SOL     OW27580   3.954   2.597   5.647
 8894SOL    HW127581   3.891   2.595   5.570
 8894SOL    HW227582   4.046   2.575   5.617
 8895SOL     OW27583   6.730   1.487   1.561
 8895SOL    HW127584   6.752   1.530   1.649
 8895SOL    HW227585   6.661   1.416   1.575
 8896SOL     OW27586   1.845   3.200   4.711
 8896SOL    HW127587   1.925   3.140   4.709
 8896SOL    HW227588   1.874   3.292   4.737
 8897SOL     OW27589   2.291   1.703   3.012
 8897SOL    HW127590   2.345   1.726   2.931
 8897SOL    HW227591   2.281   1.784   3.070
 8898SOL     OW27592   6.093   3.321   4.712
 8898SOL    HW127593   6.125   3.247   4.771
 8898SOL    HW227594   6.165   3.346   4.647
 8899SOL     OW27595   1.580   4.897   0.427
 8899SOL    HW127596   1.677   4.893   0.449
 8899SOL    HW227597   1.564   4.859   0.337
 8900SOL     OW27598   5.567   3.472   2.959
 8900SOL    HW127599   5.634   3.505   3.026
 8900SOL    HW227600   5.523   3.550   2.915
 8901SOL     OW27601   2.453   1.021   4.307
 8901SOL    HW127602   2.429   1.077   4.227
 8901SOL    HW227603   2.530   1.064   4.354
 8902SOL     OW27604   3.200   6.253   6.993
 8902SOL    HW127605   3.251   6.332   0.006
 8902SOL    HW227606   3.218   6.174   0.032
 8903SOL     OW27607   1.443   0.892   4.421
 8903SOL    HW127608   1.455   0.794   4.408
 8903SOL    HW227609   1.346   0.912   4.434
 8904SOL     OW27610   6.587   5.709   3.668
 8904SOL    HW127611   6.572   5.614   3.694
 8904SOL    HW227612   6.517   5.767   3.711
 8905SOL     OW27613   2.233   4.168   4.723
 8905SOL    HW127614   2.169   4.098   4.691
 8905SOL    HW227615   2.240   4.163   4.823
 8906SOL     OW27616   0.133   0.023   6.882
 8906SOL    HW127617   0.206   6.989   6.922
 8906SOL    HW227618   0.115   0.103   6.940
 8907SOL     OW27619   3.159   2.130   4.737
 8907SOL    HW127620   3.153   2.033   4.759
 8907SOL    HW227621   3.209   2.178   4.809
 8908SOL     OW27622   1.395   3.141   6.919
 8908SOL    HW127623   1.431   3.235   6.926
 8908SOL    HW227624   1.467   3.081   6.886
 8909SOL     OW27625   1.344   0.657   4.922
 8909SOL    HW127626   1.413   0.680   4.990
 8909SOL    HW227627   1.258   0.636   4.968
 8910SOL     OW27628   2.049   3.471   6.022
 8910SOL    HW127629   1.998   3.411   5.961
 8910SOL    HW227630   2.142   3.484   5.988
 8911SOL     OW27631   4.149   2.200   4.848
 8911SOL    HW127632   4.170   2.298   4.854
 8911SOL    HW227633   4.106   2.170   4.933
 8912SOL     OW27634   4.149   1.416   0.352
 8912SOL    HW127635   4.084   1.479   0.309
 8912SOL    HW227636   4.227   1.467   0.387
 8913SOL     OW27637   4.555   5.274   0.566
 8913SOL    HW127638   4.632   5.222   0.601
 8913SOL    HW227639   4.470   5.230   0.592
 8914SOL     OW27640   4.280   0.798   4.814
 8914SOL    HW127641   4.215   0.874   4.819
 8914SOL    HW227642   4.370   0.833   4.789
 8915SOL     OW27643   1.133   2.860   3.778
 8915SOL    HW127644   1.073   2.796   3.731
 8915SOL    HW227645   1.132   2.948   3.731
 8916SOL     OW27646   0.705   3.165   1.945
 8916SOL    HW127647   0.641   3.226   1.897
 8916SOL    HW227648   0.794   3.211   1.954
 8917SOL     OW27649   5.859   4.526   6.429
 8917SOL    HW127650   5.871   4.452   6.494
 8917SOL    HW227651   5.893   4.612   6.469
 8918SOL     OW27652   0.215   5.539   1.026
 8918SOL    HW127653   0.157   5.546   1.108
 8918SOL    HW227654   0.162   5.497   0.952
 8919SOL     OW27655   4.495   3.907   0.509
 8919SOL    HW127656   4.469   3.982   0.570
 8919SOL    HW227657   4.452   3.822   0.540
 8920SOL     OW27658   0.501   7.003   6.586
 8920SOL    HW127659   0.521   7.006   6.684
 8920SOL    HW227660   0.548   0.058   6.540
 8921SOL     OW27661   2.039   2.106   3.130
 8921SOL    HW127662   1.954   2.065   3.163
 8921SOL    HW227663   2.084   2.155   3.205
 8922SOL     OW27664   2.893   5.022   1.986
 8922SOL    HW127665   2.859   5.093   2.047
 8922SOL    HW227666   2.881   5.051   1.891
 8923SOL     OW27667   1.151   3.886   5.545
 8923SOL    HW127668   1.206   3.859   5.466
 8923SOL    HW227669   1.118   3.804   5.593
 8924SOL     OW27670   3.238   5.774   5.760
 8924SOL    HW127671   3.268   5.859   5.803
 8924SOL    HW227672   3.260   5.777   5.663
 8925SOL     OW27673   0.912   0.778   2.296
 8925SOL    HW127674   0.929   0.711   2.224
 8925SOL    HW227675   0.877   0.731   2.377
 8926SOL     OW27676   6.260   3.207   0.008
 8926SOL    HW127677   6.275   3.197   6.931
 8926SOL    HW227678   6.167   3.176   0.031
 8927SOL     OW27679   1.796   2.229   4.748
 8927SOL    HW127680   1.765   2.158   4.811
 8927SOL    HW227681   1.884   2.265   4.779
 8928SOL     OW27682   6.848   0.983   5.227
 8928SOL    HW127683   6.878   0.964   5.134
 8928SOL    HW227684   6.752   1.012   5.226
 8929SOL     OW27685   0.530   3.494   4.080
 8929SOL    HW127686   0.605   3.430   4.060
 8929SOL    HW227687   0.552   3.583   4.041
 8930SOL     OW27688   2.427   4.712   4.494
 8930SOL    HW127689   2.430   4.615   4.520
 8930SOL    HW227690   2.398   4.766   4.573
 8931SOL     OW27691   3.513   2.811   0.409
 8931SOL    HW127692   3.510   2.713   0.429
 8931SOL    HW227693   3.608   2.841   0.402
 8932SOL     OW27694   5.180   0.226   0.057
 8932SOL    HW127695   5.148   0.258   0.146
 8932SOL    HW227696   5.209   0.304   0.002
 8933SOL     OW27697   1.182   2.020   5.555
 8933SOL    HW127698   1.129   1.998   5.637
 8933SOL    HW227699   1.263   2.072   5.581
 8934SOL     OW27700   2.589   5.790   3.740
 8934SOL    HW127701   2.586   5.744   3.828
 8934SOL    HW227702   2.508   5.766   3.687
 8935SOL     OW27703   5.411   4.737   1.778
 8935SOL    HW127704   5.338   4.791   1.821
 8935SOL    HW227705   5.376   4.646   1.755
 8936SOL     OW27706   0.749   3.428   0.952
 8936SOL    HW127707   0.725   3.517   0.912
 8936SOL    HW227708   0.847   3.427   0.975
 8937SOL     OW27709   0.473   0.452   4.214
 8937SOL    HW127710   0.516   0.534   4.175
 8937SOL    HW227711   0.415   0.409   4.145
 8938SOL     OW27712   0.066   1.296   0.275
 8938SOL    HW127713   0.132   1.289   0.349
 8938SOL    HW227714   0.017   1.209   0.265
 8939SOL     OW27715   6.344   3.107   4.559
 8939SOL    HW127716   6.413   3.111   4.487
 8939SOL    HW227717   6.319   3.200   4.586
 8940SOL     OW27718   5.250   2.018   0.586
 8940SOL    HW127719   5.205   2.096   0.629
 8940SOL    HW227720   5.341   2.045   0.554
 8941SOL     OW27721   5.222   2.242   1.959
 8941SOL    HW127722   5.230   2.320   2.022
 8941SOL    HW227723   5.212   2.276   1.865
 8942SOL     OW27724   0.963   5.311   4.587
 8942SOL    HW127725   0.927   5.308   4.494
 8942SOL    HW227726   0.961   5.218   4.626
 8943SOL     OW27727   4.539   4.944   0.690
 8943SOL    HW127728   4.596   4.875   0.646
 8943SOL    HW227729   4.591   5.028   0.701
 8944SOL     OW27730   5.272   5.015   4.531
 8944SOL    HW127731   5.178   5.049   4.539
 8944SOL    HW227732   5.271   4.915   4.528
 8945SOL     OW27733   6.851   2.340   4.391
 8945SOL    HW127734   6.762   2.297   4.378
 8945SOL    HW227735   6.888   2.316   4.480
 8946SOL     OW27736   3.389   0.559   4.551
 8946SOL    HW127737   3.328   0.585   4.476
 8946SOL    HW227738   3.482   0.546   4.516
 8947SOL     OW27739   2.030   3.689   6.261
 8947SOL    HW127740   1.992   3.625   6.194
 8947SOL    HW227741   2.042   3.642   6.349
 8948SOL     OW27742   6.207   5.618   3.235
 8948SOL    HW127743   6.287   5.566   3.208
 8948SOL    HW227744   6.194   5.611   3.334
 8949SOL     OW27745   4.058   6.075   0.147
 8949SOL    HW127746   3.959   6.075   0.155
 8949SOL    HW227747   4.099   6.037   0.230
 8950SOL     OW27748   4.420   3.332   1.439
 8950SOL    HW127749   4.411   3.362   1.534
 8950SOL    HW227750   4.500   3.375   1.398
 8951SOL     OW27751   2.052   0.988   4.440
 8951SOL    HW127752   2.150   1.003   4.457
 8951SOL    HW227753   2.025   0.899   4.479
 8952SOL     OW27754   1.567   5.449   3.216
 8952SOL    HW127755   1.564   5.531   3.273
 8952SOL    HW227756   1.515   5.376   3.261
 8953SOL     OW27757   2.013   4.753   1.029
 8953SOL    HW127758   2.037   4.671   1.081
 8953SOL    HW227759   1.923   4.785   1.056
 8954SOL     OW27760   0.168   6.656   3.870
 8954SOL    HW127761   0.252   6.619   3.830
 8954SOL    HW227762   0.091   6.636   3.809
 8955SOL     OW27763   0.060   3.132   2.702
 8955SOL    HW127764   0.037   3.035   2.715
 8955SOL    HW227765   0.152   3.140   2.665
 8956SOL     OW27766   0.641   0.380   6.098
 8956SOL    HW127767   0.641   0.280   6.106
 8956SOL    HW227768   0.735   0.414   6.104
 8957SOL     OW27769   2.196   4.815   1.426
 8957SOL    HW127770   2.162   4.864   1.346
 8957SOL    HW227771   2.251   4.737   1.396
 8958SOL     OW27772   1.392   2.769   5.209
 8958SOL    HW127773   1.310   2.743   5.259
 8958SOL    HW227774   1.424   2.858   5.240
 8959SOL     OW27775   1.252   3.665   2.327
 8959SOL    HW127776   1.341   3.621   2.340
 8959SOL    HW227777   1.247   3.704   2.235
 8960SOL     OW27778   6.789   5.397   3.389
 8960SOL    HW127779   6.785   5.477   3.329
 8960SOL    HW227780   6.728   5.410   3.467
 8961SOL     OW27781   4.339   1.853   3.882
 8961SOL    HW127782   4.307   1.778   3.824
 8961SOL    HW227783   4.261   1.904   3.916
 8962SOL     OW27784   6.999   6.370   1.552
 8962SOL    HW127785   6.931   6.442   1.551
 8962SOL    HW227786   0.042   6.385   1.628
 8963SOL     OW27787   3.282   6.567   4.818
 8963SOL    HW127788   3.283   6.544   4.916
 8963SOL    HW227789   3.191   6.600   4.792
 8964SOL     OW27790   5.269   4.012   2.709
 8964SOL    HW127791   5.280   4.069   2.790
 8964SOL    HW227792   5.321   4.050   2.634
 8965SOL     OW27793   3.843   5.157   0.687
 8965SOL    HW127794   3.796   5.245   0.699
 8965SOL    HW227795   3.775   5.084   0.685
 8966SOL     OW27796   6.441   4.954   6.526
 8966SOL    HW127797   6.444   5.048   6.561
 8966SOL    HW227798   6.485   4.893   6.591
 8967SOL     OW27799   4.535   0.922   3.195
 8967SOL    HW127800   4.550   0.913   3.097
 8967SOL    HW227801   4.526   0.832   3.237
 8968SOL     OW27802   2.889   5.362   2.313
 8968SOL    HW127803   2.897   5.292   2.384
 8968SOL    HW227804   2.979   5.400   2.293
 8969SOL     OW27805   0.127   0.606   3.416
 8969SOL    HW127806   0.200   0.659   3.374
 8969SOL    HW227807   0.109   0.640   3.508
 8970SOL     OW27808   1.327   2.423   0.355
 8970SOL    HW127809   1.259   2.352   0.375
 8970SOL    HW227810   1.282   2.504   0.320
 8971SOL     OW27811   5.154   6.873   2.112
 8971SOL    HW127812   5.085   6.917   2.170
 8971SOL    HW227813   5.125   6.878   2.017
 8972SOL     OW27814   5.031   4.136   0.390
 8972SOL    HW127815   5.002   4.144   0.485
 8972SOL    HW227816   5.107   4.071   0.384
 8973SOL     OW27817   0.357   2.664   2.486
 8973SOL    HW127818   0.276   2.721   2.493
 8973SOL    HW227819   0.431   2.716   2.444
 8974SOL     OW27820   1.845   3.995   3.994
 8974SOL    HW127821   1.897   3.912   3.975
 8974SOL    HW227822   1.886   4.072   3.945
 8975SOL     OW27823   0.474   0.187   7.006
 8975SOL    HW127824   0.459   0.278   0.024
 8975SOL    HW227825   0.553   0.190   6.945
 8976SOL     OW27826   6.915   6.172   0.783
 8976SOL    HW127827   6.915   6.075   0.760
 8976SOL    HW227828   6.839   6.217   0.736
 8977SOL     OW27829   7.016   4.338   6.734
 8977SOL    HW127830   0.056   4.408   6.773
 8977SOL    HW227831   0.038   4.248   6.744
 8978SOL     OW27832   5.303   6.450   5.023
 8978SOL    HW127833   5.390   6.426   4.979
 8978SOL    HW227834   5.321   6.500   5.107
 8979SOL     OW27835   0.940   5.158   6.097
 8979SOL    HW127836   0.870   5.145   6.027
 8979SOL    HW227837   0.910   5.230   6.161
 8980SOL     OW27838   5.574   2.378   5.895
 8980SOL    HW127839   5.651   2.398   5.836
 8980SOL    HW227840   5.555   2.280   5.893
 8981SOL     OW27841   4.863   1.958   5.629
 8981SOL    HW127842   4.854   2.005   5.717
 8981SOL    HW227843   4.920   1.876   5.641
 8982SOL     OW27844   6.600   2.007   1.613
 8982SOL    HW127845   6.563   2.053   1.533
 8982SOL    HW227846   6.614   1.910   1.592
 8983SOL     OW27847   1.096   5.418   1.350
 8983SOL    HW127848   1.083   5.323   1.376
 8983SOL    HW227849   1.008   5.460   1.328
 8984SOL     OW27850   6.174   0.392   4.470
 8984SOL    HW127851   6.155   0.304   4.514
 8984SOL    HW227852   6.258   0.385   4.417
 8985SOL     OW27853   3.663   2.262   0.798
 8985SOL    HW127854   3.723   2.252   0.718
 8985SOL    HW227855   3.683   2.189   0.864
 8986SOL     OW27856   5.341   4.509   2.507
 8986SOL    HW127857   5.389   4.428   2.475
 8986SOL    HW227858   5.345   4.513   2.607
 8987SOL     OW27859   3.165   0.676   1.206
 8987SOL    HW127860   3.123   0.592   1.242
 8987SOL    HW227861   3.094   0.740   1.179
 8988SOL     OW27862   1.978   5.221   0.195
 8988SOL    HW127863   1.900   5.252   0.249
 8988SOL    HW227864   2.002   5.290   0.127
 8989SOL     OW27865   4.872   3.225   2.720
 8989SOL    HW127866   4.880   3.261   2.812
 8989SOL    HW227867   4.801   3.155   2.717
 8990SOL     OW27868   2.115   6.291   1.487
 8990SOL    HW127869   2.194   6.352   1.486
 8990SOL    HW227870   2.095   6.260   1.394
 8991SOL     OW27871   2.489   2.089   1.289
 8991SOL    HW127872   2.512   2.152   1.363
 8991SOL    HW227873   2.571   2.039   1.262
 8992SOL     OW27874   0.640   3.069   0.708
 8992SOL    HW127875   0.665   3.157   0.668
 8992SOL    HW227876   0.719   3.008   0.707
 8993SOL     OW27877   5.348   2.705   2.672
 8993SOL    HW127878   5.347   2.802   2.647
 8993SOL    HW227879   5.319   2.695   2.767
 8994SOL     OW27880   1.848   5.167   4.285
 8994SOL    HW127881   1.872   5.171   4.382
 8994SOL    HW227882   1.877   5.079   4.247
 8995SOL     OW27883   1.381   2.661   4.851
 8995SOL    HW127884   1.364   2.563   4.846
 8995SOL    HW227885   1.313   2.705   4.910
 8996SOL     OW27886   0.958   3.877   1.965
 8996SOL    HW127887   1.012   3.794   1.981
 8996SOL    HW227888   0.877   3.877   2.023
 8997SOL     OW27889   5.607   0.671   6.378
 8997SOL    HW127890   5.633   0.766   6.362
 8997SOL    HW227891   5.628   0.616   6.297
 8998SOL     OW27892   0.255   1.638   4.766
 8998SOL    HW127893   0.332   1.661   4.825
 8998SOL    HW227894   0.189   1.582   4.817
 8999SOL     OW27895   4.941   0.547   6.859
 8999SOL    HW127896   4.983   0.631   6.827
 8999SOL    HW227897   4.847   0.541   6.824
 9000SOL     OW27898   2.391   4.045   6.742
 9000SOL    HW127899   2.427   4.013   6.654
 9000SOL    HW227900   2.418   3.981   6.814
 9001SOL     OW27901   1.238   4.957   2.725
 9001SOL    HW127902   1.187   4.952   2.811
 9001SOL    HW227903   1.321   4.902   2.732
 9002SOL     OW27904   0.137   5.222   5.966
 9002SOL    HW127905   0.112   5.299   5.908
 9002SOL    HW227906   0.057   5.193   6.019
 9003SOL     OW27907   6.211   2.313   0.967
 9003SOL    HW127908   6.243   2.351   1.054
 9003SOL    HW227909   6.242   2.219   0.958
 9004SOL     OW27910   5.178   6.184   1.955
 9004SOL    HW127911   5.215   6.091   1.955
 9004SOL    HW227912   5.149   6.209   1.862
 9005SOL     OW27913   5.141   2.680   3.731
 9005SOL    HW127914   5.140   2.757   3.667
 9005SOL    HW227915   5.077   2.698   3.806
 9006SOL     OW27916   1.131   5.939   1.129
 9006SOL    HW127917   1.044   5.892   1.118
 9006SOL    HW227918   1.205   5.879   1.099
 9007SOL     OW27919   3.490   5.601   3.707
 9007SOL    HW127920   3.457   5.529   3.646
 9007SOL    HW227921   3.453   5.689   3.678
 9008SOL     OW27922   6.365   4.798   2.606
 9008SOL    HW127923   6.269   4.826   2.600
 9008SOL    HW227924   6.389   4.746   2.524
 9009SOL     OW27925   3.274   6.522   0.691
 9009SOL    HW127926   3.338   6.506   0.767
 9009SOL    HW227927   3.323   6.563   0.615
 9010SOL     OW27928   1.175   6.453   5.240
 9010SOL    HW127929   1.159   6.401   5.324
 9010SOL    HW227930   1.095   6.510   5.221
 9011SOL     OW27931   3.892   2.447   1.134
 9011SOL    HW127932   3.988   2.475   1.136
 9011SOL    HW227933   3.835   2.522   1.168
 9012SOL     OW27934   2.024   5.525   0.333
 9012SOL    HW127935   1.985   5.444   0.378
 9012SOL    HW227936   2.032   5.507   0.235
 9013SOL     OW27937   6.061   5.849   4.774
 9013SOL    HW127938   5.973   5.822   4.736
 9013SOL    HW227939   6.132   5.786   4.741
 9014SOL     OW27940   1.479   1.665   0.660
 9014SOL    HW127941   1.564   1.615   0.640
 9014SOL    HW227942   1.457   1.725   0.583
 9015SOL     OW27943   6.421   1.109   7.011
 9015SOL    HW127944   6.412   1.179   6.941
 9015SOL    HW227945   6.357   1.035   6.992
 9016SOL     OW27946   6.446   6.046   5.792
 9016SOL    HW127947   6.395   5.983   5.849
 9016SOL    HW227948   6.463   6.131   5.843
 9017SOL     OW27949   5.436   1.757   2.927
 9017SOL    HW127950   5.526   1.800   2.939
 9017SOL    HW227951   5.376   1.820   2.878
 9018SOL     OW27952   3.612   1.578   5.344
 9018SOL    HW127953   3.608   1.674   5.369
 9018SOL    HW227954   3.572   1.522   5.417
 9019SOL     OW27955   1.675   6.706   0.656
 9019SOL    HW127956   1.583   6.694   0.694
 9019SOL    HW227957   1.669   6.719   0.557
 9020SOL     OW27958   1.934   3.974   2.243
 9020SOL    HW127959   1.891   3.902   2.188
 9020SOL    HW227960   1.864   4.024   2.293
 9021SOL     OW27961   6.796   6.908   3.857
 9021SOL    HW127962   6.701   6.917   3.824
 9021SOL    HW227963   6.810   6.816   3.893
 9022SOL     OW27964   2.847   0.490   0.350
 9022SOL    HW127965   2.823   0.431   0.273
 9022SOL    HW227966   2.862   0.433   0.431
 9023SOL     OW27967   3.722   3.386   3.512
 9023SOL    HW127968   3.698   3.383   3.415
 9023SOL    HW227969   3.802   3.445   3.525
 9024SOL     OW27970   2.081   5.980   6.081
 9024SOL    HW127971   1.989   6.020   6.076
 9024SOL    HW227972   2.147   6.053   6.096
 9025SOL     OW27973   6.197   5.994   1.429
 9025SOL    HW127974   6.179   6.042   1.343
 9025SOL    HW227975   6.132   6.024   1.499
 9026SOL     OW27976   3.568   3.477   3.715
 9026SOL    HW127977   3.611   3.438   3.634
 9026SOL    HW227978   3.536   3.403   3.774
 9027SOL     OW27979   2.718   1.889   3.756
 9027SOL    HW127980   2.784   1.826   3.796
 9027SOL    HW227981   2.648   1.912   3.823
 9028SOL     OW27982   2.326   4.510   6.368
 9028SOL    HW127983   2.337   4.465   6.456
 9028SOL    HW227984   2.320   4.440   6.296
 9029SOL     OW27985   3.800   5.215   4.540
 9029SOL    HW127986   3.702   5.238   4.539
 9029SOL    HW227987   3.810   5.116   4.537
 9030SOL     OW27988   1.545   0.903   2.365
 9030SOL    HW127989   1.454   0.946   2.362
 9030SOL    HW227990   1.614   0.967   2.333
 9031SOL     OW27991   3.153   5.202   6.023
 9031SOL    HW127992   3.122   5.124   5.968
 9031SOL    HW227993   3.153   5.284   5.966
 9032SOL     OW27994   3.802   2.801   0.686
 9032SOL    HW127995   3.707   2.830   0.684
 9032SOL    HW227996   3.858   2.866   0.634
 9033SOL     OW27997   1.464   3.257   3.986
 9033SOL    HW127998   1.367   3.274   3.967
 9033SOL    HW227999   1.492   3.172   3.941
 9034SOL     OW28000   2.660   6.646   5.173
 9034SOL    HW128001   2.568   6.683   5.161
 9034SOL    HW228002   2.678   6.632   5.270
 9035SOL     OW28003   0.435   6.690   5.286
 9035SOL    HW128004   0.377   6.627   5.337
 9035SOL    HW228005   0.384   6.773   5.266
 9036SOL     OW28006   2.280   2.295   5.485
 9036SOL    HW128007   2.294   2.282   5.387
 9036SOL    HW228008   2.284   2.393   5.507
 9037SOL     OW28009   1.823   3.530   7.016
 9037SOL    HW128010   1.805   3.604   6.952
 9037SOL    HW228011   1.753   3.529   0.067
 9038SOL     OW28012   5.448   0.806   5.658
 9038SOL    HW128013   5.363   0.789   5.609
 9038SOL    HW228014   5.485   0.895   5.633
 9039SOL     OW28015   1.863   4.494   5.031
 9039SOL    HW128016   1.829   4.413   5.080
 9039SOL    HW228017   1.910   4.464   4.948
 9040SOL     OW28018   2.891   1.185   3.545
 9040SOL    HW128019   2.910   1.177   3.447
 9040SOL    HW228020   2.920   1.102   3.591
 9041SOL     OW28021   0.912   1.639   2.227
 9041SOL    HW128022   0.989   1.592   2.185
 9041SOL    HW228023   0.931   1.654   2.324
 9042SOL     OW28024   2.556   6.320   3.799
 9042SOL    HW128025   2.552   6.400   3.858
 9042SOL    HW228026   2.641   6.269   3.816
 9043SOL     OW28027   2.088   1.616   5.641
 9043SOL    HW128028   1.994   1.632   5.669
 9043SOL    HW228029   2.146   1.690   5.674
 9044SOL     OW28030   6.178   1.368   1.314
 9044SOL    HW128031   6.221   1.293   1.264
 9044SOL    HW228032   6.170   1.448   1.255
 9045SOL     OW28033   3.825   1.465   2.186
 9045SOL    HW128034   3.918   1.445   2.217
 9045SOL    HW228035   3.826   1.545   2.126
 9046SOL     OW28036   3.692   4.199   4.906
 9046SOL    HW128037   3.613   4.207   4.845
 9046SOL    HW228038   3.764   4.146   4.860
 9047SOL     OW28039   1.787   4.195   5.473
 9047SOL    HW128040   1.708   4.206   5.412
 9047SOL    HW228041   1.864   4.249   5.438
 9048SOL     OW28042   0.339   3.558   6.075
 9048SOL    HW128043   0.250   3.518   6.056
 9048SOL    HW228044   0.382   3.585   5.989
 9049SOL     OW28045   4.962   6.473   6.525
 9049SOL    HW128046   4.943   6.489   6.622
 9049SOL    HW228047   4.887   6.509   6.470
 9050SOL     OW28048   1.229   5.260   6.208
 9050SOL    HW128049   1.219   5.333   6.275
 9050SOL    HW228050   1.139   5.231   6.176
 9051SOL     OW28051   4.596   6.288   1.021
 9051SOL    HW128052   4.652   6.370   1.036
 9051SOL    HW228053   4.553   6.262   1.107
 9052SOL     OW28054   2.698   4.687   4.395
 9052SOL    HW128055   2.608   4.702   4.435
 9052SOL    HW228056   2.703   4.594   4.359
 9053SOL     OW28057   2.583   2.048   3.941
 9053SOL    HW128058   2.648   2.085   4.006
 9053SOL    HW228059   2.522   1.983   3.987
 9054SOL     OW28060   1.542   0.801   1.589
 9054SOL    HW128061   1.495   0.770   1.506
 9054SOL    HW228062   1.610   0.870   1.565
 9055SOL     OW28063   0.530   4.019   3.718
 9055SOL    HW128064   0.591   4.044   3.794
 9055SOL    HW228065   0.448   3.975   3.755
 9056SOL     OW28066   4.902   0.334   1.733
 9056SOL    HW128067   4.820   0.278   1.725
 9056SOL    HW228068   4.983   0.275   1.725
 9057SOL     OW28069   6.912   4.631   5.855
 9057SOL    HW128070   6.930   4.669   5.946
 9057SOL    HW228071   6.997   4.594   5.817
 9058SOL     OW28072   2.427   1.876   4.084
 9058SOL    HW128073   2.364   1.840   4.154
 9058SOL    HW228074   2.387   1.861   3.994
 9059SOL     OW28075   0.069   0.441   3.128
 9059SOL    HW128076   0.113   0.400   3.048
 9059SOL    HW228077   0.113   0.407   3.211
 9060SOL     OW28078   6.817   3.817   2.597
 9060SOL    HW128079   6.811   3.748   2.526
 9060SOL    HW228080   6.889   3.792   2.662
 9061SOL     OW28081   4.199   5.709   3.028
 9061SOL    HW128082   4.202   5.683   3.125
 9061SOL    HW228083   4.292   5.729   2.996
 9062SOL     OW28084   0.692   4.664   2.248
 9062SOL    HW128085   0.603   4.673   2.203
 9062SOL    HW228086   0.679   4.642   2.345
 9063SOL     OW28087   3.097   0.702   1.937
 9063SOL    HW128088   3.030   0.696   2.012
 9063SOL    HW228089   3.059   0.658   1.856
 9064SOL     OW28090   6.308   4.391   4.454
 9064SOL    HW128091   6.307   4.291   4.457
 9064SOL    HW228092   6.338   4.422   4.364
 9065SOL     OW28093   2.448   5.938   6.196
 9065SOL    HW128094   2.377   5.882   6.154
 9065SOL    HW228095   2.538   5.904   6.171
 9066SOL     OW28096   5.896   0.327   5.914
 9066SOL    HW128097   5.843   0.399   5.870
 9066SOL    HW228098   5.965   0.369   5.974
 9067SOL     OW28099   6.116   6.021   4.248
 9067SOL    HW128100   6.060   5.940   4.268
 9067SOL    HW228101   6.071   6.102   4.286
 9068SOL     OW28102   3.515   7.020   5.342
 9068SOL    HW128103   3.601   6.974   5.322
 9068SOL    HW228104   3.471   0.028   5.257
 9069SOL     OW28105   4.118   1.935   2.472
 9069SOL    HW128106   4.115   2.029   2.439
 9069SOL    HW228107   4.125   1.934   2.572
 9070SOL     OW28108   1.328   2.952   6.324
 9070SOL    HW128109   1.354   2.974   6.230
 9070SOL    HW228110   1.247   3.006   6.349
 9071SOL     OW28111   5.111   6.973   6.516
 9071SOL    HW128112   5.194   0.000   6.547
 9071SOL    HW228113   5.031   0.005   6.543
 9072SOL     OW28114   5.224   6.780   1.073
 9072SOL    HW128115   5.323   6.783   1.067
 9072SOL    HW228116   5.184   6.803   0.984
 9073SOL     OW28117   3.530   6.531   1.486
 9073SOL    HW128118   3.430   6.528   1.496
 9073SOL    HW228119   3.561   6.450   1.436
 9074SOL     OW28120   1.929   0.596   1.382
 9074SOL    HW128121   1.964   0.684   1.350
 9074SOL    HW228122   2.005   0.534   1.401
 9075SOL     OW28123   0.402   0.379   1.851
 9075SOL    HW128124   0.418   0.288   1.890
 9075SOL    HW228125   0.306   0.387   1.824
 9076SOL     OW28126   4.742   1.846   4.183
 9076SOL    HW128127   4.798   1.829   4.101
 9076SOL    HW228128   4.779   1.924   4.233
 9077SOL     OW28129   4.395   1.626   6.489
 9077SOL    HW128130   4.321   1.562   6.513
 9077SOL    HW228131   4.409   1.690   6.565
 9078SOL     OW28132   4.873   4.355   6.858
 9078SOL    HW128133   4.889   4.259   6.880
 9078SOL    HW228134   4.822   4.362   6.773
 9079SOL     OW28135   1.332   6.775   4.999
 9079SOL    HW128136   1.258   6.768   4.932
 9079SOL    HW228137   1.292   6.777   5.091
 9080SOL     OW28138   5.948   2.815   0.264
 9080SOL    HW128139   5.963   2.889   0.330
 9080SOL    HW228140   6.030   2.759   0.258
 9081SOL     OW28141   3.429   1.077   1.690
 9081SOL    HW128142   3.447   1.085   1.592
 9081SOL    HW228143   3.347   1.022   1.704
 9082SOL     OW28144   2.140   6.094   5.263
 9082SOL    HW128145   2.046   6.084   5.230
 9082SOL    HW228146   2.151   6.185   5.303
 9083SOL     OW28147   3.622   4.108   6.482
 9083SOL    HW128148   3.626   4.068   6.573
 9083SOL    HW228149   3.572   4.194   6.485
 9084SOL     OW28150   1.403   2.304   6.609
 9084SOL    HW128151   1.464   2.362   6.555
 9084SOL    HW228152   1.310   2.342   6.608
 9085SOL     OW28153   2.500   5.740   1.045
 9085SOL    HW128154   2.491   5.707   0.951
 9085SOL    HW228155   2.413   5.727   1.093
 9086SOL     OW28156   5.708   4.145   1.174
 9086SOL    HW128157   5.793   4.139   1.227
 9086SOL    HW228158   5.723   4.104   1.084
 9087SOL     OW28159   5.145   3.327   2.039
 9087SOL    HW128160   5.054   3.332   2.080
 9087SOL    HW228161   5.138   3.340   1.940
 9088SOL     OW28162   6.569   6.838   1.060
 9088SOL    HW128163   6.589   6.852   0.963
 9088SOL    HW228164   6.631   6.893   1.115
 9089SOL     OW28165   4.114   5.668   5.552
 9089SOL    HW128166   4.075   5.730   5.620
 9089SOL    HW228167   4.199   5.708   5.516
 9090SOL     OW28168   5.129   0.181   3.408
 9090SOL    HW128169   5.184   0.097   3.407
 9090SOL    HW228170   5.062   0.178   3.334
 9091SOL     OW28171   2.581   3.431   0.589
 9091SOL    HW128172   2.600   3.385   0.676
 9091SOL    HW228173   2.597   3.530   0.600
 9092SOL     OW28174   0.447   1.194   6.990
 9092SOL    HW128175   0.511   1.245   6.932
 9092SOL    HW228176   0.362   1.247   7.001
 9093SOL     OW28177   1.397   6.375   0.036
 9093SOL    HW128178   1.309   6.402   0.075
 9093SOL    HW228179   1.382   6.331   6.968
 9094SOL     OW28180   0.670   5.111   2.902
 9094SOL    HW128181   0.727   5.103   2.984
 9094SOL    HW228182   0.609   5.032   2.895
 9095SOL     OW28183   4.188   3.803   6.363
 9095SOL    HW128184   4.287   3.802   6.350
 9095SOL    HW228185   4.165   3.868   6.435
 9096SOL     OW28186   5.833   3.611   2.775
 9096SOL    HW128187   5.905   3.557   2.817
 9096SOL    HW228188   5.809   3.573   2.686
 9097SOL     OW28189   0.364   3.059   6.674
 9097SOL    HW128190   0.431   3.120   6.717
 9097SOL    HW228191   0.283   3.053   6.732
 9098SOL     OW28192   3.450   2.623   6.821
 9098SOL    HW128193   3.386   2.589   6.753
 9098SOL    HW228194   3.497   2.704   6.786
 9099SOL     OW28195   3.512   3.788   0.689
 9099SOL    HW128196   3.609   3.768   0.703
 9099SOL    HW228197   3.480   3.849   0.761
 9100SOL     OW28198   1.124   3.575   3.081
 9100SOL    HW128199   1.131   3.564   2.982
 9100SOL    HW228200   1.034   3.614   3.103
 9101SOL     OW28201   2.085   3.012   3.251
 9101SOL    HW128202   2.052   3.106   3.243
 9101SOL    HW228203   2.107   2.993   3.347
 9102SOL     OW28204   3.524   6.695   1.984
 9102SOL    HW128205   3.456   6.769   1.982
 9102SOL    HW228206   3.479   6.608   2.003
 9103SOL     OW28207   6.420   3.712   0.116
 9103SOL    HW128208   6.365   3.640   0.075
 9103SOL    HW228209   6.368   3.798   0.117
 9104SOL     OW28210   4.420   6.503   2.849
 9104SOL    HW128211   4.422   6.448   2.932
 9104SOL    HW228212   4.514   6.522   2.818
 9105SOL     OW28213   1.860   1.194   0.514
 9105SOL    HW128214   1.835   1.269   0.452
 9105SOL    HW228215   1.933   1.225   0.575
 9106SOL     OW28216   6.222   4.084   7.002
 9106SOL    HW128217   6.138   4.130   0.011
 9106SOL    HW228218   6.300   4.120   0.032
 9107SOL     OW28219   3.176   0.417   5.907
 9107SOL    HW128220   3.116   0.467   5.968
 9107SOL    HW228221   3.258   0.389   5.957
 9108SOL     OW28222   5.180   3.936   5.799
 9108SOL    HW128223   5.183   3.916   5.897
 9108SOL    HW228224   5.098   3.990   5.778
 9109SOL     OW28225   1.474   2.842   2.810
 9109SOL    HW128226   1.484   2.912   2.739
 9109SOL    HW228227   1.435   2.759   2.770
 9110SOL     OW28228   1.947   4.337   4.245
 9110SOL    HW128229   1.943   4.367   4.149
 9110SOL    HW228230   2.042   4.317   4.269
 9111SOL     OW28231   4.123   3.024   0.087
 9111SOL    HW128232   4.161   3.111   0.119
 9111SOL    HW228233   4.089   3.035   7.014
 9112SOL     OW28234   0.896   4.779   5.429
 9112SOL    HW128235   0.885   4.821   5.340
 9112SOL    HW228236   0.941   4.844   5.491
 9113SOL     OW28237   4.767   6.518   1.040
 9113SOL    HW128238   4.696   6.588   1.031
 9113SOL    HW228239   4.838   6.551   1.103
 9114SOL     OW28240   1.187   4.651   1.450
 9114SOL    HW128241   1.093   4.677   1.472
 9114SOL    HW228242   1.251   4.704   1.506
 9115SOL     OW28243   1.139   5.172   5.425
 9115SOL    HW128244   1.134   5.253   5.483
 9115SOL    HW228245   1.108   5.092   5.477
 9116SOL     OW28246   6.293   1.238   0.202
 9116SOL    HW128247   6.357   1.192   0.141
 9116SOL    HW228248   6.238   1.304   0.151
 9117SOL     OW28249   5.508   2.693   0.386
 9117SOL    HW128250   5.440   2.625   0.357
 9117SOL    HW228251   5.584   2.647   0.431
 9118SOL     OW28252   6.197   5.248   0.147
 9118SOL    HW128253   6.250   5.291   0.073
 9118SOL    HW228254   6.137   5.178   0.108
 9119SOL     OW28255   5.063   0.822   1.352
 9119SOL    HW128256   4.999   0.782   1.419
 9119SOL    HW228257   5.126   0.751   1.320
 9120SOL     OW28258   6.185   2.195   5.491
 9120SOL    HW128259   6.190   2.183   5.392
 9120SOL    HW228260   6.255   2.260   5.521
 9121SOL     OW28261   2.273   2.211   6.168
 9121SOL    HW128262   2.193   2.216   6.108
 9121SOL    HW228263   2.334   2.287   6.148
 9122SOL     OW28264   1.935   4.384   2.230
 9122SOL    HW128265   1.934   4.302   2.172
 9122SOL    HW228266   1.842   4.420   2.239
 9123SOL     OW28267   3.166   0.158   4.308
 9123SOL    HW128268   3.265   0.143   4.314
 9123SOL    HW228269   3.122   0.071   4.285
 9124SOL     OW28270   5.223   6.525   6.415
 9124SOL    HW128271   5.261   6.458   6.351
 9124SOL    HW228272   5.142   6.486   6.459
 9125SOL     OW28273   5.206   4.523   1.712
 9125SOL    HW128274   5.198   4.563   1.621
 9125SOL    HW228275   5.147   4.443   1.719
 9126SOL     OW28276   5.958   2.457   1.045
 9126SOL    HW128277   5.995   2.367   1.022
 9126SOL    HW228278   6.003   2.528   0.991
 9127SOL     OW28279   6.691   0.981   6.138
 9127SOL    HW128280   6.595   0.999   6.155
 9127SOL    HW228281   6.739   1.068   6.124
 9128SOL     OW28282   5.218   1.336   5.243
 9128SOL    HW128283   5.172   1.395   5.309
 9128SOL    HW228284   5.160   1.324   5.162
 9129SOL     OW28285   0.148   2.520   0.797
 9129SOL    HW128286   0.242   2.510   0.763
 9129SOL    HW228287   0.096   2.438   0.774
 9130SOL     OW28288   0.184   3.268   0.821
 9130SOL    HW128289   0.163   3.312   0.733
 9130SOL    HW228290   0.278   3.233   0.819
 9131SOL     OW28291   6.721   2.924   5.681
 9131SOL    HW128292   6.814   2.888   5.675
 9131SOL    HW228293   6.721   3.020   5.654
 9132SOL     OW28294   0.484   5.178   4.513
 9132SOL    HW128295   0.390   5.205   4.496
 9132SOL    HW228296   0.525   5.146   4.428
 9133SOL     OW28297   3.990   5.998   1.975
 9133SOL    HW128298   3.986   6.088   1.932
 9133SOL    HW228299   3.912   5.943   1.945
 9134SOL     OW28300   4.929   5.915   0.276
 9134SOL    HW128301   4.871   5.936   0.355
 9134SOL    HW228302   4.947   5.817   0.273
 9135SOL     OW28303   6.487   6.821   1.360
 9135SOL    HW128304   6.529   6.899   1.313
 9135SOL    HW228305   6.525   6.812   1.452
 9136SOL     OW28306   5.340   5.285   5.954
 9136SOL    HW128307   5.350   5.338   5.870
 9136SOL    HW228308   5.374   5.338   6.031
 9137SOL     OW28309   5.073   1.968   1.318
 9137SOL    HW128310   5.081   1.940   1.223
 9137SOL    HW228311   5.120   1.902   1.376
 9138SOL     OW28312   0.347   5.775   6.034
 9138SOL    HW128313   0.278   5.829   5.986
 9138SOL    HW228314   0.378   5.825   6.116
 9139SOL     OW28315   2.452   1.692   4.682
 9139SOL    HW128316   2.386   1.624   4.714
 9139SOL    HW228317   2.403   1.774   4.654
 9140SOL     OW28318   6.301   3.334   3.021
 9140SOL    HW128319   6.368   3.337   3.094
 9140SOL    HW228320   6.347   3.346   2.933
 9141SOL     OW28321   5.880   0.431   0.004
 9141SOL    HW128322   5.808   0.491   0.041
 9141SOL    HW228323   5.864   0.338   0.035
 9142SOL     OW28324   0.446   2.392   1.282
 9142SOL    HW128325   0.400   2.341   1.210
 9142SOL    HW228326   0.387   2.397   1.363
 9143SOL     OW28327   6.231   3.229   0.808
 9143SOL    HW128328   6.258   3.319   0.844
 9143SOL    HW228329   6.288   3.158   0.850
 9144SOL     OW28330   2.473   5.144   5.369
 9144SOL    HW128331   2.498   5.232   5.410
 9144SOL    HW228332   2.418   5.161   5.287
 9145SOL     OW28333   0.288   5.421   0.146
 9145SOL    HW128334   0.293   5.506   0.094
 9145SOL    HW228335   0.273   5.441   0.243
 9146SOL     OW28336   5.218   3.234   3.001
 9146SOL    HW128337   5.274   3.163   3.044
 9146SOL    HW228338   5.148   3.265   3.066
 9147SOL     OW28339   6.348   0.781   4.605
 9147SOL    HW128340   6.445   0.756   4.611
 9147SOL    HW228341   6.336   0.875   4.636
 9148SOL     OW28342   4.871   5.577   0.530
 9148SOL    HW128343   4.837   5.523   0.607
 9148SOL    HW228344   4.897   5.668   0.562
 9149SOL     OW28345   6.064   3.714   3.800
 9149SOL    HW128346   6.131   3.695   3.871
 9149SOL    HW228347   5.973   3.685   3.831
 9150SOL     OW28348   3.117   5.141   1.689
 9150SOL    HW128349   3.025   5.178   1.705
 9150SOL    HW228350   3.112   5.041   1.686
 9151SOL     OW28351   1.771   4.629   3.893
 9151SOL    HW128352   1.868   4.620   3.913
 9151SOL    HW228353   1.733   4.706   3.945
 9152SOL     OW28354   1.977   4.212   4.889
 9152SOL    HW128355   2.014   4.294   4.846
 9152SOL    HW228356   1.996   4.215   4.988
 9153SOL     OW28357   1.430   3.309   0.178
 9153SOL    HW128358   1.331   3.300   0.194
 9153SOL    HW228359   1.465   3.224   0.137
 9154SOL     OW28360   4.212   4.400   6.155
 9154SOL    HW128361   4.260   4.377   6.239
 9154SOL    HW228362   4.142   4.331   6.137
 9155SOL     OW28363   1.775   4.359   1.892
 9155SOL    HW128364   1.854   4.414   1.918
 9155SOL    HW228365   1.805   4.267   1.866
 9156SOL     OW28366   1.384   2.488   0.923
 9156SOL    HW128367   1.346   2.397   0.941
 9156SOL    HW228368   1.355   2.519   0.832
 9157SOL     OW28369   6.723   4.407   5.859
 9157SOL    HW128370   6.772   4.491   5.833
 9157SOL    HW228371   6.789   4.335   5.880
 9158SOL     OW28372   6.018   2.869   4.778
 9158SOL    HW128373   6.052   2.940   4.839
 9158SOL    HW228374   5.999   2.786   4.830
 9159SOL     OW28375   1.818   0.849   2.084
 9159SOL    HW128376   1.729   0.805   2.099
 9159SOL    HW228377   1.887   0.807   2.144
 9160SOL     OW28378   5.835   6.997   5.049
 9160SOL    HW128379   5.897   6.974   4.974
 9160SOL    HW228380   5.846   0.073   5.071
 9161SOL     OW28381   5.025   4.065   4.852
 9161SOL    HW128382   5.062   4.123   4.779
 9161SOL    HW228383   4.929   4.045   4.834
 9162SOL     OW28384   4.362   1.330   4.070
 9162SOL    HW128385   4.450   1.314   4.027
 9162SOL    HW228386   4.340   1.427   4.067
 9163SOL     OW28387   1.648   2.848   4.479
 9163SOL    HW128388   1.729   2.859   4.536
 9163SOL    HW228389   1.644   2.921   4.411
 9164SOL     OW28390   2.530   0.347   6.670
 9164SOL    HW128391   2.518   0.249   6.682
 9164SOL    HW228392   2.440   0.391   6.662
 9165SOL     OW28393   6.162   1.858   5.761
 9165SOL    HW128394   6.206   1.772   5.733
 9165SOL    HW228395   6.231   1.929   5.772
 9166SOL     OW28396   3.975   6.233   1.830
 9166SOL    HW128397   3.981   6.243   1.731
 9166SOL    HW228398   3.889   6.273   1.863
 9167SOL     OW28399   1.969   2.555   6.591
 9167SOL    HW128400   1.927   2.622   6.530
 9167SOL    HW228401   2.050   2.516   6.547
 9168SOL     OW28402   6.918   0.141   6.582
 9168SOL    HW128403   6.944   0.090   6.664
 9168SOL    HW228404   6.986   0.127   6.510
 9169SOL     OW28405   5.897   0.623   4.962
 9169SOL    HW128406   5.896   0.613   4.862
 9169SOL    HW228407   5.946   0.545   5.002
 9170SOL     OW28408   1.601   6.227   0.172
 9170SOL    HW128409   1.537   6.271   0.109
 9170SOL    HW228410   1.577   6.130   0.182
 9171SOL     OW28411   4.124   4.839   0.875
 9171SOL    HW128412   4.112   4.755   0.821
 9171SOL    HW228413   4.093   4.823   0.969
 9172SOL     OW28414   4.150   1.101   2.134
 9172SOL    HW128415   4.083   1.028   2.150
 9172SOL    HW228416   4.143   1.169   2.207
 9173SOL     OW28417   6.572   3.471   6.093
 9173SOL    HW128418   6.566   3.378   6.130
 9173SOL    HW228419   6.479   3.507   6.079
 9174SOL     OW28420   5.652   4.317   1.380
 9174SOL    HW128421   5.556   4.306   1.403
 9174SOL    HW228422   5.674   4.258   1.302
 9175SOL     OW28423   0.306   0.063   5.710
 9175SOL    HW128424   0.404   0.049   5.720
 9175SOL    HW228425   0.268   0.095   5.797
 9176SOL     OW28426   2.200   1.166   3.919
 9176SOL    HW128427   2.155   1.244   3.963
 9176SOL    HW228428   2.283   1.143   3.970
 9177SOL     OW28429   0.620   4.785   4.878
 9177SOL    HW128430   0.713   4.769   4.844
 9177SOL    HW228431   0.571   4.844   4.814
 9178SOL     OW28432   1.634   5.143   0.686
 9178SOL    HW128433   1.534   5.153   0.683
 9178SOL    HW228434   1.662   5.075   0.618
 9179SOL     OW28435   2.439   4.456   3.605
 9179SOL    HW128436   2.373   4.530   3.615
 9179SOL    HW228437   2.530   4.490   3.628
 9180SOL     OW28438   6.592   2.807   3.391
 9180SOL    HW128439   6.646   2.883   3.427
 9180SOL    HW228440   6.511   2.842   3.345
 9181SOL     OW28441   4.941   2.286   5.206
 9181SOL    HW128442   4.871   2.357   5.202
 9181SOL    HW228443   4.928   2.231   5.288
 9182SOL     OW28444   2.825   6.316   2.080
 9182SOL    HW128445   2.757   6.348   2.014
 9182SOL    HW228446   2.909   6.289   2.032
 9183SOL     OW28447   4.827   5.146   0.154
 9183SOL    HW128448   4.748   5.117   0.208
 9183SOL    HW228449   4.871   5.065   0.115
 9184SOL     OW28450   4.595   2.034   0.302
 9184SOL    HW128451   4.552   1.947   0.278
 9184SOL    HW228452   4.695   2.023   0.300
 9185SOL     OW28453   4.912   6.830   5.046
 9185SOL    HW128454   5.010   6.848   5.036
 9185SOL    HW228455   4.860   6.894   4.989
 9186SOL     OW28456   5.703   6.310   4.492
 9186SOL    HW128457   5.628   6.291   4.555
 9186SOL    HW228458   5.685   6.397   4.445
 9187SOL     OW28459   2.430   1.942   0.614
 9187SOL    HW128460   2.449   1.845   0.628
 9187SOL    HW228461   2.491   1.978   0.544
 9188SOL     OW28462   1.435   6.727   0.777
 9188SOL    HW128463   1.449   6.752   0.873
 9188SOL    HW228464   1.428   6.811   0.723
 9189SOL     OW28465   2.547   5.848   1.721
 9189SOL    HW128466   2.586   5.802   1.801
 9189SOL    HW228467   2.553   5.947   1.733
 9190SOL     OW28468   2.370   4.441   5.502
 9190SOL    HW128469   2.322   4.398   5.426
 9190SOL    HW228470   2.442   4.501   5.467
 9191SOL     OW28471   6.564   1.648   6.349
 9191SOL    HW128472   6.649   1.627   6.302
 9191SOL    HW228473   6.582   1.710   6.426
 9192SOL     OW28474   1.000   2.668   6.341
 9192SOL    HW128475   1.035   2.760   6.357
 9192SOL    HW228476   1.052   2.624   6.269
 9193SOL     OW28477   3.471   4.155   6.155
 9193SOL    HW128478   3.501   4.095   6.081
 9193SOL    HW228479   3.399   4.216   6.122
 9194SOL     OW28480   3.439   1.223   3.677
 9194SOL    HW128481   3.389   1.155   3.730
 9194SOL    HW228482   3.441   1.309   3.729
 9195SOL     OW28483   1.129   1.865   3.036
 9195SOL    HW128484   1.056   1.839   3.099
 9195SOL    HW228485   1.089   1.913   2.958
 9196SOL     OW28486   5.832   0.270   2.674
 9196SOL    HW128487   5.806   0.351   2.727
 9196SOL    HW228488   5.862   0.198   2.736
 9197SOL     OW28489   1.831   4.849   1.432
 9197SOL    HW128490   1.920   4.889   1.412
 9197SOL    HW228491   1.776   4.914   1.484
 9198SOL     OW28492   5.999   4.808   6.918
 9198SOL    HW128493   6.001   4.874   6.843
 9198SOL    HW228494   5.939   4.732   6.894
 9199SOL     OW28495   0.807   3.532   5.135
 9199SOL    HW128496   0.721   3.565   5.096
 9199SOL    HW228497   0.787   3.468   5.210
 9200SOL     OW28498   3.143   6.040   6.789
 9200SOL    HW128499   3.046   6.028   6.770
 9200SOL    HW228500   3.158   6.130   6.831
 9201SOL     OW28501   6.850   3.342   0.423
 9201SOL    HW128502   6.922   3.345   0.353
 9201SOL    HW228503   6.840   3.432   0.465
 9202SOL     OW28504   0.882   6.513   2.519
 9202SOL    HW128505   0.953   6.583   2.508
 9202SOL    HW228506   0.924   6.422   2.514
 9203SOL     OW28507   0.066   3.601   5.789
 9203SOL    HW128508   7.000   3.650   5.781
 9203SOL    HW228509   0.062   3.539   5.867
 9204SOL     OW28510   4.748   2.886   5.594
 9204SOL    HW128511   4.836   2.841   5.579
 9204SOL    HW228512   4.743   2.968   5.538
 9205SOL     OW28513   5.344   6.143   3.270
 9205SOL    HW128514   5.252   6.160   3.234
 9205SOL    HW228515   5.402   6.106   3.198
 9206SOL     OW28516   3.418   5.204   3.794
 9206SOL    HW128517   3.339   5.254   3.830
 9206SOL    HW228518   3.388   5.116   3.757
 9207SOL     OW28519   4.819   4.631   5.786
 9207SOL    HW128520   4.824   4.565   5.711
 9207SOL    HW228521   4.785   4.719   5.750
 9208SOL     OW28522   5.790   4.791   3.943
 9208SOL    HW128523   5.856   4.861   3.915
 9208SOL    HW228524   5.836   4.724   4.002
 9209SOL     OW28525   4.461   0.280   7.010
 9209SOL    HW128526   4.514   0.302   0.072
 9209SOL    HW228527   4.492   0.337   6.935
 9210SOL     OW28528   0.170   1.524   2.061
 9210SOL    HW128529   0.119   1.582   2.125
 9210SOL    HW228530   0.236   1.469   2.112
 9211SOL     OW28531   6.969   2.812   6.231
 9211SOL    HW128532   6.958   2.840   6.136
 9211SOL    HW228533   6.994   2.716   6.236
 9212SOL     OW28534   4.437   5.638   4.162
 9212SOL    HW128535   4.528   5.673   4.136
 9212SOL    HW228536   4.393   5.703   4.223
 9213SOL     OW28537   5.672   3.453   5.229
 9213SOL    HW128538   5.711   3.365   5.256
 9213SOL    HW228539   5.572   3.447   5.231
 9214SOL     OW28540   6.902   4.233   6.222
 9214SOL    HW128541   6.877   4.218   6.126
 9214SOL    HW228542   6.980   4.174   6.245
 9215SOL     OW28543   1.491   3.022   1.833
 9215SOL    HW128544   1.581   2.991   1.864
 9215SOL    HW228545   1.424   2.949   1.847
 9216SOL     OW28546   3.683   0.260   2.438
 9216SOL    HW128547   3.667   0.309   2.353
 9216SOL    HW228548   3.780   0.257   2.459
 9217SOL     OW28549   6.915   3.118   6.608
 9217SOL    HW128550   6.819   3.138   6.627
 9217SOL    HW228551   6.930   3.110   6.510
 9218SOL     OW28552   2.202   1.124   0.042
 9218SOL    HW128553   2.133   1.058   0.011
 9218SOL    HW228554   2.157   1.211   0.062
 9219SOL     OW28555   5.786   3.188   0.535
 9219SOL    HW128556   5.725   3.114   0.509
 9219SOL    HW228557   5.868   3.151   0.578
 9220SOL     OW28558   1.138   6.100   1.920
 9220SOL    HW128559   1.077   6.178   1.911
 9220SOL    HW228560   1.227   6.121   1.879
 9221SOL     OW28561   2.714   0.516   3.211
 9221SOL    HW128562   2.694   0.605   3.170
 9221SOL    HW228563   2.727   0.449   3.138
 9222SOL     OW28564   2.617   6.165   6.089
 9222SOL    HW128565   2.681   6.203   6.156
 9222SOL    HW228566   2.570   6.086   6.127
 9223SOL     OW28567   0.732   2.175   3.711
 9223SOL    HW128568   0.821   2.134   3.692
 9223SOL    HW228569   0.690   2.129   3.789
 9224SOL     OW28570   1.195   5.165   4.227
 9224SOL    HW128571   1.178   5.119   4.140
 9224SOL    HW228572   1.183   5.263   4.215
 9225SOL     OW28573   2.864   6.034   6.739
 9225SOL    HW128574   2.808   6.115   6.727
 9225SOL    HW228575   2.826   5.977   6.812
 9226SOL     OW28576   6.400   6.865   1.981
 9226SOL    HW128577   6.356   6.913   2.058
 9226SOL    HW228578   6.478   6.918   1.949
 9227SOL     OW28579   1.901   6.057   0.877
 9227SOL    HW128580   1.849   5.989   0.929
 9227SOL    HW228581   1.995   6.060   0.911
 9228SOL     OW28582   1.757   2.040   6.002
 9228SOL    HW128583   1.685   2.060   5.935
 9228SOL    HW228584   1.718   2.041   6.094
 9229SOL     OW28585   1.043   5.546   5.280
 9229SOL    HW128586   0.970   5.480   5.299
 9229SOL    HW228587   1.008   5.639   5.292
 9230SOL     OW28588   5.246   2.670   2.940
 9230SOL    HW128589   5.269   2.754   2.990
 9230SOL    HW228590   5.306   2.596   2.971
 9231SOL     OW28591   0.365   3.198   4.725
 9231SOL    HW128592   0.368   3.101   4.746
 9231SOL    HW228593   0.302   3.214   4.649
 9232SOL     OW28594   4.234   5.384   0.481
 9232SOL    HW128595   4.200   5.416   0.569
 9232SOL    HW228596   4.160   5.385   0.414
 9233SOL     OW28597   5.859   5.284   1.873
 9233SOL    HW128598   5.826   5.281   1.967
 9233SOL    HW228599   5.936   5.348   1.867
 9234SOL     OW28600   3.576   5.975   6.531
 9234SOL    HW128601   3.493   6.023   6.561
 9234SOL    HW228602   3.552   5.911   6.458
 9235SOL     OW28603   1.446   3.278   3.138
 9235SOL    HW128604   1.483   3.331   3.062
 9235SOL    HW228605   1.494   3.191   3.146
 9236SOL     OW28606   2.124   4.673   5.889
 9236SOL    HW128607   2.141   4.623   5.804
 9236SOL    HW228608   2.206   4.670   5.946
 9237SOL     OW28609   1.521   6.031   4.303
 9237SOL    HW128610   1.568   5.959   4.250
 9237SOL    HW228611   1.423   6.016   4.299
 9238SOL     OW28612   2.884   1.924   0.265
 9238SOL    HW128613   2.958   1.989   0.253
 9238SOL    HW228614   2.851   1.894   0.175
 9239SOL     OW28615   6.652   3.951   0.008
 9239SOL    HW128616   6.742   3.968   6.989
 9239SOL    HW228617   6.589   3.918   6.959
 9240SOL     OW28618   4.714   1.512   1.514
 9240SOL    HW128619   4.765   1.532   1.431
 9240SOL    HW228620   4.775   1.471   1.582
 9241SOL     OW28621   0.790   5.314   5.901
 9241SOL    HW128622   0.787   5.366   5.987
 9241SOL    HW228623   0.696   5.298   5.870
 9242SOL     OW28624   1.053   5.105   7.017
 9242SOL    HW128625   0.954   5.101   0.009
 9242SOL    HW228626   1.082   5.200   7.007
 9243SOL     OW28627   6.763   6.535   1.579
 9243SOL    HW128628   6.730   6.442   1.594
 9243SOL    HW228629   6.747   6.562   1.484
 9244SOL     OW28630   4.228   5.242   6.530
 9244SOL    HW128631   4.156   5.266   6.464
 9244SOL    HW228632   4.313   5.287   6.503
 9245SOL     OW28633   1.474   4.642   2.983
 9245SOL    HW128634   1.418   4.651   3.066
 9245SOL    HW228635   1.424   4.588   2.915
 9246SOL     OW28636   0.036   5.474   2.596
 9246SOL    HW128637   0.101   5.408   2.632
 9246SOL    HW228638   0.050   5.562   2.640
 9247SOL     OW28639   0.903   6.840   2.567
 9247SOL    HW128640   0.889   6.939   2.559
 9247SOL    HW228641   0.915   6.816   2.663
 9248SOL     OW28642   2.064   1.925   4.470
 9248SOL    HW128643   1.971   1.948   4.496
 9248SOL    HW228644   2.064   1.843   4.412
 9249SOL     OW28645   3.658   3.491   0.126
 9249SOL    HW128646   3.626   3.578   0.164
 9249SOL    HW228647   3.752   3.500   0.095
 9250SOL     OW28648   5.439   3.149   3.684
 9250SOL    HW128649   5.340   3.150   3.666
 9250SOL    HW228650   5.476   3.059   3.659
 9251SOL     OW28651   3.884   1.759   2.435
 9251SOL    HW128652   3.892   1.745   2.534
 9251SOL    HW228653   3.938   1.839   2.408
 9252SOL     OW28654   5.298   0.396   4.324
 9252SOL    HW128655   5.364   0.437   4.387
 9252SOL    HW228656   5.343   0.326   4.269
 9253SOL     OW28657   5.606   6.382   5.009
 9253SOL    HW128658   5.640   6.325   5.084
 9253SOL    HW228659   5.628   6.478   5.029
 9254SOL     OW28660   6.736   4.303   2.884
 9254SOL    HW128661   6.754   4.244   2.806
 9254SOL    HW228662   6.823   4.338   2.920
 9255SOL     OW28663   4.828   3.772   0.300
 9255SOL    HW128664   4.919   3.737   0.323
 9255SOL    HW228665   4.780   3.705   0.244
 9256SOL     OW28666   3.896   6.925   2.501
 9256SOL    HW128667   3.838   6.913   2.420
 9256SOL    HW228668   3.916   6.836   2.541
 9257SOL     OW28669   0.021   3.519   3.187
 9257SOL    HW128670   0.068   3.565   3.262
 9257SOL    HW228671   6.997   3.587   3.130
 9258SOL     OW28672   3.192   3.092   3.221
 9258SOL    HW128673   3.194   3.058   3.127
 9258SOL    HW228674   3.286   3.103   3.254
 9259SOL     OW28675   0.981   2.515   0.356
 9259SOL    HW128676   0.965   2.426   0.314
 9259SOL    HW228677   0.985   2.505   0.455
 9260SOL     OW28678   5.328   1.532   4.823
 9260SOL    HW128679   5.293   1.463   4.760
 9260SOL    HW228680   5.288   1.620   4.801
 9261SOL     OW28681   4.071   0.400   0.059
 9261SOL    HW128682   4.018   0.451   0.128
 9261SOL    HW228683   4.139   0.460   0.018
 9262SOL     OW28684   6.871   4.178   5.965
 9262SOL    HW128685   6.821   4.091   5.976
 9262SOL    HW228686   6.942   4.166   5.895
 9263SOL     OW28687   5.081   6.287   1.011
 9263SOL    HW128688   5.082   6.215   1.080
 9263SOL    HW228689   5.166   6.339   1.015
 9264SOL     OW28690   4.662   4.799   0.277
 9264SOL    HW128691   4.727   4.726   0.257
 9264SOL    HW228692   4.646   4.853   0.194
 9265SOL     OW28693   3.854   2.116   0.200
 9265SOL    HW128694   3.925   2.179   0.231
 9265SOL    HW228695   3.841   2.125   0.102
 9266SOL     OW28696   2.364   6.957   1.482
 9266SOL    HW128697   2.276   6.938   1.525
 9266SOL    HW228698   2.371   0.034   1.461
 9267SOL     OW28699   6.417   2.810   4.795
 9267SOL    HW128700   6.476   2.730   4.793
 9267SOL    HW228701   6.355   2.809   4.716
 9268SOL     OW28702   0.874   5.296   1.813
 9268SOL    HW128703   0.808   5.316   1.741
 9268SOL    HW228704   0.871   5.199   1.835
 9269SOL     OW28705   3.019   1.343   5.997
 9269SOL    HW128706   3.046   1.438   5.985
 9269SOL    HW228707   2.940   1.323   5.939
 9270SOL     OW28708   4.288   6.323   5.931
 9270SOL    HW128709   4.210   6.335   5.869
 9270SOL    HW228710   4.355   6.395   5.914
 9271SOL     OW28711   6.691   6.917   7.005
 9271SOL    HW128712   6.640   7.000   6.987
 9271SOL    HW228713   6.641   6.860   0.049
 9272SOL     OW28714   1.421   5.680   4.377
 9272SOL    HW128715   1.512   5.681   4.337
 9272SOL    HW228716   1.426   5.707   4.473
 9273SOL     OW28717   6.278   6.357   3.648
 9273SOL    HW128718   6.373   6.389   3.654
 9273SOL    HW228719   6.253   6.344   3.552
 9274SOL     OW28720   6.612   2.288   6.908
 9274SOL    HW128721   6.686   2.247   6.961
 9274SOL    HW228722   6.593   2.380   6.943
 9275SOL     OW28723   0.165   1.513   6.469
 9275SOL    HW128724   0.077   1.559   6.457
 9275SOL    HW228725   0.219   1.561   6.538
 9276SOL     OW28726   2.160   3.902   1.912
 9276SOL    HW128727   2.078   3.863   1.872
 9276SOL    HW228728   2.198   3.839   1.980
 9277SOL     OW28729   4.981   3.259   6.923
 9277SOL    HW128730   4.896   3.223   6.884
 9277SOL    HW228731   5.026   3.318   6.856
 9278SOL     OW28732   1.556   0.343   6.238
 9278SOL    HW128733   1.621   0.338   6.161
 9278SOL    HW228734   1.547   0.438   6.267
 9279SOL     OW28735   4.509   0.710   1.731
 9279SOL    HW128736   4.606   0.698   1.754
 9279SOL    HW228737   4.456   0.712   1.816
 9280SOL     OW28738   1.868   1.928   3.569
 9280SOL    HW128739   1.798   1.986   3.528
 9280SOL    HW228740   1.894   1.856   3.505
 9281SOL     OW28741   2.634   4.556   0.413
 9281SOL    HW128742   2.726   4.576   0.382
 9281SOL    HW228743   2.591   4.639   0.447
 9282SOL     OW28744   4.601   1.234   3.927
 9282SOL    HW128745   4.687   1.246   3.877
 9282SOL    HW228746   4.542   1.171   3.876
 9283SOL     OW28747   5.452   0.627   3.607
 9283SOL    HW128748   5.368   0.652   3.656
 9283SOL    HW228749   5.429   0.606   3.512
 9284SOL     OW28750   3.608   3.329   5.769
 9284SOL    HW128751   3.685   3.343   5.831
 9284SOL    HW228752   3.635   3.264   5.697
 9285SOL     OW28753   5.004   3.102   1.046
 9285SOL    HW128754   5.001   3.042   0.966
 9285SOL    HW228755   4.936   3.072   1.112
 9286SOL     OW28756   5.475   5.970   0.397
 9286SOL    HW128757   5.401   5.973   0.464
 9286SOL    HW228758   5.489   6.062   0.359
 9287SOL     OW28759   3.402   4.575   6.566
 9287SOL    HW128760   3.458   4.540   6.641
 9287SOL    HW228761   3.315   4.608   6.602
 9288SOL     OW28762   4.954   1.395   3.947
 9288SOL    HW128763   4.940   1.298   3.929
 9288SOL    HW228764   4.886   1.427   4.014
 9289SOL     OW28765   3.805   1.152   2.423
 9289SOL    HW128766   3.806   1.070   2.481
 9289SOL    HW228767   3.742   1.138   2.347
 9290SOL     OW28768   5.177   1.371   3.054
 9290SOL    HW128769   5.091   1.323   3.071
 9290SOL    HW228770   5.248   1.305   3.031
 9291SOL     OW28771   1.580   6.438   4.364
 9291SOL    HW128772   1.637   6.516   4.339
 9291SOL    HW228773   1.614   6.356   4.318
 9292SOL     OW28774   0.711   3.384   0.165
 9292SOL    HW128775   0.762   3.350   0.086
 9292SOL    HW228776   0.772   3.434   0.226
 9293SOL     OW28777   5.290   3.701   6.792
 9293SOL    HW128778   5.256   3.794   6.779
 9293SOL    HW228779   5.377   3.689   6.743
 9294SOL     OW28780   4.027   0.745   5.354
 9294SOL    HW128781   4.094   0.676   5.379
 9294SOL    HW228782   4.017   0.811   5.429
 9295SOL     OW28783   5.737   2.265   4.417
 9295SOL    HW128784   5.699   2.259   4.509
 9295SOL    HW228785   5.672   2.225   4.352
 9296SOL     OW28786   0.728   6.506   0.172
 9296SOL    HW128787   0.803   6.442   0.191
 9296SOL    HW228788   0.657   6.459   0.119
 9297SOL     OW28789   6.445   0.462   0.892
 9297SOL    HW128790   6.480   0.426   0.805
 9297SOL    HW228791   6.496   0.545   0.916
 9298SOL     OW28792   0.638   0.416   5.467
 9298SOL    HW128793   0.651   0.341   5.401
 9298SOL    HW228794   0.541   0.420   5.493
 9299SOL     OW28795   0.601   2.716   5.232
 9299SOL    HW128796   0.578   2.808   5.201
 9299SOL    HW228797   0.612   2.656   5.153
 9300SOL     OW28798   0.718   4.785   5.793
 9300SOL    HW128799   0.724   4.685   5.786
 9300SOL    HW228800   0.809   4.823   5.805
 9301SOL     OW28801   4.936   4.846   3.778
 9301SOL    HW128802   4.889   4.890   3.854
 9301SOL    HW228803   4.879   4.772   3.742
 9302SOL     OW28804   2.109   3.282   3.927
 9302SOL    HW128805   2.119   3.189   3.891
 9302SOL    HW228806   2.133   3.348   3.856
 9303SOL     OW28807   2.557   4.800   0.572
 9303SOL    HW128808   2.535   4.884   0.523
 9303SOL    HW228809   2.642   4.813   0.624
 9304SOL     OW28810   4.321   4.729   2.168
 9304SOL    HW128811   4.341   4.652   2.107
 9304SOL    HW228812   4.406   4.764   2.207
 9305SOL     OW28813   3.615   1.101   0.470
 9305SOL    HW128814   3.659   1.134   0.386
 9305SOL    HW228815   3.516   1.100   0.457
 9306SOL     OW28816   0.168   4.890   4.536
 9306SOL    HW128817   0.163   4.975   4.588
 9306SOL    HW228818   0.187   4.911   4.440
 9307SOL     OW28819   2.026   3.457   1.817
 9307SOL    HW128820   2.077   3.446   1.731
 9307SOL    HW228821   2.089   3.480   1.891
 9308SOL     OW28822   1.998   3.797   0.712
 9308SOL    HW128823   1.936   3.828   0.785
 9308SOL    HW228824   2.056   3.723   0.748
 9309SOL     OW28825   3.276   4.634   6.060
 9309SOL    HW128826   3.306   4.616   6.154
 9309SOL    HW228827   3.326   4.575   5.997
 9310SOL     OW28828   4.626   5.127   6.543
 9310SOL    HW128829   4.695   5.086   6.603
 9310SOL    HW228830   4.640   5.226   6.538
 9311SOL     OW28831   4.164   5.024   2.328
 9311SOL    HW128832   4.125   4.932   2.319
 9311SOL    HW228833   4.186   5.060   2.238
 9312SOL     OW28834   1.314   3.562   1.292
 9312SOL    HW128835   1.343   3.655   1.317
 9312SOL    HW228836   1.215   3.553   1.305
 9313SOL     OW28837   0.667   1.119   1.135
 9313SOL    HW128838   0.748   1.110   1.077
 9313SOL    HW228839   0.634   1.029   1.161
 9314SOL     OW28840   4.973   5.143   6.499
 9314SOL    HW128841   4.987   5.241   6.514
 9314SOL    HW228842   4.952   5.127   6.402
 9315SOL     OW28843   6.163   0.657   5.139
 9315SOL    HW128844   6.163   0.675   5.237
 9315SOL    HW228845   6.213   0.730   5.091
 9316SOL     OW28846   4.323   5.600   5.173
 9316SOL    HW128847   4.262   5.676   5.191
 9316SOL    HW228848   4.398   5.600   5.239
 9317SOL     OW28849   5.288   5.309   3.431
 9317SOL    HW128850   5.285   5.212   3.406
 9317SOL    HW228851   5.348   5.321   3.511
 9318SOL     OW28852   5.941   0.867   5.720
 9318SOL    HW128853   5.931   0.950   5.776
 9318SOL    HW228854   6.011   0.808   5.760
 9319SOL     OW28855   2.079   2.899   0.343
 9319SOL    HW128856   1.994   2.928   0.299
 9319SOL    HW228857   2.157   2.941   0.296
 9320SOL     OW28858   3.936   0.084   5.107
 9320SOL    HW128859   3.973   0.056   5.195
 9320SOL    HW228860   3.846   0.126   5.120
 9321SOL     OW28861   6.742   0.328   3.475
 9321SOL    HW128862   6.811   0.256   3.476
 9321SOL    HW228863   6.780   0.410   3.431
 9322SOL     OW28864   0.333   4.270   6.927
 9322SOL    HW128865   0.323   4.213   7.008
 9322SOL    HW228866   0.314   4.216   6.845
 9323SOL     OW28867   1.074   0.630   5.585
 9323SOL    HW128868   0.975   0.643   5.593
 9323SOL    HW228869   1.096   0.532   5.590
 9324SOL     OW28870   1.001   4.505   0.845
 9324SOL    HW128871   0.983   4.557   0.929
 9324SOL    HW228872   1.099   4.498   0.830
 9325SOL     OW28873   5.530   0.178   0.364
 9325SOL    HW128874   5.476   0.240   0.421
 9325SOL    HW228875   5.531   0.212   0.270
 9326SOL     OW28876   2.384   5.494   0.086
 9326SOL    HW128877   2.369   5.417   0.025
 9326SOL    HW228878   2.329   5.572   0.056
 9327SOL     OW28879   5.400   0.936   2.778
 9327SOL    HW128880   5.480   0.994   2.763
 9327SOL    HW228881   5.414   0.879   2.859
 9328SOL     OW28882   2.498   1.000   5.149
 9328SOL    HW128883   2.519   0.978   5.054
 9328SOL    HW228884   2.540   1.088   5.173
 9329SOL     OW28885   5.844   3.818   1.113
 9329SOL    HW128886   5.854   3.811   1.212
 9329SOL    HW228887   5.799   3.735   1.078
 9330SOL     OW28888   6.363   6.901   6.232
 9330SOL    HW128889   6.437   6.933   6.172
 9330SOL    HW228890   6.338   6.973   6.296
 9331SOL     OW28891   2.843   1.193   0.305
 9331SOL    HW128892   2.763   1.218   0.251
 9331SOL    HW228893   2.825   1.213   0.401
 9332SOL     OW28894   4.142   4.211   1.540
 9332SOL    HW128895   4.119   4.142   1.470
 9332SOL    HW228896   4.195   4.285   1.498
 9333SOL     OW28897   4.568   3.947   6.985
 9333SOL    HW128898   4.523   3.992   6.908
 9333SOL    HW228899   4.514   3.963   0.047
 9334SOL     OW28900   6.011   6.218   3.273
 9334SOL    HW128901   6.050   6.139   3.227
 9334SOL    HW228902   5.912   6.220   3.258
 9335SOL     OW28903   0.968   1.456   6.846
 9335SOL    HW128904   0.917   1.530   6.802
 9335SOL    HW228905   1.042   1.426   6.786
 9336SOL     OW28906   2.970   5.631   5.769
 9336SOL    HW128907   3.022   5.708   5.806
 9336SOL    HW228908   2.882   5.664   5.733
 9337SOL     OW28909   3.880   1.754   4.748
 9337SOL    HW128910   3.809   1.684   4.756
 9337SOL    HW228911   3.888   1.783   4.652
 9338SOL     OW28912   5.125   0.325   2.106
 9338SOL    HW128913   5.077   0.409   2.079
 9338SOL    HW228914   5.214   0.323   2.062
 9339SOL     OW28915   6.083   6.881   1.887
 9339SOL    HW128916   6.161   6.836   1.843
 9339SOL    HW228917   6.002   6.871   1.829
 9340SOL     OW28918   5.529   4.232   4.587
 9340SOL    HW128919   5.494   4.218   4.680
 9340SOL    HW228920   5.489   4.315   4.549
 9341SOL     OW28921   0.172   6.037   0.931
 9341SOL    HW128922   0.141   5.956   0.880
 9341SOL    HW228923   0.272   6.040   0.932
 9342SOL     OW28924   2.302   6.294   3.655
 9342SOL    HW128925   2.395   6.315   3.686
 9342SOL    HW228926   2.256   6.238   3.723
 9343SOL     OW28927   5.414   4.368   2.261
 9343SOL    HW128928   5.362   4.422   2.196
 9343SOL    HW228929   5.442   4.282   2.218
 9344SOL     OW28930   5.202   6.558   2.753
 9344SOL    HW128931   5.162   6.561   2.661
 9344SOL    HW228932   5.168   6.477   2.802
 9345SOL     OW28933   5.774   5.572   2.047
 9345SOL    HW128934   5.845   5.502   2.057
 9345SOL    HW228935   5.688   5.537   2.082
 9346SOL     OW28936   5.759   1.672   1.191
 9346SOL    HW128937   5.814   1.661   1.274
 9346SOL    HW228938   5.818   1.672   1.111
 9347SOL     OW28939   3.024   3.843   0.481
 9347SOL    HW128940   3.108   3.791   0.470
 9347SOL    HW228941   3.020   3.914   0.410
 9348SOL     OW28942   3.393   6.485   2.089
 9348SOL    HW128943   3.340   6.526   2.163
 9348SOL    HW228944   3.454   6.416   2.126
 9349SOL     OW28945   6.856   5.664   3.346
 9349SOL    HW128946   6.774   5.670   3.288
 9349SOL    HW228947   6.856   5.740   3.411
 9350SOL     OW28948   0.105   3.003   5.283
 9350SOL    HW128949   0.098   2.944   5.363
 9350SOL    HW228950   0.198   3.039   5.276
 9351SOL     OW28951   2.979   0.135   0.228
 9351SOL    HW128952   2.924   0.214   0.200
 9351SOL    HW228953   3.005   0.082   0.147
 9352SOL     OW28954   3.846   1.429   6.405
 9352SOL    HW128955   3.754   1.468   6.400
 9352SOL    HW228956   3.899   1.458   6.325
 9353SOL     OW28957   0.629   4.437   0.793
 9353SOL    HW128958   0.726   4.447   0.771
 9353SOL    HW228959   0.575   4.433   0.709
 9354SOL     OW28960   0.137   1.979   6.562
 9354SOL    HW128961   0.193   1.915   6.510
 9354SOL    HW228962   0.114   2.058   6.503
 9355SOL     OW28963   0.698   1.942   4.440
 9355SOL    HW128964   0.650   1.917   4.356
 9355SOL    HW228965   0.653   2.020   4.483
 9356SOL     OW28966   4.877   0.176   2.078
 9356SOL    HW128967   4.815   0.224   2.139
 9356SOL    HW228968   4.962   0.229   2.068
 9357SOL     OW28969   1.703   3.365   5.680
 9357SOL    HW128970   1.798   3.385   5.703
 9357SOL    HW228971   1.700   3.304   5.601
 9358SOL     OW28972   6.768   3.359   1.914
 9358SOL    HW128973   6.793   3.274   1.961
 9358SOL    HW228974   6.772   3.346   1.815
 9359SOL     OW28975   1.946   4.481   5.515
 9359SOL    HW128976   2.005   4.450   5.589
 9359SOL    HW228977   1.947   4.581   5.510
 9360SOL     OW28978   0.584   4.624   6.630
 9360SOL    HW128979   0.666   4.652   6.580
 9360SOL    HW228980   0.574   4.525   6.626
 9361SOL     OW28981   1.772   5.467   3.037
 9361SOL    HW128982   1.708   5.478   3.113
 9361SOL    HW228983   1.752   5.536   2.967
 9362SOL     OW28984   1.813   1.704   2.900
 9362SOL    HW128985   1.771   1.794   2.913
 9362SOL    HW228986   1.894   1.713   2.843
 9363SOL     OW28987   3.118   5.521   1.933
 9363SOL    HW128988   3.119   5.447   1.865
 9363SOL    HW228989   3.177   5.596   1.903
 9364SOL     OW28990   2.759   2.213   6.392
 9364SOL    HW128991   2.801   2.191   6.304
 9364SOL    HW228992   2.826   2.262   6.449
 9365SOL     OW28993   3.017   2.232   3.480
 9365SOL    HW128994   3.090   2.234   3.548
 9365SOL    HW228995   2.941   2.289   3.511
 9366SOL     OW28996   3.529   5.435   6.349
 9366SOL    HW128997   3.612   5.461   6.398
 9366SOL    HW228998   3.548   5.357   6.290
 9367SOL     OW28999   6.583   6.234   2.259
 9367SOL    HW129000   6.563   6.149   2.307
 9367SOL    HW229001   6.623   6.300   2.323
 9368SOL     OW29002   3.144   0.801   3.061
 9368SOL    HW129003   3.210   0.778   3.132
 9368SOL    HW229004   3.139   0.726   2.995
 9369SOL     OW29005   6.768   6.592   3.852
 9369SOL    HW129006   6.806   6.500   3.845
 9369SOL    HW229007   6.759   6.631   3.760
 9370SOL     OW29008   5.478   0.500   4.506
 9370SOL    HW129009   5.436   0.487   4.596
 9370SOL    HW229010   5.577   0.509   4.516
 9371SOL     OW29011   2.373   5.355   0.314
 9371SOL    HW129012   2.343   5.428   0.252
 9371SOL    HW229013   2.469   5.335   0.297
 9372SOL     OW29014   5.198   6.436   1.273
 9372SOL    HW129015   5.248   6.351   1.256
 9372SOL    HW229016   5.260   6.514   1.264
 9373SOL     OW29017   4.480   2.670   1.459
 9373SOL    HW129018   4.539   2.725   1.517
 9373SOL    HW229019   4.474   2.712   1.368
 9374SOL     OW29020   0.854   2.890   6.640
 9374SOL    HW129021   0.772   2.875   6.584
 9374SOL    HW229022   0.834   2.866   6.735
 9375SOL     OW29023   0.721   2.491   0.954
 9375SOL    HW129024   0.708   2.392   0.963
 9375SOL    HW229025   0.705   2.518   0.859
 9376SOL     OW29026   2.412   3.993   1.146
 9376SOL    HW129027   2.329   3.965   1.097
 9376SOL    HW229028   2.492   3.975   1.088
 9377SOL     OW29029   1.728   4.837   3.163
 9377SOL    HW129030   1.644   4.840   3.109
 9377SOL    HW229031   1.793   4.904   3.125
 9378SOL     OW29032   2.962   1.532   3.305
 9378SOL    HW129033   3.035   1.599   3.289
 9378SOL    HW229034   2.920   1.550   3.394
 9379SOL     OW29035   4.723   0.164   5.137
 9379SOL    HW129036   4.681   0.096   5.077
 9379SOL    HW229037   4.780   0.117   5.205
 9380SOL     OW29038   3.798   5.276   5.018
 9380SOL    HW129039   3.726   5.220   4.977
 9380SOL    HW229040   3.813   5.246   5.112
 9381SOL     OW29041   5.461   3.024   5.854
 9381SOL    HW129042   5.546   3.077   5.859
 9381SOL    HW229043   5.479   2.937   5.808
 9382SOL     OW29044   3.887   0.525   3.517
 9382SOL    HW129045   3.918   0.618   3.501
 9382SOL    HW229046   3.887   0.474   3.431
 9383SOL     OW29047   5.547   4.685   3.842
 9383SOL    HW129048   5.475   4.716   3.904
 9383SOL    HW229049   5.636   4.701   3.885
 9384SOL     OW29050   4.205   6.929   2.503
 9384SOL    HW129051   4.278   6.949   2.569
 9384SOL    HW229052   4.116   6.948   2.545
 9385SOL     OW29053   4.523   1.693   4.235
 9385SOL    HW129054   4.598   1.759   4.227
 9385SOL    HW229055   4.486   1.695   4.328
 9386SOL     OW29056   3.210   5.564   5.550
 9386SOL    HW129057   3.200   5.529   5.457
 9386SOL    HW229058   3.125   5.548   5.600
 9387SOL     OW29059   2.667   2.348   0.822
 9387SOL    HW129060   2.680   2.442   0.793
 9387SOL    HW229061   2.737   2.290   0.781
 9388SOL     OW29062   2.565   6.103   3.559
 9388SOL    HW129063   2.480   6.053   3.547
 9388SOL    HW229064   2.563   6.152   3.646
 9389SOL     OW29065   2.921   0.252   3.151
 9389SOL    HW129066   2.846   0.256   3.085
 9389SOL    HW229067   2.981   0.332   3.138
 9390SOL     OW29068   5.553   5.133   5.840
 9390SOL    HW129069   5.559   5.034   5.852
 9390SOL    HW229070   5.478   5.169   5.896
 9391SOL     OW29071   0.655   0.172   6.419
 9391SOL    HW129072   0.684   0.134   6.331
 9391SOL    HW229073   0.595   0.250   6.403
 9392SOL     OW29074   5.223   4.938   5.233
 9392SOL    HW129075   5.265   4.980   5.153
 9392SOL    HW229076   5.264   4.848   5.249
 9393SOL     OW29077   2.756   0.282   5.799
 9393SOL    HW129078   2.846   0.317   5.775
 9393SOL    HW229079   2.760   0.182   5.804
 9394SOL     OW29080   6.158   0.728   1.198
 9394SOL    HW129081   6.099   0.805   1.222
 9394SOL    HW229082   6.200   0.691   1.280
 9395SOL     OW29083   2.869   0.880   0.578
 9395SOL    HW129084   2.890   0.945   0.505
 9395SOL    HW229085   2.791   0.823   0.551
 9396SOL     OW29086   1.999   4.907   4.691
 9396SOL    HW129087   2.075   4.957   4.648
 9396SOL    HW229088   1.917   4.919   4.636
 9397SOL     OW29089   3.165   6.098   6.119
 9397SOL    HW129090   3.157   6.196   6.105
 9397SOL    HW229091   3.189   6.080   6.214
 9398SOL     OW29092   5.980   0.708   6.195
 9398SOL    HW129093   5.897   0.704   6.140
 9398SOL    HW229094   5.961   0.751   6.283
 9399SOL     OW29095   0.840   2.974   4.560
 9399SOL    HW129096   0.917   2.971   4.623
 9399SOL    HW229097   0.874   2.972   4.466
 9400SOL     OW29098   4.886   0.671   0.994
 9400SOL    HW129099   4.958   0.715   1.048
 9400SOL    HW229100   4.825   0.740   0.956
 9401SOL     OW29101   6.769   2.062   2.944
 9401SOL    HW129102   6.692   2.045   3.006
 9401SOL    HW229103   6.855   2.050   2.994
 9402SOL     OW29104   1.060   3.959   3.196
 9402SOL    HW129105   1.017   4.049   3.201
 9402SOL    HW229106   1.103   3.948   3.106
 9403SOL     OW29107   6.506   1.562   1.818
 9403SOL    HW129108   6.605   1.546   1.822
 9403SOL    HW229109   6.466   1.541   1.908
 9404SOL     OW29110   0.507   2.253   1.498
 9404SOL    HW129111   0.412   2.277   1.514
 9404SOL    HW229112   0.534   2.281   1.406
 9405SOL     OW29113   2.006   4.376   3.983
 9405SOL    HW129114   2.025   4.452   3.921
 9405SOL    HW229115   2.010   4.290   3.933
 9406SOL     OW29116   0.779   3.350   6.575
 9406SOL    HW129117   0.742   3.340   6.667
 9406SOL    HW229118   0.744   3.277   6.516
 9407SOL     OW29119   2.432   5.477   4.323
 9407SOL    HW129120   2.381   5.561   4.339
 9407SOL    HW229121   2.523   5.485   4.364
 9408SOL     OW29122   0.004   2.675   5.917
 9408SOL    HW129123   6.936   2.657   5.958
 9408SOL    HW229124   7.014   2.729   5.834
 9409SOL     OW29125   6.216   5.720   1.868
 9409SOL    HW129126   6.161   5.767   1.937
 9409SOL    HW229127   6.158   5.695   1.791
 9410SOL     OW29128   3.635   0.964   1.811
 9410SOL    HW129129   3.624   0.865   1.797
 9410SOL    HW229130   3.552   1.011   1.780
 9411SOL     OW29131   4.005   3.136   3.351
 9411SOL    HW129132   4.041   3.106   3.439
 9411SOL    HW229133   4.016   3.235   3.343
 9412SOL     OW29134   1.948   0.678   2.259
 9412SOL    HW129135   1.925   0.662   2.355
 9412SOL    HW229136   2.040   0.716   2.252
 9413SOL     OW29137   4.771   5.180   3.900
 9413SOL    HW129138   4.731   5.244   3.966
 9413SOL    HW229139   4.870   5.178   3.910
 9414SOL     OW29140   3.175   1.348   3.892
 9414SOL    HW129141   3.096   1.368   3.834
 9414SOL    HW229142   3.259   1.375   3.845
 9415SOL     OW29143   2.102   6.937   1.618
 9415SOL    HW129144   2.112   6.845   1.581
 9415SOL    HW229145   2.017   6.943   1.670
 9416SOL     OW29146   6.859   0.639   5.962
 9416SOL    HW129147   6.868   0.719   5.903
 9416SOL    HW229148   6.774   0.645   6.014
 9417SOL     OW29149   3.446   6.788   0.748
 9417SOL    HW129150   3.368   6.836   0.708
 9417SOL    HW229151   3.531   6.832   0.718
 9418SOL     OW29152   1.875   1.497   2.294
 9418SOL    HW129153   1.776   1.487   2.294
 9418SOL    HW229154   1.907   1.510   2.388
 9419SOL     OW29155   1.726   3.560   6.074
 9419SOL    HW129156   1.719   3.552   6.173
 9419SOL    HW229157   1.652   3.618   6.039
 9420SOL     OW29158   5.691   4.270   0.022
 9420SOL    HW129159   5.660   4.205   0.091
 9420SOL    HW229160   5.730   4.351   0.066
 9421SOL     OW29161   2.999   5.449   4.790
 9421SOL    HW129162   2.908   5.420   4.819
 9421SOL    HW229163   3.068   5.389   4.832
 9422SOL     OW29164   3.185   6.038   3.344
 9422SOL    HW129165   3.101   6.085   3.316
 9422SOL    HW229166   3.252   6.106   3.376
 9423SOL     OW29167   3.820   6.665   3.185
 9423SOL    HW129168   3.765   6.743   3.154
 9423SOL    HW229169   3.831   6.669   3.284
 9424SOL     OW29170   5.318   1.845   4.591
 9424SOL    HW129171   5.404   1.895   4.581
 9424SOL    HW229172   5.320   1.764   4.532
 9425SOL     OW29173   5.622   4.887   0.938
 9425SOL    HW129174   5.536   4.904   0.890
 9425SOL    HW229175   5.628   4.790   0.962
 9426SOL     OW29176   2.432   1.396   6.060
 9426SOL    HW129177   2.460   1.312   6.013
 9426SOL    HW229178   2.343   1.425   6.027
 9427SOL     OW29179   2.441   5.737   3.257
 9427SOL    HW129180   2.467   5.784   3.172
 9427SOL    HW229181   2.515   5.676   3.286
 9428SOL     OW29182   0.104   6.945   0.806
 9428SOL    HW129183   0.126   6.988   0.718
 9428SOL    HW229184   0.067   7.014   0.868
 9429SOL     OW29185   2.333   2.807   3.906
 9429SOL    HW129186   2.318   2.888   3.964
 9429SOL    HW229187   2.420   2.815   3.859
 9430SOL     OW29188   0.607   2.067   4.830
 9430SOL    HW129189   0.677   1.997   4.821
 9430SOL    HW229190   0.556   2.074   4.744
 9431SOL     OW29191   6.639   5.119   1.107
 9431SOL    HW129192   6.566   5.171   1.062
 9431SOL    HW229193   6.601   5.033   1.141
 9432SOL     OW29194   5.986   1.292   4.530
 9432SOL    HW129195   6.016   1.378   4.490
 9432SOL    HW229196   5.957   1.230   4.457
 9433SOL     OW29197   3.292   6.671   3.026
 9433SOL    HW129198   3.363   6.643   3.091
 9433SOL    HW229199   3.330   6.672   2.933
 9434SOL     OW29200   5.998   5.599   2.964
 9434SOL    HW129201   5.943   5.515   2.969
 9434SOL    HW229202   6.095   5.576   2.971
 9435SOL     OW29203   0.448   1.680   3.177
 9435SOL    HW129204   0.371   1.641   3.228
 9435SOL    HW229205   0.517   1.610   3.161
 9436SOL     OW29206   1.568   1.395   2.880
 9436SOL    HW129207   1.509   1.362   2.953
 9436SOL    HW229208   1.664   1.392   2.910
 9437SOL     OW29209   0.322   5.201   3.220
 9437SOL    HW129210   0.332   5.300   3.216
 9437SOL    HW229211   0.411   5.160   3.242
 9438SOL     OW29212   1.304   6.987   2.042
 9438SOL    HW129213   1.358   0.050   2.041
 9438SOL    HW229214   1.333   6.930   2.119
 9439SOL     OW29215   0.518   3.168   1.499
 9439SOL    HW129216   0.591   3.231   1.471
 9439SOL    HW229217   0.533   3.079   1.456
 9440SOL     OW29218   3.910   4.905   3.443
 9440SOL    HW129219   3.843   4.960   3.492
 9440SOL    HW229220   3.991   4.893   3.500
 9441SOL     OW29221   6.470   5.773   5.656
 9441SOL    HW129222   6.431   5.768   5.563
 9441SOL    HW229223   6.488   5.869   5.679
 9442SOL     OW29224   4.693   3.466   1.619
 9442SOL    HW129225   4.620   3.423   1.672
 9442SOL    HW229226   4.760   3.397   1.592
 9443SOL     OW29227   2.263   5.388   0.562
 9443SOL    HW129228   2.317   5.374   0.479
 9443SOL    HW229229   2.180   5.440   0.539
 9444SOL     OW29230   1.948   4.400   0.782
 9444SOL    HW129231   2.002   4.315   0.788
 9444SOL    HW229232   1.851   4.377   0.771
 9445SOL     OW29233   6.723   3.340   3.538
 9445SOL    HW129234   6.694   3.383   3.452
 9445SOL    HW229235   6.717   3.406   3.612
 9446SOL     OW29236   6.893   5.397   4.464
 9446SOL    HW129237   6.980   5.446   4.453
 9446SOL    HW229238   6.845   5.432   4.544
 9447SOL     OW29239   5.433   5.352   3.681
 9447SOL    HW129240   5.392   5.425   3.735
 9447SOL    HW229241   5.474   5.284   3.742
 9448SOL     OW29242   6.690   6.753   6.166
 9448SOL    HW129243   6.676   6.828   6.101
 9448SOL    HW229244   6.748   6.683   6.125
 9449SOL     OW29245   5.970   6.894   0.018
 9449SOL    HW129246   5.942   6.801   7.015
 9449SOL    HW229247   5.966   6.906   0.117
 9450SOL     OW29248   2.258   5.527   3.247
 9450SOL    HW129249   2.317   5.607   3.242
 9450SOL    HW229250   2.277   5.466   3.171
 9451SOL     OW29251   3.571   5.841   5.792
 9451SOL    HW129252   3.551   5.780   5.715
 9451SOL    HW229253   3.617   5.923   5.758
 9452SOL     OW29254   1.061   4.263   0.072
 9452SOL    HW129255   1.120   4.341   0.049
 9452SOL    HW229256   1.045   4.208   7.011
 9453SOL     OW29257   2.631   5.070   2.795
 9453SOL    HW129258   2.562   5.079   2.867
 9453SOL    HW229259   2.692   4.993   2.816
 9454SOL     OW29260   3.809   2.999   6.505
 9454SOL    HW129261   3.723   2.962   6.541
 9454SOL    HW229262   3.790   3.059   6.428
 9455SOL     OW29263   2.743   2.078   2.549
 9455SOL    HW129264   2.807   2.150   2.522
 9455SOL    HW229265   2.789   2.014   2.611
 9456SOL     OW29266   6.239   3.606   1.105
 9456SOL    HW129267   6.318   3.636   1.159
 9456SOL    HW229268   6.162   3.588   1.166
 9457SOL     OW29269   0.234   5.268   4.449
 9457SOL    HW129270   0.201   5.293   4.540
 9457SOL    HW229271   0.182   5.317   4.380
 9458SOL     OW29272   0.271   4.076   0.150
 9458SOL    HW129273   0.340   4.032   0.092
 9458SOL    HW229274   0.281   4.044   0.244
 9459SOL     OW29275   5.521   5.169   3.876
 9459SOL    HW129276   5.549   5.120   3.793
 9459SOL    HW229277   5.534   5.108   3.955
 9460SOL     OW29278   2.123   3.572   4.780
 9460SOL    HW129279   2.151   3.653   4.833
 9460SOL    HW229280   2.119   3.595   4.683
 9461SOL     OW29281   0.431   2.349   2.284
 9461SOL    HW129282   0.452   2.415   2.356
 9461SOL    HW229283   0.389   2.268   2.324
 9462SOL     OW29284   1.844   2.725   3.561
 9462SOL    HW129285   1.839   2.764   3.653
 9462SOL    HW229286   1.785   2.645   3.556
 9463SOL     OW29287   5.517   6.539   1.120
 9463SOL    HW129288   5.570   6.461   1.087
 9463SOL    HW229289   5.568   6.586   1.192
 9464SOL     OW29290   5.902   7.010   0.753
 9464SOL    HW129291   5.922   0.029   0.664
 9464SOL    HW229292   5.901   0.062   0.822
 9465SOL     OW29293   0.062   3.557   1.652
 9465SOL    HW129294   0.008   3.526   1.731
 9465SOL    HW229295   0.007   3.620   1.597
 9466SOL     OW29296   3.412   4.292   5.627
 9466SOL    HW129297   3.323   4.336   5.631
 9466SOL    HW229298   3.456   4.313   5.540
 9467SOL     OW29299   0.748   2.846   1.188
 9467SOL    HW129300   0.713   2.759   1.221
 9467SOL    HW229301   0.747   2.847   1.088
 9468SOL     OW29302   6.137   3.666   6.598
 9468SOL    HW129303   6.102   3.720   6.521
 9468SOL    HW229304   6.169   3.728   6.670
 9469SOL     OW29305   6.870   5.725   1.166
 9469SOL    HW129306   6.860   5.807   1.222
 9469SOL    HW229307   6.939   5.665   1.206
 9470SOL     OW29308   4.532   3.396   0.179
 9470SOL    HW129309   4.445   3.443   0.179
 9470SOL    HW229310   4.573   3.399   0.088
 9471SOL     OW29311   6.608   1.744   4.753
 9471SOL    HW129312   6.700   1.783   4.758
 9471SOL    HW229313   6.614   1.645   4.746
 9472SOL     OW29314   0.246   3.857   5.839
 9472SOL    HW129315   0.163   3.816   5.803
 9472SOL    HW229316   0.223   3.936   5.896
 9473SOL     OW29317   3.315   4.098   6.723
 9473SOL    HW129318   3.312   4.126   6.819
 9473SOL    HW229319   3.396   4.042   6.706
 9474SOL     OW29320   5.882   4.028   2.031
 9474SOL    HW129321   5.849   3.955   2.090
 9474SOL    HW229322   5.981   4.019   2.019
 9475SOL     OW29323   4.505   3.365   0.599
 9475SOL    HW129324   4.521   3.312   0.683
 9475SOL    HW229325   4.573   3.438   0.593
 9476SOL     OW29326   4.024   3.836   4.558
 9476SOL    HW129327   4.123   3.838   4.549
 9476SOL    HW229328   3.989   3.750   4.519
 9477SOL     OW29329   0.644   2.587   1.210
 9477SOL    HW129330   0.663   2.586   1.112
 9477SOL    HW229331   0.569   2.525   1.230
 9478SOL     OW29332   5.388   3.449   1.311
 9478SOL    HW129333   5.297   3.456   1.352
 9478SOL    HW229334   5.426   3.358   1.330
 9479SOL     OW29335   4.590   6.705   0.950
 9479SOL    HW129336   4.498   6.715   0.988
 9479SOL    HW229337   4.584   6.681   0.853
 9480SOL     OW29338   5.991   5.013   0.383
 9480SOL    HW129339   5.926   5.032   0.457
 9480SOL    HW229340   6.069   5.075   0.392
 9481SOL     OW29341   4.963   2.381   2.417
 9481SOL    HW129342   4.916   2.464   2.447
 9481SOL    HW229343   4.896   2.316   2.381
 9482SOL     OW29344   6.816   0.613   2.763
 9482SOL    HW129345   6.753   0.691   2.775
 9482SOL    HW229346   6.834   0.570   2.851
 9483SOL     OW29347   1.574   1.190   0.401
 9483SOL    HW129348   1.517   1.270   0.420
 9483SOL    HW229349   1.660   1.220   0.358
 9484SOL     OW29350   3.187   0.035   4.880
 9484SOL    HW129351   3.153   0.124   4.850
 9484SOL    HW229352   3.109   6.999   4.909
 9485SOL     OW29353   0.363   1.913   0.926
 9485SOL    HW129354   0.286   1.918   0.863
 9485SOL    HW229355   0.443   1.876   0.878
 9486SOL     OW29356   4.583   6.285   1.296
 9486SOL    HW129357   4.553   6.316   1.386
 9486SOL    HW229358   4.680   6.261   1.300
 9487SOL     OW29359   3.293   4.112   3.851
 9487SOL    HW129360   3.363   4.150   3.911
 9487SOL    HW229361   3.212   4.089   3.905
 9488SOL     OW29362   2.808   0.590   1.137
 9488SOL    HW129363   2.822   0.563   1.042
 9488SOL    HW229364   2.710   0.586   1.159
 9489SOL     OW29365   5.171   4.406   1.266
 9489SOL    HW129366   5.200   4.416   1.171
 9489SOL    HW229367   5.121   4.321   1.277
 9490SOL     OW29368   0.024   5.308   3.412
 9490SOL    HW129369   0.041   5.216   3.378
 9490SOL    HW229370   6.947   5.328   3.407
 9491SOL     OW29371   5.571   5.849   3.908
 9491SOL    HW129372   5.523   5.909   3.844
 9491SOL    HW229373   5.632   5.903   3.966
 9492SOL     OW29374   3.690   3.525   4.681
 9492SOL    HW129375   3.727   3.438   4.713
 9492SOL    HW229376   3.603   3.509   4.634
 9493SOL     OW29377   3.105   5.904   4.463
 9493SOL    HW129378   3.059   5.841   4.526
 9493SOL    HW229379   3.197   5.923   4.496
 9494SOL     OW29380   5.617   3.170   2.584
 9494SOL    HW129381   5.709   3.176   2.544
 9494SOL    HW229382   5.549   3.199   2.517
 9495SOL     OW29383   6.859   1.666   2.850
 9495SOL    HW129384   6.851   1.726   2.930
 9495SOL    HW229385   6.824   1.714   2.770
 9496SOL     OW29386   5.377   2.983   1.766
 9496SOL    HW129387   5.344   3.032   1.847
 9496SOL    HW229388   5.420   2.897   1.794
 9497SOL     OW29389   4.748   5.927   5.085
 9497SOL    HW129390   4.666   5.971   5.048
 9497SOL    HW229391   4.764   5.959   5.178
 9498SOL     OW29392   6.463   4.646   4.662
 9498SOL    HW129393   6.455   4.734   4.709
 9498SOL    HW229394   6.399   4.581   4.703
 9499SOL     OW29395   1.143   6.060   5.017
 9499SOL    HW129396   1.070   6.070   4.948
 9499SOL    HW229397   1.225   6.107   4.985
 9500SOL     OW29398   4.273   6.861   0.645
 9500SOL    HW129399   4.232   6.834   0.558
 9500SOL    HW229400   4.215   6.928   0.690
 9501SOL     OW29401   1.825   1.166   4.421
 9501SOL    HW129402   1.850   1.209   4.508
 9501SOL    HW229403   1.893   1.097   4.397
 9502SOL     OW29404   5.983   3.361   5.359
 9502SOL    HW129405   5.980   3.395   5.265
 9502SOL    HW229406   6.051   3.412   5.412
 9503SOL     OW29407   6.577   2.531   0.288
 9503SOL    HW129408   6.608   2.602   0.352
 9503SOL    HW229409   6.647   2.517   0.218
 9504SOL     OW29410   6.913   3.955   2.003
 9504SOL    HW129411   6.958   3.895   2.069
 9504SOL    HW229412   6.836   4.000   2.045
 9505SOL     OW29413   5.015   4.518   5.608
 9505SOL    HW129414   4.958   4.452   5.559
 9505SOL    HW229415   5.110   4.509   5.576
 9506SOL     OW29416   1.691   2.861   0.799
 9506SOL    HW129417   1.641   2.794   0.854
 9506SOL    HW229418   1.785   2.831   0.787
 9507SOL     OW29419   6.840   0.938   1.989
 9507SOL    HW129420   6.740   0.942   1.987
 9507SOL    HW229421   6.877   1.029   2.006
 9508SOL     OW29422   5.643   2.076   2.781
 9508SOL    HW129423   5.604   2.044   2.695
 9508SOL    HW229424   5.721   2.136   2.763
 9509SOL     OW29425   6.827   0.808   3.044
 9509SOL    HW129426   6.852   0.826   3.139
 9509SOL    HW229427   6.862   0.880   2.985
 9510SOL     OW29428   1.423   4.162   3.495
 9510SOL    HW129429   1.344   4.194   3.549
 9510SOL    HW229430   1.392   4.097   3.426
 9511SOL     OW29431   2.358   0.504   1.254
 9511SOL    HW129432   2.328   0.526   1.347
 9511SOL    HW229433   2.312   0.420   1.224
 9512SOL     OW29434   6.717   2.016   0.466
 9512SOL    HW129435   6.705   2.114   0.454
 9512SOL    HW229436   6.664   1.985   0.545
 9513SOL     OW29437   2.581   4.271   6.751
 9513SOL    HW129438   2.506   4.206   6.737
 9513SOL    HW229439   2.622   4.294   6.663
 9514SOL     OW29440   2.528   4.725   6.796
 9514SOL    HW129441   2.584   4.722   6.713
 9514SOL    HW229442   2.522   4.634   6.835
 9515SOL     OW29443   2.027   6.205   2.571
 9515SOL    HW129444   1.997   6.269   2.500
 9515SOL    HW229445   2.106   6.153   2.539
 9516SOL     OW29446   5.674   4.504   0.182
 9516SOL    HW129447   5.615   4.542   0.111
 9516SOL    HW229448   5.618   4.469   0.257
 9517SOL     OW29449   1.909   4.037   1.221
 9517SOL    HW129450   1.961   4.091   1.155
 9517SOL    HW229451   1.811   4.053   1.208
 9518SOL     OW29452   1.979   1.434   0.877
 9518SOL    HW129453   1.918   1.494   0.929
 9518SOL    HW229454   2.066   1.424   0.925
 9519SOL     OW29455   3.055   3.046   5.216
 9519SOL    HW129456   3.074   3.130   5.166
 9519SOL    HW229457   3.134   2.984   5.207
 9520SOL     OW29458   2.572   0.725   3.068
 9520SOL    HW129459   2.571   0.780   3.152
 9520SOL    HW229460   2.481   0.686   3.054
 9521SOL     OW29461   5.608   5.395   2.612
 9521SOL    HW129462   5.606   5.296   2.627
 9521SOL    HW229463   5.658   5.414   2.527
 9522SOL     OW29464   3.087   5.574   1.288
 9522SOL    HW129465   3.075   5.583   1.387
 9522SOL    HW229466   3.177   5.607   1.262
 9523SOL     OW29467   3.154   5.479   5.279
 9523SOL    HW129468   3.170   5.380   5.279
 9523SOL    HW229469   3.220   5.524   5.219
 9524SOL     OW29470   3.839   2.715   1.068
 9524SOL    HW129471   3.855   2.803   1.114
 9524SOL    HW229472   3.898   2.708   0.988
 9525SOL     OW29473   2.603   2.516   6.470
 9525SOL    HW129474   2.589   2.425   6.431
 9525SOL    HW229475   2.676   2.563   6.419
 9526SOL     OW29476   4.984   6.137   1.594
 9526SOL    HW129477   4.938   6.129   1.683
 9526SOL    HW229478   4.956   6.222   1.549
 9527SOL     OW29479   0.786   0.341   2.076
 9527SOL    HW129480   0.710   0.389   2.033
 9527SOL    HW229481   0.808   0.258   2.023
 9528SOL     OW29482   6.587   0.756   0.370
 9528SOL    HW129483   6.495   0.777   0.338
 9528SOL    HW229484   6.595   0.778   0.468
 9529SOL     OW29485   6.947   2.795   5.380
 9529SOL    HW129486   6.995   2.708   5.390
 9529SOL    HW229487   6.865   2.782   5.325
 9530SOL     OW29488   1.940   3.146   3.551
 9530SOL    HW129489   1.994   3.109   3.626
 9530SOL    HW229490   1.955   3.090   3.469
 9531SOL     OW29491   4.001   5.095   3.080
 9531SOL    HW129492   4.074   5.160   3.061
 9531SOL    HW229493   4.035   5.002   3.069
 9532SOL     OW29494   0.197   6.133   2.172
 9532SOL    HW129495   0.182   6.058   2.237
 9532SOL    HW229496   0.283   6.118   2.123
 9533SOL     OW29497   0.184   0.718   4.628
 9533SOL    HW129498   0.105   0.739   4.685
 9533SOL    HW229499   0.255   0.675   4.683
 9534SOL     OW29500   6.224   2.706   5.346
 9534SOL    HW129501   6.190   2.650   5.271
 9534SOL    HW229502   6.146   2.751   5.391
 9535SOL     OW29503   2.237   1.399   5.736
 9535SOL    HW129504   2.250   1.404   5.835
 9535SOL    HW229505   2.186   1.479   5.705
 9536SOL     OW29506   2.935   4.934   5.247
 9536SOL    HW129507   2.840   4.906   5.260
 9536SOL    HW229508   2.996   4.857   5.270
 9537SOL     OW29509   2.757   0.432   2.279
 9537SOL    HW129510   2.709   0.497   2.220
 9537SOL    HW229511   2.733   0.449   2.374
 9538SOL     OW29512   6.544   1.832   4.508
 9538SOL    HW129513   6.637   1.835   4.471
 9538SOL    HW229514   6.549   1.809   4.605
 9539SOL     OW29515   2.287   4.339   6.149
 9539SOL    HW129516   2.271   4.325   6.051
 9539SOL    HW229517   2.257   4.257   6.199
 9540SOL     OW29518   4.541   4.189   5.220
 9540SOL    HW129519   4.617   4.140   5.178
 9540SOL    HW229520   4.488   4.126   5.276
 9541SOL     OW29521   2.303   1.864   5.999
 9541SOL    HW129522   2.329   1.956   6.028
 9541SOL    HW229523   2.329   1.798   6.069
 9542SOL     OW29524   4.727   3.645   5.415
 9542SOL    HW129525   4.711   3.597   5.329
 9542SOL    HW229526   4.709   3.583   5.491
 9543SOL     OW29527   4.110   0.450   4.596
 9543SOL    HW129528   4.074   0.409   4.512
 9543SOL    HW229529   4.195   0.498   4.576
 9544SOL     OW29530   6.462   0.800   2.357
 9544SOL    HW129531   6.417   0.713   2.335
 9544SOL    HW229532   6.560   0.792   2.341
 9545SOL     OW29533   6.677   5.061   3.231
 9545SOL    HW129534   6.612   5.001   3.184
 9545SOL    HW229535   6.706   5.134   3.169
 9546SOL     OW29536   2.200   3.353   0.121
 9546SOL    HW129537   2.143   3.378   0.199
 9546SOL    HW229538   2.151   3.286   0.065
 9547SOL     OW29539   2.575   6.187   4.129
 9547SOL    HW129540   2.587   6.280   4.165
 9547SOL    HW229541   2.651   6.164   4.069
 9548SOL     OW29542   6.545   5.718   4.787
 9548SOL    HW129543   6.601   5.739   4.867
 9548SOL    HW229544   6.452   5.699   4.816
 9549SOL     OW29545   3.007   4.791   0.989
 9549SOL    HW129546   2.966   4.870   1.034
 9549SOL    HW229547   2.939   4.716   0.985
 9550SOL     OW29548   0.067   1.251   6.109
 9550SOL    HW129549   0.126   1.292   6.178
 9550SOL    HW229550   0.041   1.159   6.138
 9551SOL     OW29551   0.152   6.915   4.691
 9551SOL    HW129552   0.147   6.993   4.753
 9551SOL    HW229553   0.153   6.947   4.596
 9552SOL     OW29554   0.972   6.258   2.520
 9552SOL    HW129555   1.062   6.274   2.560
 9552SOL    HW229556   0.981   6.251   2.420
 9553SOL     OW29557   5.846   4.229   6.611
 9553SOL    HW129558   5.817   4.157   6.549
 9553SOL    HW229559   5.771   4.254   6.672
 9554SOL     OW29560   2.797   1.141   1.349
 9554SOL    HW129561   2.892   1.166   1.362
 9554SOL    HW229562   2.782   1.113   1.255
 9555SOL     OW29563   6.819   2.222   0.915
 9555SOL    HW129564   6.845   2.270   0.831
 9555SOL    HW229565   6.837   2.281   0.994
 9556SOL     OW29566   2.153   1.817   1.283
 9556SOL    HW129567   2.148   1.744   1.215
 9556SOL    HW229568   2.100   1.896   1.252
 9557SOL     OW29569   6.135   0.776   2.513
 9557SOL    HW129570   6.168   0.827   2.592
 9557SOL    HW229571   6.168   0.682   2.517
 9558SOL     OW29572   6.960   5.756   3.997
 9558SOL    HW129573   6.917   5.667   3.985
 9558SOL    HW229574   0.011   5.749   4.066
 9559SOL     OW29575   0.104   4.046   1.858
 9559SOL    HW129576   0.123   4.141   1.881
 9559SOL    HW229577   0.028   4.012   1.914
 9560SOL     OW29578   1.631   1.664   3.246
 9560SOL    HW129579   1.603   1.598   3.176
 9560SOL    HW229580   1.602   1.756   3.219
 9561SOL     OW29581   2.686   6.928   0.972
 9561SOL    HW129582   2.733   6.993   0.913
 9561SOL    HW229583   2.664   6.845   0.921
 9562SOL     OW29584   3.020   6.453   4.633
 9562SOL    HW129585   2.967   6.467   4.549
 9562SOL    HW229586   3.079   6.373   4.622
 9563SOL     OW29587   6.339   6.100   6.587
 9563SOL    HW129588   6.428   6.131   6.554
 9563SOL    HW229589   6.352   6.021   6.647
 9564SOL     OW29590   2.421   0.091   6.845
 9564SOL    HW129591   2.455   0.002   6.814
 9564SOL    HW229592   2.327   0.081   6.878
 9565SOL     OW29593   4.272   5.619   4.876
 9565SOL    HW129594   4.228   5.689   4.820
 9565SOL    HW229595   4.243   5.628   4.971
 9566SOL     OW29596   3.297   4.538   0.306
 9566SOL    HW129597   3.358   4.616   0.292
 9566SOL    HW229598   3.225   4.539   0.237
 9567SOL     OW29599   6.318   5.205   6.225
 9567SOL    HW129600   6.278   5.124   6.182
 9567SOL    HW229601   6.247   5.274   6.240
 9568SOL     OW29602   4.478   2.955   6.470
 9568SOL    HW129603   4.520   3.025   6.528
 9568SOL    HW229604   4.380   2.950   6.489
 9569SOL     OW29605   6.259   1.112   0.716
 9569SOL    HW129606   6.311   1.099   0.631
 9569SOL    HW229607   6.184   1.046   0.720
 9570SOL     OW29608   0.703   1.802   1.869
 9570SOL    HW129609   0.735   1.824   1.962
 9570SOL    HW229610   0.666   1.885   1.827
 9571SOL     OW29611   2.759   3.463   0.356
 9571SOL    HW129612   2.662   3.467   0.377
 9571SOL    HW229613   2.808   3.422   0.433
 9572SOL     OW29614   1.291   5.464   1.132
 9572SOL    HW129615   1.217   5.456   1.199
 9572SOL    HW229616   1.253   5.460   1.040
 9573SOL     OW29617   0.496   1.233   6.617
 9573SOL    HW129618   0.401   1.243   6.590
 9573SOL    HW229619   0.506   1.154   6.678
 9574SOL     OW29620   3.800   3.270   4.744
 9574SOL    HW129621   3.861   3.191   4.734
 9574SOL    HW229622   3.785   3.289   4.841
 9575SOL     OW29623   5.597   0.847   0.993
 9575SOL    HW129624   5.652   0.791   1.054
 9575SOL    HW229625   5.556   0.922   1.045
 9576SOL     OW29626   3.486   1.234   3.198
 9576SOL    HW129627   3.427   1.246   3.278
 9576SOL    HW229628   3.436   1.184   3.127
 9577SOL     OW29629   1.598   0.717   2.085
 9577SOL    HW129630   1.625   0.627   2.116
 9577SOL    HW229631   1.499   0.726   2.091
 9578SOL     OW29632   5.937   3.220   2.794
 9578SOL    HW129633   5.837   3.214   2.799
 9578SOL    HW229634   5.968   3.299   2.847
 9579SOL     OW29635   1.132   6.671   2.541
 9579SOL    HW129636   1.079   6.755   2.532
 9579SOL    HW229637   1.216   6.690   2.592
 9580SOL     OW29638   5.488   3.937   6.991
 9580SOL    HW129639   5.523   4.007   0.032
 9580SOL    HW229640   5.439   3.867   0.024
 9581SOL     OW29641   2.582   4.620   6.361
 9581SOL    HW129642   2.506   4.555   6.356
 9581SOL    HW229643   2.633   4.618   6.275
 9582SOL     OW29644   4.464   4.561   4.056
 9582SOL    HW129645   4.399   4.636   4.057
 9582SOL    HW229646   4.471   4.524   3.963
 9583SOL     OW29647   2.208   3.252   1.717
 9583SOL    HW129648   2.238   3.319   1.784
 9583SOL    HW229649   2.206   3.294   1.626
 9584SOL     OW29650   5.858   5.919   6.773
 9584SOL    HW129651   5.952   5.883   6.777
 9584SOL    HW229652   5.819   5.898   6.683
 9585SOL     OW29653   6.112   0.724   2.247
 9585SOL    HW129654   6.141   0.758   2.336
 9585SOL    HW229655   6.183   0.664   2.209
 9586SOL     OW29656   5.579   3.777   3.294
 9586SOL    HW129657   5.493   3.749   3.336
 9586SOL    HW229658   5.655   3.757   3.355
 9587SOL     OW29659   5.588   0.361   1.974
 9587SOL    HW129660   5.500   0.314   1.967
 9587SOL    HW229661   5.586   0.424   2.051
 9588SOL     OW29662   0.428   1.291   1.447
 9588SOL    HW129663   0.339   1.245   1.453
 9588SOL    HW229664   0.417   1.387   1.473
 9589SOL     OW29665   2.290   5.968   6.569
 9589SOL    HW129666   2.384   5.945   6.546
 9589SOL    HW229667   2.228   5.924   6.505
 9590SOL     OW29668   0.325   3.693   1.988
 9590SOL    HW129669   0.343   3.753   2.065
 9590SOL    HW229670   0.336   3.744   1.902
 9591SOL     OW29671   2.872   6.166   0.550
 9591SOL    HW129672   2.870   6.249   0.495
 9591SOL    HW229673   2.926   6.096   0.503
 9592SOL     OW29674   4.282   5.287   2.725
 9592SOL    HW129675   4.221   5.267   2.802
 9592SOL    HW229676   4.228   5.325   2.650
 9593SOL     OW29677   5.202   2.322   4.390
 9593SOL    HW129678   5.253   2.287   4.311
 9593SOL    HW229679   5.115   2.359   4.359
 9594SOL     OW29680   6.892   6.116   3.180
 9594SOL    HW129681   6.884   6.094   3.277
 9594SOL    HW229682   6.800   6.127   3.141
 9595SOL     OW29683   2.298   5.879   5.110
 9595SOL    HW129684   2.245   5.797   5.089
 9595SOL    HW229685   2.238   5.950   5.147
 9596SOL     OW29686   0.271   5.008   5.741
 9596SOL    HW129687   0.195   4.952   5.775
 9596SOL    HW229688   0.348   4.949   5.717
 9597SOL     OW29689   0.402   4.029   1.935
 9597SOL    HW129690   0.324   4.090   1.951
 9597SOL    HW229691   0.454   4.061   1.856
 9598SOL     OW29692   0.485   3.935   5.668
 9598SOL    HW129693   0.403   3.889   5.700
 9598SOL    HW229694   0.543   3.959   5.746
 9599SOL     OW29695   3.725   0.353   5.285
 9599SOL    HW129696   3.762   0.445   5.274
 9599SOL    HW229697   3.687   0.321   5.198
 9600SOL     OW29698   1.816   0.406   5.747
 9600SOL    HW129699   1.815   0.501   5.717
 9600SOL    HW229700   1.724   0.378   5.774
 9601SOL     OW29701   6.540   4.082   6.339
 9601SOL    HW129702   6.587   4.170   6.335
 9601SOL    HW229703   6.454   4.092   6.387
 9602SOL     OW29704   6.598   5.273   6.037
 9602SOL    HW129705   6.609   5.197   6.101
 9602SOL    HW229706   6.557   5.351   6.084
 9603SOL     OW29707   2.078   0.151   4.863
 9603SOL    HW129708   2.044   0.066   4.822
 9603SOL    HW229709   2.121   0.207   4.792
 9604SOL     OW29710   5.145   1.091   0.462
 9604SOL    HW129711   5.173   1.156   0.392
 9604SOL    HW229712   5.161   1.130   0.553
 9605SOL     OW29713   1.348   4.692   5.810
 9605SOL    HW129714   1.404   4.720   5.732
 9605SOL    HW229715   1.263   4.651   5.778
 9606SOL     OW29716   1.027   0.077   3.620
 9606SOL    HW129717   1.108   0.057   3.676
 9606SOL    HW229718   1.042   0.041   3.528
 9607SOL     OW29719   0.821   1.003   1.480
 9607SOL    HW129720   0.876   1.048   1.410
 9607SOL    HW229721   0.742   1.060   1.503
 9608SOL     OW29722   0.257   6.944   2.242
 9608SOL    HW129723   0.250   6.987   2.332
 9608SOL    HW229724   0.172   6.896   2.222
 9609SOL     OW29725   1.416   4.183   4.709
 9609SOL    HW129726   1.332   4.177   4.762
 9609SOL    HW229727   1.445   4.279   4.703
 9610SOL     OW29728   1.605   2.759   5.913
 9610SOL    HW129729   1.675   2.746   5.844
 9610SOL    HW229730   1.519   2.785   5.869
 9611SOL     OW29731   6.608   0.093   1.540
 9611SOL    HW129732   6.528   0.079   1.598
 9611SOL    HW229733   6.579   0.118   1.447
 9612SOL     OW29734   6.458   3.060   0.881
 9612SOL    HW129735   6.498   3.046   0.972
 9612SOL    HW229736   6.530   3.088   0.818
 9613SOL     OW29737   5.579   0.022   4.178
 9613SOL    HW129738   5.542   0.086   4.111
 9613SOL    HW229739   5.621   0.073   4.253
 9614SOL     OW29740   4.109   3.825   2.075
 9614SOL    HW129741   4.202   3.857   2.093
 9614SOL    HW229742   4.084   3.844   1.980
 9615SOL     OW29743   2.632   5.151   3.263
 9615SOL    HW129744   2.542   5.111   3.279
 9615SOL    HW229745   2.686   5.147   3.348
 9616SOL     OW29746   4.052   3.120   1.362
 9616SOL    HW129747   4.098   3.036   1.334
 9616SOL    HW229748   3.970   3.133   1.306
 9617SOL     OW29749   1.254   3.698   3.645
 9617SOL    HW129750   1.207   3.668   3.562
 9617SOL    HW229751   1.204   3.664   3.725
 9618SOL     OW29752   3.575   0.087   6.324
 9618SOL    HW129753   3.574   0.140   6.239
 9618SOL    HW229754   3.655   0.113   6.379
 9619SOL     OW29755   1.327   6.459   0.802
 9619SOL    HW129756   1.407   6.416   0.844
 9619SOL    HW229757   1.346   6.556   0.785
 9620SOL     OW29758   3.943   0.486   6.643
 9620SOL    HW129759   3.891   0.540   6.578
 9620SOL    HW229760   3.967   0.542   6.722
 9621SOL     OW29761   1.229   0.436   1.870
 9621SOL    HW129762   1.265   0.400   1.956
 9621SOL    HW229763   1.189   0.526   1.885
 9622SOL     OW29764   6.739   1.012   6.937
 9622SOL    HW129765   6.749   1.105   6.971
 9622SOL    HW229766   6.668   0.965   6.990
 9623SOL     OW29767   4.846   5.551   6.317
 9623SOL    HW129768   4.892   5.637   6.338
 9623SOL    HW229769   4.904   5.496   6.257
 9624SOL     OW29770   5.513   5.080   5.383
 9624SOL    HW129771   5.503   5.004   5.319
 9624SOL    HW229772   5.425   5.126   5.395
 9625SOL     OW29773   4.735   4.345   6.584
 9625SOL    HW129774   4.672   4.408   6.629
 9625SOL    HW229775   4.695   4.312   6.499
 9626SOL     OW29776   1.680   4.532   4.668
 9626SOL    HW129777   1.716   4.446   4.632
 9626SOL    HW229778   1.755   4.596   4.684
 9627SOL     OW29779   1.541   4.228   5.310
 9627SOL    HW129780   1.480   4.150   5.296
 9627SOL    HW229781   1.487   4.312   5.316
 9628SOL     OW29782   5.924   4.141   6.933
 9628SOL    HW129783   5.839   4.179   6.970
 9628SOL    HW229784   5.970   4.210   6.877
 9629SOL     OW29785   6.688   6.329   3.494
 9629SOL    HW129786   6.717   6.324   3.398
 9629SOL    HW229787   6.706   6.241   3.539
 9630SOL     OW29788   6.068   6.188   5.522
 9630SOL    HW129789   5.996   6.226   5.465
 9630SOL    HW229790   6.126   6.262   5.556
 9631SOL     OW29791   4.889   1.346   1.669
 9631SOL    HW129792   4.956   1.294   1.617
 9631SOL    HW229793   4.821   1.283   1.708
 9632SOL     OW29794   2.010   5.494   1.861
 9632SOL    HW129795   1.939   5.564   1.874
 9632SOL    HW229796   1.976   5.407   1.896
 9633SOL     OW29797   3.738   3.150   2.016
 9633SOL    HW129798   3.761   3.200   1.932
 9633SOL    HW229799   3.731   3.053   1.995
 9634SOL     OW29800   6.066   4.264   3.058
 9634SOL    HW129801   6.111   4.181   3.091
 9634SOL    HW229802   6.136   4.332   3.033
 9635SOL     OW29803   0.038   4.315   4.588
 9635SOL    HW129804   0.113   4.251   4.571
 9635SOL    HW229805   6.975   4.263   4.606
 9636SOL     OW29806   4.438   1.390   5.641
 9636SOL    HW129807   4.517   1.418   5.586
 9636SOL    HW229808   4.356   1.432   5.604
 9637SOL     OW29809   2.407   3.515   1.483
 9637SOL    HW129810   2.419   3.458   1.563
 9637SOL    HW229811   2.442   3.607   1.501
 9638SOL     OW29812   6.967   4.634   6.347
 9638SOL    HW129813   7.001   4.543   6.372
 9638SOL    HW229814   6.893   4.660   6.409
 9639SOL     OW29815   4.260   2.507   1.767
 9639SOL    HW129816   4.167   2.470   1.767
 9639SOL    HW229817   4.260   2.596   1.721
 9640SOL     OW29818   4.267   1.287   1.982
 9640SOL    HW129819   4.231   1.202   2.023
 9640SOL    HW229820   4.228   1.299   1.891
 9641SOL     OW29821   5.605   5.510   3.227
 9641SOL    HW129822   5.524   5.529   3.282
 9641SOL    HW229823   5.646   5.424   3.257
 9642SOL     OW29824   1.121   0.350   4.536
 9642SOL    HW129825   1.098   0.447   4.545
 9642SOL    HW229826   1.220   0.338   4.543
 9643SOL     OW29827   4.760   4.311   3.878
 9643SOL    HW129828   4.747   4.273   3.786
 9643SOL    HW229829   4.733   4.242   3.946
 9644SOL     OW29830   1.943   5.991   4.995
 9644SOL    HW129831   1.894   6.001   5.082
 9644SOL    HW229832   1.943   5.895   4.968
 9645SOL     OW29833   1.304   4.165   5.083
 9645SOL    HW129834   1.393   4.145   5.042
 9645SOL    HW229835   1.248   4.215   5.017
 9646SOL     OW29836   2.435   6.710   3.693
 9646SOL    HW129837   2.354   6.653   3.676
 9646SOL    HW229838   2.414   6.805   3.671
 9647SOL     OW29839   6.612   6.382   2.889
 9647SOL    HW129840   6.683   6.449   2.867
 9647SOL    HW229841   6.527   6.407   2.843
 9648SOL     OW29842   5.474   3.146   1.331
 9648SOL    HW129843   5.385   3.105   1.313
 9648SOL    HW229844   5.501   3.127   1.426
 9649SOL     OW29845   2.327   3.520   6.444
 9649SOL    HW129846   2.350   3.593   6.508
 9649SOL    HW229847   2.228   3.510   6.438
 9650SOL     OW29848   6.251   4.881   3.306
 9650SOL    HW129849   6.283   4.967   3.267
 9650SOL    HW229850   6.323   4.842   3.365
 9651SOL     OW29851   3.841   1.252   0.649
 9651SOL    HW129852   3.744   1.234   0.630
 9651SOL    HW229853   3.884   1.169   0.683
 9652SOL     OW29854   0.614   4.331   1.256
 9652SOL    HW129855   0.577   4.240   1.275
 9652SOL    HW229856   0.606   4.388   1.338
 9653SOL     OW29857   4.222   4.644   5.614
 9653SOL    HW129858   4.256   4.703   5.541
 9653SOL    HW229859   4.291   4.638   5.687
 9654SOL     OW29860   3.396   2.948   2.743
 9654SOL    HW129861   3.428   2.921   2.652
 9654SOL    HW229862   3.376   3.046   2.743
 9655SOL     OW29863   0.214   1.393   0.886
 9655SOL    HW129864   0.224   1.360   0.980
 9655SOL    HW229865   0.266   1.477   0.874
 9656SOL     OW29866   4.509   2.071   0.549
 9656SOL    HW129867   4.551   2.055   0.460
 9656SOL    HW229868   4.552   2.012   0.617
 9657SOL     OW29869   5.016   4.251   3.597
 9657SOL    HW129870   4.916   4.257   3.599
 9657SOL    HW229871   5.044   4.157   3.618
 9658SOL     OW29872   5.545   2.045   2.293
 9658SOL    HW129873   5.631   2.045   2.243
 9658SOL    HW229874   5.469   2.042   2.229
 9659SOL     OW29875   2.490   2.228   6.762
 9659SOL    HW129876   2.563   2.295   6.771
 9659SOL    HW229877   2.437   2.224   6.847
 9660SOL     OW29878   0.688   0.140   1.256
 9660SOL    HW129879   0.746   0.087   1.195
 9660SOL    HW229880   0.706   0.238   1.243
 9661SOL     OW29881   4.530   5.439   1.240
 9661SOL    HW129882   4.567   5.367   1.300
 9661SOL    HW229883   4.441   5.410   1.205
 9662SOL     OW29884   5.177   4.068   6.922
 9662SOL    HW129885   5.093   4.100   6.879
 9662SOL    HW229886   5.252   4.071   6.856
 9663SOL     OW29887   1.015   4.365   2.214
 9663SOL    HW129888   1.004   4.456   2.174
 9663SOL    HW229889   1.011   4.296   2.142
 9664SOL     OW29890   5.510   4.262   4.131
 9664SOL    HW129891   5.503   4.308   4.043
 9664SOL    HW229892   5.607   4.248   4.154
 9665SOL     OW29893   6.705   6.076   5.651
 9665SOL    HW129894   6.640   6.000   5.662
 9665SOL    HW229895   6.753   6.091   5.737
 9666SOL     OW29896   6.738   4.406   1.486
 9666SOL    HW129897   6.822   4.364   1.523
 9666SOL    HW229898   6.710   4.356   1.404
 9667SOL     OW29899   4.858   4.188   1.115
 9667SOL    HW129900   4.920   4.177   1.037
 9667SOL    HW229901   4.778   4.129   1.103
 9668SOL     OW29902   1.560   1.087   6.305
 9668SOL    HW129903   1.598   1.163   6.253
 9668SOL    HW229904   1.562   1.004   6.249
 9669SOL     OW29905   2.751   0.255   0.592
 9669SOL    HW129906   2.757   0.175   0.533
 9669SOL    HW229907   2.839   0.302   0.594
 9670SOL     OW29908   0.163   6.044   5.309
 9670SOL    HW129909   0.082   5.985   5.307
 9670SOL    HW229910   0.134   6.140   5.301
 9671SOL     OW29911   0.660   5.110   0.180
 9671SOL    HW129912   0.671   5.129   0.278
 9671SOL    HW229913   0.602   5.180   0.138
 9672SOL     OW29914   1.909   4.997   3.038
 9672SOL    HW129915   1.881   5.041   2.952
 9672SOL    HW229916   1.997   5.033   3.067
 9673SOL     OW29917   3.841   4.016   0.921
 9673SOL    HW129918   3.844   4.046   0.826
 9673SOL    HW229919   3.880   3.924   0.928
 9674SOL     OW29920   3.805   6.434   2.635
 9674SOL    HW129921   3.877   6.365   2.641
 9674SOL    HW229922   3.783   6.467   2.727
 9675SOL     OW29923   5.010   3.351   0.159
 9675SOL    HW129924   4.991   3.331   0.063
 9675SOL    HW229925   4.927   3.388   0.201
 9676SOL     OW29926   1.400   3.698   5.881
 9676SOL    HW129927   1.337   3.773   5.861
 9676SOL    HW229928   1.398   3.633   5.805
 9677SOL     OW29929   6.637   5.369   6.761
 9677SOL    HW129930   6.652   5.468   6.755
 9677SOL    HW229931   6.703   5.329   6.825
 9678SOL     OW29932   3.224   3.757   4.260
 9678SOL    HW129933   3.194   3.718   4.173
 9678SOL    HW229934   3.245   3.854   4.248
 9679SOL     OW29935   2.644   1.429   4.575
 9679SOL    HW129936   2.733   1.462   4.545
 9679SOL    HW229937   2.642   1.423   4.675
 9680SOL     OW29938   4.721   6.609   5.420
 9680SOL    HW129939   4.646   6.675   5.428
 9680SOL    HW229940   4.716   6.565   5.330
 9681SOL     OW29941   3.199   1.912   1.411
 9681SOL    HW129942   3.192   1.975   1.488
 9681SOL    HW229943   3.291   1.918   1.372
 9682SOL     OW29944   4.843   4.541   3.636
 9682SOL    HW129945   4.760   4.537   3.580
 9682SOL    HW229946   4.923   4.543   3.576
 9683SOL     OW29947   2.989   5.922   0.458
 9683SOL    HW129948   2.908   5.871   0.488
 9683SOL    HW229949   2.981   5.942   0.360
 9684SOL     OW29950   0.371   3.989   5.146
 9684SOL    HW129951   0.398   3.993   5.242
 9684SOL    HW229952   0.448   4.016   5.088
 9685SOL     OW29953   4.657   3.587   0.524
 9685SOL    HW129954   4.690   3.679   0.544
 9685SOL    HW229955   4.685   3.561   0.432
 9686SOL     OW29956   0.537   2.941   0.383
 9686SOL    HW129957   0.586   2.866   0.339
 9686SOL    HW229958   0.599   3.019   0.395
 9687SOL     OW29959   6.484   0.383   1.988
 9687SOL    HW129960   6.386   0.383   2.007
 9687SOL    HW229961   6.508   0.297   1.942
 9688SOL     OW29962   0.710   3.701   0.869
 9688SOL    HW129963   0.625   3.733   0.911
 9688SOL    HW229964   0.764   3.779   0.838
 9689SOL     OW29965   0.995   4.304   6.452
 9689SOL    HW129966   0.960   4.288   6.360
 9689SOL    HW229967   0.977   4.224   6.509
 9690SOL     OW29968   4.477   5.343   5.398
 9690SOL    HW129969   4.526   5.267   5.439
 9690SOL    HW229970   4.512   5.360   5.306
 9691SOL     OW29971   3.131   4.048   2.039
 9691SOL    HW129972   3.069   3.997   1.978
 9691SOL    HW229973   3.091   4.137   2.060
 9692SOL     OW29974   4.858   5.229   0.957
 9692SOL    HW129975   4.894   5.319   0.935
 9692SOL    HW229976   4.830   5.227   1.053
 9693SOL     OW29977   5.545   4.534   3.245
 9693SOL    HW129978   5.579   4.487   3.164
 9693SOL    HW229979   5.612   4.524   3.319
 9694SOL     OW29980   3.903   0.978   1.754
 9694SOL    HW129981   3.943   1.068   1.770
 9694SOL    HW229982   3.808   0.979   1.784
 9695SOL     OW29983   0.201   3.069   3.505
 9695SOL    HW129984   0.180   3.142   3.441
 9695SOL    HW229985   0.257   2.999   3.459
 9696SOL     OW29986   5.835   1.832   2.262
 9696SOL    HW129987   5.752   1.791   2.222
 9696SOL    HW229988   5.916   1.794   2.216
 9697SOL     OW29989   0.403   6.280   0.706
 9697SOL    HW129990   0.354   6.281   0.620
 9697SOL    HW229991   0.502   6.273   0.688
 9698SOL     OW29992   5.508   2.944   6.114
 9698SOL    HW129993   5.596   2.977   6.148
 9698SOL    HW229994   5.492   2.982   6.023
 9699SOL     OW29995   0.824   5.483   0.009
 9699SOL    HW129996   0.865   5.442   0.090
 9699SOL    HW229997   0.797   5.577   0.029
 9700SOL     OW29998   6.573   5.492   4.422
 9700SOL    HW129999   6.627   5.443   4.355
 9700SOL    HW230000   6.565   5.438   4.506
 9701SOL     OW30001   4.249   4.070   5.879
 9701SOL    HW130002   4.300   4.000   5.830
 9701SOL    HW230003   4.217   4.033   5.966
 9702SOL     OW30004   3.891   2.484   0.143
 9702SOL    HW130005   3.937   2.430   0.072
 9702SOL    HW230006   3.813   2.531   0.103
 9703SOL     OW30007   5.324   3.727   4.238
 9703SOL    HW130008   5.293   3.632   4.232
 9703SOL    HW230009   5.277   3.782   4.169
 9704SOL     OW30010   3.053   5.606   2.460
 9704SOL    HW130011   2.977   5.642   2.514
 9704SOL    HW230012   3.102   5.537   2.512
 9705SOL     OW30013   6.011   4.166   5.751
 9705SOL    HW130014   5.930   4.108   5.746
 9705SOL    HW230015   6.034   4.184   5.846
 9706SOL     OW30016   2.592   2.267   1.470
 9706SOL    HW130017   2.671   2.220   1.509
 9706SOL    HW230018   2.618   2.359   1.443
 9707SOL     OW30019   5.685   4.833   2.600
 9707SOL    HW130020   5.603   4.793   2.560
 9707SOL    HW230021   5.764   4.775   2.580
 9708SOL     OW30022   1.200   1.565   2.900
 9708SOL    HW130023   1.113   1.612   2.911
 9708SOL    HW230024   1.274   1.632   2.892
 9709SOL     OW30025   5.305   4.556   2.065
 9709SOL    HW130026   5.210   4.584   2.051
 9709SOL    HW230027   5.336   4.500   1.989
 9710SOL     OW30028   6.227   0.537   0.757
 9710SOL    HW130029   6.296   0.553   0.828
 9710SOL    HW230030   6.270   0.538   0.667
 9711SOL     OW30031   3.843   5.743   6.490
 9711SOL    HW130032   3.793   5.820   6.448
 9711SOL    HW230033   3.787   5.661   6.485
 9712SOL     OW30034   6.345   3.098   0.251
 9712SOL    HW130035   6.392   3.152   0.320
 9712SOL    HW230036   6.321   3.158   0.174
 9713SOL     OW30037   2.783   5.595   3.615
 9713SOL    HW130038   2.786   5.549   3.704
 9713SOL    HW230039   2.777   5.694   3.628
 9714SOL     OW30040   3.996   6.262   5.683
 9714SOL    HW130041   4.059   6.242   5.608
 9714SOL    HW230042   3.975   6.178   5.733
 9715SOL     OW30043   5.598   4.977   6.563
 9715SOL    HW130044   5.590   5.072   6.535
 9715SOL    HW230045   5.594   4.917   6.483
 9716SOL     OW30046   3.550   4.501   6.775
 9716SOL    HW130047   3.600   4.420   6.807
 9716SOL    HW230048   3.556   4.573   6.845
 9717SOL     OW30049   4.556   6.365   6.749
 9717SOL    HW130050   4.482   6.329   6.805
 9717SOL    HW230051   4.518   6.418   6.674
 9718SOL     OW30052   4.518   3.009   1.183
 9718SOL    HW130053   4.438   2.981   1.129
 9718SOL    HW230054   4.489   3.031   1.276
 9719SOL     OW30055   5.097   6.700   5.728
 9719SOL    HW130056   5.107   6.622   5.790
 9719SOL    HW230057   5.148   6.778   5.763
 9720SOL     OW30058   0.822   3.355   2.729
 9720SOL    HW130059   0.723   3.358   2.742
 9720SOL    HW230060   0.858   3.268   2.761
 9721SOL     OW30061   0.233   1.242   6.556
 9721SOL    HW130062   0.213   1.336   6.529
 9721SOL    HW230063   0.236   1.183   6.475
 9722SOL     OW30064   3.477   0.956   5.317
 9722SOL    HW130065   3.509   0.894   5.246
 9722SOL    HW230066   3.427   0.904   5.386
 9723SOL     OW30067   4.992   5.898   4.091
 9723SOL    HW130068   4.968   5.801   4.094
 9723SOL    HW230069   5.009   5.927   3.997
 9724SOL     OW30070   1.791   4.300   0.052
 9724SOL    HW130071   1.743   4.387   0.068
 9724SOL    HW230072   1.840   4.305   6.986
 9725SOL     OW30073   4.194   6.167   6.421
 9725SOL    HW130074   4.138   6.104   6.475
 9725SOL    HW230075   4.152   6.257   6.421
 9726SOL     OW30076   4.575   1.927   4.804
 9726SOL    HW130077   4.548   2.008   4.856
 9726SOL    HW230078   4.493   1.875   4.778
 9727SOL     OW30079   1.050   2.467   6.928
 9727SOL    HW130080   1.107   2.511   6.997
 9727SOL    HW230081   1.005   2.538   6.872
 9728SOL     OW30082   0.453   1.985   5.251
 9728SOL    HW130083   0.401   2.069   5.267
 9728SOL    HW230084   0.416   1.911   5.308
 9729SOL     OW30085   1.157   4.425   3.853
 9729SOL    HW130086   1.252   4.403   3.872
 9729SOL    HW230087   1.104   4.341   3.840
 9730SOL     OW30088   0.945   4.265   3.186
 9730SOL    HW130089   0.880   4.237   3.257
 9730SOL    HW230090   0.971   4.360   3.200
 9731SOL     OW30091   4.613   5.439   1.582
 9731SOL    HW130092   4.683   5.474   1.645
 9731SOL    HW230093   4.574   5.355   1.618
 9732SOL     OW30094   0.549   3.123   2.193
 9732SOL    HW130095   0.590   3.209   2.224
 9732SOL    HW230096   0.560   3.115   2.094
 9733SOL     OW30097   5.986   5.940   0.996
 9733SOL    HW130098   6.018   6.022   0.947
 9733SOL    HW230099   5.935   5.968   1.077
 9734SOL     OW30100   6.742   7.014   0.278
 9734SOL    HW130101   6.773   7.003   0.373
 9734SOL    HW230102   6.653   6.970   0.267
 9735SOL     OW30103   1.742   3.112   3.333
 9735SOL    HW130104   1.759   3.017   3.359
 9735SOL    HW230105   1.677   3.153   3.398
 9736SOL     OW30106   5.352   1.650   5.983
 9736SOL    HW130107   5.381   1.616   5.894
 9736SOL    HW230108   5.374   1.582   6.053
 9737SOL     OW30109   5.291   2.192   2.704
 9737SOL    HW130110   5.362   2.246   2.750
 9737SOL    HW230111   5.286   2.217   2.608
 9738SOL     OW30112   1.811   6.892   0.843
 9738SOL    HW130113   1.787   6.833   0.766
 9738SOL    HW230114   1.740   6.961   0.857
 9739SOL     OW30115   5.207   5.994   0.143
 9739SOL    HW130116   5.218   6.050   0.225
 9739SOL    HW230117   5.114   6.002   0.108
 9740SOL     OW30118   6.519   1.248   3.005
 9740SOL    HW130119   6.543   1.214   3.096
 9740SOL    HW230120   6.587   1.315   2.975
 9741SOL     OW30121   2.554   0.674   3.532
 9741SOL    HW130122   2.554   0.771   3.509
 9741SOL    HW230123   2.518   0.621   3.455
 9742SOL     OW30124   4.140   0.996   0.138
 9742SOL    HW130125   4.170   0.967   0.047
 9742SOL    HW230126   4.103   1.089   0.134
 9743SOL     OW30127   0.355   3.972   3.078
 9743SOL    HW130128   0.289   3.961   3.152
 9743SOL    HW230129   0.434   4.023   3.113
 9744SOL     OW30130   2.419   0.225   2.443
 9744SOL    HW130131   2.432   0.146   2.384
 9744SOL    HW230132   2.388   0.303   2.388
 9745SOL     OW30133   4.753   2.952   5.847
 9745SOL    HW130134   4.749   2.927   5.750
 9745SOL    HW230135   4.702   3.037   5.862
 9746SOL     OW30136   5.200   6.354   5.616
 9746SOL    HW130137   5.293   6.360   5.653
 9746SOL    HW230138   5.175   6.258   5.604
 9747SOL     OW30139   3.118   2.140   1.914
 9747SOL    HW130140   3.114   2.159   1.816
 9747SOL    HW230141   3.048   2.194   1.961
 9748SOL     OW30142   0.043   6.704   3.185
 9748SOL    HW130143   0.033   6.754   3.099
 9748SOL    HW230144   0.134   6.663   3.189
 9749SOL     OW30145   0.532   0.896   3.214
 9749SOL    HW130146   0.629   0.873   3.216
 9749SOL    HW230147   0.510   0.941   3.128
 9750SOL     OW30148   6.020   5.769   3.907
 9750SOL    HW130149   6.029   5.669   3.899
 9750SOL    HW230150   6.109   5.811   3.893
 9751SOL     OW30151   2.137   0.218   0.520
 9751SOL    HW130152   2.202   0.143   0.533
 9751SOL    HW230153   2.111   0.256   0.608
 9752SOL     OW30154   4.231   1.598   5.439
 9752SOL    HW130155   4.148   1.637   5.399
 9752SOL    HW230156   4.291   1.672   5.470
 9753SOL     OW30157   1.026   5.656   6.049
 9753SOL    HW130158   1.020   5.567   6.003
 9753SOL    HW230159   1.106   5.657   6.109
 9754SOL     OW30160   2.846   0.512   0.865
 9754SOL    HW130161   2.881   0.597   0.826
 9754SOL    HW230162   2.750   0.500   0.838
 9755SOL     OW30163   3.594   4.137   4.659
 9755SOL    HW130164   3.691   4.132   4.637
 9755SOL    HW230165   3.541   4.094   4.585
 9756SOL     OW30166   6.407   2.406   6.276
 9756SOL    HW130167   6.327   2.350   6.259
 9756SOL    HW230168   6.482   2.349   6.310
 9757SOL     OW30169   5.442   4.214   4.861
 9757SOL    HW130170   5.431   4.116   4.877
 9757SOL    HW230171   5.457   4.261   4.948
 9758SOL     OW30172   1.920   0.930   0.438
 9758SOL    HW130173   1.903   1.028   0.449
 9758SOL    HW230174   1.880   0.881   0.516
 9759SOL     OW30175   0.808   1.038   0.200
 9759SOL    HW130176   0.861   0.961   0.164
 9759SOL    HW230177   0.712   1.025   0.179
 9760SOL     OW30178   4.822   3.344   5.769
 9760SOL    HW130179   4.854   3.410   5.836
 9760SOL    HW230180   4.842   3.378   5.677
 9761SOL     OW30181   1.069   2.455   2.173
 9761SOL    HW130182   1.003   2.522   2.206
 9761SOL    HW230183   1.160   2.477   2.209
 9762SOL     OW30184   3.262   1.468   4.747
 9762SOL    HW130185   3.243   1.565   4.756
 9762SOL    HW230186   3.176   1.418   4.732
 9763SOL     OW30187   5.572   1.159   3.349
 9763SOL    HW130188   5.479   1.123   3.345
 9763SOL    HW230189   5.597   1.198   3.261
 9764SOL     OW30190   6.434   2.448   2.027
 9764SOL    HW130191   6.447   2.459   1.928
 9764SOL    HW230192   6.367   2.375   2.044
 9765SOL     OW30193   6.766   6.645   2.848
 9765SOL    HW130194   6.851   6.644   2.902
 9765SOL    HW230195   6.786   6.670   2.754
 9766SOL     OW30196   2.248   6.629   2.684
 9766SOL    HW130197   2.322   6.563   2.676
 9766SOL    HW230198   2.252   6.693   2.608
 9767SOL     OW30199   2.425   2.419   6.101
 9767SOL    HW130200   2.401   2.510   6.134
 9767SOL    HW230201   2.523   2.417   6.080
 9768SOL     OW30202   4.504   1.652   1.626
 9768SOL    HW130203   4.530   1.656   1.723
 9768SOL    HW230204   4.566   1.591   1.577
 9769SOL     OW30205   3.440   1.395   4.445
 9769SOL    HW130206   3.538   1.416   4.444
 9769SOL    HW230207   3.393   1.458   4.506
 9770SOL     OW30208   3.783   1.495   5.149
 9770SOL    HW130209   3.794   1.396   5.152
 9770SOL    HW230210   3.718   1.523   5.220
 9771SOL     OW30211   2.564   5.216   0.978
 9771SOL    HW130212   2.635   5.160   0.936
 9771SOL    HW230213   2.600   5.308   0.995
 9772SOL     OW30214   1.920   6.408   1.668
 9772SOL    HW130215   1.956   6.382   1.578
 9772SOL    HW230216   1.891   6.326   1.717
 9773SOL     OW30217   4.869   5.583   3.629
 9773SOL    HW130218   4.955   5.535   3.612
 9773SOL    HW230219   4.874   5.675   3.590
 9774SOL     OW30220   0.524   5.706   2.921
 9774SOL    HW130221   0.613   5.725   2.879
 9774SOL    HW230222   0.465   5.660   2.855
 9775SOL     OW30223   3.137   0.055   3.640
 9775SOL    HW130224   3.057   0.113   3.648
 9775SOL    HW230225   3.198   0.071   3.718
 9776SOL     OW30226   1.122   4.339   5.865
 9776SOL    HW130227   1.038   4.297   5.902
 9776SOL    HW230228   1.143   4.299   5.776
 9777SOL     OW30229   5.881   5.276   0.703
 9777SOL    HW130230   5.799   5.291   0.758
 9777SOL    HW230231   5.920   5.364   0.677
 9778SOL     OW30232   6.781   1.516   4.975
 9778SOL    HW130233   6.735   1.496   4.889
 9778SOL    HW230234   6.720   1.569   5.034
 9779SOL     OW30235   0.550   2.091   3.898
 9779SOL    HW130236   0.563   1.994   3.918
 9779SOL    HW230237   0.519   2.138   3.980
 9780SOL     OW30238   2.257   1.832   0.873
 9780SOL    HW130239   2.278   1.895   0.947
 9780SOL    HW230240   2.268   1.878   0.785
 9781SOL     OW30241   1.838   3.486   4.347
 9781SOL    HW130242   1.817   3.416   4.279
 9781SOL    HW230243   1.937   3.488   4.363
 9782SOL     OW30244   0.640   2.166   0.051
 9782SOL    HW130245   0.551   2.121   0.044
 9782SOL    HW230246   0.684   2.166   6.981
 9783SOL     OW30247   4.465   2.460   3.354
 9783SOL    HW130248   4.540   2.396   3.369
 9783SOL    HW230249   4.425   2.444   3.263
 9784SOL     OW30250   3.414   0.471   6.068
 9784SOL    HW130251   3.377   0.557   6.102
 9784SOL    HW230252   3.479   0.490   5.994
 9785SOL     OW30253   7.006   2.035   5.380
 9785SOL    HW130254   0.034   1.966   5.434
 9785SOL    HW230255   6.924   2.063   5.429
 9786SOL     OW30256   2.704   2.979   0.432
 9786SOL    HW130257   2.761   3.027   0.500
 9786SOL    HW230258   2.715   3.022   0.343
 9787SOL     OW30259   3.098   3.560   2.638
 9787SOL    HW130260   3.187   3.601   2.657
 9787SOL    HW230261   3.093   3.535   2.541
 9788SOL     OW30262   1.025   6.902   1.599
 9788SOL    HW130263   0.962   6.824   1.594
 9788SOL    HW230264   1.044   6.924   1.695
 9789SOL     OW30265   1.526   6.189   0.626
 9789SOL    HW130266   1.464   6.224   0.555
 9789SOL    HW230267   1.617   6.177   0.587
 9790SOL     OW30268   6.449   4.375   6.121
 9790SOL    HW130269   6.468   4.297   6.061
 9790SOL    HW230270   6.461   4.460   6.071
 9791SOL     OW30271   0.087   0.500   6.856
 9791SOL    HW130272   0.007   0.446   6.829
 9791SOL    HW230273   0.151   0.442   6.907
 9792SOL     OW30274   3.668   5.166   1.021
 9792SOL    HW130275   3.661   5.149   0.923
 9792SOL    HW230276   3.593   5.226   1.050
 9793SOL     OW30277   4.422   0.316   2.510
 9793SOL    HW130278   4.499   0.254   2.526
 9793SOL    HW230279   4.375   0.290   2.426
 9794SOL     OW30280   6.307   4.471   5.671
 9794SOL    HW130281   6.256   4.475   5.757
 9794SOL    HW230282   6.276   4.544   5.610
 9795SOL     OW30283   1.107   2.939   4.635
 9795SOL    HW130284   1.134   2.991   4.554
 9795SOL    HW230285   1.177   2.951   4.706
 9796SOL     OW30286   4.049   3.792   2.833
 9796SOL    HW130287   3.977   3.855   2.803
 9796SOL    HW230288   4.136   3.842   2.841
 9797SOL     OW30289   2.006   5.436   0.030
 9797SOL    HW130290   2.052   5.461   6.966
 9797SOL    HW230291   1.953   5.514   0.063
 9798SOL     OW30292   2.663   0.822   1.986
 9798SOL    HW130293   2.605   0.903   1.998
 9798SOL    HW230294   2.653   0.787   1.893
 9799SOL     OW30295   2.834   4.138   5.883
 9799SOL    HW130296   2.890   4.096   5.812
 9799SOL    HW230297   2.831   4.078   5.962
 9800SOL     OW30298   5.071   4.608   4.393
 9800SOL    HW130299   5.070   4.633   4.296
 9800SOL    HW230300   5.108   4.515   4.402
 9801SOL     OW30301   4.493   4.373   6.962
 9801SOL    HW130302   4.420   4.418   7.013
 9801SOL    HW230303   4.537   4.306   0.000
 9802SOL     OW30304   5.630   4.964   0.625
 9802SOL    HW130305   5.557   5.006   0.679
 9802SOL    HW230306   5.597   4.878   0.586
 9803SOL     OW30307   1.588   2.874   6.394
 9803SOL    HW130308   1.638   2.884   6.308
 9803SOL    HW230309   1.494   2.907   6.382
 9804SOL     OW30310   0.644   6.480   3.169
 9804SOL    HW130311   0.603   6.554   3.223
 9804SOL    HW230312   0.744   6.487   3.174
 9805SOL     OW30313   0.832   6.985   3.098
 9805SOL    HW130314   0.808   6.915   3.166
 9805SOL    HW230315   0.755   0.028   3.088
 9806SOL     OW30316   1.226   1.622   6.863
 9806SOL    HW130317   1.136   1.597   6.898
 9806SOL    HW230318   1.267   1.543   6.818
 9807SOL     OW30319   3.446   4.116   0.956
 9807SOL    HW130320   3.401   4.045   0.902
 9807SOL    HW230321   3.428   4.205   0.915
 9808SOL     OW30322   4.006   5.834   4.914
 9808SOL    HW130323   3.966   5.745   4.937
 9808SOL    HW230324   4.048   5.828   4.823
 9809SOL     OW30325   0.567   3.627   0.118
 9809SOL    HW130326   0.485   3.617   0.174
 9809SOL    HW230327   0.613   3.538   0.110
 9810SOL     OW30328   3.243   2.116   4.440
 9810SOL    HW130329   3.236   2.175   4.521
 9810SOL    HW230330   3.236   2.021   4.469
 9811SOL     OW30331   5.919   4.814   3.569
 9811SOL    HW130332   5.830   4.787   3.607
 9811SOL    HW230333   5.904   4.864   3.483
 9812SOL     OW30334   3.181   1.347   5.505
 9812SOL    HW130335   3.126   1.429   5.519
 9812SOL    HW230336   3.188   1.296   5.591
 9813SOL     OW30337   4.945   1.882   0.914
 9813SOL    HW130338   5.013   1.920   0.977
 9813SOL    HW230339   4.875   1.834   0.967
 9814SOL     OW30340   6.451   0.758   6.967
 9814SOL    HW130341   6.361   0.746   7.007
 9814SOL    HW230342   6.444   0.763   6.867
 9815SOL     OW30343   4.859   3.292   4.506
 9815SOL    HW130344   4.813   3.214   4.548
 9815SOL    HW230345   4.931   3.259   4.444
 9816SOL     OW30346   0.204   1.261   5.716
 9816SOL    HW130347   0.150   1.320   5.776
 9816SOL    HW230348   0.209   1.169   5.756
 9817SOL     OW30349   1.268   6.820   3.285
 9817SOL    HW130350   1.203   6.895   3.303
 9817SOL    HW230351   1.227   6.757   3.219
 9818SOL     OW30352   6.577   1.367   4.041
 9818SOL    HW130353   6.540   1.310   3.968
 9818SOL    HW230354   6.511   1.439   4.063
 9819SOL     OW30355   5.179   3.299   3.288
 9819SOL    HW130356   5.092   3.266   3.325
 9819SOL    HW230357   5.247   3.225   3.291
 9820SOL     OW30358   3.466   3.105   6.596
 9820SOL    HW130359   3.415   3.191   6.603
 9820SOL    HW230360   3.461   3.071   6.502
 9821SOL     OW30361   5.606   1.049   6.599
 9821SOL    HW130362   5.562   0.973   6.646
 9821SOL    HW230363   5.573   1.136   6.636
 9822SOL     OW30364   1.774   6.929   3.264
 9822SOL    HW130365   1.693   6.894   3.217
 9822SOL    HW230366   1.768   0.007   3.271
 9823SOL     OW30367   3.241   6.977   0.721
 9823SOL    HW130368   3.244   7.001   0.818
 9823SOL    HW230369   3.154   6.931   0.701
 9824SOL     OW30370   2.165   4.655   4.969
 9824SOL    HW130371   2.145   4.622   5.061
 9824SOL    HW230372   2.230   4.593   4.925
 9825SOL     OW30373   3.725   5.330   5.945
 9825SOL    HW130374   3.789   5.325   5.868
 9825SOL    HW230375   3.664   5.250   5.942
 9826SOL     OW30376   5.082   5.082   6.078
 9826SOL    HW130377   5.013   5.119   6.141
 9826SOL    HW230378   5.054   5.100   5.984
 9827SOL     OW30379   2.093   3.752   3.798
 9827SOL    HW130380   2.153   3.753   3.718
 9827SOL    HW230381   2.127   3.816   3.866
 9828SOL     OW30382   2.366   3.178   6.474
 9828SOL    HW130383   2.448   3.218   6.515
 9828SOL    HW230384   2.360   3.081   6.499
 9829SOL     OW30385   3.276   5.794   6.864
 9829SOL    HW130386   3.221   5.866   6.822
 9829SOL    HW230387   3.236   5.768   6.951
 9830SOL     OW30388   5.961   2.981   2.077
 9830SOL    HW130389   6.014   2.905   2.038
 9830SOL    HW230390   5.999   3.067   2.043
 9831SOL     OW30391   2.133   5.519   0.916
 9831SOL    HW130392   2.082   5.507   1.001
 9831SOL    HW230393   2.217   5.465   0.919
 9832SOL     OW30394   4.922   5.758   2.630
 9832SOL    HW130395   4.965   5.719   2.711
 9832SOL    HW230396   4.973   5.839   2.601
 9833SOL     OW30397   3.898   3.034   5.134
 9833SOL    HW130398   3.882   2.947   5.086
 9833SOL    HW230399   3.966   3.019   5.206
 9834SOL     OW30400   3.297   4.333   5.309
 9834SOL    HW130401   3.202   4.301   5.312
 9834SOL    HW230402   3.347   4.277   5.243
 9835SOL     OW30403   3.197   2.785   5.649
 9835SOL    HW130404   3.167   2.878   5.628
 9835SOL    HW230405   3.117   2.725   5.652
 9836SOL     OW30406   5.889   4.573   4.088
 9836SOL    HW130407   5.959   4.517   4.042
 9836SOL    HW230408   5.882   4.545   4.184
 9837SOL     OW30409   2.817   0.689   2.926
 9837SOL    HW130410   2.727   0.693   2.969
 9837SOL    HW230411   2.867   0.773   2.944
 9838SOL     OW30412   0.805   6.505   6.246
 9838SOL    HW130413   0.833   6.419   6.201
 9838SOL    HW230414   0.777   6.571   6.176
 9839SOL     OW30415   6.207   1.594   3.461
 9839SOL    HW130416   6.177   1.518   3.519
 9839SOL    HW230417   6.129   1.655   3.445
 9840SOL     OW30418   0.183   1.827   1.279
 9840SOL    HW130419   0.202   1.815   1.376
 9840SOL    HW230420   0.227   1.753   1.227
 9841SOL     OW30421   1.837   4.042   4.744
 9841SOL    HW130422   1.906   3.991   4.694
 9841SOL    HW230423   1.881   4.111   4.802
 9842SOL     OW30424   3.989   3.575   2.631
 9842SOL    HW130425   4.003   3.662   2.678
 9842SOL    HW230426   4.020   3.500   2.689
 9843SOL     OW30427   5.421   0.597   1.091
 9843SOL    HW130428   5.424   0.550   1.179
 9843SOL    HW230429   5.486   0.673   1.091
 9844SOL     OW30430   5.927   1.430   1.999
 9844SOL    HW130431   5.953   1.343   2.040
 9844SOL    HW230432   5.842   1.418   1.946
 9845SOL     OW30433   3.197   1.970   3.403
 9845SOL    HW130434   3.279   2.027   3.394
 9845SOL    HW230435   3.140   2.006   3.477
 9846SOL     OW30436   3.716   3.472   1.849
 9846SOL    HW130437   3.788   3.403   1.837
 9846SOL    HW230438   3.657   3.472   1.768
 9847SOL     OW30439   3.620   2.989   4.425
 9847SOL    HW130440   3.535   2.938   4.408
 9847SOL    HW230441   3.623   3.069   4.365
 9848SOL     OW30442   3.446   3.034   6.296
 9848SOL    HW130443   3.444   3.106   6.228
 9848SOL    HW230444   3.434   2.945   6.251
 9849SOL     OW30445   0.222   0.419   0.063
 9849SOL    HW130446   0.301   0.478   0.051
 9849SOL    HW230447   0.182   0.434   0.153
 9850SOL     OW30448   5.938   0.226   3.839
 9850SOL    HW130449   5.915   0.153   3.774
 9850SOL    HW230450   5.955   0.185   3.929
 9851SOL     OW30451   4.748   1.348   5.057
 9851SOL    HW130452   4.771   1.273   5.118
 9851SOL    HW230453   4.676   1.404   5.099
 9852SOL     OW30454   4.271   2.348   2.737
 9852SOL    HW130455   4.343   2.392   2.790
 9852SOL    HW230456   4.290   2.359   2.640
 9853SOL     OW30457   5.635   4.609   4.435
 9853SOL    HW130458   5.618   4.705   4.457
 9853SOL    HW230459   5.547   4.561   4.430
 9854SOL     OW30460   0.506   5.974   5.082
 9854SOL    HW130461   0.518   5.955   4.985
 9854SOL    HW230462   0.410   5.959   5.107
 9855SOL     OW30463   2.734   2.876   0.847
 9855SOL    HW130464   2.766   2.841   0.935
 9855SOL    HW230465   2.635   2.889   0.850
 9856SOL     OW30466   4.683   3.810   5.799
 9856SOL    HW130467   4.660   3.894   5.749
 9856SOL    HW230468   4.683   3.733   5.735
 9857SOL     OW30469   4.440   2.446   3.629
 9857SOL    HW130470   4.434   2.443   3.529
 9857SOL    HW230471   4.361   2.398   3.668
 9858SOL     OW30472   0.171   0.979   0.784
 9858SOL    HW130473   0.235   0.963   0.710
 9858SOL    HW230474   0.081   0.942   0.759
 9859SOL     OW30475   6.187   6.891   2.158
 9859SOL    HW130476   6.121   6.843   2.216
 9859SOL    HW230477   6.150   6.901   2.066
 9860SOL     OW30478   0.413   1.337   3.594
 9860SOL    HW130479   0.446   1.427   3.624
 9860SOL    HW230480   0.472   1.266   3.632
 9861SOL     OW30481   3.281   0.196   3.067
 9861SOL    HW130482   3.272   0.098   3.050
 9861SOL    HW230483   3.367   0.213   3.115
 9862SOL     OW30484   3.685   4.115   0.277
 9862SOL    HW130485   3.606   4.174   0.292
 9862SOL    HW230486   3.750   4.162   0.216
 9863SOL     OW30487   3.935   6.788   2.851
 9863SOL    HW130488   3.944   6.753   2.758
 9863SOL    HW230489   3.851   6.843   2.857
 9864SOL     OW30490   3.908   6.324   4.117
 9864SOL    HW130491   3.848   6.346   4.040
 9864SOL    HW230492   3.856   6.275   4.187
 9865SOL     OW30493   1.399   0.774   4.123
 9865SOL    HW130494   1.443   0.766   4.034
 9865SOL    HW230495   1.329   0.703   4.132
 9866SOL     OW30496   4.602   5.032   6.023
 9866SOL    HW130497   4.598   5.016   6.122
 9866SOL    HW230498   4.623   4.945   5.977
 9867SOL     OW30499   6.064   0.932   0.704
 9867SOL    HW130500   6.006   0.893   0.633
 9867SOL    HW230501   6.008   0.955   0.784
 9868SOL     OW30502   0.685   4.024   5.844
 9868SOL    HW130503   0.685   3.941   5.899
 9868SOL    HW230504   0.749   4.014   5.768
 9869SOL     OW30505   1.591   3.284   2.416
 9869SOL    HW130506   1.499   3.308   2.382
 9869SOL    HW230507   1.593   3.293   2.515
 9870SOL     OW30508   3.659   5.543   2.809
 9870SOL    HW130509   3.575   5.527   2.757
 9870SOL    HW230510   3.635   5.554   2.906
 9871SOL     OW30511   0.118   6.159   6.252
 9871SOL    HW130512   0.110   6.205   6.341
 9871SOL    HW230513   0.206   6.112   6.247
 9872SOL     OW30514   2.297   4.763   4.198
 9872SOL    HW130515   2.349   4.738   4.279
 9872SOL    HW230516   2.232   4.691   4.176
 9873SOL     OW30517   2.439   2.253   7.017
 9873SOL    HW130518   2.355   2.307   0.003
 9873SOL    HW230519   2.516   2.307   0.030
 9874SOL     OW30520   6.968   2.960   4.879
 9874SOL    HW130521   7.009   2.919   4.961
 9874SOL    HW230522   6.945   3.056   4.898
 9875SOL     OW30523   6.311   6.701   1.785
 9875SOL    HW130524   6.346   6.762   1.856
 9875SOL    HW230525   6.356   6.613   1.791
 9876SOL     OW30526   6.356   0.306   3.228
 9876SOL    HW130527   6.396   0.328   3.317
 9876SOL    HW230528   6.380   0.213   3.202
 9877SOL     OW30529   0.378   6.257   4.052
 9877SOL    HW130530   0.430   6.306   3.982
 9877SOL    HW230531   0.441   6.224   4.123
 9878SOL     OW30532   2.647   4.964   5.237
 9878SOL    HW130533   2.620   4.978   5.141
 9878SOL    HW230534   2.599   5.030   5.295
 9879SOL     OW30535   5.358   5.111   5.055
 9879SOL    HW130536   5.420   5.137   5.128
 9879SOL    HW230537   5.334   5.192   5.001
 9880SOL     OW30538   3.083   0.995   5.929
 9880SOL    HW130539   3.058   0.906   5.890
 9880SOL    HW230540   3.051   1.000   6.024
 9881SOL     OW30541   1.033   1.096   4.874
 9881SOL    HW130542   1.130   1.111   4.859
 9881SOL    HW230543   0.984   1.104   4.788
 9882SOL     OW30544   1.093   3.594   3.847
 9882SOL    HW130545   1.157   3.568   3.918
 9882SOL    HW230546   1.023   3.655   3.885
 9883SOL     OW30547   1.137   6.260   0.443
 9883SOL    HW130548   1.236   6.264   0.431
 9883SOL    HW230549   1.115   6.198   0.518
 9884SOL     OW30550   4.913   2.212   2.010
 9884SOL    HW130551   4.827   2.261   1.998
 9884SOL    HW230552   4.972   2.227   1.931
 9885SOL     OW30553   6.879   2.216   4.677
 9885SOL    HW130554   6.832   2.254   4.757
 9885SOL    HW230555   6.854   2.120   4.666
 9886SOL     OW30556   1.330   4.521   2.248
 9886SOL    HW130557   1.340   4.613   2.285
 9886SOL    HW230558   1.366   4.455   2.313
 9887SOL     OW30559   3.669   0.293   6.115
 9887SOL    HW130560   3.720   0.306   6.030
 9887SOL    HW230561   3.583   0.344   6.110
 9888SOL     OW30562   5.583   4.671   2.821
 9888SOL    HW130563   5.612   4.754   2.774
 9888SOL    HW230564   5.651   4.647   2.891
 9889SOL     OW30565   6.836   5.038   1.880
 9889SOL    HW130566   6.867   4.977   1.807
 9889SOL    HW230567   6.913   5.065   1.937
 9890SOL     OW30568   2.039   2.286   0.922
 9890SOL    HW130569   1.976   2.230   0.869
 9890SOL    HW230570   2.017   2.383   0.909
 9891SOL     OW30571   4.892   3.972   1.871
 9891SOL    HW130572   4.983   3.981   1.832
 9891SOL    HW230573   4.874   3.876   1.893
 9892SOL     OW30574   0.037   4.538   1.303
 9892SOL    HW130575   0.055   4.440   1.303
 9892SOL    HW230576   0.104   4.585   1.245
 9893SOL     OW30577   0.861   0.546   0.880
 9893SOL    HW130578   0.855   0.550   0.980
 9893SOL    HW230579   0.816   0.625   0.840
 9894SOL     OW30580   3.191   2.680   1.092
 9894SOL    HW130581   3.213   2.616   1.019
 9894SOL    HW230582   3.127   2.637   1.156
 9895SOL     OW30583   6.386   5.027   4.299
 9895SOL    HW130584   6.333   4.956   4.345
 9895SOL    HW230585   6.339   5.055   4.216
 9896SOL     OW30586   6.789   1.070   6.541
 9896SOL    HW130587   6.809   1.168   6.537
 9896SOL    HW230588   6.861   1.024   6.592
 9897SOL     OW30589   5.486   6.301   2.558
 9897SOL    HW130590   5.492   6.362   2.637
 9897SOL    HW230591   5.520   6.210   2.583
 9898SOL     OW30592   1.931   6.284   4.712
 9898SOL    HW130593   2.009   6.274   4.774
 9898SOL    HW230594   1.854   6.230   4.745
 9899SOL     OW30595   1.444   6.011   0.820
 9899SOL    HW130596   1.345   6.011   0.811
 9899SOL    HW230597   1.483   6.082   0.760
 9900SOL     OW30598   1.941   2.827   3.073
 9900SOL    HW130599   1.886   2.832   3.157
 9900SOL    HW230600   2.004   2.904   3.070
 9901SOL     OW30601   2.639   0.194   0.002
 9901SOL    HW130602   2.602   0.136   0.075
 9901SOL    HW230603   2.584   0.183   6.940
 9902SOL     OW30604   3.376   5.112   1.384
 9902SOL    HW130605   3.334   5.202   1.373
 9902SOL    HW230606   3.432   5.092   1.305
 9903SOL     OW30607   5.561   2.405   1.422
 9903SOL    HW130608   5.650   2.427   1.462
 9903SOL    HW230609   5.488   2.428   1.486
 9904SOL     OW30610   0.695   3.799   6.684
 9904SOL    HW130611   0.793   3.809   6.669
 9904SOL    HW230612   0.655   3.888   6.701
 9905SOL     OW30613   1.883   0.332   6.459
 9905SOL    HW130614   1.842   0.408   6.509
 9905SOL    HW230615   1.924   0.366   6.374
 9906SOL     OW30616   1.894   3.463   1.435
 9906SOL    HW130617   1.917   3.420   1.348
 9906SOL    HW230618   1.892   3.563   1.423
 9907SOL     OW30619   0.660   0.130   1.549
 9907SOL    HW130620   0.669   0.126   1.450
 9907SOL    HW230621   0.595   0.202   1.574
 9908SOL     OW30622   6.361   1.228   5.169
 9908SOL    HW130623   6.270   1.205   5.134
 9908SOL    HW230624   6.353   1.255   5.265
 9909SOL     OW30625   4.605   1.701   3.079
 9909SOL    HW130626   4.632   1.750   2.996
 9909SOL    HW230627   4.680   1.703   3.145
 9910SOL     OW30628   1.127   5.178   1.476
 9910SOL    HW130629   1.048   5.121   1.499
 9910SOL    HW230630   1.171   5.209   1.560
 9911SOL     OW30631   2.843   6.161   2.309
 9911SOL    HW130632   2.850   6.219   2.229
 9911SOL    HW230633   2.926   6.168   2.363
 9912SOL     OW30634   3.816   0.120   1.392
 9912SOL    HW130635   3.910   0.104   1.422
 9912SOL    HW230636   3.785   0.041   1.339
 9913SOL     OW30637   6.048   4.135   0.262
 9913SOL    HW130638   6.041   4.216   0.204
 9913SOL    HW230639   6.105   4.155   0.341
 9914SOL     OW30640   5.999   1.166   4.807
 9914SOL    HW130641   5.979   1.073   4.837
 9914SOL    HW230642   6.004   1.169   4.708
 9915SOL     OW30643   6.209   1.427   3.847
 9915SOL    HW130644   6.139   1.439   3.776
 9915SOL    HW230645   6.169   1.445   3.937
 9916SOL     OW30646   2.258   2.483   2.622
 9916SOL    HW130647   2.331   2.433   2.575
 9916SOL    HW230648   2.253   2.576   2.587
 9917SOL     OW30649   4.834   4.154   6.228
 9917SOL    HW130650   4.808   4.189   6.137
 9917SOL    HW230651   4.833   4.229   6.294
 9918SOL     OW30652   2.701   2.092   3.410
 9918SOL    HW130653   2.617   2.078   3.357
 9918SOL    HW230654   2.684   2.160   3.481
 9919SOL     OW30655   0.738   5.057   0.650
 9919SOL    HW130656   0.826   5.025   0.686
 9919SOL    HW230657   0.674   5.070   0.726
 9920SOL     OW30658   4.950   1.205   2.349
 9920SOL    HW130659   4.930   1.162   2.261
 9920SOL    HW230660   4.869   1.253   2.382
 9921SOL     OW30661   4.223   6.086   4.463
 9921SOL    HW130662   4.225   6.071   4.364
 9921SOL    HW230663   4.128   6.086   4.495
 9922SOL     OW30664   2.363   3.853   0.492
 9922SOL    HW130665   2.288   3.885   0.434
 9922SOL    HW230666   2.338   3.766   0.534
 9923SOL     OW30667   5.798   4.593   6.877
 9923SOL    HW130668   5.742   4.637   6.948
 9923SOL    HW230669   5.747   4.592   6.791
 9924SOL     OW30670   6.388   1.721   3.265
 9924SOL    HW130671   6.382   1.655   3.191
 9924SOL    HW230672   6.344   1.684   3.347
 9925SOL     OW30673   0.120   4.247   4.145
 9925SOL    HW130674   0.156   4.340   4.151
 9925SOL    HW230675   0.111   4.209   4.237
 9926SOL     OW30676   4.501   3.046   1.443
 9926SOL    HW130677   4.522   3.006   1.532
 9926SOL    HW230678   4.458   3.135   1.456
 9927SOL     OW30679   1.594   0.288   0.589
 9927SOL    HW130680   1.508   0.247   0.557
 9927SOL    HW230681   1.594   0.291   0.689
 9928SOL     OW30682   5.314   4.960   3.039
 9928SOL    HW130683   5.214   4.961   3.051
 9928SOL    HW230684   5.348   4.867   3.044
 9929SOL     OW30685   3.146   4.053   5.111
 9929SOL    HW130686   3.135   4.009   5.201
 9929SOL    HW230687   3.128   4.151   5.120
 9930SOL     OW30688   6.171   6.543   4.962
 9930SOL    HW130689   6.211   6.486   4.889
 9930SOL    HW230690   6.187   6.499   5.050
 9931SOL     OW30691   0.450   5.356   4.736
 9931SOL    HW130692   0.444   5.434   4.674
 9931SOL    HW230693   0.511   5.287   4.697
 9932SOL     OW30694   3.038   3.347   6.143
 9932SOL    HW130695   3.098   3.305   6.210
 9932SOL    HW230696   3.026   3.285   6.065
 9933SOL     OW30697   0.876   6.297   4.016
 9933SOL    HW130698   0.975   6.288   4.021
 9933SOL    HW230699   0.846   6.287   3.921
 9934SOL     OW30700   6.550   2.085   5.566
 9934SOL    HW130701   6.485   2.160   5.551
 9934SOL    HW230702   6.529   2.009   5.504
 9935SOL     OW30703   3.222   6.839   0.350
 9935SOL    HW130704   3.255   6.750   0.380
 9935SOL    HW230705   3.279   6.872   0.275
 9936SOL     OW30706   6.935   4.665   6.872
 9936SOL    HW130707   6.946   4.759   6.907
 9936SOL    HW230708   7.018   4.637   6.824
 9937SOL     OW30709   0.215   1.904   1.848
 9937SOL    HW130710   0.303   1.948   1.828
 9937SOL    HW230711   0.226   1.805   1.841
 9938SOL     OW30712   6.550   5.157   3.469
 9938SOL    HW130713   6.606   5.144   3.550
 9938SOL    HW230714   6.606   5.143   3.387
 9939SOL     OW30715   4.223   2.545   1.428
 9939SOL    HW130716   4.316   2.582   1.422
 9939SOL    HW230717   4.227   2.451   1.462
 9940SOL     OW30718   0.869   0.691   1.157
 9940SOL    HW130719   0.773   0.709   1.136
 9940SOL    HW230720   0.879   0.672   1.254
 9941SOL     OW30721   3.234   3.028   4.615
 9941SOL    HW130722   3.311   3.030   4.679
 9941SOL    HW230723   3.266   2.993   4.527
 9942SOL     OW30724   2.528   5.433   2.946
 9942SOL    HW130725   2.442   5.476   2.975
 9942SOL    HW230726   2.597   5.446   3.018
 9943SOL     OW30727   0.805   4.466   5.898
 9943SOL    HW130728   0.857   4.503   5.974
 9943SOL    HW230729   0.707   4.485   5.912
 9944SOL     OW30730   0.944   4.409   6.701
 9944SOL    HW130731   0.937   4.393   6.603
 9944SOL    HW230732   1.024   4.361   6.737
 9945SOL     OW30733   4.445   5.395   6.438
 9945SOL    HW130734   4.420   5.439   6.351
 9945SOL    HW230735   4.542   5.410   6.456
 9946SOL     OW30736   5.899   0.485   3.564
 9946SOL    HW130737   5.853   0.543   3.497
 9946SOL    HW230738   5.985   0.451   3.524
 9947SOL     OW30739   2.526   2.344   4.457
 9947SOL    HW130740   2.451   2.278   4.458
 9947SOL    HW230741   2.515   2.409   4.532
 9948SOL     OW30742   6.069   4.605   6.160
 9948SOL    HW130743   6.027   4.672   6.222
 9948SOL    HW230744   6.003   4.532   6.141
 9949SOL     OW30745   6.808   5.031   4.013
 9949SOL    HW130746   6.716   5.068   4.021
 9949SOL    HW230747   6.874   5.098   4.047
 9950SOL     OW30748   5.637   6.516   5.312
 9950SOL    HW130749   5.556   6.553   5.266
 9950SOL    HW230750   5.631   6.534   5.410
 9951SOL     OW30751   0.556   1.572   3.656
 9951SOL    HW130752   0.609   1.603   3.735
 9951SOL    HW230753   0.502   1.648   3.621
 9952SOL     OW30754   1.095   4.678   0.191
 9952SOL    HW130755   1.002   4.715   0.190
 9952SOL    HW230756   1.108   4.623   0.274
 9953SOL     OW30757   5.724   2.332   4.794
 9953SOL    HW130758   5.808   2.297   4.835
 9953SOL    HW230759   5.740   2.422   4.754
 9954SOL     OW30760   0.213   0.485   6.255
 9954SOL    HW130761   0.148   0.554   6.227
 9954SOL    HW230762   0.185   0.445   6.342
 9955SOL     OW30763   5.922   3.510   6.065
 9955SOL    HW130764   5.913   3.576   6.140
 9955SOL    HW230765   5.904   3.556   5.978
 9956SOL     OW30766   1.020   5.495   2.162
 9956SOL    HW130767   1.112   5.463   2.184
 9956SOL    HW230768   0.955   5.453   2.225
 9957SOL     OW30769   5.482   6.172   2.002
 9957SOL    HW130770   5.384   6.158   1.990
 9957SOL    HW230771   5.500   6.209   2.094
 9958SOL     OW30772   2.602   5.035   0.119
 9958SOL    HW130773   2.670   5.046   0.047
 9958SOL    HW230774   2.520   4.993   0.081
 9959SOL     OW30775   4.048   3.599   4.407
 9959SOL    HW130776   4.086   3.588   4.315
 9959SOL    HW230777   3.991   3.520   4.430
 9960SOL     OW30778   0.235   0.695   1.947
 9960SOL    HW130779   0.283   0.773   1.906
 9960SOL    HW230780   0.274   0.677   2.038
 9961SOL     OW30781   1.850   5.686   4.383
 9961SOL    HW130782   1.938   5.714   4.345
 9961SOL    HW230783   1.857   5.592   4.416
 9962SOL     OW30784   5.361   6.208   1.209
 9962SOL    HW130785   5.389   6.214   1.304
 9962SOL    HW230786   5.442   6.212   1.150
 9963SOL     OW30787   2.745   3.254   6.716
 9963SOL    HW130788   2.815   3.314   6.675
 9963SOL    HW230789   2.712   3.295   6.801
 9964SOL     OW30790   4.949   3.756   6.431
 9964SOL    HW130791   5.030   3.733   6.376
 9964SOL    HW230792   4.867   3.723   6.385
 9965SOL     OW30793   4.033   5.865   6.252
 9965SOL    HW130794   4.068   5.808   6.326
 9965SOL    HW230795   3.936   5.883   6.266
 9966SOL     OW30796   2.400   5.940   2.507
 9966SOL    HW130797   2.490   5.962   2.469
 9966SOL    HW230798   2.410   5.918   2.604
 9967SOL     OW30799   5.714   6.801   2.140
 9967SOL    HW130800   5.760   6.881   2.101
 9967SOL    HW230801   5.615   6.812   2.131
 9968SOL     OW30802   2.913   3.463   6.611
 9968SOL    HW130803   2.894   3.526   6.686
 9968SOL    HW230804   2.975   3.506   6.545
 9969SOL     OW30805   2.192   2.950   3.508
 9969SOL    HW130806   2.259   2.876   3.506
 9969SOL    HW230807   2.158   2.961   3.602
 9970SOL     OW30808   5.325   4.276   2.830
 9970SOL    HW130809   5.325   4.374   2.851
 9970SOL    HW230810   5.419   4.244   2.821
 9971SOL     OW30811   2.753   4.818   0.767
 9971SOL    HW130812   2.701   4.798   0.850
 9971SOL    HW230813   2.801   4.736   0.737
 9972SOL     OW30814   3.938   4.977   1.306
 9972SOL    HW130815   3.911   5.055   1.361
 9972SOL    HW230816   3.983   4.909   1.364
 9973SOL     OW30817   4.383   2.431   4.581
 9973SOL    HW130818   4.321   2.442   4.503
 9973SOL    HW230819   4.410   2.335   4.588
 9974SOL     OW30820   6.803   3.573   3.692
 9974SOL    HW130821   6.881   3.554   3.751
 9974SOL    HW230822   6.743   3.639   3.737
 9975SOL     OW30823   0.102   4.946   6.777
 9975SOL    HW130824   0.071   4.882   6.706
 9975SOL    HW230825   0.176   5.002   6.740
 9976SOL     OW30826   0.796   6.033   5.638
 9976SOL    HW130827   0.816   5.936   5.650
 9976SOL    HW230828   0.741   6.046   5.556
 9977SOL     OW30829   0.031   5.496   5.477
 9977SOL    HW130830   0.021   5.397   5.464
 9977SOL    HW230831   0.093   5.533   5.408
 9978SOL     OW30832   6.048   3.111   3.243
 9978SOL    HW130833   6.087   3.021   3.258
 9978SOL    HW230834   6.064   3.140   3.148
 9979SOL     OW30835   6.653   4.566   5.320
 9979SOL    HW130836   6.674   4.659   5.350
 9979SOL    HW230837   6.735   4.525   5.279
 9980SOL     OW30838   1.719   1.611   6.118
 9980SOL    HW130839   1.807   1.639   6.080
 9980SOL    HW230840   1.734   1.575   6.211
 9981SOL     OW30841   2.566   1.925   2.008
 9981SOL    HW130842   2.602   1.993   2.073
 9981SOL    HW230843   2.499   1.867   2.054
 9982SOL     OW30844   0.329   0.380   3.440
 9982SOL    HW130845   0.249   0.440   3.445
 9982SOL    HW230846   0.369   0.371   3.531
 9983SOL     OW30847   0.866   2.676   3.793
 9983SOL    HW130848   0.885   2.692   3.696
 9983SOL    HW230849   0.829   2.759   3.834
 9984SOL     OW30850   2.116   0.850   0.236
 9984SOL    HW130851   2.180   0.927   0.230
 9984SOL    HW230852   2.048   0.869   0.307
 9985SOL     OW30853   1.962   1.103   1.644
 9985SOL    HW130854   1.917   1.031   1.698
 9985SOL    HW230855   1.957   1.079   1.547
 9986SOL     OW30856   4.591   4.376   6.083
 9986SOL    HW130857   4.597   4.426   6.169
 9986SOL    HW230858   4.683   4.353   6.050
 9987SOL     OW30859   6.995   2.340   3.777
 9987SOL    HW130860   6.940   2.423   3.785
 9987SOL    HW230861   0.057   2.350   3.833
 9988SOL     OW30862   0.416   5.441   5.450
 9988SOL    HW130863   0.421   5.539   5.471
 9988SOL    HW230864   0.386   5.391   5.531
 9989SOL     OW30865   6.283   4.243   3.335
 9989SOL    HW130866   6.203   4.195   3.300
 9989SOL    HW230867   6.257   4.335   3.364
 9990SOL     OW30868   2.765   6.074   1.802
 9990SOL    HW130869   2.695   6.075   1.873
 9990SOL    HW230870   2.746   6.145   1.734
 9991SOL     OW30871   2.021   2.730   3.813
 9991SOL    HW130872   1.945   2.676   3.849
 9991SOL    HW230873   2.104   2.710   3.866
 9992SOL     OW30874   5.052   4.369   0.254
 9992SOL    HW130875   4.963   4.361   0.209
 9992SOL    HW230876   5.059   4.297   0.324
 9993SOL     OW30877   3.968   0.502   1.664
 9993SOL    HW130878   4.002   0.411   1.686
 9993SOL    HW230879   3.945   0.507   1.566
 9994SOL     OW30880   0.173   4.772   3.311
 9994SOL    HW130881   0.102   4.721   3.262
 9994SOL    HW230882   0.201   4.721   3.393
 9995SOL     OW30883   4.270   1.331   3.043
 9995SOL    HW130884   4.226   1.410   3.000
 9995SOL    HW230885   4.348   1.362   3.097
 9996SOL     OW30886   2.410   3.064   1.705
 9996SOL    HW130887   2.332   3.126   1.696
 9996SOL    HW230888   2.445   3.041   1.614
 9997SOL     OW30889   3.503   1.855   0.764
 9997SOL    HW130890   3.495   1.790   0.839
 9997SOL    HW230891   3.584   1.912   0.777
 9998SOL     OW30892   5.498   4.425   0.410
 9998SOL    HW130893   5.406   4.445   0.377
 9998SOL    HW230894   5.502   4.332   0.446
 9999SOL     OW30895   0.020   2.538   5.396
 9999SOL    HW130896   6.949   2.500   5.408
 9999SOL    HW230897   0.081   2.499   5.466
10000SOL     OW30898   6.785   3.423   0.098
10000SOL    HW130899   6.772   3.379   0.009
10000SOL    HW230900   6.761   3.519   0.092
10001SOL     OW30901   4.625   0.365   2.150
10001SOL    HW130902   4.544   0.413   2.182
10001SOL    HW230903   4.644   0.288   2.211
10002SOL     OW30904   1.768   0.479   2.140
10002SOL    HW130905   1.732   0.433   2.221
10002SOL    HW230906   1.840   0.543   2.169
10003SOL     OW30907   3.796   1.642   3.405
10003SOL    HW130908   3.893   1.644   3.382
10003SOL    HW230909   3.742   1.663   3.323
10004SOL     OW30910   5.567   2.442   3.826
10004SOL    HW130911   5.544   2.412   3.733
10004SOL    HW230912   5.483   2.466   3.875
10005SOL     OW30913   5.221   0.949   4.249
10005SOL    HW130914   5.215   0.849   4.260
10005SOL    HW230915   5.233   0.992   4.338
10006SOL     OW30916   5.304   6.828   4.509
10006SOL    HW130917   5.313   6.739   4.463
10006SOL    HW230918   5.395   6.867   4.523
10007SOL     OW30919   0.643   5.215   5.558
10007SOL    HW130920   0.724   5.170   5.594
10007SOL    HW230921   0.623   5.180   5.467
10008SOL     OW30922   4.414   1.313   4.539
10008SOL    HW130923   4.439   1.397   4.588
10008SOL    HW230924   4.398   1.240   4.606
10009SOL     OW30925   2.083   4.210   1.915
10009SOL    HW130926   2.120   4.191   1.824
10009SOL    HW230927   2.152   4.189   1.984
10010SOL     OW30928   1.792   0.677   5.908
10010SOL    HW130929   1.703   0.688   5.952
10010SOL    HW230930   1.791   0.723   5.819
10011SOL     OW30931   5.503   1.621   5.125
10011SOL    HW130932   5.555   1.624   5.039
10011SOL    HW230933   5.484   1.526   5.148
10012SOL     OW30934   5.299   0.836   3.130
10012SOL    HW130935   5.372   0.850   3.063
10012SOL    HW230936   5.227   0.780   3.089
10013SOL     OW30937   0.735   1.247   3.884
10013SOL    HW130938   0.685   1.186   3.822
10013SOL    HW230939   0.829   1.216   3.893
10014SOL     OW30940   6.555   4.214   0.378
10014SOL    HW130941   6.604   4.275   0.316
10014SOL    HW230942   6.549   4.123   0.337
10015SOL     OW30943   1.825   3.814   0.500
10015SOL    HW130944   1.764   3.869   0.556
10015SOL    HW230945   1.903   3.785   0.554
10016SOL     OW30946   1.704   1.098   6.553
10016SOL    HW130947   1.684   1.013   6.601
10016SOL    HW230948   1.660   1.097   6.463
10017SOL     OW30949   2.823   1.782   3.164
10017SOL    HW130950   2.746   1.740   3.212
10017SOL    HW230951   2.859   1.718   3.096
10018SOL     OW30952   4.428   0.011   5.476
10018SOL    HW130953   4.395   0.044   5.564
10018SOL    HW230954   4.377   0.056   5.402
10019SOL     OW30955   7.002   2.151   2.687
10019SOL    HW130956   6.949   2.082   2.735
10019SOL    HW230957   6.980   2.148   2.589
10020SOL     OW30958   1.475   2.310   1.969
10020SOL    HW130959   1.537   2.266   1.904
10020SOL    HW230960   1.484   2.266   2.058
10021SOL     OW30961   0.121   2.688   1.377
10021SOL    HW130962   0.167   2.633   1.307
10021SOL    HW230963   0.189   2.725   1.440
10022SOL     OW30964   2.595   0.587   6.088
10022SOL    HW130965   2.612   0.488   6.085
10022SOL    HW230966   2.608   0.626   5.997
10023SOL     OW30967   1.139   5.399   6.811
10023SOL    HW130968   1.044   5.413   6.783
10023SOL    HW230969   1.144   5.398   6.911
10024SOL     OW30970   2.105   6.315   2.105
10024SOL    HW130971   2.029   6.350   2.050
10024SOL    HW230972   2.183   6.294   2.046
10025SOL     OW30973   1.425   1.686   1.366
10025SOL    HW130974   1.343   1.628   1.365
10025SOL    HW230975   1.505   1.629   1.384
10026SOL     OW30976   5.777   6.535   3.859
10026SOL    HW130977   5.742   6.460   3.803
10026SOL    HW230978   5.795   6.503   3.951
10027SOL     OW30979   6.609   3.903   5.132
10027SOL    HW130980   6.638   3.907   5.227
10027SOL    HW230981   6.569   3.991   5.105
10028SOL     OW30982   1.661   1.164   1.843
10028SOL    HW130983   1.714   1.243   1.811
10028SOL    HW230984   1.596   1.137   1.772
10029SOL     OW30985   4.814   1.617   4.461
10029SOL    HW130986   4.810   1.518   4.473
10029SOL    HW230987   4.722   1.656   4.470
10030SOL     OW30988   2.561   6.845   3.441
10030SOL    HW130989   2.502   6.882   3.513
10030SOL    HW230990   2.597   6.756   3.471
10031SOL     OW30991   5.761   5.152   4.869
10031SOL    HW130992   5.725   5.245   4.880
10031SOL    HW230993   5.823   5.132   4.945
10032SOL     OW30994   2.137   1.576   5.162
10032SOL    HW130995   2.093   1.639   5.098
10032SOL    HW230996   2.228   1.553   5.128
10033SOL     OW30997   6.027   2.858   4.335
10033SOL    HW130998   5.964   2.935   4.341
10033SOL    HW230999   6.117   2.890   4.309
10034SOL     OW31000   3.393   0.358   3.992
10034SOL    HW131001   3.448   0.369   4.075
10034SOL    HW231002   3.373   0.449   3.954
10035SOL     OW31003   6.075   4.521   1.479
10035SOL    HW131004   6.056   4.538   1.576
10035SOL    HW231005   5.989   4.512   1.429
10036SOL     OW31006   6.154   2.252   1.365
10036SOL    HW131007   6.218   2.195   1.417
10036SOL    HW231008   6.095   2.194   1.309
10037SOL     OW31009   6.902   1.516   0.255
10037SOL    HW131010   6.867   1.497   0.347
10037SOL    HW231011   6.980   1.456   0.237
10038SOL     OW31012   5.551   0.287   0.103
10038SOL    HW131013   5.506   0.260   0.019
10038SOL    HW231014   5.541   0.386   0.116
10039SOL     OW31015   3.523   0.640   3.653
10039SOL    HW131016   3.451   0.640   3.723
10039SOL    HW231017   3.485   0.606   3.567
10040SOL     OW31018   5.267   5.083   6.513
10040SOL    HW131019   5.182   5.136   6.520
10040SOL    HW231020   5.345   5.146   6.506
10041SOL     OW31021   4.040   5.655   0.177
10041SOL    HW131022   4.140   5.665   0.173
10041SOL    HW231023   4.004   5.647   0.084
10042SOL     OW31024   0.929   1.839   4.280
10042SOL    HW131025   0.882   1.860   4.365
10042SOL    HW231026   0.920   1.915   4.216
10043SOL     OW31027   6.837   1.162   4.751
10043SOL    HW131028   6.749   1.132   4.713
10043SOL    HW231029   6.841   1.136   4.847
10044SOL     OW31030   2.232   2.560   4.784
10044SOL    HW131031   2.149   2.523   4.742
10044SOL    HW231032   2.229   2.547   4.883
10045SOL     OW31033   3.890   0.403   1.924
10045SOL    HW131034   3.950   0.323   1.916
10045SOL    HW231035   3.900   0.460   1.842
10046SOL     OW31036   1.846   3.815   0.918
10046SOL    HW131037   1.832   3.741   0.984
10046SOL    HW231038   1.806   3.900   0.953
10047SOL     OW31039   0.919   3.546   4.868
10047SOL    HW131040   0.894   3.510   4.958
10047SOL    HW231041   1.000   3.498   4.834
10048SOL     OW31042   0.221   6.577   2.465
10048SOL    HW131043   0.311   6.534   2.465
10048SOL    HW231044   0.207   6.626   2.551
10049SOL     OW31045   1.681   1.298   5.624
10049SOL    HW131046   1.758   1.334   5.571
10049SOL    HW231047   1.683   1.337   5.716
10050SOL     OW31048   5.613   3.739   5.233
10050SOL    HW131049   5.623   3.641   5.221
10050SOL    HW231050   5.561   3.757   5.317
10051SOL     OW31051   0.362   4.331   4.998
10051SOL    HW131052   0.273   4.363   5.030
10051SOL    HW231053   0.433   4.368   5.058
10052SOL     OW31054   2.086   1.352   3.206
10052SOL    HW131055   2.171   1.360   3.155
10052SOL    HW231056   2.080   1.425   3.274
10053SOL     OW31057   4.277   5.758   4.364
10053SOL    HW131058   4.204   5.692   4.349
10053SOL    HW231059   4.243   5.850   4.348
10054SOL     OW31060   5.894   4.516   4.991
10054SOL    HW131061   5.853   4.607   4.984
10054SOL    HW231062   5.877   4.479   5.082
10055SOL     OW31063   6.420   2.352   5.542
10055SOL    HW131064   6.411   2.386   5.635
10055SOL    HW231065   6.452   2.425   5.482
10056SOL     OW31066   5.251   4.620   3.619
10056SOL    HW131067   5.181   4.575   3.564
10056SOL    HW231068   5.288   4.698   3.569
10057SOL     OW31069   5.443   4.095   5.452
10057SOL    HW131070   5.456   4.062   5.359
10057SOL    HW231071   5.466   4.022   5.517
10058SOL     OW31072   6.492   3.682   5.024
10058SOL    HW131073   6.454   3.611   5.083
10058SOL    HW231074   6.543   3.748   5.079
10059SOL     OW31075   0.017   2.114   0.105
10059SOL    HW131076   7.013   2.059   0.025
10059SOL    HW231077   0.029   2.053   0.184
10060SOL     OW31078   2.481   2.296   2.638
10060SOL    HW131079   2.490   2.280   2.737
10060SOL    HW231080   2.450   2.212   2.594
10061SOL     OW31081   4.457   1.061   3.752
10061SOL    HW131082   4.519   1.076   3.675
10061SOL    HW231083   4.362   1.062   3.720
10062SOL     OW31084   6.409   6.819   4.376
10062SOL    HW131085   6.508   6.811   4.364
10062SOL    HW231086   6.382   6.771   4.459
10063SOL     OW31087   3.213   1.614   4.356
10063SOL    HW131088   3.260   1.557   4.289
10063SOL    HW231089   3.143   1.669   4.310
10064SOL     OW31090   4.216   5.738   6.411
10064SOL    HW131091   4.258   5.655   6.373
10064SOL    HW231092   4.288   5.805   6.430
10065SOL     OW31093   1.884   1.137   1.320
10065SOL    HW131094   1.881   1.225   1.275
10065SOL    HW231095   1.973   1.093   1.303
10066SOL     OW31096   0.207   2.721   4.882
10066SOL    HW131097   0.264   2.640   4.893
10066SOL    HW231098   0.145   2.709   4.804
10067SOL     OW31099   0.241   3.105   6.420
10067SOL    HW131100   0.281   3.086   6.510
10067SOL    HW231101   0.279   3.191   6.385
10068SOL     OW31102   0.916   3.990   3.677
10068SOL    HW131103   0.911   3.928   3.599
10068SOL    HW231104   1.012   4.009   3.698
10069SOL     OW31105   3.017   4.875   1.620
10069SOL    HW131106   2.931   4.846   1.662
10069SOL    HW231107   3.001   4.903   1.525
10070SOL     OW31108   0.585   4.966   5.092
10070SOL    HW131109   0.570   5.040   5.026
10070SOL    HW231110   0.605   4.881   5.044
10071SOL     OW31111   1.280   0.388   4.009
10071SOL    HW131112   1.182   0.407   4.019
10071SOL    HW231113   1.301   0.377   3.911
10072SOL     OW31114   0.583   1.274   2.984
10072SOL    HW131115   0.569   1.175   2.977
10072SOL    HW231116   0.677   1.296   2.960
10073SOL     OW31117   6.503   4.015   3.804
10073SOL    HW131118   6.421   4.065   3.777
10073SOL    HW231119   6.545   4.060   3.884
10074SOL     OW31120   1.791   5.680   0.755
10074SOL    HW131121   1.864   5.731   0.800
10074SOL    HW231122   1.803   5.685   0.656
10075SOL     OW31123   2.122   0.692   2.665
10075SOL    HW131124   2.055   0.688   2.591
10075SOL    HW231125   2.084   0.648   2.747
10076SOL     OW31126   5.024   5.796   3.072
10076SOL    HW131127   5.111   5.831   3.107
10076SOL    HW231128   5.041   5.736   2.995
10077SOL     OW31129   5.352   2.514   0.251
10077SOL    HW131130   5.353   2.428   0.302
10077SOL    HW231131   5.261   2.530   0.214
10078SOL     OW31132   0.937   6.572   5.113
10078SOL    HW131133   0.879   6.539   5.188
10078SOL    HW231134   0.888   6.561   5.026
10079SOL     OW31135   5.342   2.229   3.196
10079SOL    HW131136   5.425   2.242   3.140
10079SOL    HW231137   5.298   2.318   3.210
10080SOL     OW31138   5.232   0.971   6.180
10080SOL    HW131139   5.237   0.930   6.089
10080SOL    HW231140   5.242   0.900   6.250
10081SOL     OW31141   0.742   1.763   0.132
10081SOL    HW131142   0.783   1.683   0.088
10081SOL    HW231143   0.646   1.770   0.103
10082SOL     OW31144   1.384   5.335   3.809
10082SOL    HW131145   1.380   5.236   3.817
10082SOL    HW231146   1.427   5.374   3.890
10083SOL     OW31147   3.377   6.765   3.536
10083SOL    HW131148   3.334   6.807   3.457
10083SOL    HW231149   3.442   6.829   3.577
10084SOL     OW31150   6.858   6.877   5.033
10084SOL    HW131151   6.916   6.796   5.021
10084SOL    HW231152   6.895   6.952   4.978
10085SOL     OW31153   4.676   6.771   0.522
10085SOL    HW131154   4.620   6.852   0.533
10085SOL    HW231155   4.619   6.694   0.491
10086SOL     OW31156   5.834   6.121   2.698
10086SOL    HW131157   5.772   6.188   2.740
10086SOL    HW231158   5.918   6.168   2.669
10087SOL     OW31159   0.324   6.683   4.434
10087SOL    HW131160   0.315   6.782   4.448
10087SOL    HW231161   0.349   6.665   4.339
10088SOL     OW31162   6.700   0.951   0.220
10088SOL    HW131163   6.629   1.011   0.185
10088SOL    HW231164   6.659   0.878   0.275
10089SOL     OW31165   3.001   1.339   3.112
10089SOL    HW131166   3.070   1.389   3.061
10089SOL    HW231167   2.940   1.403   3.159
10090SOL     OW31168   0.965   4.694   2.214
10090SOL    HW131169   0.990   4.723   2.307
10090SOL    HW231170   0.866   4.681   2.209
10091SOL     OW31171   6.564   5.857   6.848
10091SOL    HW131172   6.466   5.853   6.828
10091SOL    HW231173   6.578   5.902   6.936
10092SOL     OW31174   1.509   3.250   5.452
10092SOL    HW131175   1.601   3.211   5.455
10092SOL    HW231176   1.503   3.315   5.376
10093SOL     OW31177   4.955   3.468   4.856
10093SOL    HW131178   4.962   3.368   4.859
10093SOL    HW231179   4.887   3.498   4.923
10094SOL     OW31180   2.643   6.726   0.760
10094SOL    HW131181   2.544   6.726   0.765
10094SOL    HW231182   2.678   6.636   0.784
10095SOL     OW31183   5.348   1.875   4.906
10095SOL    HW131184   5.316   1.970   4.908
10095SOL    HW231185   5.389   1.855   4.817
10096SOL     OW31186   5.014   0.960   2.438
10096SOL    HW131187   4.971   1.044   2.405
10096SOL    HW231188   5.104   0.949   2.393
10097SOL     OW31189   2.207   2.496   6.465
10097SOL    HW131190   2.247   2.405   6.456
10097SOL    HW231191   2.263   2.551   6.527
10098SOL     OW31192   2.994   6.160   4.388
10098SOL    HW131193   2.898   6.177   4.408
10098SOL    HW231194   3.015   6.064   4.404
10099SOL     OW31195   6.519   4.494   1.634
10099SOL    HW131196   6.595   4.463   1.578
10099SOL    HW231197   6.433   4.481   1.583
10100SOL     OW31198   5.544   4.861   5.199
10100SOL    HW131199   5.623   4.853   5.260
10100SOL    HW231200   5.489   4.777   5.206
10101SOL     OW31201   6.797   2.981   1.847
10101SOL    HW131202   6.884   3.008   1.806
10101SOL    HW231203   6.813   2.917   1.922
10102SOL     OW31204   5.817   0.603   0.587
10102SOL    HW131205   5.742   0.538   0.599
10102SOL    HW231206   5.874   0.604   0.669
10103SOL     OW31207   1.044   0.332   5.640
10103SOL    HW131208   1.126   0.275   5.640
10103SOL    HW231209   1.012   0.345   5.734
10104SOL     OW31210   2.348   0.764   6.110
10104SOL    HW131211   2.413   0.692   6.087
10104SOL    HW231212   2.268   0.758   6.050
10105SOL     OW31213   2.387   1.062   5.896
10105SOL    HW131214   2.396   1.040   5.993
10105SOL    HW231215   2.420   0.985   5.841
10106SOL     OW31216   4.715   5.975   1.328
10106SOL    HW131217   4.684   5.881   1.339
10106SOL    HW231218   4.666   6.034   1.393
10107SOL     OW31219   5.152   3.460   6.754
10107SOL    HW131220   5.207   3.543   6.764
10107SOL    HW231221   5.062   3.484   6.717
10108SOL     OW31222   1.258   2.614   0.652
10108SOL    HW131223   1.251   2.714   0.655
10108SOL    HW231224   1.318   2.588   0.576
10109SOL     OW31225   0.539   0.993   0.126
10109SOL    HW131226   0.494   1.058   0.064
10109SOL    HW231227   0.505   0.901   0.109
10110SOL     OW31228   4.586   5.117   2.509
10110SOL    HW131229   4.571   5.202   2.558
10110SOL    HW231230   4.509   5.055   2.524
10111SOL     OW31231   1.054   2.841   2.130
10111SOL    HW131232   0.960   2.863   2.105
10111SOL    HW231233   1.101   2.803   2.051
10112SOL     OW31234   6.733   3.607   3.008
10112SOL    HW131235   6.774   3.633   3.095
10112SOL    HW231236   6.700   3.688   2.960
10113SOL     OW31237   4.664   1.050   6.565
10113SOL    HW131238   4.710   1.030   6.652
10113SOL    HW231239   4.581   1.104   6.584
10114SOL     OW31240   3.926   2.185   3.081
10114SOL    HW131241   3.978   2.248   3.139
10114SOL    HW231242   3.940   2.208   2.985
10115SOL     OW31243   4.102   1.560   4.183
10115SOL    HW131244   4.184   1.596   4.137
10115SOL    HW231245   4.127   1.525   4.273
10116SOL     OW31246   5.485   0.372   5.425
10116SOL    HW131247   5.498   0.276   5.402
10116SOL    HW231248   5.544   0.428   5.367
10117SOL     OW31249   6.652   5.588   5.621
10117SOL    HW131250   6.642   5.507   5.678
10117SOL    HW231251   6.582   5.655   5.644
10118SOL     OW31252   2.762   5.120   4.319
10118SOL    HW131253   2.746   5.117   4.418
10118SOL    HW231254   2.826   5.047   4.294
10119SOL     OW31255   6.783   5.145   3.670
10119SOL    HW131256   6.826   5.127   3.581
10119SOL    HW231257   6.853   5.176   3.734
10120SOL     OW31258   1.630   3.224   2.696
10120SOL    HW131259   1.711   3.182   2.738
10120SOL    HW231260   1.586   3.284   2.762
10121SOL     OW31261   5.570   4.659   0.551
10121SOL    HW131262   5.641   4.659   0.621
10121SOL    HW231263   5.555   4.566   0.517
10122SOL     OW31264   6.066   2.035   3.142
10122SOL    HW131265   6.073   1.963   3.072
10122SOL    HW231266   6.100   1.999   3.229
10123SOL     OW31267   6.216   6.401   0.814
10123SOL    HW131268   6.280   6.385   0.889
10123SOL    HW231269   6.261   6.456   0.743
10124SOL     OW31270   1.310   5.231   2.596
10124SOL    HW131271   1.259   5.307   2.635
10124SOL    HW231272   1.278   5.145   2.636
10125SOL     OW31273   1.811   0.911   1.792
10125SOL    HW131274   1.814   0.862   1.880
10125SOL    HW231275   1.774   1.002   1.806
10126SOL     OW31276   6.129   6.988   5.923
10126SOL    HW131277   6.176   6.986   5.834
10126SOL    HW231278   6.170   6.920   5.984
10127SOL     OW31279   1.242   4.322   6.535
10127SOL    HW131280   1.308   4.310   6.460
10127SOL    HW231281   1.149   4.323   6.498
10128SOL     OW31282   2.921   0.582   0.048
10128SOL    HW131283   2.922   0.641   0.129
10128SOL    HW231284   2.953   0.634   6.989
10129SOL     OW31285   6.929   1.855   2.407
10129SOL    HW131286   6.964   1.778   2.354
10129SOL    HW231287   6.841   1.884   2.369
10130SOL     OW31288   1.011   2.303   1.914
10130SOL    HW131289   1.090   2.334   1.861
10130SOL    HW231290   0.982   2.376   1.976
10131SOL     OW31291   1.812   0.833   4.190
10131SOL    HW131292   1.882   0.887   4.144
10131SOL    HW231293   1.781   0.881   4.272
10132SOL     OW31294   6.853   6.859   2.303
10132SOL    HW131295   6.933   6.804   2.280
10132SOL    HW231296   6.882   6.940   2.354
10133SOL     OW31297   4.644   5.715   1.392
10133SOL    HW131298   4.631   5.734   1.489
10133SOL    HW231299   4.596   5.632   1.366
10134SOL     OW31300   6.621   1.090   2.783
10134SOL    HW131301   6.576   1.134   2.860
10134SOL    HW231302   6.607   1.144   2.700
10135SOL     OW31303   5.804   1.069   3.850
10135SOL    HW131304   5.758   0.990   3.810
10135SOL    HW231305   5.736   1.133   3.885
10136SOL     OW31306   4.988   2.774   2.666
10136SOL    HW131307   5.054   2.827   2.612
10136SOL    HW231308   5.031   2.743   2.750
10137SOL     OW31309   0.524   5.287   5.804
10137SOL    HW131310   0.568   5.284   5.715
10137SOL    HW231311   0.425   5.280   5.792
10138SOL     OW31312   5.962   1.777   6.761
10138SOL    HW131313   5.868   1.812   6.750
10138SOL    HW231314   6.025   1.854   6.770
10139SOL     OW31315   3.623   3.492   5.138
10139SOL    HW131316   3.573   3.547   5.204
10139SOL    HW231317   3.578   3.403   5.127
10140SOL     OW31318   6.599   6.481   5.767
10140SOL    HW131319   6.591   6.439   5.677
10140SOL    HW231320   6.694   6.478   5.798
10141SOL     OW31321   3.732   1.415   3.731
10141SOL    HW131322   3.827   1.432   3.759
10141SOL    HW231323   3.696   1.338   3.783
10142SOL     OW31324   5.869   6.218   4.927
10142SOL    HW131325   5.789   6.172   4.889
10142SOL    HW231326   5.852   6.317   4.931
10143SOL     OW31327   5.505   2.861   0.199
10143SOL    HW131328   5.582   2.921   0.220
10143SOL    HW231329   5.493   2.795   0.274
10144SOL     OW31330   3.988   6.773   5.269
10144SOL    HW131331   3.980   6.716   5.187
10144SOL    HW231332   4.063   6.838   5.257
10145SOL     OW31333   4.508   6.260   1.956
10145SOL    HW131334   4.419   6.257   1.910
10145SOL    HW231335   4.560   6.339   1.922
10146SOL     OW31336   0.042   4.073   4.354
10146SOL    HW131337   6.966   4.071   4.381
10146SOL    HW231338   0.084   3.984   4.373
10147SOL     OW31339   4.495   4.990   7.018
10147SOL    HW131340   4.425   4.930   0.034
10147SOL    HW231341   4.485   5.082   0.035
10148SOL     OW31342   0.291   4.911   0.942
10148SOL    HW131343   0.249   4.852   0.873
10148SOL    HW231344   0.362   4.966   0.899
10149SOL     OW31345   4.757   4.829   1.821
10149SOL    HW131346   4.815   4.801   1.744
10149SOL    HW231347   4.738   4.750   1.879
10150SOL     OW31348   5.058   3.416   1.446
10150SOL    HW131349   5.022   3.505   1.416
10150SOL    HW231350   5.121   3.430   1.522
10151SOL     OW31351   0.158   0.122   5.943
10151SOL    HW131352   0.111   0.201   5.906
10151SOL    HW231353   0.196   0.144   6.032
10152SOL     OW31354   6.080   6.016   3.120
10152SOL    HW131355   6.118   5.936   3.167
10152SOL    HW231356   6.017   5.986   3.048
10153SOL     OW31357   4.406   5.935   4.050
10153SOL    HW131358   4.434   5.992   4.127
10153SOL    HW231359   4.487   5.895   4.006
10154SOL     OW31360   4.328   4.995   5.558
10154SOL    HW131361   4.291   5.068   5.500
10154SOL    HW231362   4.373   4.926   5.502
10155SOL     OW31363   4.777   2.076   5.890
10155SOL    HW131364   4.824   2.065   5.977
10155SOL    HW231365   4.794   2.169   5.855
10156SOL     OW31366   4.517   0.306   1.358
10156SOL    HW131367   4.431   0.294   1.408
10156SOL    HW231368   4.497   0.339   1.266
10157SOL     OW31369   0.339   2.616   0.168
10157SOL    HW131370   0.326   2.634   0.266
10157SOL    HW231371   0.360   2.519   0.155
10158SOL     OW31372   5.422   6.655   2.564
10158SOL    HW131373   5.324   6.636   2.577
10158SOL    HW231374   5.450   6.619   2.475
10159SOL     OW31375   3.486   3.123   3.011
10159SOL    HW131376   3.418   3.064   2.969
10159SOL    HW231377   3.444   3.209   3.038
10160SOL     OW31378   1.985   4.257   2.637
10160SOL    HW131379   1.995   4.158   2.648
10160SOL    HW231380   2.052   4.290   2.570
10161SOL     OW31381   3.396   4.870   6.041
10161SOL    HW131382   3.347   4.783   6.038
10161SOL    HW231383   3.424   4.891   6.134
10162SOL     OW31384   1.787   4.563   1.378
10162SOL    HW131385   1.803   4.661   1.392
10162SOL    HW231386   1.770   4.546   1.281
10163SOL     OW31387   1.363   5.923   5.422
10163SOL    HW131388   1.401   5.949   5.510
10163SOL    HW231389   1.276   5.971   5.408
10164SOL     OW31390   6.275   3.690   3.570
10164SOL    HW131391   6.284   3.593   3.592
10164SOL    HW231392   6.247   3.740   3.652
10165SOL     OW31393   5.711   2.667   3.777
10165SOL    HW131394   5.733   2.692   3.871
10165SOL    HW231395   5.678   2.572   3.774
10166SOL     OW31396   1.301   2.575   1.179
10166SOL    HW131397   1.304   2.667   1.218
10166SOL    HW231398   1.330   2.578   1.083
10167SOL     OW31399   0.280   5.047   6.593
10167SOL    HW131400   0.365   5.044   6.645
10167SOL    HW231401   0.289   4.988   6.512
10168SOL     OW31402   6.040   1.533   6.376
10168SOL    HW131403   6.066   1.627   6.356
10168SOL    HW231404   5.989   1.530   6.462
10169SOL     OW31405   0.275   3.607   3.078
10169SOL    HW131406   0.221   3.533   3.119
10169SOL    HW231407   0.260   3.691   3.129
10170SOL     OW31408   6.234   5.821   0.119
10170SOL    HW131409   6.164   5.791   0.184
10170SOL    HW231410   6.308   5.754   0.115
10171SOL     OW31411   1.353   2.787   5.830
10171SOL    HW131412   1.319   2.695   5.849
10171SOL    HW231413   1.296   2.829   5.758
10172SOL     OW31414   6.785   6.677   3.583
10172SOL    HW131415   6.794   6.774   3.602
10172SOL    HW231416   6.796   6.661   3.485
10173SOL     OW31417   3.676   4.727   0.194
10173SOL    HW131418   3.617   4.743   0.273
10173SOL    HW231419   3.756   4.674   0.223
10174SOL     OW31420   5.212   6.951   3.373
10174SOL    HW131421   5.244   6.925   3.283
10174SOL    HW231422   5.155   6.878   3.411
10175SOL     OW31423   7.015   1.939   3.072
10175SOL    HW131424   7.021   1.855   3.125
10175SOL    HW231425   0.086   1.978   3.063
10176SOL     OW31426   6.146   2.894   5.776
10176SOL    HW131427   6.116   2.821   5.714
10176SOL    HW231428   6.118   2.873   5.869
10177SOL     OW31429   2.462   0.173   1.381
10177SOL    HW131430   2.542   0.231   1.399
10177SOL    HW231431   2.457   0.153   1.283
10178SOL     OW31432   1.605   1.177   0.733
10178SOL    HW131433   1.668   1.133   0.798
10178SOL    HW231434   1.651   1.189   0.645
10179SOL     OW31435   6.939   4.269   0.208
10179SOL    HW131436   6.962   4.181   0.166
10179SOL    HW231437   6.992   4.341   0.164
10180SOL     OW31438   4.641   0.009   0.059
10180SOL    HW131439   4.713   0.078   0.053
10180SOL    HW231440   4.674   6.951   0.111
10181SOL     OW31441   6.379   3.538   1.502
10181SOL    HW131442   6.397   3.443   1.528
10181SOL    HW231443   6.429   3.559   1.418
10182SOL     OW31444   5.682   1.370   0.462
10182SOL    HW131445   5.608   1.361   0.528
10182SOL    HW231446   5.658   1.440   0.395
10183SOL     OW31447   6.225   2.959   6.388
10183SOL    HW131448   6.177   2.888   6.439
10183SOL    HW231449   6.301   2.918   6.338
10184SOL     OW31450   5.723   2.515   6.695
10184SOL    HW131451   5.770   2.493   6.609
10184SOL    HW231452   5.773   2.588   6.742
10185SOL     OW31453   4.387   6.094   2.631
10185SOL    HW131454   4.445   6.072   2.553
10185SOL    HW231455   4.316   6.025   2.640
10186SOL     OW31456   4.598   3.431   5.970
10186SOL    HW131457   4.586   3.332   5.959
10186SOL    HW231458   4.509   3.473   5.989
10187SOL     OW31459   2.272   4.275   5.878
10187SOL    HW131460   2.371   4.259   5.874
10187SOL    HW231461   2.225   4.202   5.828
10188SOL     OW31462   2.483   6.658   0.415
10188SOL    HW131463   2.412   6.601   0.457
10188SOL    HW231464   2.517   6.612   0.333
10189SOL     OW31465   1.373   1.243   0.080
10189SOL    HW131466   1.371   1.190   0.165
10189SOL    HW231467   1.282   1.242   0.038
10190SOL     OW31468   3.253   4.211   1.386
10190SOL    HW131469   3.202   4.125   1.389
10190SOL    HW231470   3.255   4.251   1.478
10191SOL     OW31471   5.984   5.296   1.141
10191SOL    HW131472   6.039   5.337   1.068
10191SOL    HW231473   6.020   5.206   1.164
10192SOL     OW31474   2.104   1.727   4.902
10192SOL    HW131475   2.203   1.722   4.891
10192SOL    HW231476   2.081   1.806   4.959
10193SOL     OW31477   3.576   3.484   2.107
10193SOL    HW131478   3.658   3.497   2.163
10193SOL    HW231479   3.602   3.455   2.015
10194SOL     OW31480   3.346   0.314   4.653
10194SOL    HW131481   3.374   0.404   4.620
10194SOL    HW231482   3.247   0.313   4.664
10195SOL     OW31483   5.736   7.012   1.936
10195SOL    HW131484   5.650   0.010   1.889
10195SOL    HW231485   5.802   0.063   1.915
10196SOL     OW31486   5.431   2.326   3.613
10196SOL    HW131487   5.394   2.417   3.593
10196SOL    HW231488   5.465   2.286   3.528
10197SOL     OW31489   5.752   0.055   3.149
10197SOL    HW131490   5.835   7.021   3.153
10197SOL    HW231491   5.739   0.101   3.237
10198SOL     OW31492   3.989   5.852   1.108
10198SOL    HW131493   4.045   5.897   1.177
10198SOL    HW231494   3.996   5.902   1.021
10199SOL     OW31495   0.844   1.491   0.072
10199SOL    HW131496   0.785   1.411   0.074
10199SOL    HW231497   0.883   1.502   7.001
10200SOL     OW31498   5.132   3.285   5.819
10200SOL    HW131499   5.182   3.201   5.797
10200SOL    HW231500   5.038   3.262   5.843
10201SOL     OW31501   0.301   5.922   1.691
10201SOL    HW131502   0.370   5.919   1.619
10201SOL    HW231503   0.292   5.832   1.733
10202SOL     OW31504   0.599   3.604   1.253
10202SOL    HW131505   0.640   3.678   1.306
10202SOL    HW231506   0.639   3.517   1.281
10203SOL     OW31507   1.795   2.651   2.774
10203SOL    HW131508   1.860   2.650   2.698
10203SOL    HW231509   1.834   2.599   2.851
10204SOL     OW31510   3.079   4.366   6.212
10204SOL    HW131511   3.009   4.437   6.218
10204SOL    HW231512   3.047   4.283   6.257
10205SOL     OW31513   4.450   1.396   3.246
10205SOL    HW131514   4.428   1.322   3.310
10205SOL    HW231515   4.475   1.478   3.297
10206SOL     OW31516   5.228   5.811   5.776
10206SOL    HW131517   5.314   5.861   5.785
10206SOL    HW231518   5.151   5.874   5.792
10207SOL     OW31519   1.914   0.370   1.221
10207SOL    HW131520   1.884   0.452   1.271
10207SOL    HW231521   1.843   0.341   1.158
10208SOL     OW31522   6.057   5.691   5.550
10208SOL    HW131523   6.047   5.781   5.593
10208SOL    HW231524   6.154   5.667   5.544
10209SOL     OW31525   6.900   1.046   5.881
10209SOL    HW131526   6.843   1.109   5.934
10209SOL    HW231527   6.851   0.960   5.868
10210SOL     OW31528   5.376   6.918   1.834
10210SOL    HW131529   5.296   6.975   1.817
10210SOL    HW231530   5.458   6.964   1.800
10211SOL     OW31531   3.775   6.487   5.802
10211SOL    HW131532   3.738   6.542   5.727
10211SOL    HW231533   3.830   6.412   5.766
10212SOL     OW31534   0.816   1.341   4.341
10212SOL    HW131535   0.817   1.436   4.371
10212SOL    HW231536   0.902   1.297   4.367
10213SOL     OW31537   5.549   1.554   2.495
10213SOL    HW131538   5.530   1.559   2.593
10213SOL    HW231539   5.639   1.595   2.477
10214SOL     OW31540   0.213   0.970   2.492
10214SOL    HW131541   0.201   0.999   2.587
10214SOL    HW231542   0.221   0.871   2.488
10215SOL     OW31543   3.074   3.037   5.525
10215SOL    HW131544   3.072   2.998   5.433
10215SOL    HW231545   3.008   3.112   5.532
10216SOL     OW31546   6.795   0.161   1.117
10216SOL    HW131547   6.800   0.259   1.140
10216SOL    HW231548   6.882   0.118   1.138
10217SOL     OW31549   2.202   1.382   4.555
10217SOL    HW131550   2.261   1.444   4.504
10217SOL    HW231551   2.247   1.356   4.641
10218SOL     OW31552   0.981   1.139   1.286
10218SOL    HW131553   1.067   1.092   1.303
10218SOL    HW231554   0.987   1.189   1.199
10219SOL     OW31555   0.426   2.395   2.614
10219SOL    HW131556   0.362   2.319   2.621
10219SOL    HW231557   0.376   2.478   2.588
10220SOL     OW31558   4.235   1.937   1.639
10220SOL    HW131559   4.281   1.879   1.572
10220SOL    HW231560   4.151   1.973   1.599
10221SOL     OW31561   1.483   2.075   4.155
10221SOL    HW131562   1.410   2.139   4.134
10221SOL    HW231563   1.568   2.106   4.113
10222SOL     OW31564   1.576   3.797   5.537
10222SOL    HW131565   1.538   3.866   5.476
10222SOL    HW231566   1.636   3.736   5.484
10223SOL     OW31567   1.978   5.456   6.361
10223SOL    HW131568   2.015   5.382   6.417
10223SOL    HW231569   1.925   5.417   6.285
10224SOL     OW31570   0.997   0.926   4.473
10224SOL    HW131571   1.077   0.947   4.528
10224SOL    HW231572   1.018   0.942   4.376
10225SOL     OW31573   1.126   6.069   5.293
10225SOL    HW131574   1.147   6.149   5.349
10225SOL    HW231575   1.144   6.090   5.197
10226SOL     OW31576   3.062   0.728   6.821
10226SOL    HW131577   3.007   0.810   6.830
10226SOL    HW231578   3.054   0.691   6.729
10227SOL     OW31579   4.879   4.836   0.956
10227SOL    HW131580   4.927   4.915   0.994
10227SOL    HW231581   4.783   4.839   0.985
10228SOL     OW31582   0.527   5.253   2.025
10228SOL    HW131583   0.571   5.179   1.974
10228SOL    HW231584   0.597   5.306   2.074
10229SOL     OW31585   0.981   1.228   3.939
10229SOL    HW131586   1.020   1.228   4.031
10229SOL    HW231587   1.053   1.252   3.873
10230SOL     OW31588   6.875   0.517   3.331
10230SOL    HW131589   6.944   0.574   3.375
10230SOL    HW231590   6.915   0.473   3.250
10231SOL     OW31591   6.609   6.815   5.576
10231SOL    HW131592   6.588   6.862   5.490
10231SOL    HW231593   6.634   6.720   5.557
10232SOL     OW31594   3.888   0.795   4.166
10232SOL    HW131595   3.929   0.709   4.196
10232SOL    HW231596   3.801   0.776   4.119
10233SOL     OW31597   5.062   2.778   5.313
10233SOL    HW131598   5.037   2.753   5.407
10233SOL    HW231599   5.086   2.874   5.308
10234SOL     OW31600   5.149   0.372   0.777
10234SOL    HW131601   5.190   0.312   0.846
10234SOL    HW231602   5.188   0.463   0.784
10235SOL     OW31603   4.453   1.221   0.474
10235SOL    HW131604   4.426   1.156   0.404
10235SOL    HW231605   4.452   1.176   0.564
10236SOL     OW31606   1.792   6.174   1.743
10236SOL    HW131607   1.834   6.116   1.812
10236SOL    HW231608   1.731   6.240   1.787
10237SOL     OW31609   6.405   4.253   0.959
10237SOL    HW131610   6.365   4.332   0.913
10237SOL    HW231611   6.366   4.169   0.921
10238SOL     OW31612   3.618   3.793   4.676
10238SOL    HW131613   3.582   3.821   4.765
10238SOL    HW231614   3.690   3.724   4.690
10239SOL     OW31615   1.240   4.594   5.351
10239SOL    HW131616   1.284   4.513   5.389
10239SOL    HW231617   1.266   4.674   5.406
10240SOL     OW31618   1.352   4.797   2.339
10240SOL    HW131619   1.276   4.810   2.402
10240SOL    HW231620   1.438   4.807   2.389
10241SOL     OW31621   0.049   0.788   1.472
10241SOL    HW131622   6.980   0.755   1.444
10241SOL    HW231623   0.118   0.758   1.406
10242SOL     OW31624   0.144   2.193   6.382
10242SOL    HW131625   0.145   2.238   6.471
10242SOL    HW231626   0.096   2.251   6.316
10243SOL     OW31627   0.005   5.512   1.251
10243SOL    HW131628   0.003   5.435   1.188
10243SOL    HW231629   6.955   5.501   1.320
10244SOL     OW31630   1.454   4.414   0.169
10244SOL    HW131631   1.528   4.441   0.107
10244SOL    HW231632   1.423   4.494   0.221
10245SOL     OW31633   2.157   3.940   0.328
10245SOL    HW131634   2.074   3.895   0.294
10245SOL    HW231635   2.133   4.027   0.370
10246SOL     OW31636   2.998   3.690   4.388
10246SOL    HW131637   2.993   3.590   4.398
10246SOL    HW231638   3.065   3.713   4.318
10247SOL     OW31639   0.724   5.182   5.253
10247SOL    HW131640   0.660   5.118   5.210
10247SOL    HW231641   0.817   5.145   5.248
10248SOL     OW31642   3.219   0.235   2.037
10248SOL    HW131643   3.130   0.280   2.050
10248SOL    HW231644   3.248   0.247   1.942
10249SOL     OW31645   2.464   1.013   6.169
10249SOL    HW131646   2.445   0.916   6.154
10249SOL    HW231647   2.382   1.059   6.202
10250SOL     OW31648   0.177   2.092   0.785
10250SOL    HW131649   0.164   2.131   0.876
10250SOL    HW231650   0.089   2.075   0.743
10251SOL     OW31651   1.785   3.031   5.765
10251SOL    HW131652   1.738   2.954   5.721
10251SOL    HW231653   1.769   3.114   5.712
10252SOL     OW31654   6.728   6.308   0.629
10252SOL    HW131655   6.663   6.237   0.655
10252SOL    HW231656   6.722   6.325   0.530
10253SOL     OW31657   4.693   5.280   6.954
10253SOL    HW131658   4.746   5.252   0.013
10253SOL    HW231659   4.729   5.366   6.918
10254SOL     OW31660   3.765   2.145   4.917
10254SOL    HW131661   3.778   2.230   4.865
10254SOL    HW231662   3.692   2.091   4.874
10255SOL     OW31663   2.156   5.599   1.442
10255SOL    HW131664   2.202   5.540   1.377
10255SOL    HW231665   2.223   5.641   1.503
10256SOL     OW31666   5.772   0.052   1.474
10256SOL    HW131667   5.692   0.018   1.522
10256SOL    HW231668   5.743   0.113   1.400
10257SOL     OW31669   1.129   4.629   5.104
10257SOL    HW131670   1.052   4.692   5.120
10257SOL    HW231671   1.165   4.598   5.191
10258SOL     OW31672   4.950   0.103   3.642
10258SOL    HW131673   4.988   0.111   3.550
10258SOL    HW231674   5.025   0.090   3.708
10259SOL     OW31675   0.793   5.500   3.397
10259SOL    HW131676   0.856   5.531   3.468
10259SOL    HW231677   0.837   5.508   3.308
10260SOL     OW31678   6.864   0.259   3.059
10260SOL    HW131679   6.912   0.345   3.076
10260SOL    HW231680   6.768   0.278   3.037
10261SOL     OW31681   6.989   6.183   2.027
10261SOL    HW131682   6.999   6.192   1.928
10261SOL    HW231683   0.056   6.161   2.067
10262SOL     OW31684   2.608   5.779   4.515
10262SOL    HW131685   2.524   5.760   4.463
10262SOL    HW231686   2.675   5.707   4.498
10263SOL     OW31687   4.834   1.108   5.938
10263SOL    HW131688   4.906   1.117   6.007
10263SOL    HW231689   4.800   1.014   5.937
10264SOL     OW31690   6.314   1.440   6.680
10264SOL    HW131691   6.240   1.373   6.685
10264SOL    HW231692   6.294   1.516   6.742
10265SOL     OW31693   3.455   2.077   2.901
10265SOL    HW131694   3.430   2.009   2.833
10265SOL    HW231695   3.500   2.155   2.857
10266SOL     OW31696   3.408   2.987   5.425
10266SOL    HW131697   3.395   3.022   5.518
10266SOL    HW231698   3.485   3.034   5.383
10267SOL     OW31699   6.224   1.611   6.899
10267SOL    HW131700   6.142   1.667   6.887
10267SOL    HW231701   6.298   1.667   6.937
10268SOL     OW31702   4.621   6.455   1.778
10268SOL    HW131703   4.563   6.517   1.830
10268SOL    HW231704   4.705   6.502   1.750
10269SOL     OW31705   1.839   1.543   5.147
10269SOL    HW131706   1.930   1.543   5.106
10269SOL    HW231707   1.790   1.626   5.121
10270SOL     OW31708   2.071   5.877   2.279
10270SOL    HW131709   2.160   5.898   2.238
10270SOL    HW231710   2.081   5.875   2.378
10271SOL     OW31711   3.204   3.260   0.415
10271SOL    HW131712   3.248   3.340   0.456
10271SOL    HW231713   3.270   3.186   0.406
10272SOL     OW31714   1.214   0.963   4.611
10272SOL    HW131715   1.283   0.893   4.632
10272SOL    HW231716   1.245   1.051   4.648
10273SOL     OW31717   4.190   5.982   3.636
10273SOL    HW131718   4.108   5.986   3.579
10273SOL    HW231719   4.268   5.956   3.580
10274SOL     OW31720   1.526   4.487   5.916
10274SOL    HW131721   1.523   4.584   5.890
10274SOL    HW231722   1.581   4.436   5.850
10275SOL     OW31723   1.462   0.158   2.150
10275SOL    HW131724   1.415   0.243   2.124
10275SOL    HW231725   1.555   0.159   2.114
10276SOL     OW31726   6.684   5.693   6.341
10276SOL    HW131727   6.641   5.756   6.276
10276SOL    HW231728   6.616   5.626   6.372
10277SOL     OW31729   2.544   6.582   3.902
10277SOL    HW131730   2.501   6.618   3.820
10277SOL    HW231731   2.495   6.616   3.983
10278SOL     OW31732   5.904   0.731   5.274
10278SOL    HW131733   5.985   0.715   5.330
10278SOL    HW231734   5.928   0.722   5.178
10279SOL     OW31735   3.013   0.439   3.918
10279SOL    HW131736   3.065   0.497   3.855
10279SOL    HW231737   3.027   0.469   4.012
10280SOL     OW31738   2.507   4.455   0.981
10280SOL    HW131739   2.537   4.461   1.076
10280SOL    HW231740   2.511   4.545   0.939
10281SOL     OW31741   5.606   2.598   2.658
10281SOL    HW131742   5.635   2.680   2.708
10281SOL    HW231743   5.510   2.606   2.633
10282SOL     OW31744   6.598   3.604   4.433
10282SOL    HW131745   6.560   3.569   4.348
10282SOL    HW231746   6.692   3.572   4.443
10283SOL     OW31747   1.022   2.775   1.078
10283SOL    HW131748   1.031   2.692   1.132
10283SOL    HW231749   0.937   2.821   1.103
10284SOL     OW31750   4.860   4.640   6.065
10284SOL    HW131751   4.847   4.651   5.966
10284SOL    HW231752   4.934   4.575   6.081
10285SOL     OW31753   4.972   0.067   1.346
10285SOL    HW131754   4.999   0.127   1.271
10285SOL    HW231755   4.902   0.111   1.402
10286SOL     OW31756   3.436   1.848   3.709
10286SOL    HW131757   3.353   1.799   3.685
10286SOL    HW231758   3.493   1.791   3.768
10287SOL     OW31759   1.804   6.916   2.238
10287SOL    HW131760   1.837   7.006   2.211
10287SOL    HW231761   1.879   6.865   2.281
10288SOL     OW31762   4.821   6.198   2.331
10288SOL    HW131763   4.833   6.108   2.291
10288SOL    HW231764   4.755   6.250   2.277
10289SOL     OW31765   3.560   0.782   1.427
10289SOL    HW131766   3.507   0.866   1.438
10289SOL    HW231767   3.597   0.778   1.334
10290SOL     OW31768   3.680   4.137   2.886
10290SOL    HW131769   3.636   4.078   2.954
10290SOL    HW231770   3.623   4.142   2.804
10291SOL     OW31771   4.094   0.257   3.856
10291SOL    HW131772   4.122   0.279   3.763
10291SOL    HW231773   4.071   0.160   3.863
10292SOL     OW31774   1.037   1.705   4.740
10292SOL    HW131775   0.989   1.620   4.719
10292SOL    HW231776   1.040   1.762   4.658
10293SOL     OW31777   1.761   5.847   2.692
10293SOL    HW131778   1.734   5.889   2.605
10293SOL    HW231779   1.800   5.916   2.752
10294SOL     OW31780   4.998   3.346   3.611
10294SOL    HW131781   4.968   3.423   3.667
10294SOL    HW231782   4.935   3.334   3.534
10295SOL     OW31783   6.214   4.700   5.569
10295SOL    HW131784   6.119   4.719   5.591
10295SOL    HW231785   6.233   4.725   5.474
10296SOL     OW31786   4.949   4.431   6.423
10296SOL    HW131787   4.960   4.530   6.413
10296SOL    HW231788   4.877   4.412   6.491
10297SOL     OW31789   2.701   6.684   4.585
10297SOL    HW131790   2.644   6.608   4.618
10297SOL    HW231791   2.759   6.652   4.511
10298SOL     OW31792   4.375   4.545   3.405
10298SOL    HW131793   4.342   4.531   3.311
10298SOL    HW231794   4.308   4.600   3.455
10299SOL     OW31795   4.288   4.665   3.146
10299SOL    HW131796   4.330   4.729   3.211
10299SOL    HW231797   4.360   4.615   3.098
10300SOL     OW31798   1.521   4.672   2.036
10300SOL    HW131799   1.601   4.716   2.077
10300SOL    HW231800   1.467   4.629   2.108
10301SOL     OW31801   5.580   2.575   2.387
10301SOL    HW131802   5.606   2.570   2.484
10301SOL    HW231803   5.602   2.665   2.351
10302SOL     OW31804   1.512   5.877   3.488
10302SOL    HW131805   1.527   5.973   3.510
10302SOL    HW231806   1.509   5.866   3.389
10303SOL     OW31807   3.839   4.802   1.116
10303SOL    HW131808   3.859   4.883   1.173
10303SOL    HW231809   3.747   4.770   1.135
10304SOL     OW31810   5.928   0.873   3.527
10304SOL    HW131811   5.998   0.836   3.588
10304SOL    HW231812   5.849   0.903   3.579
10305SOL     OW31813   1.058   5.919   6.578
10305SOL    HW131814   0.988   5.861   6.619
10305SOL    HW231815   1.141   5.916   6.633
10306SOL     OW31816   4.686   5.741   6.446
10306SOL    HW131817   4.681   5.800   6.365
10306SOL    HW231818   4.738   5.659   6.423
10307SOL     OW31819   2.109   1.983   5.437
10307SOL    HW131820   2.035   1.967   5.372
10307SOL    HW231821   2.186   1.923   5.414
10308SOL     OW31822   3.344   5.050   4.348
10308SOL    HW131823   3.393   5.053   4.434
10308SOL    HW231824   3.265   4.988   4.356
10309SOL     OW31825   6.609   0.276   3.755
10309SOL    HW131826   6.676   0.280   3.830
10309SOL    HW231827   6.657   0.254   3.670
10310SOL     OW31828   3.217   4.017   1.113
10310SOL    HW131829   3.285   4.069   1.061
10310SOL    HW231830   3.127   4.029   1.072
10311SOL     OW31831   0.316   5.675   1.303
10311SOL    HW131832   0.371   5.679   1.219
10311SOL    HW231833   0.306   5.580   1.332
10312SOL     OW31834   3.736   5.477   1.329
10312SOL    HW131835   3.711   5.420   1.407
10312SOL    HW231836   3.816   5.438   1.283
10313SOL     OW31837   4.045   6.625   2.263
10313SOL    HW131838   4.084   6.599   2.351
10313SOL    HW231839   4.049   6.724   2.253
10314SOL     OW31840   6.247   0.764   1.468
10314SOL    HW131841   6.177   0.833   1.484
10314SOL    HW231842   6.276   0.724   1.555
10315SOL     OW31843   6.782   6.380   4.737
10315SOL    HW131844   6.857   6.326   4.699
10315SOL    HW231845   6.808   6.476   4.741
10316SOL     OW31846   6.898   3.054   4.320
10316SOL    HW131847   6.970   3.066   4.251
10316SOL    HW231848   6.843   3.138   4.326
10317SOL     OW31849   3.739   4.679   6.575
10317SOL    HW131850   3.688   4.600   6.607
10317SOL    HW231851   3.739   4.680   6.475
10318SOL     OW31852   6.101   5.569   1.622
10318SOL    HW131853   6.183   5.589   1.568
10318SOL    HW231854   6.020   5.607   1.576
10319SOL     OW31855   0.923   4.519   4.850
10319SOL    HW131856   0.943   4.464   4.769
10319SOL    HW231857   0.894   4.460   4.925
10320SOL     OW31858   0.829   0.859   0.721
10320SOL    HW131859   0.830   0.957   0.704
10320SOL    HW231860   0.734   0.828   0.730
10321SOL     OW31861   4.223   6.702   4.395
10321SOL    HW131862   4.317   6.721   4.367
10321SOL    HW231863   4.173   6.663   4.317
10322SOL     OW31864   6.512   5.724   0.174
10322SOL    HW131865   6.575   5.783   0.122
10322SOL    HW231866   6.565   5.660   0.229
10323SOL     OW31867   6.656   3.214   6.660
10323SOL    HW131868   6.606   3.129   6.671
10323SOL    HW231869   6.609   3.273   6.595
10324SOL     OW31870   3.079   3.091   3.529
10324SOL    HW131871   3.081   3.077   3.430
10324SOL    HW231872   3.060   3.187   3.549
10325SOL     OW31873   6.660   4.343   4.175
10325SOL    HW131874   6.736   4.348   4.240
10325SOL    HW231875   6.588   4.406   4.204
10326SOL     OW31876   4.958   2.734   6.643
10326SOL    HW131877   5.043   2.748   6.693
10326SOL    HW231878   4.883   2.779   6.691
10327SOL     OW31879   2.290   1.416   3.016
10327SOL    HW131880   2.308   1.513   2.997
10327SOL    HW231881   2.220   1.382   2.953
10328SOL     OW31882   5.760   4.024   1.781
10328SOL    HW131883   5.776   4.106   1.727
10328SOL    HW231884   5.800   4.035   1.872
10329SOL     OW31885   2.516   0.404   4.222
10329SOL    HW131886   2.494   0.495   4.187
10329SOL    HW231887   2.615   0.394   4.230
10330SOL     OW31888   3.446   5.022   3.115
10330SOL    HW131889   3.377   4.986   3.052
10330SOL    HW231890   3.487   5.104   3.076
10331SOL     OW31891   5.968   0.992   2.870
10331SOL    HW131892   6.057   0.994   2.824
10331SOL    HW231893   5.895   1.004   2.803
10332SOL     OW31894   7.006   2.058   0.593
10332SOL    HW131895   0.058   2.037   0.529
10332SOL    HW231896   6.917   2.047   0.548
10333SOL     OW31897   5.852   4.478   4.348
10333SOL    HW131898   5.767   4.515   4.386
10333SOL    HW231899   5.929   4.503   4.407
10334SOL     OW31900   2.188   5.511   3.772
10334SOL    HW131901   2.195   5.491   3.674
10334SOL    HW231902   2.148   5.602   3.784
10335SOL     OW31903   1.861   4.647   6.750
10335SOL    HW131904   1.854   4.701   6.834
10335SOL    HW231905   1.804   4.688   6.679
10336SOL     OW31906   4.886   6.410   2.768
10336SOL    HW131907   4.940   6.371   2.694
10336SOL    HW231908   4.933   6.395   2.855
10337SOL     OW31909   6.693   5.117   5.452
10337SOL    HW131910   6.761   5.095   5.382
10337SOL    HW231911   6.641   5.198   5.424
10338SOL     OW31912   3.336   6.430   0.994
10338SOL    HW131913   3.415   6.371   0.980
10338SOL    HW231914   3.264   6.379   1.042
10339SOL     OW31915   4.124   5.113   0.903
10339SOL    HW131916   4.141   5.015   0.892
10339SOL    HW231917   4.039   5.126   0.954
10340SOL     OW31918   1.693   5.873   6.821
10340SOL    HW131919   1.595   5.878   6.843
10340SOL    HW231920   1.705   5.821   6.737
10341SOL     OW31921   2.194   2.774   1.920
10341SOL    HW131922   2.252   2.693   1.925
10341SOL    HW231923   2.196   2.811   1.827
10342SOL     OW31924   1.979   6.193   6.265
10342SOL    HW131925   1.908   6.195   6.336
10342SOL    HW231926   2.069   6.181   6.308
10343SOL     OW31927   1.728   3.944   0.080
10343SOL    HW131928   1.815   3.973   0.039
10343SOL    HW231929   1.656   3.947   0.011
10344SOL     OW31930   4.025   3.642   3.783
10344SOL    HW131931   4.038   3.551   3.743
10344SOL    HW231932   3.928   3.667   3.780
10345SOL     OW31933   2.132   1.685   6.807
10345SOL    HW131934   2.152   1.753   6.736
10345SOL    HW231935   2.060   1.720   6.867
10346SOL     OW31936   5.939   0.126   0.982
10346SOL    HW131937   5.983   0.215   0.967
10346SOL    HW231938   5.920   0.114   1.079
10347SOL     OW31939   4.757   1.513   0.680
10347SOL    HW131940   4.695   1.532   0.605
10347SOL    HW231941   4.734   1.425   0.721
10348SOL     OW31942   6.502   0.300   6.127
10348SOL    HW131943   6.598   0.313   6.152
10348SOL    HW231944   6.474   0.207   6.150
10349SOL     OW31945   5.956   0.517   1.227
10349SOL    HW131946   6.008   0.491   1.309
10349SOL    HW231947   6.005   0.589   1.178
10350SOL     OW31948   3.608   5.922   4.645
10350SOL    HW131949   3.696   5.885   4.676
10350SOL    HW231950   3.607   6.021   4.657
10351SOL     OW31951   6.210   4.548   5.273
10351SOL    HW131952   6.282   4.481   5.254
10351SOL    HW231953   6.251   4.637   5.291
10352SOL     OW31954   5.369   2.592   6.509
10352SOL    HW131955   5.436   2.525   6.478
10352SOL    HW231956   5.355   2.661   6.437
10353SOL     OW31957   0.226   2.658   3.809
10353SOL    HW131958   0.284   2.577   3.819
10353SOL    HW231959   0.133   2.631   3.785
10354SOL     OW31960   0.882   4.304   1.185
10354SOL    HW131961   0.800   4.314   1.240
10354SOL    HW231962   0.934   4.225   1.217
10355SOL     OW31963   1.253   1.363   1.537
10355SOL    HW131964   1.244   1.314   1.624
10355SOL    HW231965   1.303   1.305   1.471
10356SOL     OW31966   0.319   3.380   0.020
10356SOL    HW131967   0.253   3.304   0.018
10356SOL    HW231968   0.338   3.410   6.948
10357SOL     OW31969   1.973   2.153   6.274
10357SOL    HW131970   1.994   2.170   6.370
10357SOL    HW231971   1.959   2.240   6.227
10358SOL     OW31972   1.876   3.060   2.701
10358SOL    HW131973   1.846   2.984   2.758
10358SOL    HW231974   1.976   3.056   2.689
10359SOL     OW31975   4.731   2.740   2.128
10359SOL    HW131976   4.712   2.737   2.030
10359SOL    HW231977   4.796   2.814   2.147
10360SOL     OW31978   5.459   5.036   2.830
10360SOL    HW131979   5.380   5.024   2.770
10360SOL    HW231980   5.431   5.019   2.925
10361SOL     OW31981   2.404   0.778   1.792
10361SOL    HW131982   2.363   0.849   1.849
10361SOL    HW231983   2.375   0.688   1.825
10362SOL     OW31984   0.649   4.579   2.526
10362SOL    HW131985   0.743   4.544   2.521
10362SOL    HW231986   0.636   4.627   2.612
10363SOL     OW31987   4.438   2.840   0.100
10363SOL    HW131988   4.466   2.744   0.095
10363SOL    HW231989   4.354   2.848   0.153
10364SOL     OW31990   5.615   5.309   0.833
10364SOL    HW131991   5.589   5.402   0.861
10364SOL    HW231992   5.621   5.251   0.914
10365SOL     OW31993   6.014   5.044   0.111
10365SOL    HW131994   6.005   5.022   0.209
10365SOL    HW231995   6.025   4.959   0.059
10366SOL     OW31996   4.571   7.012   3.850
10366SOL    HW131997   4.517   6.972   3.776
10366SOL    HW231998   4.616   0.074   3.817
10367SOL     OW31999   6.613   1.726   2.095
10367SOL    HW132000   6.566   1.786   2.030
10367SOL    HW232001   6.588   1.752   2.189
10368SOL     OW32002   2.724   1.021   2.220
10368SOL    HW132003   2.741   0.987   2.128
10368SOL    HW232004   2.688   1.114   2.215
10369SOL     OW32005   2.821   6.660   5.717
10369SOL    HW132006   2.912   6.670   5.756
10369SOL    HW232007   2.769   6.591   5.768
10370SOL     OW32008   6.370   1.483   4.471
10370SOL    HW132009   6.400   1.494   4.376
10370SOL    HW232010   6.340   1.572   4.506
10371SOL     OW32011   3.320   6.975   3.333
10371SOL    HW132012   3.366   0.042   3.339
10371SOL    HW232013   3.247   6.980   3.264
10372SOL     OW32014   2.722   0.927   1.539
10372SOL    HW132015   2.779   1.005   1.515
10372SOL    HW232016   2.676   0.891   1.457
10373SOL     OW32017   0.395   6.758   4.707
10373SOL    HW132018   0.303   6.797   4.718
10373SOL    HW232019   0.463   6.821   4.745
10374SOL     OW32020   2.292   6.956   4.750
10374SOL    HW132021   2.392   6.949   4.758
10374SOL    HW232022   2.252   6.864   4.756
10375SOL     OW32023   2.932   1.704   6.535
10375SOL    HW132024   2.979   1.765   6.597
10375SOL    HW232025   2.894   1.756   6.458
10376SOL     OW32026   1.805   6.502   3.573
10376SOL    HW132027   1.737   6.571   3.548
10376SOL    HW232028   1.896   6.542   3.571
10377SOL     OW32029   0.429   2.036   1.789
10377SOL    HW132030   0.402   2.055   1.695
10377SOL    HW232031   0.517   2.080   1.808
10378SOL     OW32032   0.072   5.488   5.905
10378SOL    HW132033   0.122   5.538   5.835
10378SOL    HW232034   7.009   5.536   5.928
10379SOL     OW32035   2.943   5.978   4.063
10379SOL    HW132036   3.036   5.941   4.063
10379SOL    HW232037   2.898   5.955   3.977
10380SOL     OW32038   1.689   2.042   4.906
10380SOL    HW132039   1.662   2.090   4.990
10380SOL    HW232040   1.612   1.987   4.874
10381SOL     OW32041   3.782   4.327   0.482
10381SOL    HW132042   3.870   4.282   0.469
10381SOL    HW232043   3.723   4.270   0.539
10382SOL     OW32044   3.095   6.264   2.007
10382SOL    HW132045   3.113   6.240   2.103
10382SOL    HW232046   3.093   6.181   1.952
10383SOL     OW32047   2.079   4.058   0.675
10383SOL    HW132048   2.055   4.109   0.593
10383SOL    HW232049   2.049   3.964   0.667
10384SOL     OW32050   6.352   6.347   1.049
10384SOL    HW132051   6.277   6.288   1.079
10384SOL    HW232052   6.439   6.300   1.061
10385SOL     OW32053   3.763   5.710   5.558
10385SOL    HW132054   3.685   5.647   5.554
10385SOL    HW232055   3.814   5.704   5.472
10386SOL     OW32056   0.461   0.743   5.801
10386SOL    HW132057   0.456   0.648   5.831
10386SOL    HW232058   0.394   0.760   5.730
10387SOL     OW32059   5.360   3.027   3.121
10387SOL    HW132060   5.407   2.972   3.052
10387SOL    HW232061   5.427   3.070   3.181
10388SOL     OW32062   2.811   0.054   0.795
10388SOL    HW132063   2.760   0.102   0.724
10388SOL    HW232064   2.873   7.009   0.752
10389SOL     OW32065   5.606   3.475   0.281
10389SOL    HW132066   5.589   3.415   0.359
10389SOL    HW232067   5.543   3.554   0.285
10390SOL     OW32068   1.573   2.419   0.432
10390SOL    HW132069   1.587   2.322   0.454
10390SOL    HW232070   1.478   2.434   0.405
10391SOL     OW32071   1.891   6.254   4.018
10391SOL    HW132072   1.870   6.157   4.007
10391SOL    HW232073   1.987   6.265   4.043
10392SOL     OW32074   6.025   4.884   5.349
10392SOL    HW132075   6.099   4.881   5.281
10392SOL    HW232076   6.029   4.971   5.398
10393SOL     OW32077   1.490   3.907   3.837
10393SOL    HW132078   1.454   3.829   3.889
10393SOL    HW232079   1.532   3.972   3.899
10394SOL     OW32080   2.282   5.868   4.180
10394SOL    HW132081   2.241   5.946   4.228
10394SOL    HW232082   2.312   5.896   4.089
10395SOL     OW32083   0.333   6.377   1.525
10395SOL    HW132084   0.268   6.401   1.597
10395SOL    HW232085   0.317   6.433   1.444
10396SOL     OW32086   4.032   1.919   3.663
10396SOL    HW132087   3.943   1.879   3.642
10396SOL    HW232088   4.104   1.867   3.617
10397SOL     OW32089   3.585   1.636   3.817
10397SOL    HW132090   3.669   1.616   3.767
10397SOL    HW232091   3.585   1.587   3.904
10398SOL     OW32092   5.815   2.097   0.965
10398SOL    HW132093   5.806   2.099   1.065
10398SOL    HW232094   5.724   2.098   0.924
10399SOL     OW32095   5.526   2.180   3.412
10399SOL    HW132096   5.619   2.143   3.411
10399SOL    HW232097   5.486   2.172   3.321
10400SOL     OW32098   4.453   6.236   6.996
10400SOL    HW132099   4.501   6.310   0.021
10400SOL    HW232100   4.354   6.252   7.002
10401SOL     OW32101   6.343   6.396   2.797
10401SOL    HW132102   6.354   6.349   2.884
10401SOL    HW232103   6.366   6.335   2.722
10402SOL     OW32104   6.588   2.270   5.106
10402SOL    HW132105   6.499   2.253   5.064
10402SOL    HW232106   6.587   2.360   5.149
10403SOL     OW32107   4.852   1.404   3.393
10403SOL    HW132108   4.866   1.479   3.458
10403SOL    HW232109   4.780   1.344   3.426
10404SOL     OW32110   6.194   6.328   4.487
10404SOL    HW132111   6.164   6.418   4.517
10404SOL    HW232112   6.292   6.330   4.467
10405SOL     OW32113   0.967   0.371   5.302
10405SOL    HW132114   0.958   0.275   5.276
10405SOL    HW232115   0.949   0.381   5.399
10406SOL     OW32116   2.333   4.715   3.304
10406SOL    HW132117   2.365   4.778   3.233
10406SOL    HW232118   2.402   4.643   3.318
10407SOL     OW32119   2.678   6.665   6.200
10407SOL    HW132120   2.616   6.741   6.180
10407SOL    HW232121   2.652   6.624   6.288
10408SOL     OW32122   4.593   0.380   1.857
10408SOL    HW132123   4.514   0.441   1.848
10408SOL    HW232124   4.615   0.369   1.954
10409SOL     OW32125   0.572   4.538   1.034
10409SOL    HW132126   0.616   4.485   1.107
10409SOL    HW232127   0.587   4.492   0.946
10410SOL     OW32128   5.383   2.143   1.584
10410SOL    HW132129   5.421   2.067   1.531
10410SOL    HW232130   5.314   2.190   1.529
10411SOL     OW32131   3.526   6.372   3.161
10411SOL    HW132132   3.545   6.284   3.205
10411SOL    HW232133   3.583   6.443   3.202
10412SOL     OW32134   0.371   0.788   0.084
10412SOL    HW132135   0.339   0.846   0.010
10412SOL    HW232136   0.381   0.694   0.051
10413SOL     OW32137   7.012   3.039   0.666
10413SOL    HW132138   6.949   3.038   0.589
10413SOL    HW232139   7.009   3.129   0.711
10414SOL     OW32140   3.825   4.807   6.022
10414SOL    HW132141   3.738   4.758   6.021
10414SOL    HW232142   3.881   4.778   5.945
10415SOL     OW32143   1.753   3.620   4.549
10415SOL    HW132144   1.779   3.579   4.462
10415SOL    HW232145   1.819   3.592   4.619
10416SOL     OW32146   6.461   0.522   5.028
10416SOL    HW132147   6.532   0.457   5.001
10416SOL    HW232148   6.398   0.535   4.952
10417SOL     OW32149   2.947   5.362   4.535
10417SOL    HW132150   2.963   5.400   4.626
10417SOL    HW232151   2.939   5.437   4.469
10418SOL     OW32152   0.072   3.796   6.705
10418SOL    HW132153   0.009   3.726   6.672
10418SOL    HW232154   0.120   3.762   6.786
10419SOL     OW32155   2.316   6.911   6.024
10419SOL    HW132156   2.401   6.874   5.988
10419SOL    HW232157   2.333   6.999   6.067
10420SOL     OW32158   0.372   3.729   3.817
10420SOL    HW132159   0.304   3.800   3.834
10420SOL    HW232160   0.351   3.682   3.731
10421SOL     OW32161   0.509   1.844   3.628
10421SOL    HW132162   0.604   1.847   3.658
10421SOL    HW232163   0.449   1.876   3.702
10422SOL     OW32164   6.674   2.997   5.116
10422SOL    HW132165   6.619   2.917   5.142
10422SOL    HW232166   6.665   3.012   5.017
10423SOL     OW32167   6.426   6.000   4.997
10423SOL    HW132168   6.496   6.019   5.066
10423SOL    HW232169   6.452   6.044   4.911
10424SOL     OW32170   4.800   3.221   0.393
10424SOL    HW132171   4.728   3.174   0.443
10424SOL    HW232172   4.850   3.155   0.337
10425SOL     OW32173   0.795   0.513   1.680
10425SOL    HW132174   0.846   0.598   1.664
10425SOL    HW232175   0.706   0.518   1.635
10426SOL     OW32176   6.057   4.758   0.666
10426SOL    HW132177   6.145   4.761   0.619
10426SOL    HW232178   6.000   4.834   0.634
10427SOL     OW32179   3.781   0.624   6.428
10427SOL    HW132180   3.787   0.703   6.367
10427SOL    HW232181   3.688   0.589   6.427
10428SOL     OW32182   3.697   1.108   3.553
10428SOL    HW132183   3.683   1.009   3.542
10428SOL    HW232184   3.611   1.151   3.580
10429SOL     OW32185   6.676   4.771   0.833
10429SOL    HW132186   6.692   4.694   0.894
10429SOL    HW232187   6.740   4.845   0.855
10430SOL     OW32188   5.040   0.091   4.449
10430SOL    HW132189   4.975   0.124   4.517
10430SOL    HW232190   5.123   0.058   4.496
10431SOL     OW32191   3.414   6.151   4.047
10431SOL    HW132192   3.339   6.142   3.981
10431SOL    HW232193   3.407   6.078   4.115
10432SOL     OW32194   5.572   6.988   4.980
10432SOL    HW132195   5.670   6.982   4.995
10432SOL    HW232196   5.538   6.900   4.947
10433SOL     OW32197   1.371   6.231   1.790
10433SOL    HW132198   1.344   6.287   1.712
10433SOL    HW232199   1.454   6.269   1.831
10434SOL     OW32200   4.092   6.764   3.358
10434SOL    HW132201   4.189   6.769   3.335
10434SOL    HW232202   4.081   6.721   3.448
10435SOL     OW32203   6.963   0.540   4.752
10435SOL    HW132204   6.958   0.446   4.717
10435SOL    HW232205   6.951   0.539   4.851
10436SOL     OW32206   0.884   5.122   5.654
10436SOL    HW132207   0.929   5.155   5.737
10436SOL    HW232208   0.948   5.069   5.599
10437SOL     OW32209   5.351   4.810   5.681
10437SOL    HW132210   5.287   4.761   5.741
10437SOL    HW232211   5.392   4.746   5.616
10438SOL     OW32212   6.326   6.729   0.343
10438SOL    HW132213   6.237   6.694   0.315
10438SOL    HW232214   6.322   6.829   0.351
10439SOL     OW32215   4.699   0.900   6.149
10439SOL    HW132216   4.662   0.850   6.228
10439SOL    HW232217   4.646   0.983   6.135
10440SOL     OW32218   1.128   0.006   0.602
10440SOL    HW132219   1.142   6.937   0.560
10440SOL    HW232220   1.102   0.072   0.532
10441SOL     OW32221   3.700   0.417   1.040
10441SOL    HW132222   3.788   0.388   1.079
10441SOL    HW232223   3.634   0.433   1.113
10442SOL     OW32224   3.139   6.298   5.676
10442SOL    HW132225   3.237   6.288   5.691
10442SOL    HW232226   3.103   6.368   5.737
10443SOL     OW32227   5.140   3.817   4.674
10443SOL    HW132228   5.044   3.799   4.652
10443SOL    HW232229   5.173   3.895   4.621
10444SOL     OW32230   3.824   6.061   4.959
10444SOL    HW132231   3.905   6.017   4.922
10444SOL    HW232232   3.756   5.991   4.983
10445SOL     OW32233   0.499   5.123   4.883
10445SOL    HW132234   0.434   5.049   4.866
10445SOL    HW232235   0.458   5.210   4.857
10446SOL     OW32236   1.254   3.090   5.130
10446SOL    HW132237   1.307   3.051   5.055
10446SOL    HW232238   1.246   3.189   5.117
10447SOL     OW32239   0.031   1.085   2.174
10447SOL    HW132240   0.014   1.149   2.098
10447SOL    HW232241   0.076   1.003   2.138
10448SOL     OW32242   3.402   1.318   1.792
10448SOL    HW132243   3.322   1.313   1.852
10448SOL    HW232244   3.426   1.227   1.759
10449SOL     OW32245   2.186   5.202   4.836
10449SOL    HW132246   2.256   5.221   4.767
10449SOL    HW232247   2.114   5.272   4.830
10450SOL     OW32248   0.839   1.965   0.508
10450SOL    HW132249   0.812   1.998   0.417
10450SOL    HW232250   0.788   1.882   0.529
10451SOL     OW32251   1.755   5.308   2.489
10451SOL    HW132252   1.692   5.330   2.563
10451SOL    HW232253   1.748   5.379   2.418
10452SOL     OW32254   6.585   4.027   2.558
10452SOL    HW132255   6.661   4.045   2.621
10452SOL    HW232256   6.522   3.961   2.599
10453SOL     OW32257   4.186   5.507   1.705
10453SOL    HW132258   4.232   5.581   1.657
10453SOL    HW232259   4.087   5.514   1.690
10454SOL     OW32260   4.547   3.435   0.919
10454SOL    HW132261   4.599   3.351   0.935
10454SOL    HW232262   4.609   3.510   0.897
10455SOL     OW32263   6.706   5.277   3.034
10455SOL    HW132264   6.611   5.254   3.015
10455SOL    HW232265   6.734   5.354   2.975
10456SOL     OW32266   3.526   6.172   1.141
10456SOL    HW132267   3.461   6.124   1.082
10456SOL    HW232268   3.547   6.115   1.220
10457SOL     OW32269   3.308   3.684   1.686
10457SOL    HW132270   3.384   3.671   1.750
10457SOL    HW232271   3.279   3.780   1.688
10458SOL     OW32272   0.341   0.990   5.655
10458SOL    HW132273   0.243   1.009   5.658
10458SOL    HW232274   0.391   1.076   5.651
10459SOL     OW32275   4.729   5.561   2.224
10459SOL    HW132276   4.680   5.502   2.159
10459SOL    HW232277   4.732   5.516   2.313
10460SOL     OW32278   1.432   5.048   1.330
10460SOL    HW132279   1.481   5.119   1.380
10460SOL    HW232280   1.434   4.963   1.382
10461SOL     OW32281   1.663   5.212   5.508
10461SOL    HW132282   1.660   5.310   5.490
10461SOL    HW232283   1.572   5.180   5.535
10462SOL     OW32284   6.163   1.777   3.107
10462SOL    HW132285   6.136   1.681   3.114
10462SOL    HW232286   6.255   1.789   3.145
10463SOL     OW32287   3.669   2.949   5.632
10463SOL    HW132288   3.675   2.993   5.542
10463SOL    HW232289   3.715   2.860   5.629
10464SOL     OW32290   6.024   6.612   1.409
10464SOL    HW132291   5.970   6.696   1.404
10464SOL    HW232292   6.113   6.627   1.367
10465SOL     OW32293   6.390   6.124   1.643
10465SOL    HW132294   6.338   6.198   1.685
10465SOL    HW232295   6.333   6.076   1.576
10466SOL     OW32296   4.650   4.808   5.350
10466SOL    HW132297   4.706   4.861   5.287
10466SOL    HW232298   4.689   4.814   5.442
10467SOL     OW32299   1.411   2.173   5.601
10467SOL    HW132300   1.384   2.269   5.590
10467SOL    HW232301   1.447   2.138   5.515
10468SOL     OW32302   3.821   4.832   2.896
10468SOL    HW132303   3.892   4.785   2.843
10468SOL    HW232304   3.842   4.825   2.993
10469SOL     OW32305   3.840   2.510   6.286
10469SOL    HW132306   3.847   2.567   6.204
10469SOL    HW232307   3.779   2.554   6.351
10470SOL     OW32308   3.086   1.921   3.142
10470SOL    HW132309   3.103   1.946   3.237
10470SOL    HW232310   3.003   1.866   3.136
10471SOL     OW32311   2.465   2.587   1.167
10471SOL    HW132312   2.435   2.501   1.207
10471SOL    HW232313   2.426   2.597   1.075
10472SOL     OW32314   2.737   5.437   1.011
10472SOL    HW132315   2.822   5.395   0.981
10472SOL    HW232316   2.758   5.519   1.065
10473SOL     OW32317   5.854   0.706   0.281
10473SOL    HW132318   5.853   0.735   0.377
10473SOL    HW232319   5.783   0.755   0.231
10474SOL     OW32320   4.692   1.482   4.810
10474SOL    HW132321   4.707   1.581   4.814
10474SOL    HW232322   4.727   1.439   4.893
10475SOL     OW32323   4.684   6.590   2.741
10475SOL    HW132324   4.650   6.578   2.648
10475SOL    HW232325   4.774   6.547   2.749
10476SOL     OW32326   6.841   6.248   6.669
10476SOL    HW132327   6.845   6.216   6.764
10476SOL    HW232328   6.752   6.292   6.653
10477SOL     OW32329   6.429   2.040   4.399
10477SOL    HW132330   6.478   1.957   4.426
10477SOL    HW232331   6.332   2.017   4.384
10478SOL     OW32332   0.102   0.699   1.196
10478SOL    HW132333   0.082   0.605   1.169
10478SOL    HW232334   0.201   0.714   1.195
10479SOL     OW32335   0.414   2.967   1.816
10479SOL    HW132336   0.511   2.941   1.811
10479SOL    HW232337   0.397   3.044   1.755
10480SOL     OW32338   5.667   0.494   1.655
10480SOL    HW132339   5.740   0.500   1.723
10480SOL    HW232340   5.686   0.557   1.580
10481SOL     OW32341   2.404   0.354   4.495
10481SOL    HW132342   2.472   0.412   4.541
10481SOL    HW232343   2.418   0.360   4.396
10482SOL     OW32344   0.423   5.503   4.969
10482SOL    HW132345   0.453   5.449   5.048
10482SOL    HW232346   0.424   5.446   4.887
10483SOL     OW32347   0.097   5.898   0.687
10483SOL    HW132348   0.027   5.952   0.639
10483SOL    HW232349   0.188   5.930   0.659
10484SOL     OW32350   5.897   0.796   1.332
10484SOL    HW132351   5.935   0.811   1.423
10484SOL    HW232352   5.844   0.876   1.304
10485SOL     OW32353   3.466   3.111   2.129
10485SOL    HW132354   3.419   3.028   2.158
10485SOL    HW232355   3.558   3.088   2.099
10486SOL     OW32356   6.410   0.572   6.128
10486SOL    HW132357   6.450   0.482   6.110
10486SOL    HW232358   6.369   0.573   6.219
10487SOL     OW32359   4.625   2.134   1.065
10487SOL    HW132360   4.686   2.124   1.144
10487SOL    HW232361   4.601   2.230   1.053
10488SOL     OW32362   2.014   1.857   6.267
10488SOL    HW132363   2.053   1.851   6.175
10488SOL    HW232364   2.009   1.953   6.295
10489SOL     OW32365   6.451   6.511   4.332
10489SOL    HW132366   6.480   6.434   4.389
10489SOL    HW232367   6.508   6.591   4.351
10490SOL     OW32368   5.605   1.678   0.621
10490SOL    HW132369   5.552   1.602   0.584
10490SOL    HW232370   5.658   1.647   0.700
10491SOL     OW32371   2.120   2.147   5.916
10491SOL    HW132372   2.068   2.232   5.902
10491SOL    HW232373   2.057   2.069   5.912
10492SOL     OW32374   4.744   6.011   1.054
10492SOL    HW132375   4.703   6.098   1.023
10492SOL    HW232376   4.751   6.012   1.153
10493SOL     OW32377   2.990   6.403   1.553
10493SOL    HW132378   2.908   6.461   1.546
10493SOL    HW232379   2.965   6.308   1.535
10494SOL     OW32380   6.239   4.224   5.593
10494SOL    HW132381   6.305   4.293   5.623
10494SOL    HW232382   6.168   4.213   5.662
10495SOL     OW32383   6.783   0.490   0.578
10495SOL    HW132384   6.706   0.428   0.567
10495SOL    HW232385   6.757   0.567   0.636
10496SOL     OW32386   6.492   4.656   5.097
10496SOL    HW132387   6.567   4.686   5.039
10496SOL    HW232388   6.502   4.559   5.119
10497SOL     OW32389   1.360   6.779   2.258
10497SOL    HW132390   1.450   6.741   2.279
10497SOL    HW232391   1.291   6.735   2.314
10498SOL     OW32392   5.974   6.099   1.215
10498SOL    HW132393   5.948   6.189   1.250
10498SOL    HW232394   6.069   6.101   1.186
10499SOL     OW32395   4.959   6.584   1.204
10499SOL    HW132396   5.032   6.518   1.223
10499SOL    HW232397   4.999   6.668   1.168
10500SOL     OW32398   5.932   2.287   5.840
10500SOL    HW132399   5.843   2.295   5.795
10500SOL    HW232400   5.964   2.192   5.835
10501SOL     OW32401   2.229   6.120   2.410
10501SOL    HW132402   2.224   6.122   2.310
10501SOL    HW232403   2.290   6.046   2.439
10502SOL     OW32404   2.926   4.253   0.667
10502SOL    HW132405   2.932   4.277   0.570
10502SOL    HW232406   2.935   4.337   0.722
10503SOL     OW32407   5.531   4.141   0.178
10503SOL    HW132408   5.577   4.130   0.266
10503SOL    HW232409   5.440   4.178   0.193
10504SOL     OW32410   0.461   2.326   5.203
10504SOL    HW132411   0.377   2.381   5.198
10504SOL    HW232412   0.464   2.278   5.290
10505SOL     OW32413   5.604   6.673   1.636
10505SOL    HW132414   5.629   6.681   1.732
10505SOL    HW232415   5.581   6.763   1.600
10506SOL     OW32416   0.415   3.389   0.609
10506SOL    HW132417   0.474   3.400   0.689
10506SOL    HW232418   0.472   3.385   0.527
10507SOL     OW32419   2.368   5.320   6.883
10507SOL    HW132420   2.460   5.280   6.879
10507SOL    HW232421   2.373   5.417   6.860
10508SOL     OW32422   0.890   5.337   4.308
10508SOL    HW132423   0.845   5.256   4.272
10508SOL    HW232424   0.913   5.399   4.233
10509SOL     OW32425   6.264   4.517   4.771
10509SOL    HW132426   6.193   4.561   4.827
10509SOL    HW232427   6.243   4.419   4.762
10510SOL     OW32428   4.798   6.256   0.439
10510SOL    HW132429   4.732   6.318   0.484
10510SOL    HW232430   4.754   6.168   0.423
10511SOL     OW32431   3.130   1.629   1.745
10511SOL    HW132432   3.044   1.607   1.791
10511SOL    HW232433   3.137   1.729   1.734
10512SOL     OW32434   3.587   6.868   6.161
10512SOL    HW132435   3.579   6.959   6.201
10512SOL    HW232436   3.683   6.839   6.163
10513SOL     OW32437   6.408   2.982   3.294
10513SOL    HW132438   6.455   3.034   3.223
10513SOL    HW232439   6.386   3.042   3.371
10514SOL     OW32440   1.265   1.860   1.587
10514SOL    HW132441   1.210   1.939   1.614
10514SOL    HW232442   1.284   1.864   1.489
10515SOL     OW32443   2.228   3.019   4.054
10515SOL    HW132444   2.214   3.115   4.080
10515SOL    HW232445   2.142   2.969   4.065
10516SOL     OW32446   2.421   1.948   0.221
10516SOL    HW132447   2.465   2.007   0.288
10516SOL    HW232448   2.472   1.954   0.134
10517SOL     OW32449   1.362   4.335   1.247
10517SOL    HW132450   1.356   4.414   1.186
10517SOL    HW232451   1.441   4.347   1.308
10518SOL     OW32452   6.811   6.075   1.737
10518SOL    HW132453   6.898   6.027   1.726
10518SOL    HW232454   6.777   6.061   1.830
10519SOL     OW32455   2.898   4.643   0.352
10519SOL    HW132456   2.855   4.733   0.351
10519SOL    HW232457   2.947   4.629   0.266
10520SOL     OW32458   0.253   2.039   5.923
10520SOL    HW132459   0.192   2.117   5.933
10520SOL    HW232460   0.230   1.969   5.991
10521SOL     OW32461   6.345   4.961   1.500
10521SOL    HW132462   6.309   4.911   1.421
10521SOL    HW232463   6.269   4.996   1.555
10522SOL     OW32464   0.387   2.958   3.327
10522SOL    HW132465   0.393   2.868   3.371
10522SOL    HW232466   0.333   2.950   3.243
10523SOL     OW32467   0.507   4.292   3.389
10523SOL    HW132468   0.461   4.216   3.435
10523SOL    HW232469   0.471   4.379   3.425
10524SOL     OW32470   0.723   6.107   4.137
10524SOL    HW132471   0.641   6.138   4.184
10524SOL    HW232472   0.772   6.186   4.099
10525SOL     OW32473   3.785   6.907   5.395
10525SOL    HW132474   3.815   6.995   5.433
10525SOL    HW232475   3.860   6.867   5.341
10526SOL     OW32476   0.644   6.672   1.696
10526SOL    HW132477   0.554   6.683   1.653
10526SOL    HW232478   0.675   6.760   1.732
10527SOL     OW32479   0.883   0.479   6.120
10527SOL    HW132480   0.949   0.525   6.060
10527SOL    HW232481   0.932   0.432   6.193
10528SOL     OW32482   0.933   4.070   6.561
10528SOL    HW132483   0.843   4.068   6.517
10528SOL    HW232484   0.922   4.083   6.660
10529SOL     OW32485   2.255   5.580   4.873
10529SOL    HW132486   2.174   5.595   4.931
10529SOL    HW232487   2.232   5.517   4.800
10530SOL     OW32488   1.073   6.352   5.863
10530SOL    HW132489   1.006   6.306   5.804
10530SOL    HW232490   1.097   6.440   5.822
10531SOL     OW32491   2.621   1.970   4.595
10531SOL    HW132492   2.531   1.997   4.629
10531SOL    HW232493   2.632   2.002   4.501
10532SOL     OW32494   6.900   6.741   6.599
10532SOL    HW132495   6.848   6.781   6.523
10532SOL    HW232496   6.895   6.802   6.678
10533SOL     OW32497   3.171   6.420   4.041
10533SOL    HW132498   3.210   6.359   4.110
10533SOL    HW232499   3.081   6.386   4.014
10534SOL     OW32500   6.617   5.196   1.985
10534SOL    HW132501   6.636   5.287   1.948
10534SOL    HW232502   6.690   5.133   1.956
10535SOL     OW32503   1.488   1.560   2.521
10535SOL    HW132504   1.498   1.495   2.597
10535SOL    HW232505   1.520   1.650   2.550
10536SOL     OW32506   4.598   0.056   4.210
10536SOL    HW132507   4.513   0.028   4.254
10536SOL    HW232508   4.592   0.153   4.185
10537SOL     OW32509   4.886   6.726   4.023
10537SOL    HW132510   4.932   6.722   4.112
10537SOL    HW232511   4.870   6.633   3.990
10538SOL     OW32512   6.291   4.026   1.777
10538SOL    HW132513   6.345   3.987   1.703
10538SOL    HW232514   6.263   3.953   1.840
10539SOL     OW32515   6.111   5.175   1.465
10539SOL    HW132516   6.095   5.122   1.382
10539SOL    HW232517   6.028   5.224   1.491
10540SOL     OW32518   2.198   3.663   5.573
10540SOL    HW132519   2.250   3.624   5.497
10540SOL    HW232520   2.236   3.753   5.596
10541SOL     OW32521   3.980   3.069   3.639
10541SOL    HW132522   3.897   3.033   3.596
10541SOL    HW232523   3.962   3.084   3.737
10542SOL     OW32524   6.676   0.126   4.841
10542SOL    HW132525   6.729   0.064   4.783
10542SOL    HW232526   6.586   0.087   4.859
10543SOL     OW32527   1.485   1.956   4.408
10543SOL    HW132528   1.434   2.030   4.365
10543SOL    HW232529   1.439   1.869   4.391
10544SOL     OW32530   2.205   5.996   2.958
10544SOL    HW132531   2.295   6.039   2.961
10544SOL    HW232532   2.210   5.911   2.906
10545SOL     OW32533   1.088   2.092   1.656
10545SOL    HW132534   1.008   2.040   1.687
10545SOL    HW232535   1.067   2.137   1.570
10546SOL     OW32536   3.486   6.260   0.832
10546SOL    HW132537   3.481   6.236   0.735
10546SOL    HW232538   3.581   6.273   0.858
10547SOL     OW32539   4.962   1.853   4.027
10547SOL    HW132540   5.013   1.828   3.945
10547SOL    HW232541   5.022   1.846   4.107
10548SOL     OW32542   0.340   3.767   4.149
10548SOL    HW132543   0.414   3.707   4.179
10548SOL    HW232544   0.378   3.852   4.113
10549SOL     OW32545   0.446   1.592   0.632
10549SOL    HW132546   0.468   1.501   0.597
10549SOL    HW232547   0.440   1.588   0.732
10550SOL     OW32548   4.101   6.623   3.596
10550SOL    HW132549   4.184   6.587   3.638
10550SOL    HW232550   4.035   6.548   3.583
10551SOL     OW32551   2.288   2.244   6.452
10551SOL    HW132552   2.343   2.161   6.469
10551SOL    HW232553   2.233   2.231   6.370
10552SOL     OW32554   2.278   0.755   4.925
10552SOL    HW132555   2.377   0.749   4.913
10552SOL    HW232556   2.257   0.820   4.998
10553SOL     OW32557   0.118   4.125   0.807
10553SOL    HW132558   0.109   4.026   0.812
10553SOL    HW232559   0.030   4.165   0.780
10554SOL     OW32560   5.230   5.451   2.320
10554SOL    HW132561   5.255   5.464   2.224
10554SOL    HW232562   5.306   5.407   2.368
10555SOL     OW32563   2.834   2.444   1.062
10555SOL    HW132564   2.743   2.402   1.067
10555SOL    HW232565   2.859   2.457   0.966
10556SOL     OW32566   2.935   0.946   3.716
10556SOL    HW132567   3.009   0.912   3.659
10556SOL    HW232568   2.942   0.906   3.807
10557SOL     OW32569   1.612   3.376   3.797
10557SOL    HW132570   1.551   3.356   3.874
10557SOL    HW232571   1.558   3.414   3.722
10558SOL     OW32572   3.949   5.780   5.746
10558SOL    HW132573   3.963   5.746   5.839
10558SOL    HW232574   3.860   5.749   5.712
10559SOL     OW32575   4.034   0.740   1.814
10559SOL    HW132576   3.964   0.811   1.807
10559SOL    HW232577   4.010   0.663   1.755
10560SOL     OW32578   4.439   6.786   2.415
10560SOL    HW132579   4.347   6.821   2.431
10560SOL    HW232580   4.501   6.862   2.398
10561SOL     OW32581   3.745   4.504   1.658
10561SOL    HW132582   3.742   4.540   1.565
10561SOL    HW232583   3.697   4.567   1.719
10562SOL     OW32584   4.529   5.866   0.434
10562SOL    HW132585   4.477   5.851   0.350
10562SOL    HW232586   4.504   5.796   0.501
10563SOL     OW32587   0.774   0.712   1.485
10563SOL    HW132588   0.852   0.653   1.462
10563SOL    HW232589   0.808   0.803   1.507
10564SOL     OW32590   5.944   6.707   3.989
10564SOL    HW132591   5.870   6.675   3.930
10564SOL    HW232592   5.905   6.737   4.076
10565SOL     OW32593   6.623   6.354   5.523
10565SOL    HW132594   6.615   6.261   5.558
10565SOL    HW232595   6.712   6.365   5.478
10566SOL     OW32596   3.189   1.674   6.593
10566SOL    HW132597   3.238   1.587   6.591
10566SOL    HW232598   3.102   1.664   6.544
10567SOL     OW32599   2.399   2.692   6.240
10567SOL    HW132600   2.305   2.674   6.210
10567SOL    HW232601   2.414   2.649   6.329
10568SOL     OW32602   5.739   2.267   0.498
10568SOL    HW132603   5.682   2.222   0.567
10568SOL    HW232604   5.750   2.206   0.420
10569SOL     OW32605   5.420   0.679   2.099
10569SOL    HW132606   5.437   0.772   2.130
10569SOL    HW232607   5.484   0.617   2.143
10570SOL     OW32608   1.655   4.721   3.623
10570SOL    HW132609   1.560   4.737   3.646
10570SOL    HW232610   1.699   4.669   3.696
10571SOL     OW32611   0.208   4.198   5.503
10571SOL    HW132612   0.253   4.224   5.588
10571SOL    HW232613   0.246   4.249   5.427
10572SOL     OW32614   0.340   4.804   2.406
10572SOL    HW132615   0.321   4.850   2.492
10572SOL    HW232616   0.255   4.792   2.354
10573SOL     OW32617   4.955   0.323   4.912
10573SOL    HW132618   4.901   0.361   4.987
10573SOL    HW232619   5.023   0.391   4.884
10574SOL     OW32620   6.942   1.463   3.704
10574SOL    HW132621   7.008   1.431   3.772
10574SOL    HW232622   6.912   1.556   3.728
10575SOL     OW32623   6.394   1.237   3.867
10575SOL    HW132624   6.404   1.159   3.805
10575SOL    HW232625   6.319   1.295   3.836
10576SOL     OW32626   1.126   5.653   3.042
10576SOL    HW132627   1.142   5.695   2.953
10576SOL    HW232628   1.071   5.714   3.099
10577SOL     OW32629   2.103   4.738   0.454
10577SOL    HW132630   2.103   4.754   0.356
10577SOL    HW232631   2.054   4.653   0.474
10578SOL     OW32632   4.773   0.897   3.539
10578SOL    HW132633   4.818   0.915   3.451
10578SOL    HW232634   4.676   0.922   3.532
10579SOL     OW32635   3.676   3.127   1.151
10579SOL    HW132636   3.581   3.098   1.162
10579SOL    HW232637   3.680   3.227   1.149
10580SOL     OW32638   6.536   6.252   5.935
10580SOL    HW132639   6.581   6.274   6.022
10580SOL    HW232640   6.572   6.311   5.863
10581SOL     OW32641   5.558   0.224   2.596
10581SOL    HW132642   5.569   0.175   2.510
10581SOL    HW232643   5.648   0.236   2.639
10582SOL     OW32644   4.713   4.721   6.302
10582SOL    HW132645   4.785   4.717   6.372
10582SOL    HW232646   4.755   4.715   6.211
10583SOL     OW32647   4.381   6.985   4.348
10583SOL    HW132648   4.418   6.910   4.403
10583SOL    HW232649   4.288   7.005   4.377
10584SOL     OW32650   6.443   6.911   6.746
10584SOL    HW132651   6.363   6.947   6.792
10584SOL    HW232652   6.451   6.812   6.763
10585SOL     OW32653   1.955   1.912   5.884
10585SOL    HW132654   1.974   1.961   5.799
10585SOL    HW232655   1.872   1.948   5.926
10586SOL     OW32656   4.706   4.890   5.630
10586SOL    HW132657   4.764   4.971   5.638
10586SOL    HW232658   4.661   4.872   5.717
10587SOL     OW32659   6.478   5.471   0.084
10587SOL    HW132660   6.480   5.568   0.110
10587SOL    HW232661   6.399   5.454   0.025
10588SOL     OW32662   2.062   1.927   5.066
10588SOL    HW132663   2.055   2.015   5.018
10588SOL    HW232664   2.055   1.942   5.165
10589SOL     OW32665   5.053   0.310   4.257
10589SOL    HW132666   5.033   0.236   4.321
10589SOL    HW232667   5.135   0.359   4.287
10590SOL     OW32668   0.174   6.442   1.729
10590SOL    HW132669   0.179   6.540   1.709
10590SOL    HW232670   0.212   6.424   1.819
10591SOL     OW32671   2.177   1.627   1.104
10591SOL    HW132672   2.213   1.640   1.012
10591SOL    HW232673   2.165   1.529   1.122
10592SOL     OW32674   5.596   3.086   4.946
10592SOL    HW132675   5.625   3.167   4.896
10592SOL    HW232676   5.653   3.074   5.027
10593SOL     OW32677   1.764   6.166   0.475
10593SOL    HW132678   1.825   6.088   0.461
10593SOL    HW232679   1.779   6.205   0.565
10594SOL     OW32680   4.398   2.096   2.770
10594SOL    HW132681   4.320   2.043   2.738
10594SOL    HW232682   4.389   2.191   2.741
10595SOL     OW32683   6.241   0.265   6.845
10595SOL    HW132684   6.246   0.212   6.930
10595SOL    HW232685   6.274   0.358   6.862
10596SOL     OW32686   4.882   0.239   0.086
10596SOL    HW132687   4.862   0.334   0.062
10596SOL    HW232688   4.962   0.236   0.146
10597SOL     OW32689   2.057   0.967   5.684
10597SOL    HW132690   1.996   1.001   5.755
10597SOL    HW232691   2.096   1.044   5.633
10598SOL     OW32692   3.261   2.052   6.446
10598SOL    HW132693   3.219   2.008   6.525
10598SOL    HW232694   3.274   1.985   6.373
10599SOL     OW32695   6.212   3.250   6.724
10599SOL    HW132696   6.151   3.307   6.670
10599SOL    HW232697   6.184   3.154   6.716
10600SOL     OW32698   3.823   2.186   1.092
10600SOL    HW132699   3.839   2.284   1.104
10600SOL    HW232700   3.790   2.147   1.178
10601SOL     OW32701   1.538   4.816   5.654
10601SOL    HW132702   1.575   4.897   5.699
10601SOL    HW232703   1.612   4.766   5.609
10602SOL     OW32704   1.011   1.283   1.058
10602SOL    HW132705   0.974   1.374   1.044
10602SOL    HW232706   1.111   1.289   1.066
10603SOL     OW32707   4.728   0.180   3.099
10603SOL    HW132708   4.713   0.084   3.079
10603SOL    HW232709   4.662   0.211   3.168
10604SOL     OW32710   0.113   5.903   4.903
10604SOL    HW132711   0.182   5.830   4.899
10604SOL    HW232712   0.052   5.887   4.980
10605SOL     OW32713   1.664   6.768   0.354
10605SOL    HW132714   1.583   6.753   0.299
10605SOL    HW232715   1.746   6.765   0.296
10606SOL     OW32716   6.522   1.284   1.552
10606SOL    HW132717   6.457   1.290   1.628
10606SOL    HW232718   6.518   1.191   1.513
10607SOL     OW32719   3.882   4.621   0.369
10607SOL    HW132720   3.864   4.693   0.436
10607SOL    HW232721   3.954   4.560   0.404
10608SOL     OW32722   6.992   3.598   3.898
10608SOL    HW132723   0.024   3.627   3.978
10608SOL    HW232724   6.955   3.507   3.914
10609SOL     OW32725   2.811   6.811   6.859
10609SOL    HW132726   2.864   6.882   6.813
10609SOL    HW232727   2.837   6.807   6.955
10610SOL     OW32728   0.489   1.575   4.086
10610SOL    HW132729   0.539   1.640   4.144
10610SOL    HW232730   0.391   1.593   4.093
10611SOL     OW32731   2.810   4.991   6.231
10611SOL    HW132732   2.897   4.973   6.278
10611SOL    HW232733   2.737   4.993   6.299
10612SOL     OW32734   4.894   2.381   4.027
10612SOL    HW132735   4.805   2.384   3.980
10612SOL    HW232736   4.912   2.288   4.056
10613SOL     OW32737   6.341   6.000   4.669
10613SOL    HW132738   6.329   5.972   4.574
10613SOL    HW232739   6.259   6.047   4.702
10614SOL     OW32740   5.312   1.144   4.426
10614SOL    HW132741   5.260   1.225   4.454
10614SOL    HW232742   5.353   1.161   4.336
10615SOL     OW32743   3.352   0.910   5.896
10615SOL    HW132744   3.328   0.814   5.887
10615SOL    HW232745   3.269   0.964   5.911
10616SOL     OW32746   3.356   6.103   6.627
10616SOL    HW132747   3.358   6.203   6.617
10616SOL    HW232748   3.280   6.077   6.687
10617SOL     OW32749   2.952   4.617   1.368
10617SOL    HW132750   2.890   4.566   1.309
10617SOL    HW232751   3.046   4.594   1.346
10618SOL     OW32752   1.464   5.129   5.660
10618SOL    HW132753   1.379   5.149   5.612
10618SOL    HW232754   1.468   5.184   5.744
10619SOL     OW32755   0.235   2.644   3.282
10619SOL    HW132756   0.297   2.610   3.211
10619SOL    HW232757   0.140   2.626   3.256
10620SOL     OW32758   0.981   0.052   5.588
10620SOL    HW132759   1.052   0.001   5.637
10620SOL    HW232760   1.003   0.150   5.591
10621SOL     OW32761   0.174   4.327   1.841
10621SOL    HW132762   0.208   4.348   1.933
10621SOL    HW232763   0.242   4.356   1.774
10622SOL     OW32764   4.637   2.406   1.486
10622SOL    HW132765   4.569   2.477   1.465
10622SOL    HW232766   4.591   2.323   1.517
10623SOL     OW32767   6.923   5.785   5.989
10623SOL    HW132768   6.924   5.825   6.080
10623SOL    HW232769   6.872   5.699   5.991
10624SOL     OW32770   0.305   2.547   5.598
10624SOL    HW132771   0.353   2.503   5.523
10624SOL    HW232772   0.287   2.480   5.670
10625SOL     OW32773   0.543   3.942   1.519
10625SOL    HW132774   0.476   3.887   1.568
10625SOL    HW232775   0.610   3.881   1.475
10626SOL     OW32776   3.291   2.909   0.812
10626SOL    HW132777   3.206   2.910   0.759
10626SOL    HW232778   3.291   2.986   0.876
10627SOL     OW32779   6.198   0.915   6.913
10627SOL    HW132780   6.147   0.835   6.884
10627SOL    HW232781   6.199   0.983   6.839
10628SOL     OW32782   4.587   6.843   1.289
10628SOL    HW132783   4.537   6.904   1.227
10628SOL    HW232784   4.553   6.750   1.280
10629SOL     OW32785   3.044   4.970   4.638
10629SOL    HW132786   3.016   4.943   4.730
10629SOL    HW232787   2.974   5.029   4.598
10630SOL     OW32788   5.700   1.325   2.361
10630SOL    HW132789   5.782   1.366   2.322
10630SOL    HW232790   5.629   1.394   2.370
10631SOL     OW32791   3.739   4.579   5.625
10631SOL    HW132792   3.639   4.578   5.621
10631SOL    HW232793   3.772   4.484   5.627
10632SOL     OW32794   5.305   6.472   3.627
10632SOL    HW132795   5.372   6.535   3.668
10632SOL    HW232796   5.218   6.480   3.676
10633SOL     OW32797   2.395   2.679   1.529
10633SOL    HW132798   2.325   2.618   1.491
10633SOL    HW232799   2.486   2.646   1.503
10634SOL     OW32800   1.986   5.486   0.682
10634SOL    HW132801   2.081   5.503   0.708
10634SOL    HW232802   1.926   5.552   0.728
10635SOL     OW32803   2.063   3.229   6.670
10635SOL    HW132804   1.966   3.253   6.683
10635SOL    HW232805   2.070   3.137   6.634
10636SOL     OW32806   0.215   2.387   1.505
10636SOL    HW132807   0.120   2.416   1.511
10636SOL    HW232808   0.266   2.423   1.584
10637SOL     OW32809   1.488   5.131   6.192
10637SOL    HW132810   1.457   5.050   6.240
10637SOL    HW232811   1.410   5.191   6.173
10638SOL     OW32812   5.378   6.349   3.015
10638SOL    HW132813   5.436   6.339   3.096
10638SOL    HW232814   5.289   6.385   3.044
10639SOL     OW32815   1.855   3.795   2.050
10639SOL    HW132816   1.832   3.722   2.113
10639SOL    HW232817   1.787   3.799   1.977
10640SOL     OW32818   4.916   1.142   3.883
10640SOL    HW132819   4.959   1.095   3.961
10640SOL    HW232820   4.952   1.104   3.798
10641SOL     OW32821   2.645   1.669   3.312
10641SOL    HW132822   2.601   1.746   3.359
10641SOL    HW232823   2.604   1.584   3.343
10642SOL     OW32824   6.229   1.501   0.844
10642SOL    HW132825   6.191   1.413   0.817
10642SOL    HW232826   6.314   1.517   0.795
10643SOL     OW32827   2.407   6.417   5.512
10643SOL    HW132828   2.361   6.361   5.581
10643SOL    HW232829   2.484   6.367   5.474
10644SOL     OW32830   5.559   3.022   0.981
10644SOL    HW132831   5.635   3.068   1.026
10644SOL    HW232832   5.473   3.069   1.002
10645SOL     OW32833   1.989   2.909   4.153
10645SOL    HW132834   1.950   2.818   4.167
10645SOL    HW232835   1.946   2.973   4.218
10646SOL     OW32836   6.657   0.205   6.500
10646SOL    HW132837   6.664   0.246   6.409
10646SOL    HW232838   6.748   0.203   6.542
10647SOL     OW32839   3.402   5.482   4.933
10647SOL    HW132840   3.354   5.549   4.989
10647SOL    HW232841   3.342   5.404   4.915
10648SOL     OW32842   5.809   5.471   6.604
10648SOL    HW132843   5.810   5.506   6.511
10648SOL    HW232844   5.737   5.401   6.612
10649SOL     OW32845   0.553   3.536   3.147
10649SOL    HW132846   0.502   3.572   3.070
10649SOL    HW232847   0.602   3.453   3.120
10650SOL     OW32848   0.391   0.618   3.745
10650SOL    HW132849   0.444   0.534   3.748
10650SOL    HW232850   0.398   0.660   3.655
10651SOL     OW32851   6.333   5.912   6.004
10651SOL    HW132852   6.360   5.939   6.096
10651SOL    HW232853   6.251   5.963   5.977
10652SOL     OW32854   2.300   6.822   6.526
10652SOL    HW132855   2.321   6.919   6.539
10652SOL    HW232856   2.209   6.802   6.562
10653SOL     OW32857   4.176   5.812   4.685
10653SOL    HW132858   4.247   5.802   4.615
10653SOL    HW232859   4.088   5.833   4.641
10654SOL     OW32860   4.878   0.106   6.573
10654SOL    HW132861   4.782   0.078   6.569
10654SOL    HW232862   4.900   0.137   6.665
10655SOL     OW32863   1.495   5.291   0.204
10655SOL    HW132864   1.565   5.285   0.276
10655SOL    HW232865   1.537   5.273   0.115
10656SOL     OW32866   6.890   1.528   2.510
10656SOL    HW132867   6.979   1.540   2.555
10656SOL    HW232868   6.843   1.449   2.548
10657SOL     OW32869   5.885   0.899   4.868
10657SOL    HW132870   5.891   0.817   4.926
10657SOL    HW232871   5.805   0.892   4.809
10658SOL     OW32872   6.214   4.019   4.762
10658SOL    HW132873   6.267   4.034   4.678
10658SOL    HW232874   6.133   4.078   4.762
10659SOL     OW32875   1.073   5.359   0.523
10659SOL    HW132876   1.146   5.398   0.468
10659SOL    HW232877   1.048   5.269   0.487
10660SOL     OW32878   5.634   3.664   6.208
10660SOL    HW132879   5.701   3.664   6.281
10660SOL    HW232880   5.580   3.580   6.212
10661SOL     OW32881   1.573   6.455   0.956
10661SOL    HW132882   1.541   6.381   1.015
10661SOL    HW232883   1.602   6.532   1.013
10662SOL     OW32884   4.745   0.500   2.473
10662SOL    HW132885   4.703   0.443   2.402
10662SOL    HW232886   4.685   0.505   2.552
10663SOL     OW32887   0.781   1.099   2.415
10663SOL    HW132888   0.872   1.062   2.432
10663SOL    HW232889   0.718   1.023   2.398
10664SOL     OW32890   6.435   4.082   5.434
10664SOL    HW132891   6.356   4.136   5.462
10664SOL    HW232892   6.471   4.117   5.348
10665SOL     OW32893   1.396   1.779   0.354
10665SOL    HW132894   1.328   1.789   0.427
10665SOL    HW232895   1.359   1.721   0.282
10666SOL     OW32896   3.166   3.930   1.668
10666SOL    HW132897   3.131   3.936   1.574
10666SOL    HW232898   3.228   4.007   1.685
10667SOL     OW32899   4.659   2.257   3.373
10667SOL    HW132900   4.711   2.312   3.309
10667SOL    HW232901   4.627   2.174   3.327
10668SOL     OW32902   2.968   1.606   4.906
10668SOL    HW132903   3.027   1.585   4.984
10668SOL    HW232904   2.872   1.604   4.935
10669SOL     OW32905   5.556   0.804   1.356
10669SOL    HW132906   5.601   0.735   1.299
10669SOL    HW232907   5.602   0.808   1.445
10670SOL     OW32908   5.913   4.763   4.684
10670SOL    HW132909   5.849   4.686   4.693
10670SOL    HW232910   5.948   4.788   4.774
10671SOL     OW32911   2.024   1.674   4.334
10671SOL    HW132912   2.015   1.636   4.426
10671SOL    HW232913   1.969   1.620   4.271
10672SOL     OW32914   6.990   4.331   1.623
10672SOL    HW132915   7.018   4.348   1.718
10672SOL    HW232916   0.051   4.321   1.567
10673SOL     OW32917   0.202   1.316   0.030
10673SOL    HW132918   0.166   1.241   6.996
10673SOL    HW232919   0.160   1.315   0.121
10674SOL     OW32920   4.108   3.772   3.542
10674SOL    HW132921   4.070   3.744   3.630
10674SOL    HW232922   4.201   3.806   3.555
10675SOL     OW32923   1.748   6.966   7.019
10675SOL    HW132924   1.707   0.031   0.029
10675SOL    HW232925   1.812   6.933   0.068
10676SOL     OW32926   6.934   5.891   5.106
10676SOL    HW132927   6.897   5.981   5.083
10676SOL    HW232928   6.952   5.886   5.204
10677SOL     OW32929   1.680   0.295   1.603
10677SOL    HW132930   1.722   0.318   1.690
10677SOL    HW232931   1.678   0.196   1.592
10678SOL     OW32932   5.036   5.608   4.072
10678SOL    HW132933   5.024   5.543   4.147
10678SOL    HW232934   4.980   5.579   3.994
10679SOL     OW32935   3.987   5.682   6.922
10679SOL    HW132936   4.026   5.701   6.832
10679SOL    HW232937   3.897   5.640   6.911
10680SOL     OW32938   4.057   2.203   4.042
10680SOL    HW132939   3.984   2.230   3.979
10680SOL    HW232940   4.021   2.201   4.135
10681SOL     OW32941   0.226   3.627   0.910
10681SOL    HW132942   0.279   3.569   0.972
10681SOL    HW232943   0.222   3.583   0.819
10682SOL     OW32944   0.313   1.656   5.239
10682SOL    HW132945   0.413   1.653   5.242
10682SOL    HW232946   0.281   1.739   5.283
10683SOL     OW32947   4.725   1.588   3.815
10683SOL    HW132948   4.725   1.686   3.838
10683SOL    HW232949   4.768   1.537   3.890
10684SOL     OW32950   4.806   5.171   2.788
10684SOL    HW132951   4.713   5.188   2.821
10684SOL    HW232952   4.817   5.073   2.768
10685SOL     OW32953   0.643   5.919   1.702
10685SOL    HW132954   0.603   5.879   1.620
10685SOL    HW232955   0.679   6.010   1.681
10686SOL     OW32956   0.889   4.041   5.644
10686SOL    HW132957   0.986   4.018   5.649
10686SOL    HW232958   0.877   4.134   5.609
10687SOL     OW32959   5.710   5.774   4.234
10687SOL    HW132960   5.720   5.852   4.172
10687SOL    HW232961   5.757   5.695   4.195
10688SOL     OW32962   6.474   3.697   2.835
10688SOL    HW132963   6.500   3.669   2.742
10688SOL    HW232964   6.451   3.794   2.835
10689SOL     OW32965   6.914   0.127   3.456
10689SOL    HW132966   6.880   0.053   3.398
10689SOL    HW232967   7.013   0.134   3.446
10690SOL     OW32968   0.328   5.530   4.045
10690SOL    HW132969   0.364   5.475   4.120
10690SOL    HW232970   0.405   5.574   3.998
10691SOL     OW32971   0.954   2.000   2.858
10691SOL    HW132972   1.020   2.067   2.826
10691SOL    HW232973   0.861   2.038   2.849
10692SOL     OW32974   2.757   6.727   4.003
10692SOL    HW132975   2.689   6.671   3.956
10692SOL    HW232976   2.804   6.785   3.937
10693SOL     OW32977   2.169   6.013   0.934
10693SOL    HW132978   2.244   6.025   0.869
10693SOL    HW232979   2.179   6.078   1.009
10694SOL     OW32980   5.615   6.556   0.284
10694SOL    HW132981   5.608   6.512   0.374
10694SOL    HW232982   5.534   6.533   0.230
10695SOL     OW32983   0.461   2.435   3.072
10695SOL    HW132984   0.483   2.467   2.980
10695SOL    HW232985   0.519   2.357   3.094
10696SOL     OW32986   6.988   4.534   3.418
10696SOL    HW132987   6.914   4.471   3.444
10696SOL    HW232988   6.976   4.561   3.323
10697SOL     OW32989   0.091   6.316   5.258
10697SOL    HW132990   0.167   6.380   5.266
10697SOL    HW232991   0.045   6.330   5.170
10698SOL     OW32992   5.204   4.354   6.454
10698SOL    HW132993   5.109   4.358   6.422
10698SOL    HW232994   5.205   4.325   6.550
10699SOL     OW32995   3.805   4.248   1.753
10699SOL    HW132996   3.893   4.207   1.730
10699SOL    HW232997   3.798   4.339   1.712
10700SOL     OW32998   5.869   6.735   0.771
10700SOL    HW132999   5.828   6.826   0.765
10700SOL    HW233000   5.868   6.691   0.682
10701SOL     OW33001   2.654   6.208   6.692
10701SOL    HW133002   2.612   6.168   6.773
10701SOL    HW233003   2.675   6.304   6.709
10702SOL     OW33004   5.131   2.710   1.486
10702SOL    HW133005   5.223   2.746   1.501
10702SOL    HW233006   5.068   2.752   1.550
10703SOL     OW33007   2.783   3.141   5.271
10703SOL    HW133008   2.709   3.101   5.218
10703SOL    HW233009   2.869   3.096   5.247
10704SOL     OW33010   5.772   5.766   1.857
10704SOL    HW133011   5.788   5.852   1.906
10704SOL    HW233012   5.788   5.689   1.918
10705SOL     OW33013   5.854   4.716   1.875
10705SOL    HW133014   5.766   4.681   1.904
10705SOL    HW233015   5.908   4.743   1.955
10706SOL     OW33016   5.009   0.423   2.621
10706SOL    HW133017   4.919   0.434   2.579
10706SOL    HW233018   5.080   0.450   2.556
10707SOL     OW33019   0.118   0.007   4.441
10707SOL    HW133020   0.200   0.061   4.425
10707SOL    HW233021   0.084   6.991   4.355
10708SOL     OW33022   4.236   0.972   1.809
10708SOL    HW133023   4.153   0.919   1.788
10708SOL    HW233024   4.279   0.935   1.891
10709SOL     OW33025   5.673   5.143   5.588
10709SOL    HW133026   5.599   5.131   5.522
10709SOL    HW233027   5.636   5.154   5.680
10710SOL     OW33028   7.020   0.408   4.258
10710SOL    HW133029   0.049   0.427   4.342
10710SOL    HW233030   6.956   0.332   4.274
10711SOL     OW33031   1.631   0.063   4.686
10711SOL    HW133032   1.619   6.992   4.648
10711SOL    HW233033   1.555   0.121   4.658
10712SOL     OW33034   2.906   0.956   1.855
10712SOL    HW133035   2.844   1.031   1.834
10712SOL    HW233036   2.854   0.877   1.885
10713SOL     OW33037   0.488   3.530   2.382
10713SOL    HW133038   0.585   3.508   2.367
10713SOL    HW233039   0.434   3.497   2.305
10714SOL     OW33040   5.792   3.506   5.000
10714SOL    HW133041   5.749   3.491   5.089
10714SOL    HW233042   5.758   3.439   4.934
10715SOL     OW33043   5.109   0.956   2.779
10715SOL    HW133044   5.209   0.962   2.786
10715SOL    HW233045   5.084   0.929   2.686
10716SOL     OW33046   6.075   2.101   3.648
10716SOL    HW133047   6.079   2.066   3.555
10716SOL    HW233048   6.076   2.201   3.647
10717SOL     OW33049   1.079   2.212   1.391
10717SOL    HW133050   1.090   2.126   1.341
10717SOL    HW233051   0.992   2.254   1.366
10718SOL     OW33052   1.287   3.229   6.608
10718SOL    HW133053   1.386   3.242   6.614
10718SOL    HW233054   1.249   3.213   6.699
10719SOL     OW33055   6.715   5.924   2.632
10719SOL    HW133056   6.783   5.997   2.626
10719SOL    HW233057   6.653   5.942   2.708
10720SOL     OW33058   0.410   4.352   4.688
10720SOL    HW133059   0.388   4.355   4.785
10720SOL    HW233060   0.377   4.436   4.644
10721SOL     OW33061   5.640   3.839   4.961
10721SOL    HW133062   5.732   3.844   4.921
10721SOL    HW233063   5.641   3.776   5.039
10722SOL     OW33064   0.848   4.925   0.137
10722SOL    HW133065   0.774   4.992   0.148
10722SOL    HW233066   0.879   4.893   0.226
10723SOL     OW33067   0.249   3.748   6.255
10723SOL    HW133068   0.162   3.787   6.227
10723SOL    HW233069   0.294   3.706   6.176
10724SOL     OW33070   5.872   1.140   6.918
10724SOL    HW133071   5.774   1.162   6.909
10724SOL    HW233072   5.901   1.155   7.013
10725SOL     OW33073   1.016   5.678   4.428
10725SOL    HW133074   1.055   5.595   4.389
10725SOL    HW233075   0.918   5.664   4.444
10726SOL     OW33076   5.203   6.942   5.373
10726SOL    HW133077   5.297   6.921   5.399
10726SOL    HW233078   5.183   6.903   5.283
10727SOL     OW33079   0.329   4.844   5.163
10727SOL    HW133080   0.412   4.900   5.158
10727SOL    HW233081   0.338   4.765   5.101
10728SOL     OW33082   0.232   6.118   0.040
10728SOL    HW133083   0.297   6.131   6.986
10728SOL    HW233084   0.192   6.026   0.034
10729SOL     OW33085   5.518   1.076   1.286
10729SOL    HW133086   5.441   1.088   1.223
10729SOL    HW233087   5.514   0.984   1.326
10730SOL     OW33088   2.240   0.555   1.504
10730SOL    HW133089   2.189   0.582   1.586
10730SOL    HW233090   2.263   0.458   1.510
10731SOL     OW33091   3.210   5.774   0.968
10731SOL    HW133092   3.259   5.728   1.042
10731SOL    HW233093   3.184   5.866   0.997
10732SOL     OW33094   6.063   5.508   3.846
10732SOL    HW133095   6.117   5.429   3.876
10732SOL    HW233096   5.988   5.477   3.788
10733SOL     OW33097   6.558   1.657   1.033
10733SOL    HW133098   6.496   1.732   1.057
10733SOL    HW233099   6.613   1.631   1.112
10734SOL     OW33100   0.970   0.826   0.125
10734SOL    HW133101   1.052   0.882   0.114
10734SOL    HW233102   0.995   0.739   0.167
10735SOL     OW33103   1.250   3.125   3.454
10735SOL    HW133104   1.350   3.135   3.455
10735SOL    HW233105   1.221   3.090   3.365
10736SOL     OW33106   1.462   0.606   2.692
10736SOL    HW133107   1.461   0.525   2.750
10736SOL    HW233108   1.429   0.685   2.745
10737SOL     OW33109   1.949   1.901   0.916
10737SOL    HW133110   1.863   1.882   0.964
10737SOL    HW233111   2.024   1.900   0.983
10738SOL     OW33112   2.498   0.393   3.398
10738SOL    HW133113   2.434   0.345   3.338
10738SOL    HW233114   2.574   0.429   3.344
10739SOL     OW33115   0.837   1.401   0.656
10739SOL    HW133116   0.935   1.421   0.664
10739SOL    HW233117   0.805   1.428   0.566
10740SOL     OW33118   0.296   4.341   5.296
10740SOL    HW133119   0.295   4.425   5.351
10740SOL    HW233120   0.229   4.350   5.222
10741SOL     OW33121   6.206   0.293   1.310
10741SOL    HW133122   6.227   0.322   1.217
10741SOL    HW233123   6.168   0.200   1.309
10742SOL     OW33124   5.384   1.044   1.038
10742SOL    HW133125   5.315   0.974   1.017
10742SOL    HW233126   5.347   1.134   1.016
10743SOL     OW33127   2.718   1.807   4.991
10743SOL    HW133128   2.704   1.742   4.917
10743SOL    HW233129   2.727   1.758   5.078
10744SOL     OW33130   3.966   0.959   0.579
10744SOL    HW133131   3.983   0.931   0.673
10744SOL    HW233132   4.043   1.014   0.546
10745SOL     OW33133   0.269   5.448   6.649
10745SOL    HW133134   0.299   5.385   6.721
10745SOL    HW233135   0.251   5.397   6.565
10746SOL     OW33136   2.114   4.186   1.405
10746SOL    HW133137   2.045   4.146   1.344
10746SOL    HW233138   2.096   4.283   1.417
10747SOL     OW33139   4.493   0.963   3.482
10747SOL    HW133140   4.496   0.863   3.482
10747SOL    HW233141   4.470   0.995   3.390
10748SOL     OW33142   4.656   1.179   1.270
10748SOL    HW133143   4.616   1.219   1.353
10748SOL    HW233144   4.611   1.092   1.249
10749SOL     OW33145   0.397   6.093   3.230
10749SOL    HW133146   0.387   6.018   3.164
10749SOL    HW233147   0.365   6.063   3.319
10750SOL     OW33148   4.324   6.124   5.114
10750SOL    HW133149   4.256   6.057   5.146
10750SOL    HW233150   4.391   6.077   5.057
10751SOL     OW33151   1.694   4.239   4.258
10751SOL    HW133152   1.788   4.273   4.266
10751SOL    HW233153   1.677   4.212   4.163
10752SOL     OW33154   5.802   4.110   6.206
10752SOL    HW133155   5.827   4.020   6.171
10752SOL    HW233156   5.768   4.102   6.299
10753SOL     OW33157   4.575   6.447   4.356
10753SOL    HW133158   4.521   6.434   4.273
10753SOL    HW233159   4.513   6.451   4.435
10754SOL     OW33160   0.793   1.153   3.286
10754SOL    HW133161   0.886   1.177   3.314
10754SOL    HW233162   0.735   1.144   3.367
10755SOL     OW33163   6.723   0.760   6.743
10755SOL    HW133164   6.774   0.678   6.716
10755SOL    HW233165   6.769   0.804   6.820
10756SOL     OW33166   6.902   4.716   0.377
10756SOL    HW133167   6.836   4.750   0.444
10756SOL    HW233168   6.856   4.698   0.290
10757SOL     OW33169   1.192   3.119   0.512
10757SOL    HW133170   1.217   3.038   0.564
10757SOL    HW233171   1.215   3.202   0.564
10758SOL     OW33172   0.471   6.885   4.125
10758SOL    HW133173   0.431   6.959   4.180
10758SOL    HW233174   0.561   6.914   4.091
10759SOL     OW33175   1.831   3.013   1.111
10759SOL    HW133176   1.815   3.092   1.051
10759SOL    HW233177   1.928   2.990   1.110
10760SOL     OW33178   6.767   1.601   1.846
10760SOL    HW133179   6.775   1.698   1.871
10760SOL    HW233180   6.859   1.562   1.837
10761SOL     OW33181   1.241   0.895   6.241
10761SOL    HW133182   1.259   0.982   6.287
10761SOL    HW233183   1.197   0.832   6.305
10762SOL     OW33184   4.335   1.797   4.775
10762SOL    HW133185   4.311   1.783   4.871
10762SOL    HW233186   4.269   1.858   4.732
10763SOL     OW33187   5.187   6.689   2.314
10763SOL    HW133188   5.158   6.763   2.253
10763SOL    HW233189   5.123   6.682   2.391
10764SOL     OW33190   5.423   2.621   5.885
10764SOL    HW133191   5.489   2.682   5.841
10764SOL    HW233192   5.465   2.531   5.899
10765SOL     OW33193   5.092   2.389   0.103
10765SOL    HW133194   5.035   2.344   0.172
10765SOL    HW233195   5.083   2.341   0.016
10766SOL     OW33196   5.097   3.489   0.956
10766SOL    HW133197   5.175   3.536   0.914
10766SOL    HW233198   5.131   3.419   1.019
10767SOL     OW33199   1.390   0.763   0.291
10767SOL    HW133200   1.460   0.820   0.334
10767SOL    HW233201   1.299   0.794   0.318
10768SOL     OW33202   4.869   4.497   1.700
10768SOL    HW133203   4.787   4.439   1.696
10768SOL    HW233204   4.847   4.589   1.667
10769SOL     OW33205   2.618   4.674   4.855
10769SOL    HW133206   2.634   4.753   4.797
10769SOL    HW233207   2.696   4.661   4.916
10770SOL     OW33208   5.218   0.781   4.994
10770SOL    HW133209   5.139   0.830   5.030
10770SOL    HW233210   5.188   0.697   4.950
10771SOL     OW33211   5.953   0.921   3.230
10771SOL    HW133212   5.929   0.913   3.327
10771SOL    HW233213   5.941   1.016   3.201
10772SOL     OW33214   6.653   6.671   4.467
10772SOL    HW133215   6.603   6.627   4.542
10772SOL    HW233216   6.726   6.610   4.435
10773SOL     OW33217   6.501   5.219   0.192
10773SOL    HW133218   6.508   5.318   0.185
10773SOL    HW233219   6.405   5.192   0.189
10774SOL     OW33220   2.048   2.023   6.820
10774SOL    HW133221   2.100   2.105   6.796
10774SOL    HW233222   1.950   2.043   6.815
10775SOL     OW33223   0.028   4.999   1.253
10775SOL    HW133224   0.050   5.018   1.158
10775SOL    HW233225   6.958   5.032   1.275
10776SOL     OW33226   0.138   0.735   6.666
10776SOL    HW133227   0.097   0.652   6.704
10776SOL    HW233228   0.076   0.774   6.598
10777SOL     OW33229   3.418   5.635   2.996
10777SOL    HW133230   3.400   5.539   2.978
10777SOL    HW233231   3.377   5.661   3.083
10778SOL     OW33232   5.880   0.404   4.283
10778SOL    HW133233   5.870   0.473   4.211
10778SOL    HW233234   5.928   0.443   4.361
10779SOL     OW33235   6.230   4.149   3.764
10779SOL    HW133236   6.247   4.176   3.859
10779SOL    HW233237   6.167   4.214   3.722
10780SOL     OW33238   2.021   0.745   3.895
10780SOL    HW133239   2.027   0.823   3.958
10780SOL    HW233240   1.936   0.750   3.844
10781SOL     OW33241   4.351   1.168   3.341
10781SOL    HW133242   4.342   1.102   3.267
10781SOL    HW233243   4.299   1.137   3.420
10782SOL     OW33244   5.567   1.991   1.984
10782SOL    HW133245   5.484   2.016   2.034
10782SOL    HW233246   5.581   2.055   1.909
10783SOL     OW33247   0.772   3.367   3.760
10783SOL    HW133248   0.759   3.290   3.698
10783SOL    HW233249   0.728   3.448   3.722
10784SOL     OW33250   3.761   6.704   4.227
10784SOL    HW133251   3.842   6.645   4.231
10784SOL    HW233252   3.749   6.750   4.315
10785SOL     OW33253   0.363   4.494   1.366
10785SOL    HW133254   0.296   4.536   1.428
10785SOL    HW233255   0.327   4.407   1.332
10786SOL     OW33256   5.789   4.671   3.066
10786SOL    HW133257   5.805   4.770   3.067
10786SOL    HW233258   5.744   4.645   3.151
10787SOL     OW33259   1.657   1.799   4.697
10787SOL    HW133260   1.566   1.826   4.666
10787SOL    HW233261   1.648   1.729   4.767
10788SOL     OW33262   1.931   4.525   6.080
10788SOL    HW133263   1.888   4.606   6.119
10788SOL    HW233264   1.991   4.552   6.004
10789SOL     OW33265   0.120   2.714   6.469
10789SOL    HW133266   0.094   2.775   6.544
10789SOL    HW233267   0.160   2.768   6.395
10790SOL     OW33268   1.202   0.901   1.566
10790SOL    HW133269   1.209   0.913   1.467
10790SOL    HW233270   1.228   0.807   1.590
10791SOL     OW33271   0.397   6.900   1.096
10791SOL    HW133272   0.329   6.933   1.162
10791SOL    HW233273   0.416   6.803   1.115
10792SOL     OW33274   3.191   3.796   3.803
10792SOL    HW133275   3.227   3.888   3.812
10792SOL    HW233276   3.120   3.780   3.872
10793SOL     OW33277   5.467   3.227   4.451
10793SOL    HW133278   5.427   3.292   4.387
10793SOL    HW233279   5.470   3.136   4.408
10794SOL     OW33280   2.968   3.660   3.578
10794SOL    HW133281   2.932   3.632   3.489
10794SOL    HW233282   2.957   3.759   3.588
10795SOL     OW33283   6.664   4.604   2.292
10795SOL    HW133284   6.628   4.673   2.231
10795SOL    HW233285   6.668   4.641   2.385
10796SOL     OW33286   5.691   0.035   6.573
10796SOL    HW133287   5.702   6.966   6.530
10796SOL    HW233288   5.761   0.097   6.538
10797SOL     OW33289   4.176   2.979   1.666
10797SOL    HW133290   4.163   2.880   1.658
10797SOL    HW233291   4.164   3.022   1.577
10798SOL     OW33292   2.961   6.555   0.449
10798SOL    HW133293   3.059   6.537   0.445
10798SOL    HW233294   2.926   6.533   0.540
10799SOL     OW33295   3.930   1.033   1.486
10799SOL    HW133296   3.934   1.131   1.507
10799SOL    HW233297   3.931   0.980   1.571
10800SOL     OW33298   0.767   6.600   6.709
10800SOL    HW133299   0.729   6.509   6.692
10800SOL    HW233300   0.866   6.592   6.722
10801SOL     OW33301   0.643   5.989   6.034
10801SOL    HW133302   0.638   6.040   6.120
10801SOL    HW233303   0.738   5.964   6.016
10802SOL     OW33304   0.845   0.957   3.093
10802SOL    HW133305   0.846   1.020   3.171
10802SOL    HW233306   0.815   0.867   3.124
10803SOL     OW33307   2.803   3.965   6.076
10803SOL    HW133308   2.798   3.908   5.995
10803SOL    HW233309   2.751   3.922   6.150
10804SOL     OW33310   5.826   3.310   2.195
10804SOL    HW133311   5.817   3.250   2.275
10804SOL    HW233312   5.749   3.294   2.133
10805SOL     OW33313   4.073   6.511   6.977
10805SOL    HW133314   4.024   6.592   7.009
10805SOL    HW233315   4.056   6.499   6.879
10806SOL     OW33316   4.104   3.419   5.865
10806SOL    HW133317   4.176   3.351   5.880
10806SOL    HW233318   4.144   3.500   5.822
10807SOL     OW33319   1.272   0.193   2.381
10807SOL    HW133320   1.199   0.230   2.324
10807SOL    HW233321   1.335   0.139   2.325
10808SOL     OW33322   0.332   3.032   5.723
10808SOL    HW133323   0.346   2.999   5.630
10808SOL    HW233324   0.401   2.992   5.784
10809SOL     OW33325   2.764   4.748   3.394
10809SOL    HW133326   2.842   4.773   3.451
10809SOL    HW233327   2.768   4.798   3.307
10810SOL     OW33328   1.449   0.255   4.426
10810SOL    HW133329   1.418   0.245   4.520
10810SOL    HW233330   1.509   0.178   4.403
10811SOL     OW33331   4.029   4.076   6.518
10811SOL    HW133332   3.930   4.060   6.516
10811SOL    HW233333   4.047   4.168   6.553
10812SOL     OW33334   0.298   4.024   0.406
10812SOL    HW133335   0.331   4.045   0.498
10812SOL    HW233336   0.320   3.929   0.384
10813SOL     OW33337   2.310   4.779   6.430
10813SOL    HW133338   2.337   4.683   6.436
10813SOL    HW233339   2.238   4.789   6.361
10814SOL     OW33340   1.430   6.753   6.971
10814SOL    HW133341   1.515   6.767   6.920
10814SOL    HW233342   1.451   6.721   0.042
10815SOL     OW33343   4.616   4.447   3.474
10815SOL    HW133344   4.525   4.486   3.470
10815SOL    HW233345   4.632   4.390   3.393
10816SOL     OW33346   3.397   2.878   2.218
10816SOL    HW133347   3.379   2.855   2.122
10816SOL    HW233348   3.465   2.814   2.254
10817SOL     OW33349   4.444   0.674   3.316
10817SOL    HW133350   4.405   0.654   3.405
10817SOL    HW233351   4.377   0.654   3.245
10818SOL     OW33352   4.454   4.402   5.402
10818SOL    HW133353   4.493   4.370   5.488
10818SOL    HW233354   4.354   4.396   5.407
10819SOL     OW33355   6.091   4.972   6.186
10819SOL    HW133356   6.118   4.950   6.280
10819SOL    HW233357   6.138   4.911   6.123
10820SOL     OW33358   0.531   5.651   3.616
10820SOL    HW133359   0.459   5.624   3.681
10820SOL    HW233360   0.509   5.615   3.526
10821SOL     OW33361   5.247   6.955   3.079
10821SOL    HW133362   5.339   6.930   3.049
10821SOL    HW233363   5.238   0.034   3.078
10822SOL     OW33364   7.013   3.334   3.557
10822SOL    HW133365   6.915   3.341   3.543
10822SOL    HW233366   0.015   3.366   3.650
10823SOL     OW33367   1.722   0.009   1.672
10823SOL    HW133368   1.794   6.989   1.728
10823SOL    HW233369   1.645   6.967   1.664
10824SOL     OW33370   6.432   1.550   2.504
10824SOL    HW133371   6.497   1.625   2.493
10824SOL    HW233372   6.482   1.465   2.521
10825SOL     OW33373   2.224   1.160   6.272
10825SOL    HW133374   2.270   1.240   6.309
10825SOL    HW233375   2.198   1.177   6.177
10826SOL     OW33376   1.477   3.007   3.873
10826SOL    HW133377   1.490   2.977   3.779
10826SOL    HW233378   1.465   2.928   3.932
10827SOL     OW33379   0.040   2.938   4.084
10827SOL    HW133380   0.139   2.950   4.068
10827SOL    HW233381   7.011   2.978   4.007
10828SOL     OW33382   1.352   4.431   0.507
10828SOL    HW133383   1.443   4.461   0.535
10828SOL    HW233384   1.358   4.340   0.466
10829SOL     OW33385   4.038   2.253   0.319
10829SOL    HW133386   3.987   2.338   0.304
10829SOL    HW233387   4.094   2.263   0.401
10830SOL     OW33388   5.051   1.839   3.182
10830SOL    HW133389   5.084   1.905   3.114
10830SOL    HW233390   5.098   1.752   3.170
10831SOL     OW33391   2.923   6.073   3.221
10831SOL    HW133392   2.908   6.027   3.134
10831SOL    HW233393   2.840   6.068   3.277
10832SOL     OW33394   0.855   3.298   6.157
10832SOL    HW133395   0.946   3.328   6.186
10832SOL    HW233396   0.827   3.354   6.078
10833SOL     OW33397   0.630   0.469   2.341
10833SOL    HW133398   0.673   0.447   2.253
10833SOL    HW233399   0.668   0.555   2.376
10834SOL     OW33400   0.835   2.255   0.548
10834SOL    HW133401   0.863   2.167   0.587
10834SOL    HW233402   0.915   2.315   0.544
10835SOL     OW33403   5.372   2.348   0.484
10835SOL    HW133404   5.305   2.320   0.553
10835SOL    HW233405   5.444   2.402   0.527
10836SOL     OW33406   6.689   1.498   4.689
10836SOL    HW133407   6.618   1.428   4.684
10836SOL    HW233408   6.735   1.504   4.600
10837SOL     OW33409   6.464   5.442   1.162
10837SOL    HW133410   6.453   5.370   1.093
10837SOL    HW233411   6.440   5.406   1.252
10838SOL     OW33412   6.485   5.669   4.044
10838SOL    HW133413   6.486   5.654   4.143
10838SOL    HW233414   6.476   5.767   4.026
10839SOL     OW33415   4.387   3.141   1.756
10839SOL    HW133416   4.319   3.076   1.724
10839SOL    HW233417   4.469   3.092   1.787
10840SOL     OW33418   2.584   5.889   3.079
10840SOL    HW133419   2.668   5.942   3.072
10840SOL    HW233420   2.568   5.841   2.992
10841SOL     OW33421   6.278   5.158   5.701
10841SOL    HW133422   6.229   5.243   5.680
10841SOL    HW233423   6.214   5.093   5.743
10842SOL     OW33424   4.754   2.691   1.767
10842SOL    HW133425   4.816   2.749   1.820
10842SOL    HW233426   4.807   2.622   1.718
10843SOL     OW33427   0.951   1.808   1.727
10843SOL    HW133428   1.026   1.782   1.789
10843SOL    HW233429   0.866   1.815   1.779
10844SOL     OW33430   0.744   6.716   3.817
10844SOL    HW133431   0.806   6.794   3.827
10844SOL    HW233432   0.689   6.707   3.901
10845SOL     OW33433   3.110   0.088   5.383
10845SOL    HW133434   3.121   0.180   5.346
10845SOL    HW233435   3.147   0.021   5.319
10846SOL     OW33436   5.327   1.337   0.366
10846SOL    HW133437   5.395   1.267   0.386
10846SOL    HW233438   5.366   1.428   0.383
10847SOL     OW33439   3.840   2.700   6.511
10847SOL    HW133440   3.836   2.645   6.595
10847SOL    HW233441   3.885   2.787   6.531
10848SOL     OW33442   2.817   3.694   6.767
10848SOL    HW133443   2.851   3.788   6.768
10848SOL    HW233444   2.768   3.676   6.852
10849SOL     OW33445   1.712   5.123   3.814
10849SOL    HW133446   1.791   5.136   3.875
10849SOL    HW233447   1.694   5.207   3.764
10850SOL     OW33448   2.459   5.796   6.824
10850SOL    HW133449   2.429   5.813   6.730
10850SOL    HW233450   2.525   5.721   6.825
10851SOL     OW33451   2.044   3.532   0.277
10851SOL    HW133452   1.953   3.513   0.313
10851SOL    HW233453   2.049   3.627   0.247
10852SOL     OW33454   1.074   0.532   6.806
10852SOL    HW133455   1.085   0.515   6.904
10852SOL    HW233456   1.050   0.629   6.792
10853SOL     OW33457   1.791   2.197   5.160
10853SOL    HW133458   1.694   2.213   5.139
10853SOL    HW233459   1.847   2.221   5.081
10854SOL     OW33460   4.386   4.817   5.383
10854SOL    HW133461   4.351   4.801   5.290
10854SOL    HW233462   4.485   4.823   5.381
10855SOL     OW33463   4.000   0.151   0.980
10855SOL    HW133464   4.064   0.106   0.917
10855SOL    HW233465   3.941   0.083   1.022
10856SOL     OW33466   5.108   1.470   0.305
10856SOL    HW133467   5.192   1.424   0.333
10856SOL    HW233468   5.029   1.424   0.346
10857SOL     OW33469   6.554   2.348   3.100
10857SOL    HW133470   6.579   2.253   3.117
10857SOL    HW233471   6.511   2.355   3.009
10858SOL     OW33472   0.911   1.646   6.415
10858SOL    HW133473   0.983   1.711   6.442
10858SOL    HW233474   0.893   1.584   6.491
10859SOL     OW33475   1.125   4.594   4.630
10859SOL    HW133476   1.172   4.543   4.558
10859SOL    HW233477   1.192   4.642   4.687
10860SOL     OW33478   0.055   1.549   5.492
10860SOL    HW133479   0.053   1.526   5.394
10860SOL    HW233480   0.135   1.506   5.534
10861SOL     OW33481   3.681   3.355   3.177
10861SOL    HW133482   3.615   3.369   3.103
10861SOL    HW233483   3.726   3.267   3.166
10862SOL     OW33484   2.174   1.860   6.629
10862SOL    HW133485   2.253   1.907   6.591
10862SOL    HW233486   2.108   1.926   6.665
10863SOL     OW33487   3.759   0.882   3.814
10863SOL    HW133488   3.752   0.892   3.715
10863SOL    HW233489   3.780   0.970   3.855
10864SOL     OW33490   2.602   5.796   1.302
10864SOL    HW133491   2.608   5.723   1.370
10864SOL    HW233492   2.573   5.758   1.214
10865SOL     OW33493   6.957   1.618   2.262
10865SOL    HW133494   6.930   1.576   2.349
10865SOL    HW233495   6.911   1.570   2.187
10866SOL     OW33496   5.165   4.422   0.973
10866SOL    HW133497   5.079   4.472   0.965
10866SOL    HW233498   5.236   4.468   0.920
10867SOL     OW33499   3.410   4.051   0.039
10867SOL    HW133500   3.430   4.145   0.013
10867SOL    HW233501   3.495   3.997   0.038
10868SOL     OW33502   4.321   1.995   4.472
10868SOL    HW133503   4.270   2.039   4.546
10868SOL    HW233504   4.258   1.945   4.413
10869NA      NA33505   6.916   2.041   5.140
10870NA      NA33506   4.504   4.421   5.178
10871NA      NA33507   1.970   3.246   2.227
10872NA      NA33508   5.166   3.877   4.892
10873NA      NA33509   4.272   2.472   5.342
10874NA      NA33510   3.219   4.737   1.664
10875NA      NA33511   6.842   4.552   0.561
10876NA      NA33512   3.208   3.671   3.594
10877NA      NA33513   5.336   5.796   0.258
10878NA      NA33514   2.974   0.074   5.585
10879NA      NA33515   5.684   5.544   1.476
10880NA      NA33516   2.016   0.413   4.245
10881NA      NA33517   3.757   5.092   2.610
10882NA      NA33518   3.937   3.746   2.199
   7.02094   7.02094   7.02094
