Generated by trjconv : CNT in water t= 515.00000
33518
    1C        C    1   2.843   2.768   4.746
    1C        C    2   2.897   2.717   4.866
    1C        C    3   2.841   2.772   4.982
    1C        C    4   2.853   2.774   4.261
    1C        C    5   2.905   2.727   4.384
    1C        C    6   2.848   2.772   4.505
    1C        C    7   3.016   2.639   4.627
    1C        C    8   2.898   2.718   4.626
    1C        C    9   3.082   2.605   4.747
    1C        C   10   3.014   2.638   4.866
    1C        C   11   3.183   2.494   4.978
    1C        C   12   3.058   2.557   4.971
    1C        C   13   2.856   2.776   3.774
    1C        C   14   2.907   2.727   3.896
    1C        C   15   2.854   2.774   4.018
    1C        C   16   3.018   2.639   4.141
    1C        C   17   2.908   2.727   4.140
    1C        C   18   3.081   2.603   4.263
    1C        C   19   3.017   2.640   4.383
    1C        C   20   3.208   2.549   4.504
    1C        C   21   3.078   2.605   4.505
    1C        C   22   3.277   2.525   4.625
    1C        C   23   3.212   2.547   4.748
    1C        C   24   3.416   2.480   4.865
    1C        C   25   3.274   2.499   4.867
    1C        C   26   3.491   2.484   4.983
    1C        C   27   2.853   2.772   3.285
    1C        C   28   2.912   2.729   3.406
    1C        C   29   2.859   2.777   3.528
    1C        C   30   3.019   2.641   3.650
    1C        C   31   2.910   2.730   3.652
    1C        C   32   3.078   2.601   3.772
    1C        C   33   3.020   2.642   3.894
    1C        C   34   3.210   2.552   4.015
    1C        C   35   3.079   2.607   4.018
    1C        C   36   3.278   2.528   4.136
    1C        C   37   3.211   2.548   4.259
    1C        C   38   3.415   2.504   4.382
    1C        C   39   3.277   2.530   4.382
    1C        C   40   3.486   2.492   4.504
    1C        C   41   3.415   2.494   4.626
    1C        C   42   3.631   2.478   4.744
    1C        C   43   3.489   2.471   4.744
    1C        C   44   3.706   2.484   4.864
    1C        C   45   3.630   2.479   4.982
    1C        C   46   2.847   2.762   2.796
    1C        C   47   2.902   2.719   2.918
    1C        C   48   2.854   2.770   3.041
    1C        C   49   3.016   2.635   3.162
    1C        C   50   2.905   2.722   3.164
    1C        C   51   3.082   2.601   3.283
    1C        C   52   3.024   2.644   3.404
    1C        C   53   3.208   2.545   3.528
    1C        C   54   3.079   2.602   3.528
    1C        C   55   3.277   2.523   3.649
    1C        C   56   3.208   2.545   3.771
    1C        C   57   3.415   2.499   3.894
    1C        C   58   3.277   2.527   3.893
    1C        C   59   3.487   2.496   4.016
    1C        C   60   3.417   2.502   4.138
    1C        C   61   3.628   2.499   4.258
    1C        C   62   3.487   2.495   4.261
    1C        C   63   3.698   2.505   4.381
    1C        C   64   3.628   2.493   4.503
    1C        C   65   3.835   2.544   4.625
    1C        C   66   3.702   2.496   4.623
    1C        C   67   3.906   2.561   4.746
    1C        C   68   3.842   2.521   4.865
    1C        C   69   4.051   2.587   4.980
    1C        C   70   3.925   2.526   4.978
    1C        C   71   2.825   2.737   2.310
    1C        C   72   2.885   2.700   2.432
    1C        C   73   2.830   2.746   2.553
    1C        C   74   3.006   2.624   2.675
    1C        C   75   2.892   2.707   2.674
    1C        C   76   3.072   2.591   2.795
    1C        C   77   3.016   2.635   2.918
    1C        C   78   3.207   2.542   3.038
    1C        C   79   3.079   2.603   3.040
    1C        C   80   3.277   2.523   3.159
    1C        C   81   3.213   2.548   3.283
    1C        C   82   3.415   2.493   3.402
    1C        C   83   3.277   2.523   3.406
    1C        C   84   3.484   2.485   3.524
    1C        C   85   3.415   2.495   3.647
    1C        C   86   3.625   2.492   3.768
    1C        C   87   3.483   2.489   3.771
    1C        C   88   3.696   2.503   3.889
    1C        C   89   3.628   2.498   4.013
    1C        C   90   3.833   2.548   4.137
    1C        C   91   3.698   2.507   4.136
    1C        C   92   3.899   2.572   4.260
    1C        C   93   3.834   2.541   4.382
    1C        C   94   4.026   2.635   4.499
    1C        C   95   3.901   2.568   4.503
    1C        C   96   4.090   2.672   4.619
    1C        C   97   4.030   2.630   4.740
    1C        C   98   4.186   2.769   4.864
    1C        C   99   4.095   2.658   4.864
    1C        C  100   4.215   2.844   4.978
    1C        C  101   2.815   2.719   2.074
    1C        C  102   2.990   2.589   2.192
    1C        C  103   2.875   2.675   2.193
    1C        C  104   3.063   2.574   2.313
    1C        C  105   3.003   2.622   2.431
    1C        C  106   3.199   2.535   2.552
    1C        C  107   3.068   2.589   2.552
    1C        C  108   3.268   2.514   2.673
    1C        C  109   3.200   2.532   2.795
    1C        C  110   3.411   2.490   2.915
    1C        C  111   3.272   2.514   2.916
    1C        C  112   3.483   2.485   3.036
    1C        C  113   3.415   2.495   3.160
    1C        C  114   3.629   2.490   3.279
    1C        C  115   3.487   2.486   3.281
    1C        C  116   3.695   2.499   3.403
    1C        C  117   3.625   2.491   3.526
    1C        C  118   3.833   2.543   3.646
    1C        C  119   3.697   2.502   3.647
    1C        C  120   3.896   2.572   3.769
    1C        C  121   3.829   2.550   3.892
    1C        C  122   4.020   2.642   4.012
    1C        C  123   3.896   2.574   4.014
    1C        C  124   4.082   2.677   4.134
    1C        C  125   4.024   2.639   4.257
    1C        C  126   4.189   2.773   4.376
    1C        C  127   4.084   2.678   4.378
    1C        C  128   4.238   2.824   4.498
    1C        C  129   4.193   2.769   4.620
    1C        C  130   4.325   2.934   4.738
    1C        C  131   4.244   2.817   4.743
    1C        C  132   4.354   3.005   4.856
    1C        C  133   4.282   2.965   4.970
    1C        C  134   3.174   2.466   2.082
    1C        C  135   3.042   2.512   2.083
    1C        C  136   3.259   2.478   2.193
    1C        C  137   3.195   2.521   2.311
    1C        C  138   3.404   2.473   2.430
    1C        C  139   3.266   2.503   2.431
    1C        C  140   3.479   2.479   2.549
    1C        C  141   3.408   2.492   2.671
    1C        C  142   3.622   2.487   2.792
    1C        C  143   3.480   2.488   2.792
    1C        C  144   3.693   2.499   2.913
    1C        C  145   3.625   2.490   3.036
    1C        C  146   3.835   2.534   3.155
    1C        C  147   3.699   2.497   3.156
    1C        C  148   3.898   2.561   3.278
    1C        C  149   3.831   2.538   3.401
    1C        C  150   4.022   2.634   3.523
    1C        C  151   3.897   2.567   3.522
    1C        C  152   4.081   2.675   3.645
    1C        C  153   4.020   2.639   3.767
    1C        C  154   4.186   2.772   3.889
    1C        C  155   4.076   2.683   3.889
    1C        C  156   4.241   2.819   4.010
    1C        C  157   4.190   2.769   4.132
    1C        C  158   4.334   2.927   4.255
    1C        C  159   4.238   2.823   4.253
    1C        C  160   4.375   2.988   4.376
    1C        C  161   4.323   2.937   4.496
    1C        C  162   4.437   3.116   4.616
    1C        C  163   4.371   2.991   4.618
    1C        C  164   4.466   3.184   4.736
    1C        C  165   4.432   3.122   4.859
    1C        C  166   4.517   3.319   4.974
    1C        C  167   4.478   3.186   4.975
    1C        C  168   3.473   2.432   2.074
    1C        C  169   3.399   2.456   2.190
    1C        C  170   3.617   2.468   2.308
    1C        C  171   3.475   2.457   2.309
    1C        C  172   3.691   2.489   2.426
    1C        C  173   3.620   2.492   2.548
    1C        C  174   3.826   2.544   2.668
    1C        C  175   3.690   2.505   2.669
    1C        C  176   3.895   2.564   2.789
    1C        C  177   3.829   2.536   2.911
    1C        C  178   4.022   2.628   3.033
    1C        C  179   3.901   2.556   3.032
    1C        C  180   4.078   2.668   3.156
    1C        C  181   4.021   2.630   3.280
    1C        C  182   4.194   2.757   3.400
    1C        C  183   4.083   2.669   3.401
    1C        C  184   4.242   2.810   3.522
    1C        C  185   4.191   2.764   3.645
    1C        C  186   4.337   2.918   3.765
    1C        C  187   4.242   2.813   3.767
    1C        C  188   4.376   2.977   3.887
    1C        C  189   4.336   2.924   4.012
    1C        C  190   4.448   3.105   4.130
    1C        C  191   4.380   2.982   4.133
    1C        C  192   4.473   3.174   4.251
    1C        C  193   4.443   3.112   4.374
    1C        C  194   4.504   3.318   4.493
    1C        C  195   4.466   3.182   4.495
    1C        C  196   4.514   3.391   4.614
    1C        C  197   4.505   3.321   4.736
    1C        C  198   4.556   3.535   4.853
    1C        C  199   4.528   3.394   4.856
    1C        C  200   4.577   3.619   4.967
    1C        C  201   3.613   2.419   2.074
    1C        C  202   3.824   2.515   2.186
    1C        C  203   3.689   2.469   2.185
    1C        C  204   3.898   2.542   2.304
    1C        C  205   3.828   2.523   2.425
    1C        C  206   4.021   2.621   2.544
    1C        C  207   3.894   2.559   2.545
    1C        C  208   4.082   2.659   2.666
    1C        C  209   4.021   2.627   2.790
    1C        C  210   4.194   2.753   2.908
    1C        C  211   4.079   2.672   2.911
    1C        C  212   4.245   2.800   3.031
    1C        C  213   4.189   2.756   3.153
    1C        C  214   4.328   2.914   3.274
    1C        C  215   4.241   2.803   3.275
    1C        C  216   4.370   2.973   3.395
    1C        C  217   4.333   2.918   3.520
    1C        C  218   4.437   3.104   3.641
    1C        C  219   4.375   2.976   3.642
    1C        C  220   4.458   3.171   3.764
    1C        C  221   4.437   3.104   3.887
    1C        C  222   4.508   3.306   4.004
    1C        C  223   4.473   3.169   4.007
    1C        C  224   4.520   3.378   4.125
    1C        C  225   4.511   3.310   4.248
    1C        C  226   4.524   3.525   4.368
    1C        C  227   4.517   3.384   4.369
    1C        C  228   4.525   3.601   4.487
    1C        C  229   4.524   3.532   4.610
    1C        C  230   4.506   3.744   4.729
    1C        C  231   4.535   3.605   4.731
    1C        C  232   4.502   3.824   4.845
    1C        C  233   4.543   3.754   4.959
    1C        C  234   4.018   2.613   2.064
    1C        C  235   3.893   2.552   2.069
    1C        C  236   4.083   2.653   2.182
    1C        C  237   4.024   2.608   2.302
    1C        C  238   4.201   2.733   2.422
    1C        C  239   4.087   2.648   2.422
    1C        C  240   4.252   2.786   2.542
    1C        C  241   4.195   2.744   2.664
    1C        C  242   4.337   2.906   2.785
    1C        C  243   4.244   2.800   2.784
    1C        C  244   4.379   2.963   2.907
    1C        C  245   4.332   2.911   3.030
    1C        C  246   4.436   3.097   3.152
    1C        C  247   4.371   2.971   3.152
    1C        C  248   4.462   3.164   3.274
    1C        C  249   4.432   3.100   3.396
    1C        C  250   4.499   3.303   3.516
    1C        C  251   4.462   3.167   3.517
    1C        C  252   4.510   3.374   3.638
    1C        C  253   4.501   3.305   3.761
    1C        C  254   4.527   3.517   3.879
    1C        C  255   4.522   3.376   3.882
    1C        C  256   4.519   3.587   4.002
    1C        C  257   4.517   3.520   4.126
    1C        C  258   4.496   3.734   4.242
    1C        C  259   4.515   3.595   4.246
    1C        C  260   4.475   3.806   4.363
    1C        C  261   4.492   3.738   4.486
    1C        C  262   4.424   3.940   4.606
    1C        C  263   4.472   3.807   4.607
    1C        C  264   4.402   4.012   4.725
    1C        C  265   4.440   3.951   4.847
    1C        C  266   4.316   4.128   4.960
    1C        C  267   4.395   4.013   4.964
    1C        C  268   4.265   2.774   2.063
    1C        C  269   4.199   2.733   2.180
    1C        C  270   4.340   2.896   2.296
    1C        C  271   4.255   2.782   2.300
    1C        C  272   4.377   2.957   2.418
    1C        C  273   4.338   2.898   2.541
    1C        C  274   4.449   3.082   2.662
    1C        C  275   4.377   2.961   2.661
    1C        C  276   4.474   3.151   2.783
    1C        C  277   4.443   3.090   2.906
    1C        C  278   4.504   3.293   3.025
    1C        C  279   4.464   3.157   3.028
    1C        C  280   4.511   3.366   3.146
    1C        C  281   4.499   3.300   3.270
    1C        C  282   4.521   3.511   3.389
    1C        C  283   4.514   3.370   3.392
    1C        C  284   4.521   3.581   3.512
    1C        C  285   4.521   3.515   3.636
    1C        C  286   4.498   3.727   3.755
    1C        C  287   4.522   3.588   3.757
    1C        C  288   4.477   3.795   3.877
    1C        C  289   4.494   3.726   3.999
    1C        C  290   4.425   3.931   4.117
    1C        C  291   4.481   3.801   4.118
    1C        C  292   4.399   4.001   4.237
    1C        C  293   4.425   3.938   4.361
    1C        C  294   4.326   4.126   4.481
    1C        C  295   4.394   4.002   4.482
    1C        C  296   4.287   4.190   4.600
    1C        C  297   4.326   4.132   4.723
    1C        C  298   4.195   4.310   4.838
    1C        C  299   4.282   4.196   4.842
    1C        C  300   4.167   4.401   4.944
    1C        C  301   4.355   2.879   2.063
    1C        C  302   4.470   3.072   2.175
    1C        C  303   4.393   2.951   2.177
    1C        C  304   4.486   3.141   2.298
    1C        C  305   4.440   3.083   2.418
    1C        C  306   4.514   3.282   2.536
    1C        C  307   4.477   3.146   2.539
    1C        C  308   4.522   3.356   2.657
    1C        C  309   4.506   3.289   2.780
    1C        C  310   4.527   3.501   2.899
    1C        C  311   4.521   3.360   2.902
    1C        C  312   4.523   3.575   3.020
    1C        C  313   4.520   3.507   3.143
    1C        C  314   4.493   3.717   3.264
    1C        C  315   4.523   3.579   3.265
    1C        C  316   4.472   3.784   3.387
    1C        C  317   4.498   3.721   3.510
    1C        C  318   4.431   3.925   3.629
    1C        C  319   4.481   3.793   3.631
    1C        C  320   4.394   3.988   3.750
    1C        C  321   4.425   3.926   3.874
    1C        C  322   4.320   4.113   3.991
    1C        C  323   4.393   3.992   3.994
    1C        C  324   4.276   4.171   4.112
    1C        C  325   4.324   4.121   4.235
    1C        C  326   4.182   4.278   4.355
    1C        C  327   4.284   4.180   4.357
    1C        C  328   4.133   4.335   4.475
    1C        C  329   4.193   4.296   4.597
    1C        C  330   4.024   4.435   4.711
    1C        C  331   4.141   4.354   4.714
    1C        C  332   3.971   4.492   4.829
    1C        C  333   4.049   4.477   4.944
    1C        C  334   4.549   3.271   2.059
    1C        C  335   4.534   3.131   2.062
    1C        C  336   4.538   3.350   2.174
    1C        C  337   4.518   3.280   2.295
    1C        C  338   4.528   3.495   2.414
    1C        C  339   4.526   3.354   2.415
    1C        C  340   4.524   3.569   2.534
    1C        C  341   4.520   3.497   2.655
    1C        C  342   4.494   3.709   2.774
    1C        C  343   4.519   3.570   2.776
    1C        C  344   4.481   3.781   2.895
    1C        C  345   4.504   3.715   3.018
    1C        C  346   4.433   3.915   3.139
    1C        C  347   4.483   3.783   3.140
    1C        C  348   4.400   3.981   3.260
    1C        C  349   4.431   3.919   3.383
    1C        C  350   4.321   4.101   3.503
    1C        C  351   4.399   3.983   3.505
    1C        C  352   4.275   4.163   3.622
    1C        C  353   4.317   4.106   3.744
    1C        C  354   4.176   4.264   3.867
    1C        C  355   4.276   4.163   3.867
    1C        C  356   4.124   4.316   3.987
    1C        C  357   4.177   4.271   4.110
    1C        C  358   4.012   4.402   4.229
    1C        C  359   4.129   4.323   4.233
    1C        C  360   3.951   4.443   4.350
    1C        C  361   4.019   4.418   4.471
    1C        C  362   3.826   4.517   4.593
    1C        C  363   3.956   4.461   4.590
    1C        C  364   3.762   4.554   4.714
    1C        C  365   3.840   4.545   4.831
    1C        C  366   3.631   4.592   4.950
    1C        C  367   3.769   4.572   4.949
    1C        C  368   4.515   3.563   2.054
    1C        C  369   4.528   3.490   2.173
    1C        C  370   4.501   3.706   2.287
    1C        C  371   4.522   3.566   2.292
    1C        C  372   4.485   3.777   2.408
    1C        C  373   4.504   3.709   2.530
    1C        C  374   4.427   3.908   2.650
    1C        C  375   4.480   3.777   2.651
    1C        C  376   4.398   3.974   2.771
    1C        C  377   4.432   3.913   2.894
    1C        C  378   4.321   4.093   3.015
    1C        C  379   4.401   3.977   3.017
    1C        C  380   4.270   4.149   3.135
    1C        C  381   4.312   4.092   3.257
    1C        C  382   4.172   4.249   3.377
    1C        C  383   4.273   4.151   3.380
    1C        C  384   4.117   4.298   3.497
    1C        C  385   4.173   4.260   3.622
    1C        C  386   4.005   4.387   3.743
    1C        C  387   4.123   4.310   3.744
    1C        C  388   3.945   4.430   3.864
    1C        C  389   4.009   4.398   3.986
    1C        C  390   3.817   4.489   4.108
    1C        C  391   3.947   4.434   4.108
    1C        C  392   3.753   4.520   4.230
    1C        C  393   3.825   4.506   4.351
    1C        C  394   3.617   4.557   4.474
    1C        C  395   3.756   4.534   4.472
    1C        C  396   3.548   4.571   4.596
    1C        C  397   3.622   4.571   4.717
    1C        C  398   3.410   4.558   4.839
    1C        C  399   3.550   4.578   4.837
    1C        C  400   3.343   4.520   4.956
    1C        C  401   4.503   3.702   2.051
    1C        C  402   4.455   3.916   2.167
    1C        C  403   4.494   3.780   2.167
    1C        C  404   4.416   3.978   2.288
    1C        C  405   4.442   3.912   2.410
    1C        C  406   4.326   4.095   2.525
    1C        C  407   4.405   3.977   2.529
    1C        C  408   4.281   4.149   2.648
    1C        C  409   4.318   4.090   2.771
    1C        C  410   4.178   4.249   2.889
    1C        C  411   4.274   4.146   2.893
    1C        C  412   4.124   4.299   3.010
    1C        C  413   4.173   4.251   3.133
    1C        C  414   4.001   4.377   3.253
    1C        C  415   4.116   4.294   3.255
    1C        C  416   3.941   4.412   3.376
    1C        C  417   4.002   4.380   3.500
    1C        C  418   3.812   4.478   3.618
    1C        C  419   3.940   4.417   3.621
    1C        C  420   3.748   4.508   3.740
    1C        C  421   3.815   4.484   3.862
    1C        C  422   3.611   4.537   3.987
    1C        C  423   3.749   4.508   3.985
    1C        C  424   3.542   4.546   4.110
    1C        C  425   3.614   4.544   4.232
    1C        C  426   3.402   4.557   4.357
    1C        C  427   3.543   4.559   4.353
    1C        C  428   3.333   4.545   4.480
    1C        C  429   3.407   4.564   4.599
    1C        C  430   3.196   4.523   4.724
    1C        C  431   3.334   4.555   4.720
    1C        C  432   3.126   4.496   4.845
    1C        C  433   3.206   4.500   4.960
    1C        C  434   4.387   4.122   2.056
    1C        C  435   4.448   3.996   2.053
    1C        C  436   4.303   4.164   2.165
    1C        C  437   4.342   4.100   2.285
    1C        C  438   4.192   4.258   2.403
    1C        C  439   4.286   4.154   2.403
    1C        C  440   4.128   4.297   2.523
    1C        C  441   4.178   4.246   2.645
    1C        C  442   4.012   4.379   2.766
    1C        C  443   4.127   4.297   2.766
    1C        C  444   3.947   4.415   2.886
    1C        C  445   4.005   4.375   3.008
    1C        C  446   3.813   4.468   3.129
    1C        C  447   3.942   4.412   3.129
    1C        C  448   3.746   4.493   3.251
    1C        C  449   3.812   4.468   3.374
    1C        C  450   3.607   4.526   3.498
    1C        C  451   3.746   4.496   3.495
    1C        C  452   3.539   4.543   3.620
    1C        C  453   3.610   4.538   3.742
    1C        C  454   3.399   4.549   3.865
    1C        C  455   3.541   4.550   3.865
    1C        C  456   3.332   4.538   3.989
    1C        C  457   3.401   4.545   4.112
    1C        C  458   3.194   4.510   4.236
    1C        C  459   3.332   4.543   4.235
    1C        C  460   3.128   4.488   4.359
    1C        C  461   3.195   4.517   4.480
    1C        C  462   3.002   4.434   4.603
    1C        C  463   3.129   4.496   4.603
    1C        C  464   2.937   4.395   4.722
    1C        C  465   2.995   4.438   4.845
    1C        C  466   2.802   4.341   4.957
    1C        C  467   2.912   4.429   4.961
    1C        C  468   4.124   4.284   2.043
    1C        C  469   4.186   4.246   2.163
    1C        C  470   4.010   4.372   2.279
    1C        C  471   4.132   4.300   2.282
    1C        C  472   3.944   4.402   2.400
    1C        C  473   4.004   4.365   2.522
    1C        C  474   3.815   4.459   2.643
    1C        C  475   3.946   4.406   2.644
    1C        C  476   3.748   4.491   2.764
    1C        C  477   3.817   4.472   2.885
    1C        C  478   3.609   4.517   3.010
    1C        C  479   3.748   4.494   3.006
    1C        C  480   3.537   4.527   3.131
    1C        C  481   3.608   4.522   3.253
    1C        C  482   3.397   4.536   3.379
    1C        C  483   3.538   4.532   3.375
    1C        C  484   3.325   4.532   3.500
    1C        C  485   3.398   4.547   3.621
    1C        C  486   3.193   4.504   3.745
    1C        C  487   3.328   4.543   3.743
    1C        C  488   3.130   4.477   3.868
    1C        C  489   3.194   4.505   3.991
    1C        C  490   3.006   4.414   4.117
    1C        C  491   3.129   4.483   4.114
    1C        C  492   2.945   4.380   4.241
    1C        C  493   3.004   4.422   4.362
    1C        C  494   2.835   4.294   4.485
    1C        C  495   2.942   4.386   4.484
    1C        C  496   2.776   4.249   4.605
    1C        C  497   2.823   4.310   4.724
    1C        C  498   2.660   4.171   4.844
    1C        C  499   2.757   4.273   4.844
    1C        C  500   2.593   4.118   4.955
    1C        C  501   4.006   4.358   2.041
    1C        C  502   3.815   4.462   2.156
    1C        C  503   3.943   4.402   2.158
    1C        C  504   3.746   4.478   2.278
    1C        C  505   3.813   4.456   2.400
    1C        C  506   3.609   4.513   2.520
    1C        C  507   3.746   4.480   2.522
    1C        C  508   3.537   4.518   2.641
    1C        C  509   3.608   4.514   2.764
    1C        C  510   3.398   4.521   2.886
    1C        C  511   3.539   4.522   2.887
    1C        C  512   3.327   4.516   3.008
    1C        C  513   3.395   4.529   3.131
    1C        C  514   3.192   4.487   3.255
    1C        C  515   3.329   4.523   3.255
    1C        C  516   3.123   4.470   3.377
    1C        C  517   3.188   4.499   3.500
    1C        C  518   3.001   4.409   3.624
    1C        C  519   3.123   4.480   3.624
    1C        C  520   2.949   4.365   3.748
    1C        C  521   3.008   4.406   3.871
    1C        C  522   2.839   4.283   3.996
    1C        C  523   2.952   4.369   3.995
    1C        C  524   2.790   4.233   4.119
    1C        C  525   2.840   4.285   4.240
    1C        C  526   2.693   4.136   4.364
    1C        C  527   2.783   4.245   4.363
    1C        C  528   2.650   4.078   4.485
    1C        C  529   2.686   4.140   4.607
    1C        C  530   2.579   3.961   4.733
    1C        C  531   2.635   4.092   4.729
    1C        C  532   2.540   3.901   4.856
    1C        C  533   2.526   3.995   4.963
    1C        C  534   3.618   4.554   2.042
    1C        C  535   3.753   4.517   2.043
    1C        C  536   3.535   4.536   2.157
    1C        C  537   3.608   4.513   2.277
    1C        C  538   3.395   4.520   2.399
    1C        C  539   3.537   4.522   2.398
    1C        C  540   3.324   4.512   2.521
    1C        C  541   3.396   4.516   2.642
    1C        C  542   3.187   4.486   2.764
    1C        C  543   3.326   4.514   2.765
    1C        C  544   3.123   4.460   2.887
    1C        C  545   3.190   4.480   3.010
    1C        C  546   2.998   4.400   3.134
    1C        C  547   3.124   4.464   3.133
    1C        C  548   2.938   4.367   3.258
    1C        C  549   2.998   4.405   3.380
    1C        C  550   2.837   4.270   3.508
    1C        C  551   2.941   4.367   3.504
    1C        C  552   2.788   4.224   3.632
    1C        C  553   2.839   4.277   3.752
    1C        C  554   2.702   4.118   3.875
    1C        C  555   2.787   4.231   3.876
    1C        C  556   2.662   4.063   3.999
    1C        C  557   2.699   4.126   4.120
    1C        C  558   2.600   3.942   4.245
    1C        C  559   2.656   4.072   4.243
    1C        C  560   2.565   3.883   4.368
    1C        C  561   2.584   3.953   4.490
    1C        C  562   2.524   3.752   4.616
    1C        C  563   2.558   3.889   4.613
    1C        C  564   2.513   3.684   4.739
    1C        C  565   2.517   3.760   4.859
    1C        C  566   2.535   3.549   4.978
    1C        C  567   2.525   3.688   4.979
    1C        C  568   3.325   4.479   2.037
    1C        C  569   3.395   4.512   2.154
    1C        C  570   3.186   4.477   2.280
    1C        C  571   3.324   4.513   2.278
    1C        C  572   3.117   4.461   2.402
    1C        C  573   3.186   4.483   2.523
    1C        C  574   2.990   4.400   2.645
    1C        C  575   3.116   4.463   2.644
    1C        C  576   2.932   4.363   2.769
    1C        C  577   2.996   4.398   2.890
    1C        C  578   2.826   4.273   3.017
    1C        C  579   2.939   4.358   3.013
    1C        C  580   2.779   4.224   3.140
    1C        C  581   2.832   4.275   3.262
    1C        C  582   2.699   4.112   3.384
    1C        C  583   2.786   4.223   3.385
    1C        C  584   2.661   4.054   3.507
    1C        C  585   2.697   4.116   3.629
    1C        C  586   2.591   3.937   3.755
    1C        C  587   2.658   4.061   3.754
    1C        C  588   2.568   3.874   3.879
    1C        C  589   2.597   3.937   4.002
    1C        C  590   2.531   3.737   4.128
    1C        C  591   2.573   3.872   4.125
    1C        C  592   2.515   3.675   4.253
    1C        C  593   2.525   3.748   4.374
    1C        C  594   2.511   3.536   4.500
    1C        C  595   2.514   3.678   4.496
    1C        C  596   2.518   3.467   4.623
    1C        C  597   2.512   3.542   4.742
    1C        C  598   2.538   3.330   4.864
    1C        C  599   2.519   3.470   4.863
    1C        C  600   2.527   3.247   4.976
    1C        C  601   3.193   4.442   2.044
    1C        C  602   2.981   4.396   2.159
    1C        C  603   3.116   4.440   2.161
    1C        C  604   2.926   4.359   2.286
    1C        C  605   2.990   4.399   2.405
    1C        C  606   2.819   4.269   2.527
    1C        C  607   2.927   4.361   2.525
    1C        C  608   2.774   4.219   2.651
    1C        C  609   2.827   4.269   2.772
    1C        C  610   2.692   4.107   2.893
    1C        C  611   2.778   4.219   2.895
    1C        C  612   2.656   4.051   3.018
    1C        C  613   2.695   4.111   3.140
    1C        C  614   2.589   3.929   3.266
    1C        C  615   2.657   4.053   3.263
    1C        C  616   2.562   3.868   3.390
    1C        C  617   2.594   3.930   3.513
    1C        C  618   2.519   3.733   3.638
    1C        C  619   2.562   3.868   3.635
    1C        C  620   2.511   3.665   3.762
    1C        C  621   2.527   3.738   3.882
    1C        C  622   2.507   3.528   4.011
    1C        C  623   2.520   3.669   4.004
    1C        C  624   2.510   3.459   4.134
    1C        C  625   2.510   3.533   4.255
    1C        C  626   2.543   3.326   4.382
    1C        C  627   2.515   3.465   4.378
    1C        C  628   2.564   3.257   4.503
    1C        C  629   2.540   3.327   4.623
    1C        C  630   2.600   3.121   4.745
    1C        C  631   2.556   3.257   4.744
    1C        C  632   2.617   3.048   4.866
    1C        C  633   2.555   3.110   4.979
    1C        C  634   2.782   4.303   2.052
    1C        C  635   2.890   4.391   2.049
    1C        C  636   2.748   4.229   2.166
    1C        C  637   2.811   4.275   2.284
    1C        C  638   2.675   4.113   2.408
    1C        C  639   2.761   4.225   2.406
    1C        C  640   2.635   4.054   2.530
    1C        C  641   2.683   4.111   2.650
    1C        C  642   2.588   3.921   2.775
    1C        C  643   2.648   4.049   2.772
    1C        C  644   2.560   3.859   2.899
    1C        C  645   2.590   3.926   3.019
    1C        C  646   2.522   3.728   3.148
    1C        C  647   2.565   3.862   3.143
    1C        C  648   2.509   3.661   3.272
    1C        C  649   2.524   3.731   3.393
    1C        C  650   2.500   3.522   3.518
    1C        C  651   2.508   3.663   3.516
    1C        C  652   2.506   3.453   3.641
    1C        C  653   2.505   3.524   3.763
    1C        C  654   2.531   3.319   3.892
    1C        C  655   2.507   3.458   3.888
    1C        C  656   2.560   3.254   4.014
    1C        C  657   2.542   3.322   4.137
    1C        C  658   2.618   3.128   4.260
    1C        C  659   2.559   3.256   4.260
    1C        C  660   2.645   3.060   4.381
    1C        C  661   2.609   3.123   4.503
    1C        C  662   2.714   2.939   4.625
    1C        C  663   2.634   3.056   4.624
    1C        C  664   2.750   2.876   4.746
    1C        C  665   2.701   2.932   4.866
    1C        C  666   2.749   2.876   4.985
    1C        C  667   2.679   4.023   2.053
    1C        C  668   2.687   4.102   2.168
    1C        C  669   2.582   3.915   2.289
    1C        C  670   2.641   4.045   2.289
    1C        C  671   2.557   3.852   2.413
    1C        C  672   2.580   3.924   2.532
    1C        C  673   2.520   3.719   2.658
    1C        C  674   2.561   3.854   2.654
    1C        C  675   2.503   3.652   2.781
    1C        C  676   2.519   3.724   2.902
    1C        C  677   2.499   3.517   3.032
    1C        C  678   2.507   3.658   3.026
    1C        C  679   2.505   3.446   3.154
    1C        C  680   2.502   3.520   3.275
    1C        C  681   2.533   3.311   3.402
    1C        C  682   2.504   3.450   3.397
    1C        C  683   2.554   3.246   3.525
    1C        C  684   2.534   3.314   3.647
    1C        C  685   2.613   3.121   3.773
    1C        C  686   2.552   3.248   3.771
    1C        C  687   2.647   3.059   3.895
    1C        C  688   2.611   3.123   4.016
    1C        C  689   2.719   2.941   4.139
    1C        C  690   2.647   3.062   4.139
    1C        C  691   2.760   2.880   4.260
    1C        C  692   2.721   2.941   4.382
    1C        C  693   2.761   2.883   4.504
    1C        C  694   2.627   3.893   2.054
    1C        C  695   2.530   3.704   2.176
    1C        C  696   2.573   3.838   2.171
    1C        C  697   2.509   3.639   2.300
    1C        C  698   2.519   3.716   2.418
    1C        C  699   2.490   3.505   2.542
    1C        C  700   2.502   3.645   2.539
    1C        C  701   2.497   3.438   2.666
    1C        C  702   2.495   3.511   2.787
    1C        C  703   2.529   3.306   2.911
    1C        C  704   2.499   3.444   2.911
    1C        C  705   2.550   3.239   3.034
    1C        C  706   2.533   3.308   3.157
    1C        C  707   2.607   3.112   3.281
    1C        C  708   2.551   3.242   3.280
    1C        C  709   2.640   3.053   3.405
    1C        C  710   2.610   3.116   3.528
    1C        C  711   2.721   2.938   3.649
    1C        C  712   2.644   3.056   3.651
    1C        C  713   2.766   2.885   3.772
    1C        C  714   2.723   2.940   3.895
    1C        C  715   2.764   2.884   4.018
    1C        C  716   2.450   3.503   2.064
    1C        C  717   2.498   3.635   2.058
    1C        C  718   2.466   3.423   2.182
    1C        C  719   2.482   3.500   2.300
    1C        C  720   2.512   3.291   2.420
    1C        C  721   2.484   3.429   2.422
    1C        C  722   2.538   3.227   2.544
    1C        C  723   2.523   3.299   2.665
    1C        C  724   2.600   3.105   2.792
    1C        C  725   2.546   3.236   2.790
    1C        C  726   2.632   3.042   2.915
    1C        C  727   2.599   3.107   3.036
    1C        C  728   2.713   2.930   3.159
    1C        C  729   2.633   3.046   3.159
    1C        C  730   2.762   2.881   3.282
    1C        C  731   2.719   2.936   3.405
    1C        C  732   2.761   2.878   3.528
    1C        C  733   2.495   3.198   2.070
    1C        C  734   2.487   3.281   2.182
    1C        C  735   2.592   3.090   2.304
    1C        C  736   2.526   3.215   2.302
    1C        C  737   2.622   3.027   2.428
    1C        C  738   2.592   3.097   2.547
    1C        C  739   2.705   2.922   2.672
    1C        C  740   2.624   3.038   2.671
    1C        C  741   2.753   2.867   2.793
    1C        C  742   2.708   2.923   2.915
    1C        C  743   2.759   2.874   3.037
    1C        C  744   2.552   3.071   2.071
    1C        C  745   2.688   2.897   2.183
    1C        C  746   2.614   3.017   2.185
    1C        C  747   2.733   2.846   2.306
    1C        C  748   2.693   2.905   2.428
    1C        C  749   2.743   2.858   2.552
    1C        C  750   2.737   2.834   2.067
    1C        C  751   3.663   2.311   1.986
    1C        O  752   3.717   2.202   2.021
    1C        O  753   3.709   2.343   1.858
    1C        C  754   4.640   3.064   1.983
    1C        O  755   4.633   3.054   1.858
    1C        O  756   4.752   3.001   2.038
    1C        C  757   4.462   4.225   1.980
    1C        O  758   4.549   4.294   2.039
    1C        O  759   4.487   4.202   1.845
    1C        C  760   3.571   4.620   1.918
    1C        O  761   3.566   4.745   1.905
    1C        O  762   3.590   4.565   1.790
    1C        C  763   2.881   4.507   1.957
    1C        O  764   2.853   4.479   1.837
    1C        O  765   2.811   4.622   1.997
    1C        C  766   2.330   3.480   1.981
    1C        O  767   2.348   3.495   1.857
    1C        O  768   2.203   3.460   2.036
    1C        C  769   4.678   3.585   5.070
    1C        O  770   4.635   3.583   5.189
    1C        O  771   4.814   3.618   5.061
    1C        C  772   4.273   4.448   5.035
    1C        O  773   4.252   4.437   5.159
    1C        O  774   4.325   4.578   5.032
    1C        C  775   4.153   2.517   5.061
    1C        O  776   4.219   2.422   5.011
    1C        O  777   4.158   2.517   5.201
    1C        C  778   2.914   4.534   5.065
    1C        O  779   2.847   4.640   5.055
    1C        O  780   2.940   4.506   5.200
    1C        C  781   2.474   3.032   5.076
    1C        O  782   2.397   2.943   5.032
    1C        O  783   2.519   2.995   5.202
    1C        C  784   2.403   3.992   5.044
    1C        O  785   2.294   4.040   5.001
    1C        O  786   2.410   3.929   5.169
    1C        C  787   2.956   2.435   1.990
    1C        O  788   2.936   2.476   1.872
    1C        O  789   2.940   2.298   2.005
    1C        C  790   3.195   2.384   5.077
    1C        O  791   3.134   2.276   5.054
    1C        O  792   3.197   2.420   5.212
    1C        H  793   4.264   3.033   5.051
    1C        H  794   4.227   2.790   5.069
    1C        H  795   4.501   3.130   5.063
    1C        H  796   4.505   3.373   5.065
    1C        H  797   4.551   3.812   5.049
    1C        H  798   4.437   3.991   5.060
    1C        H  799   4.249   4.142   5.042
    1C        H  800   3.997   4.478   5.038
    1C        H  801   3.825   4.630   5.019
    1C        H  802   3.586   4.627   5.041
    1C        H  803   3.389   4.535   5.052
    1C        H  804   3.177   4.439   5.044
    1C        H  805   3.893   2.479   5.069
    1C        H  806   3.679   2.449   5.072
    1C        H  807   2.992   2.539   5.053
    1C        H  808   3.446   2.537   5.065
    1C        H  809   2.874   2.738   5.078
    1C        H  810   2.727   2.923   5.079
    1C        H  811   2.502   3.290   5.071
    1C        H  812   2.589   3.507   5.060
    1C        H  813   2.517   3.744   5.070
    1C        H  814   2.572   4.188   5.033
    1C        H  815   2.750   4.328   5.050
    1C        H  816   2.676   2.847   1.980
    1C        H  817   2.779   2.641   2.011
    1C        H  818   3.185   2.377   2.024
    1C        H  819   3.421   2.432   1.980
    1C        H  820   3.847   2.528   1.976
    1C        H  821   4.048   2.648   1.968
    1C        H  822   4.281   2.697   1.990
    1C        H  823   4.392   2.911   1.967
    1C        H  824   4.603   3.313   1.977
    1C        H  825   4.476   3.510   1.970
    1C        H  826   4.497   3.746   1.954
    1C        H  827   3.816   4.560   1.968
    1C        H  828   3.981   4.410   1.951
    1C        H  829   4.177   4.267   1.952
    1C        H  830   4.524   3.986   1.979
    1C        H  831   2.600   3.857   1.957
    1C        H  832   2.735   4.045   1.964
    1C        H  833   2.714   4.301   1.969
    1C        H  834   3.374   4.453   1.946
    1C        H  835   3.164   4.367   1.972
    1C        H  836   2.527   3.002   1.993
    1C        H  837   2.480   3.243   1.975
    1C        H  838   2.514   3.681   1.963
    2V3OU   H29  839   2.803   3.554   5.639
    2V3OU   C27  840   2.788   3.504   5.737
    2V3OU   H27  841   2.723   3.570   5.800
    2V3OU   H28  842   2.733   3.408   5.723
    2V3OU   O11  843   2.909   3.479   5.810
    2V3OU   C15  844   2.921   3.395   5.919
    2V3OU   C13  845   3.051   3.378   5.969
    2V3OU   C14  846   3.075   3.271   6.057
    2V3OU   C16  847   2.973   3.190   6.106
    2V3OU    H6  848   2.995   3.101   6.166
    2V3OU   C12  849   3.213   3.234   6.097
    2V3OU    O2  850   3.236   3.127   6.157
    2V3OU   C10  851   3.326   3.313   6.048
    2V3OU    C8  852   3.458   3.277   6.075
    2V3OU   O10  853   3.490   3.156   6.130
    2V3OU   H26  854   3.402   3.121   6.150
    2V3OU    C6  855   3.565   3.352   6.019
    2V3OU    C5  856   3.538   3.465   5.942
    2V3OU    C4  857   3.704   3.297   6.019
    2V3OU    H4  858   3.722   3.233   6.110
    2V3OU    H5  859   3.713   3.227   5.931
    2V3OU    C2  860   3.816   3.400   6.006
    2V3OU    O6  861   3.805   3.474   6.128
    2V3OU   H21  862   3.770   3.561   6.102
    2V3OU    C3  863   3.778   3.497   5.894
    2V3OU    H2  864   3.862   3.570   5.879
    2V3OU    H3  865   3.780   3.441   5.798
    2V3OU   C25  866   3.950   3.327   5.990
    2V3OU    O7  867   3.997   3.295   5.881
    2V3OU   C26  868   4.030   3.290   6.113
    2V3OU   H22  869   4.073   3.383   6.159
    2V3OU   H23  870   4.112   3.219   6.085
    2V3OU    O8  871   3.961   3.212   6.208
    2V3OU   H24  872   3.924   3.269   6.277
    2V3OU    C1  873   3.643   3.565   5.905
    2V3OU    H1  874   3.626   3.624   5.810
    2V3OU    O3  875   3.656   3.656   6.015
    2V3OU   C19  876   3.621   3.794   6.002
    2V3OU    H9  877   3.529   3.816   5.941
    2V3OU    O4  878   3.721   3.845   5.916
    2V3OU   C20  879   3.850   3.876   5.969
    2V3OU   H10  880   3.901   3.776   5.981
    2V3OU   C24  881   3.609   3.858   6.141
    2V3OU   H16  882   3.544   3.795   6.207
    2V3OU   H17  883   3.566   3.960   6.128
    2V3OU   C23  884   3.750   3.875   6.198
    2V3OU   H15  885   3.786   3.770   6.226
    2V3OU    N1  886   3.738   3.956   6.317
    2V3OU   H19  887   3.801   3.921   6.386
    2V3OU   H20  888   3.650   3.937   6.360
    2V3OU   C21  889   3.848   3.950   6.103
    2V3OU   H11  890   3.952   3.930   6.144
    2V3OU    O5  891   3.827   4.090   6.103
    2V3OU   H18  892   3.786   4.103   6.190
    2V3OU   C22  893   3.915   3.948   5.852
    2V3OU   H12  894   3.860   4.044   5.833
    2V3OU   H13  895   3.911   3.888   5.758
    2V3OU   H14  896   4.023   3.965   5.875
    2V3OU   C11  897   3.161   3.469   5.936
    2V3OU    O1  898   3.135   3.591   5.921
    2V3OU    C9  899   3.299   3.424   5.963
    2V3OU    C7  900   3.403   3.499   5.909
    2V3OU    O9  901   3.388   3.615   5.835
    2V3OU   H25  902   3.292   3.630   5.838
    2V3OU   C17  903   2.820   3.315   5.978
    2V3OU    H7  904   2.718   3.336   5.947
    2V3OU   C18  905   2.840   3.216   6.074
    2V3OU    H8  906   2.760   3.147   6.103
    3SOL     OW  907   3.779   3.208   4.054
    3SOL    HW1  908   3.712   3.134   4.058
    3SOL    HW2  909   3.859   3.177   4.002
    4SOL     OW  910   6.704   5.922   0.725
    4SOL    HW1  911   6.782   5.983   0.731
    4SOL    HW2  912   6.711   5.867   0.641
    5SOL     OW  913   4.812   2.362   0.505
    5SOL    HW1  914   4.907   2.337   0.527
    5SOL    HW2  915   4.810   2.453   0.464
    6SOL     OW  916   4.399   1.559   1.828
    6SOL    HW1  917   4.380   1.638   1.886
    6SOL    HW2  918   4.335   1.485   1.851
    7SOL     OW  919   2.122   3.420   4.739
    7SOL    HW1  920   2.203   3.390   4.788
    7SOL    HW2  921   2.119   3.377   4.649
    8SOL     OW  922   1.027   2.157   5.184
    8SOL    HW1  923   0.962   2.180   5.256
    8SOL    HW2  924   1.007   2.065   5.149
    9SOL     OW  925   0.302   1.473   5.949
    9SOL    HW1  926   0.236   1.439   5.882
    9SOL    HW2  927   0.262   1.466   6.040
   10SOL     OW  928   5.166   4.874   1.885
   10SOL    HW1  929   5.211   4.925   1.811
   10SOL    HW2  930   5.236   4.833   1.944
   11SOL     OW  931   2.208   2.630   0.980
   11SOL    HW1  932   2.253   2.565   0.919
   11SOL    HW2  933   2.250   2.625   1.070
   12SOL     OW  934   4.359   5.257   2.452
   12SOL    HW1  935   4.452   5.295   2.446
   12SOL    HW2  936   4.296   5.314   2.401
   13SOL     OW  937   5.736   5.818   1.552
   13SOL    HW1  938   5.718   5.788   1.458
   13SOL    HW2  939   5.748   5.737   1.610
   14SOL     OW  940   4.528   6.862   6.686
   14SOL    HW1  941   4.492   6.926   6.754
   14SOL    HW2  942   4.626   6.877   6.675
   15SOL     OW  943   1.004   5.525   6.466
   15SOL    HW1  944   0.945   5.473   6.528
   15SOL    HW2  945   0.989   5.495   6.372
   16SOL     OW  946   2.069   5.287   5.108
   16SOL    HW1  947   2.040   5.347   5.183
   16SOL    HW2  948   2.159   5.248   5.129
   17SOL     OW  949   6.960   1.044   5.097
   17SOL    HW1  950   6.977   1.139   5.070
   17SOL    HW2  951   6.945   0.988   5.016
   18SOL     OW  952   3.201   0.864   5.716
   18SOL    HW1  953   3.177   0.961   5.716
   18SOL    HW2  954   3.121   0.810   5.690
   19SOL     OW  955   3.215   6.835   2.341
   19SOL    HW1  956   3.306   6.794   2.340
   19SOL    HW2  957   3.172   6.818   2.430
   20SOL     OW  958   6.543   1.656   5.660
   20SOL    HW1  959   6.639   1.634   5.643
   20SOL    HW2  960   6.486   1.585   5.619
   21SOL     OW  961   2.201   3.936   2.567
   21SOL    HW1  962   2.164   3.853   2.609
   21SOL    HW2  963   2.224   3.917   2.472
   22SOL     OW  964   0.598   1.020   0.025
   22SOL    HW1  965   0.688   1.056   0.048
   22SOL    HW2  966   0.607   0.944   6.986
   23SOL     OW  967   6.196   4.759   0.557
   23SOL    HW1  968   6.116   4.699   0.565
   23SOL    HW2  969   6.279   4.706   0.571
   24SOL     OW  970   5.249   1.707   0.259
   24SOL    HW1  971   5.317   1.646   0.219
   24SOL    HW2  972   5.260   1.799   0.220
   25SOL     OW  973   1.182   0.870   4.526
   25SOL    HW1  974   1.149   0.896   4.435
   25SOL    HW2  975   1.122   0.799   4.564
   26SOL     OW  976   1.771   1.584   6.366
   26SOL    HW1  977   1.805   1.533   6.445
   26SOL    HW2  978   1.848   1.606   6.305
   27SOL     OW  979   0.587   6.926   2.588
   27SOL    HW1  980   0.567   6.831   2.610
   27SOL    HW2  981   0.534   6.986   2.648
   28SOL     OW  982   2.379   0.054   6.049
   28SOL    HW1  983   2.451   0.123   6.058
   28SOL    HW2  984   2.301   0.092   5.999
   29SOL     OW  985   5.822   0.220   1.262
   29SOL    HW1  986   5.746   0.261   1.312
   29SOL    HW2  987   5.873   0.291   1.214
   30SOL     OW  988   4.800   0.329   5.184
   30SOL    HW1  989   4.800   0.406   5.248
   30SOL    HW2  990   4.881   0.272   5.201
   31SOL     OW  991   6.984   4.610   4.577
   31SOL    HW1  992   6.967   4.535   4.514
   31SOL    HW2  993   6.909   4.618   4.642
   32SOL     OW  994   3.163   0.576   0.802
   32SOL    HW1  995   3.247   0.540   0.763
   32SOL    HW2  996   3.142   0.664   0.760
   33SOL     OW  997   2.173   5.457   5.879
   33SOL    HW1  998   2.246   5.394   5.907
   33SOL    HW2  999   2.088   5.431   5.925
   34SOL     OW 1000   2.452   6.124   5.599
   34SOL    HW1 1001   2.409   6.211   5.625
   34SOL    HW2 1002   2.406   6.049   5.648
   35SOL     OW 1003   0.939   3.091   5.749
   35SOL    HW1 1004   1.005   3.151   5.705
   35SOL    HW2 1005   0.886   3.142   5.816
   36SOL     OW 1006   5.565   0.932   3.435
   36SOL    HW1 1007   5.599   1.003   3.496
   36SOL    HW2 1008   5.641   0.895   3.381
   37SOL     OW 1009   2.143   6.252   4.361
   37SOL    HW1 1010   2.238   6.230   4.336
   37SOL    HW2 1011   2.085   6.243   4.280
   38SOL     OW 1012   1.421   4.316   2.263
   38SOL    HW1 1013   1.441   4.414   2.264
   38SOL    HW2 1014   1.421   4.282   2.357
   39SOL     OW 1015   6.884   4.869   1.195
   39SOL    HW1 1016   6.877   4.904   1.102
   39SOL    HW2 1017   6.813   4.911   1.252
   40SOL     OW 1018   4.389   1.508   0.421
   40SOL    HW1 1019   4.322   1.471   0.485
   40SOL    HW2 1020   4.345   1.576   0.363
   41SOL     OW 1021   4.908   3.665   1.584
   41SOL    HW1 1022   4.840   3.730   1.617
   41SOL    HW2 1023   4.959   3.628   1.662
   42SOL     OW 1024   2.156   4.498   6.529
   42SOL    HW1 1025   2.224   4.481   6.458
   42SOL    HW2 1026   2.099   4.417   6.540
   43SOL     OW 1027   5.318   0.072   4.924
   43SOL    HW1 1028   5.222   0.055   4.899
   43SOL    HW2 1029   5.375   0.064   4.842
   44SOL     OW 1030   0.425   0.866   6.485
   44SOL    HW1 1031   0.387   0.897   6.572
   44SOL    HW2 1032   0.521   0.842   6.497
   45SOL     OW 1033   1.989   4.916   6.278
   45SOL    HW1 1034   1.929   4.842   6.247
   45SOL    HW2 1035   2.058   4.878   6.340
   46SOL     OW 1036   1.551   4.159   5.033
   46SOL    HW1 1037   1.486   4.094   5.072
   46SOL    HW2 1038   1.618   4.185   5.102
   47SOL     OW 1039   6.189   3.695   0.275
   47SOL    HW1 1040   6.232   3.655   0.357
   47SOL    HW2 1041   6.201   3.794   0.276
   48SOL     OW 1042   6.454   4.103   1.095
   48SOL    HW1 1043   6.451   4.034   1.022
   48SOL    HW2 1044   6.364   4.146   1.104
   49SOL     OW 1045   3.084   3.307   6.388
   49SOL    HW1 1046   3.041   3.390   6.353
   49SOL    HW2 1047   3.182   3.323   6.402
   50SOL     OW 1048   5.151   2.155   6.645
   50SOL    HW1 1049   5.059   2.155   6.604
   50SOL    HW2 1050   5.169   2.065   6.683
   51SOL     OW 1051   1.019   5.893   2.068
   51SOL    HW1 1052   0.977   5.802   2.062
   51SOL    HW2 1053   1.011   5.939   1.979
   52SOL     OW 1054   5.246   2.573   2.169
   52SOL    HW1 1055   5.283   2.657   2.130
   52SOL    HW2 1056   5.152   2.588   2.199
   53SOL     OW 1057   3.808   0.540   0.936
   53SOL    HW1 1058   3.753   0.612   0.978
   53SOL    HW2 1059   3.763   0.452   0.947
   54SOL     OW 1060   6.304   0.354   6.403
   54SOL    HW1 1061   6.402   0.371   6.394
   54SOL    HW2 1062   6.254   0.436   6.375
   55SOL     OW 1063   1.621   3.746   6.045
   55SOL    HW1 1064   1.536   3.760   6.097
   55SOL    HW2 1065   1.633   3.649   6.025
   56SOL     OW 1066   1.069   2.677   6.642
   56SOL    HW1 1067   1.014   2.728   6.577
   56SOL    HW2 1068   1.159   2.658   6.602
   57SOL     OW 1069   4.252   6.201   0.283
   57SOL    HW1 1070   4.281   6.273   0.347
   57SOL    HW2 1071   4.276   6.227   0.190
   58SOL     OW 1072   1.269   0.972   7.023
   58SOL    HW1 1073   1.178   0.942   6.994
   58SOL    HW2 1074   1.290   0.936   0.089
   59SOL     OW 1075   4.197   2.650   5.971
   59SOL    HW1 1076   4.110   2.608   5.946
   59SOL    HW2 1077   4.260   2.579   6.003
   60SOL     OW 1078   6.316   2.468   2.729
   60SOL    HW1 1079   6.343   2.427   2.816
   60SOL    HW2 1080   6.308   2.396   2.660
   61SOL     OW 1081   1.054   5.843   3.430
   61SOL    HW1 1082   1.064   5.795   3.343
   61SOL    HW2 1083   1.000   5.927   3.416
   62SOL     OW 1084   5.640   2.429   3.307
   62SOL    HW1 1085   5.604   2.384   3.225
   62SOL    HW2 1086   5.738   2.409   3.315
   63SOL     OW 1087   3.737   6.974   6.124
   63SOL    HW1 1088   3.670   6.932   6.062
   63SOL    HW2 1089   3.797   6.904   6.161
   64SOL     OW 1090   1.393   1.897   5.831
   64SOL    HW1 1091   1.466   1.838   5.799
   64SOL    HW2 1092   1.419   1.937   5.919
   65SOL     OW 1093   0.881   5.206   4.669
   65SOL    HW1 1094   0.903   5.128   4.727
   65SOL    HW2 1095   0.862   5.174   4.576
   66SOL     OW 1096   4.492   1.664   1.425
   66SOL    HW1 1097   4.407   1.614   1.443
   66SOL    HW2 1098   4.470   1.756   1.393
   67SOL     OW 1099   6.944   3.744   1.551
   67SOL    HW1 1100   6.880   3.793   1.491
   67SOL    HW2 1101   6.911   3.651   1.566
   68SOL     OW 1102   0.568   1.282   6.972
   68SOL    HW1 1103   0.567   1.189   7.007
   68SOL    HW2 1104   0.654   1.327   6.999
   69SOL     OW 1105   1.521   5.320   6.732
   69SOL    HW1 1106   1.500   5.289   6.825
   69SOL    HW2 1107   1.470   5.403   6.713
   70SOL     OW 1108   4.652   4.781   3.896
   70SOL    HW1 1109   4.660   4.850   3.823
   70SOL    HW2 1110   4.655   4.690   3.855
   71SOL     OW 1111   4.687   1.377   5.073
   71SOL    HW1 1112   4.690   1.362   4.975
   71SOL    HW2 1113   4.765   1.332   5.117
   72SOL     OW 1114   6.956   0.257   3.140
   72SOL    HW1 1115   6.862   0.282   3.120
   72SOL    HW2 1116   7.018   0.325   3.101
   73SOL     OW 1117   2.493   0.571   1.646
   73SOL    HW1 1118   2.416   0.567   1.710
   73SOL    HW2 1119   2.459   0.596   1.555
   74SOL     OW 1120   3.143   1.805   0.297
   74SOL    HW1 1121   3.233   1.767   0.276
   74SOL    HW2 1122   3.154   1.893   0.342
   75SOL     OW 1123   2.474   3.201   0.373
   75SOL    HW1 1124   2.475   3.238   0.280
   75SOL    HW2 1125   2.422   3.116   0.374
   76SOL     OW 1126   3.874   4.865   5.647
   76SOL    HW1 1127   3.815   4.842   5.570
   76SOL    HW2 1128   3.825   4.851   5.733
   77SOL     OW 1129   0.805   5.439   4.794
   77SOL    HW1 1130   0.895   5.480   4.810
   77SOL    HW2 1131   0.814   5.361   4.733
   78SOL     OW 1132   4.687   2.116   1.119
   78SOL    HW1 1133   4.681   2.168   1.034
   78SOL    HW2 1134   4.638   2.166   1.192
   79SOL     OW 1135   1.796   4.489   3.961
   79SOL    HW1 1136   1.796   4.405   4.015
   79SOL    HW2 1137   1.888   4.505   3.925
   80SOL     OW 1138   3.542   1.929   5.079
   80SOL    HW1 1139   3.445   1.954   5.070
   80SOL    HW2 1140   3.599   2.003   5.044
   81SOL     OW 1141   3.243   5.194   2.169
   81SOL    HW1 1142   3.312   5.136   2.211
   81SOL    HW2 1143   3.246   5.285   2.209
   82SOL     OW 1144   2.918   0.120   2.173
   82SOL    HW1 1145   2.975   0.158   2.100
   82SOL    HW2 1146   2.925   0.020   2.172
   83SOL     OW 1147   5.160   1.269   3.877
   83SOL    HW1 1148   5.116   1.314   3.800
   83SOL    HW2 1149   5.133   1.315   3.962
   84SOL     OW 1150   5.905   2.675   3.121
   84SOL    HW1 1151   5.882   2.591   3.072
   84SOL    HW2 1152   5.921   2.654   3.217
   85SOL     OW 1153   2.534   6.450   2.950
   85SOL    HW1 1154   2.453   6.395   2.930
   85SOL    HW2 1155   2.616   6.395   2.933
   86SOL     OW 1156   5.333   0.147   1.027
   86SOL    HW1 1157   5.355   0.202   0.947
   86SOL    HW2 1158   5.259   0.191   1.079
   87SOL     OW 1159   3.089   3.671   6.190
   87SOL    HW1 1160   3.062   3.725   6.109
   87SOL    HW2 1161   3.019   3.603   6.209
   88SOL     OW 1162   2.433   3.196   1.358
   88SOL    HW1 1163   2.498   3.141   1.410
   88SOL    HW2 1164   2.358   3.224   1.418
   89SOL     OW 1165   3.382   3.411   4.823
   89SOL    HW1 1166   3.459   3.471   4.846
   89SOL    HW2 1167   3.404   3.317   4.848
   90SOL     OW 1168   5.787   3.723   2.387
   90SOL    HW1 1169   5.874   3.726   2.436
   90SOL    HW2 1170   5.722   3.784   2.432
   91SOL     OW 1171   4.740   6.258   0.279
   91SOL    HW1 1172   4.801   6.280   0.202
   91SOL    HW2 1173   4.770   6.308   0.360
   92SOL     OW 1174   5.756   4.719   6.880
   92SOL    HW1 1175   5.792   4.627   6.864
   92SOL    HW2 1176   5.828   4.778   6.916
   93SOL     OW 1177   2.923   3.956   1.769
   93SOL    HW1 1178   2.826   3.929   1.769
   93SOL    HW2 1179   2.930   4.056   1.773
   94SOL     OW 1180   3.441   1.860   4.211
   94SOL    HW1 1181   3.422   1.922   4.135
   94SOL    HW2 1182   3.356   1.827   4.250
   95SOL     OW 1183   0.509   7.016   4.477
   95SOL    HW1 1184   0.540   6.921   4.476
   95SOL    HW2 1185   0.575   0.049   4.428
   96SOL     OW 1186   0.301   5.426   6.871
   96SOL    HW1 1187   0.227   5.492   6.862
   96SOL    HW2 1188   0.370   5.442   6.800
   97SOL     OW 1189   2.759   4.315   5.783
   97SOL    HW1 1190   2.756   4.256   5.702
   97SOL    HW2 1191   2.804   4.401   5.761
   98SOL     OW 1192   6.800   1.681   4.456
   98SOL    HW1 1193   6.783   1.726   4.368
   98SOL    HW2 1194   6.896   1.655   4.462
   99SOL     OW 1195   3.904   4.346   5.401
   99SOL    HW1 1196   3.999   4.316   5.386
   99SOL    HW2 1197   3.850   4.330   5.319
  100SOL     OW 1198   0.901   0.575   5.164
  100SOL    HW1 1199   0.904   0.495   5.105
  100SOL    HW2 1200   0.821   0.570   5.223
  101SOL     OW 1201   5.342   3.639   2.778
  101SOL    HW1 1202   5.328   3.707   2.850
  101SOL    HW2 1203   5.438   3.637   2.752
  102SOL     OW 1204   3.781   0.536   6.964
  102SOL    HW1 1205   3.814   0.619   6.920
  102SOL    HW2 1206   3.686   0.548   6.992
  103SOL     OW 1207   0.942   1.737   2.289
  103SOL    HW1 1208   0.970   1.667   2.223
  103SOL    HW2 1209   0.976   1.826   2.258
  104SOL     OW 1210   6.396   4.509   2.211
  104SOL    HW1 1211   6.308   4.463   2.198
  104SOL    HW2 1212   6.385   4.586   2.274
  105SOL     OW 1213   0.422   0.176   4.938
  105SOL    HW1 1214   0.481   0.183   4.857
  105SOL    HW2 1215   0.375   0.263   4.952
  106SOL     OW 1216   4.444   3.196   1.657
  106SOL    HW1 1217   4.471   3.161   1.567
  106SOL    HW2 1218   4.515   3.173   1.724
  107SOL     OW 1219   5.957   6.566   1.382
  107SOL    HW1 1220   6.051   6.596   1.401
  107SOL    HW2 1221   5.897   6.646   1.376
  108SOL     OW 1222   3.538   1.552   4.726
  108SOL    HW1 1223   3.631   1.572   4.759
  108SOL    HW2 1224   3.543   1.502   4.640
  109SOL     OW 1225   2.145   0.882   5.446
  109SOL    HW1 1226   2.112   0.948   5.379
  109SOL    HW2 1227   2.119   0.790   5.417
  110SOL     OW 1228   3.678   3.846   5.629
  110SOL    HW1 1229   3.704   3.762   5.581
  110SOL    HW2 1230   3.704   3.838   5.725
  111SOL     OW 1231   5.744   3.149   1.210
  111SOL    HW1 1232   5.791   3.173   1.295
  111SOL    HW2 1233   5.651   3.119   1.231
  112SOL     OW 1234   5.208   6.578   6.073
  112SOL    HW1 1235   5.305   6.581   6.098
  112SOL    HW2 1236   5.196   6.523   5.990
  113SOL     OW 1237   0.386   4.938   2.682
  113SOL    HW1 1238   0.431   4.849   2.691
  113SOL    HW2 1239   0.288   4.925   2.670
  114SOL     OW 1240   6.928   2.332   1.847
  114SOL    HW1 1241   6.981   2.287   1.775
  114SOL    HW2 1242   6.974   2.319   1.935
  115SOL     OW 1243   4.374   7.020   2.644
  115SOL    HW1 1244   4.457   0.046   2.668
  115SOL    HW2 1245   4.392   6.922   2.653
  116SOL     OW 1246   0.141   5.326   0.716
  116SOL    HW1 1247   0.057   5.370   0.684
  116SOL    HW2 1248   0.125   5.229   0.731
  117SOL     OW 1249   3.420   2.207   0.082
  117SOL    HW1 1250   3.416   2.152   0.166
  117SOL    HW2 1251   3.492   2.275   0.091
  118SOL     OW 1252   0.302   1.717   2.739
  118SOL    HW1 1253   0.385   1.722   2.793
  118SOL    HW2 1254   0.237   1.655   2.782
  119SOL     OW 1255   6.505   6.931   5.464
  119SOL    HW1 1256   6.500   6.988   5.382
  119SOL    HW2 1257   6.470   6.839   5.443
  120SOL     OW 1258   4.531   0.986   4.618
  120SOL    HW1 1259   4.627   0.963   4.603
  120SOL    HW2 1260   4.525   1.078   4.657
  121SOL     OW 1261   0.239   5.498   6.314
  121SOL    HW1 1262   0.152   5.500   6.362
  121SOL    HW2 1263   0.224   5.507   6.215
  122SOL     OW 1264   6.887   4.591   6.026
  122SOL    HW1 1265   6.828   4.654   6.076
  122SOL    HW2 1266   6.848   4.499   6.029
  123SOL     OW 1267   0.352   2.658   1.792
  123SOL    HW1 1268   0.271   2.679   1.847
  123SOL    HW2 1269   0.329   2.589   1.724
  124SOL     OW 1270   1.719   3.561   0.328
  124SOL    HW1 1271   1.713   3.660   0.340
  124SOL    HW2 1272   1.797   3.525   0.380
  125SOL     OW 1273   4.273   2.608   0.894
  125SOL    HW1 1274   4.237   2.517   0.916
  125SOL    HW2 1275   4.369   2.600   0.865
  126SOL     OW 1276   3.609   2.989   4.031
  126SOL    HW1 1277   3.516   2.961   4.056
  126SOL    HW2 1278   3.624   2.971   3.933
  127SOL     OW 1279   0.241   4.508   5.518
  127SOL    HW1 1280   0.258   4.569   5.595
  127SOL    HW2 1281   0.173   4.549   5.457
  128SOL     OW 1282   4.799   3.827   6.153
  128SOL    HW1 1283   4.755   3.821   6.243
  128SOL    HW2 1284   4.756   3.761   6.092
  129SOL     OW 1285   0.383   5.574   2.281
  129SOL    HW1 1286   0.402   5.652   2.341
  129SOL    HW2 1287   0.431   5.493   2.316
  130SOL     OW 1288   6.154   3.531   4.486
  130SOL    HW1 1289   6.074   3.539   4.546
  130SOL    HW2 1290   6.213   3.610   4.499
  131SOL     OW 1291   0.676   3.460   3.342
  131SOL    HW1 1292   0.706   3.373   3.381
  131SOL    HW2 1293   0.751   3.526   3.346
  132SOL     OW 1294   4.517   2.537   0.777
  132SOL    HW1 1295   4.598   2.518   0.833
  132SOL    HW2 1296   4.484   2.451   0.737
  133SOL     OW 1297   4.280   4.876   6.792
  133SOL    HW1 1298   4.192   4.836   6.818
  133SOL    HW2 1299   4.266   4.969   6.759
  134SOL     OW 1300   5.357   2.290   1.023
  134SOL    HW1 1301   5.427   2.257   1.086
  134SOL    HW2 1302   5.367   2.389   1.011
  135SOL     OW 1303   4.748   4.131   3.792
  135SOL    HW1 1304   4.673   4.197   3.795
  135SOL    HW2 1305   4.821   4.167   3.734
  136SOL     OW 1306   3.852   0.484   6.346
  136SOL    HW1 1307   3.876   0.388   6.334
  136SOL    HW2 1308   3.921   0.530   6.401
  137SOL     OW 1309   2.376   3.818   6.098
  137SOL    HW1 1310   2.370   3.904   6.048
  137SOL    HW2 1311   2.466   3.810   6.140
  138SOL     OW 1312   0.911   5.382   6.684
  138SOL    HW1 1313   0.826   5.365   6.634
  138SOL    HW2 1314   0.945   5.295   6.720
  139SOL     OW 1315   0.798   6.906   1.463
  139SOL    HW1 1316   0.717   6.922   1.520
  139SOL    HW2 1317   0.772   6.911   1.366
  140SOL     OW 1318   4.075   0.902   1.563
  140SOL    HW1 1319   4.115   0.840   1.630
  140SOL    HW2 1320   3.992   0.943   1.601
  141SOL     OW 1321   0.383   2.122   0.329
  141SOL    HW1 1322   0.352   2.043   0.277
  141SOL    HW2 1323   0.311   2.192   0.329
  142SOL     OW 1324   2.166   3.943   0.244
  142SOL    HW1 1325   2.197   3.922   0.336
  142SOL    HW2 1326   2.073   3.980   0.247
  143SOL     OW 1327   4.621   6.341   1.925
  143SOL    HW1 1328   4.549   6.300   1.870
  143SOL    HW2 1329   4.674   6.405   1.869
  144SOL     OW 1330   3.314   5.298   2.805
  144SOL    HW1 1331   3.393   5.333   2.855
  144SOL    HW2 1332   3.232   5.308   2.861
  145SOL     OW 1333   6.675   5.562   4.274
  145SOL    HW1 1334   6.611   5.496   4.235
  145SOL    HW2 1335   6.741   5.514   4.332
  146SOL     OW 1336   6.182   0.605   6.373
  146SOL    HW1 1337   6.178   0.671   6.298
  146SOL    HW2 1338   6.173   0.652   6.460
  147SOL     OW 1339   5.985   1.458   5.381
  147SOL    HW1 1340   5.986   1.518   5.461
  147SOL    HW2 1341   6.011   1.511   5.300
  148SOL     OW 1342   2.283   6.631   1.517
  148SOL    HW1 1343   2.371   6.625   1.471
  148SOL    HW2 1344   2.214   6.664   1.453
  149SOL     OW 1345   1.546   3.162   4.356
  149SOL    HW1 1346   1.449   3.139   4.347
  149SOL    HW2 1347   1.570   3.168   4.452
  150SOL     OW 1348   4.221   1.876   5.361
  150SOL    HW1 1349   4.253   1.786   5.392
  150SOL    HW2 1350   4.182   1.926   5.438
  151SOL     OW 1351   5.977   3.242   0.946
  151SOL    HW1 1352   6.023   3.193   1.020
  151SOL    HW2 1353   6.019   3.217   0.858
  152SOL     OW 1354   0.684   2.539   1.498
  152SOL    HW1 1355   0.622   2.481   1.551
  152SOL    HW2 1356   0.646   2.631   1.490
  153SOL     OW 1357   1.964   1.858   3.749
  153SOL    HW1 1358   2.057   1.886   3.775
  153SOL    HW2 1359   1.932   1.915   3.673
  154SOL     OW 1360   6.711   1.419   3.260
  154SOL    HW1 1361   6.712   1.348   3.331
  154SOL    HW2 1362   6.706   1.376   3.170
  155SOL     OW 1363   6.311   4.877   3.753
  155SOL    HW1 1364   6.323   4.943   3.826
  155SOL    HW2 1365   6.246   4.913   3.686
  156SOL     OW 1366   5.027   1.571   0.733
  156SOL    HW1 1367   4.997   1.652   0.784
  156SOL    HW2 1368   5.125   1.576   0.718
  157SOL     OW 1369   4.965   7.002   1.436
  157SOL    HW1 1370   5.038   6.940   1.407
  157SOL    HW2 1371   4.924   0.021   1.356
  158SOL     OW 1372   0.448   2.783   4.453
  158SOL    HW1 1373   0.481   2.693   4.426
  158SOL    HW2 1374   0.392   2.774   4.536
  159SOL     OW 1375   5.936   5.322   0.253
  159SOL    HW1 1376   5.942   5.392   0.324
  159SOL    HW2 1377   6.021   5.321   0.201
  160SOL     OW 1378   5.245   0.777   0.980
  160SOL    HW1 1379   5.299   0.837   0.921
  160SOL    HW2 1380   5.151   0.811   0.985
  161SOL     OW 1381   6.732   6.263   0.534
  161SOL    HW1 1382   6.729   6.200   0.456
  161SOL    HW2 1383   6.790   6.225   0.606
  162SOL     OW 1384   4.475   0.062   5.696
  162SOL    HW1 1385   4.436   0.119   5.769
  162SOL    HW2 1386   4.473   0.113   5.610
  163SOL     OW 1387   0.587   2.955   2.719
  163SOL    HW1 1388   0.519   3.019   2.754
  163SOL    HW2 1389   0.558   2.861   2.741
  164SOL     OW 1390   2.337   2.370   3.347
  164SOL    HW1 1391   2.294   2.292   3.303
  164SOL    HW2 1392   2.415   2.340   3.403
  165SOL     OW 1393   0.066   6.820   3.655
  165SOL    HW1 1394   0.084   6.882   3.731
  165SOL    HW2 1395   0.043   6.730   3.690
  166SOL     OW 1396   0.002   4.759   4.350
  166SOL    HW1 1397   7.002   4.688   4.284
  166SOL    HW2 1398   7.015   4.724   4.443
  167SOL     OW 1399   1.860   1.151   4.918
  167SOL    HW1 1400   1.857   1.052   4.927
  167SOL    HW2 1401   1.772   1.184   4.885
  168SOL     OW 1402   3.725   3.771   2.263
  168SOL    HW1 1403   3.715   3.694   2.200
  168SOL    HW2 1404   3.763   3.849   2.213
  169SOL     OW 1405   5.508   2.585   0.510
  169SOL    HW1 1406   5.438   2.521   0.478
  169SOL    HW2 1407   5.503   2.669   0.457
  170SOL     OW 1408   6.243   5.328   1.432
  170SOL    HW1 1409   6.296   5.374   1.360
  170SOL    HW2 1410   6.290   5.337   1.519
  171SOL     OW 1411   3.064   3.222   1.428
  171SOL    HW1 1412   3.122   3.302   1.415
  171SOL    HW2 1413   3.121   3.140   1.431
  172SOL     OW 1414   1.662   0.772   6.208
  172SOL    HW1 1415   1.703   0.853   6.164
  172SOL    HW2 1416   1.717   0.746   6.287
  173SOL     OW 1417   5.542   1.485   4.606
  173SOL    HW1 1418   5.617   1.420   4.616
  173SOL    HW2 1419   5.467   1.441   4.556
  174SOL     OW 1420   5.478   4.388   4.330
  174SOL    HW1 1421   5.437   4.329   4.261
  174SOL    HW2 1422   5.474   4.483   4.300
  175SOL     OW 1423   0.694   6.473   2.512
  175SOL    HW1 1424   0.709   6.554   2.455
  175SOL    HW2 1425   0.777   6.417   2.512
  176SOL     OW 1426   6.711   3.638   1.950
  176SOL    HW1 1427   6.643   3.567   1.969
  176SOL    HW2 1428   6.685   3.722   1.998
  177SOL     OW 1429   6.360   2.010   3.500
  177SOL    HW1 1430   6.313   1.969   3.579
  177SOL    HW2 1431   6.376   1.939   3.431
  178SOL     OW 1432   2.129   5.595   4.098
  178SOL    HW1 1433   2.197   5.525   4.116
  178SOL    HW2 1434   2.088   5.579   4.009
  179SOL     OW 1435   2.963   4.519   1.069
  179SOL    HW1 1436   2.921   4.496   1.156
  179SOL    HW2 1437   2.899   4.574   1.015
  180SOL     OW 1438   5.007   1.425   6.351
  180SOL    HW1 1439   5.106   1.410   6.343
  180SOL    HW2 1440   4.974   1.380   6.434
  181SOL     OW 1441   3.246   1.230   5.980
  181SOL    HW1 1442   3.276   1.318   5.943
  181SOL    HW2 1443   3.302   1.157   5.942
  182SOL     OW 1444   2.936   3.056   5.312
  182SOL    HW1 1445   2.867   3.113   5.266
  182SOL    HW2 1446   2.890   2.989   5.370
  183SOL     OW 1447   2.926   0.556   3.155
  183SOL    HW1 1448   2.997   0.582   3.220
  183SOL    HW2 1449   2.968   0.529   3.068
  184SOL     OW 1450   5.518   5.883   3.427
  184SOL    HW1 1451   5.572   5.933   3.495
  184SOL    HW2 1452   5.514   5.937   3.342
  185SOL     OW 1453   0.596   6.810   5.203
  185SOL    HW1 1454   0.640   6.876   5.142
  185SOL    HW2 1455   0.503   6.791   5.171
  186SOL     OW 1456   3.158   6.369   4.717
  186SOL    HW1 1457   3.250   6.350   4.750
  186SOL    HW2 1458   3.163   6.418   4.630
  187SOL     OW 1459   4.210   5.621   0.903
  187SOL    HW1 1460   4.146   5.564   0.851
  187SOL    HW2 1461   4.240   5.570   0.984
  188SOL     OW 1462   1.263   3.459   3.369
  188SOL    HW1 1463   1.178   3.476   3.319
  188SOL    HW2 1464   1.318   3.543   3.371
  189SOL     OW 1465   5.420   4.969   5.051
  189SOL    HW1 1466   5.505   4.949   5.099
  189SOL    HW2 1467   5.353   4.897   5.072
  190SOL     OW 1468   6.506   6.727   0.524
  190SOL    HW1 1469   6.456   6.781   0.592
  190SOL    HW2 1470   6.456   6.642   0.506
  191SOL     OW 1471   2.090   1.935   5.135
  191SOL    HW1 1472   2.038   1.931   5.049
  191SOL    HW2 1473   2.035   1.895   5.208
  192SOL     OW 1474   0.300   5.655   1.368
  192SOL    HW1 1475   0.330   5.560   1.379
  192SOL    HW2 1476   0.325   5.708   1.449
  193SOL     OW 1477   2.518   0.286   1.777
  193SOL    HW1 1478   2.512   0.384   1.759
  193SOL    HW2 1479   2.598   0.267   1.833
  194SOL     OW 1480   3.747   5.958   2.841
  194SOL    HW1 1481   3.658   6.002   2.851
  194SOL    HW2 1482   3.769   5.949   2.744
  195SOL     OW 1483   3.581   6.954   0.873
  195SOL    HW1 1484   3.566   6.855   0.868
  195SOL    HW2 1485   3.546   6.997   0.789
  196SOL     OW 1486   4.026   2.708   0.797
  196SOL    HW1 1487   4.112   2.695   0.845
  196SOL    HW2 1488   3.950   2.698   0.861
  197SOL     OW 1489   2.024   5.707   0.002
  197SOL    HW1 1490   2.030   5.721   0.101
  197SOL    HW2 1491   2.049   5.612   7.005
  198SOL     OW 1492   4.118   6.996   6.629
  198SOL    HW1 1493   4.162   0.051   6.672
  198SOL    HW2 1494   4.189   6.936   6.590
  199SOL     OW 1495   1.023   0.789   3.316
  199SOL    HW1 1496   1.113   0.830   3.298
  199SOL    HW2 1497   1.005   0.718   3.249
  200SOL     OW 1498   1.248   3.866   3.628
  200SOL    HW1 1499   1.178   3.893   3.562
  200SOL    HW2 1500   1.227   3.907   3.717
  201SOL     OW 1501   4.828   1.638   6.387
  201SOL    HW1 1502   4.751   1.581   6.415
  201SOL    HW2 1503   4.907   1.580   6.366
  202SOL     OW 1504   3.493   1.207   2.642
  202SOL    HW1 1505   3.550   1.282   2.676
  202SOL    HW2 1506   3.552   1.139   2.598
  203SOL     OW 1507   5.912   2.900   0.188
  203SOL    HW1 1508   5.977   2.962   0.231
  203SOL    HW2 1509   5.913   2.913   0.089
  204SOL     OW 1510   2.326   0.049   1.117
  204SOL    HW1 1511   2.425   0.033   1.113
  204SOL    HW2 1512   2.304   0.135   1.072
  205SOL     OW 1513   6.235   0.499   1.532
  205SOL    HW1 1514   6.184   0.564   1.476
  205SOL    HW2 1515   6.172   0.429   1.568
  206SOL     OW 1516   0.047   5.935   1.552
  206SOL    HW1 1517   0.026   5.953   1.455
  206SOL    HW2 1518   0.129   5.986   1.578
  207SOL     OW 1519   5.106   1.754   5.562
  207SOL    HW1 1520   5.192   1.791   5.526
  207SOL    HW2 1521   5.037   1.750   5.490
  208SOL     OW 1522   3.814   4.324   6.348
  208SOL    HW1 1523   3.721   4.296   6.323
  208SOL    HW2 1524   3.867   4.243   6.374
  209SOL     OW 1525   6.804   5.710   4.559
  209SOL    HW1 1526   6.894   5.750   4.577
  209SOL    HW2 1527   6.816   5.615   4.528
  210SOL     OW 1528   4.225   2.122   0.866
  210SOL    HW1 1529   4.229   2.074   0.954
  210SOL    HW2 1530   4.165   2.073   0.803
  211SOL     OW 1531   0.728   3.029   2.026
  211SOL    HW1 1532   0.825   3.055   2.029
  211SOL    HW2 1533   0.720   2.929   2.022
  212SOL     OW 1534   6.856   5.440   4.462
  212SOL    HW1 1535   6.819   5.421   4.553
  212SOL    HW2 1536   6.937   5.383   4.447
  213SOL     OW 1537   3.816   2.294   6.116
  213SOL    HW1 1538   3.869   2.239   6.051
  213SOL    HW2 1539   3.813   2.247   6.204
  214SOL     OW 1540   1.508   6.820   3.239
  214SOL    HW1 1541   1.591   6.767   3.222
  214SOL    HW2 1542   1.450   6.771   3.304
  215SOL     OW 1543   4.008   3.894   2.852
  215SOL    HW1 1544   3.918   3.938   2.851
  215SOL    HW2 1545   4.046   3.899   2.944
  216SOL     OW 1546   1.974   6.831   5.676
  216SOL    HW1 1547   2.029   6.822   5.593
  216SOL    HW2 1548   2.033   6.859   5.752
  217SOL     OW 1549   6.761   2.658   4.347
  217SOL    HW1 1550   6.668   2.676   4.315
  217SOL    HW2 1551   6.771   2.561   4.366
  218SOL     OW 1552   1.954   3.790   5.562
  218SOL    HW1 1553   1.925   3.794   5.658
  218SOL    HW2 1554   2.001   3.875   5.538
  219SOL     OW 1555   3.286   5.142   0.470
  219SOL    HW1 1556   3.201   5.194   0.482
  219SOL    HW2 1557   3.264   5.047   0.447
  220SOL     OW 1558   1.078   4.509   0.882
  220SOL    HW1 1559   1.032   4.426   0.851
  220SOL    HW2 1560   1.149   4.534   0.817
  221SOL     OW 1561   6.317   2.877   4.299
  221SOL    HW1 1562   6.264   2.854   4.217
  221SOL    HW2 1563   6.256   2.883   4.377
  222SOL     OW 1564   1.188   6.319   4.353
  222SOL    HW1 1565   1.269   6.289   4.303
  222SOL    HW2 1566   1.212   6.393   4.416
  223SOL     OW 1567   6.280   4.538   2.595
  223SOL    HW1 1568   6.365   4.487   2.582
  223SOL    HW2 1569   6.281   4.582   2.684
  224SOL     OW 1570   3.806   2.088   2.256
  224SOL    HW1 1571   3.781   2.134   2.171
  224SOL    HW2 1572   3.725   2.080   2.315
  225SOL     OW 1573   6.378   7.013   1.356
  225SOL    HW1 1574   6.420   0.071   1.393
  225SOL    HW2 1575   6.355   0.004   1.260
  226SOL     OW 1576   6.647   5.846   1.568
  226SOL    HW1 1577   6.715   5.867   1.498
  226SOL    HW2 1578   6.567   5.802   1.525
  227SOL     OW 1579   0.994   3.190   2.961
  227SOL    HW1 1580   0.957   3.189   2.868
  227SOL    HW2 1581   0.934   3.138   3.021
  228SOL     OW 1582   3.620   6.268   2.632
  228SOL    HW1 1583   3.566   6.204   2.686
  228SOL    HW2 1584   3.597   6.362   2.657
  229SOL     OW 1585   6.241   5.546   3.557
  229SOL    HW1 1586   6.214   5.469   3.613
  229SOL    HW2 1587   6.194   5.629   3.588
  230SOL     OW 1588   1.144   3.772   5.953
  230SOL    HW1 1589   1.204   3.797   5.877
  230SOL    HW2 1590   1.080   3.848   5.970
  231SOL     OW 1591   1.008   2.031   6.736
  231SOL    HW1 1592   0.954   2.101   6.783
  231SOL    HW2 1593   0.980   1.940   6.768
  232SOL     OW 1594   1.407   4.277   6.751
  232SOL    HW1 1595   1.378   4.216   6.677
  232SOL    HW2 1596   1.487   4.330   6.722
  233SOL     OW 1597   3.127   0.369   6.214
  233SOL    HW1 1598   3.209   0.424   6.226
  233SOL    HW2 1599   3.048   0.430   6.199
  234SOL     OW 1600   2.507   5.745   5.704
  234SOL    HW1 1601   2.562   5.774   5.625
  234SOL    HW2 1602   2.429   5.806   5.714
  235SOL     OW 1603   3.552   3.371   5.272
  235SOL    HW1 1604   3.491   3.301   5.235
  235SOL    HW2 1605   3.518   3.462   5.247
  236SOL     OW 1606   0.190   2.582   6.242
  236SOL    HW1 1607   0.217   2.495   6.283
  236SOL    HW2 1608   0.090   2.591   6.247
  237SOL     OW 1609   6.372   6.423   1.792
  237SOL    HW1 1610   6.366   6.522   1.808
  237SOL    HW2 1611   6.283   6.381   1.811
  238SOL     OW 1612   6.579   1.702   2.301
  238SOL    HW1 1613   6.559   1.770   2.371
  238SOL    HW2 1614   6.630   1.626   2.341
  239SOL     OW 1615   0.332   5.428   1.050
  239SOL    HW1 1616   0.413   5.390   1.095
  239SOL    HW2 1617   0.256   5.363   1.057
  240SOL     OW 1618   6.875   2.810   5.241
  240SOL    HW1 1619   6.800   2.848   5.295
  240SOL    HW2 1620   6.955   2.798   5.301
  241SOL     OW 1621   5.924   1.875   4.351
  241SOL    HW1 1622   5.829   1.851   4.372
  241SOL    HW2 1623   5.960   1.811   4.282
  242SOL     OW 1624   2.619   2.502   3.811
  242SOL    HW1 1625   2.522   2.509   3.835
  242SOL    HW2 1626   2.647   2.583   3.760
  243SOL     OW 1627   4.619   1.491   6.411
  243SOL    HW1 1628   4.635   1.472   6.508
  243SOL    HW2 1629   4.522   1.513   6.398
  244SOL     OW 1630   0.124   0.683   5.612
  244SOL    HW1 1631   0.108   0.741   5.532
  244SOL    HW2 1632   0.066   0.602   5.607
  245SOL     OW 1633   4.906   2.459   3.888
  245SOL    HW1 1634   4.856   2.521   3.950
  245SOL    HW2 1635   4.843   2.423   3.820
  246SOL     OW 1636   5.136   3.199   3.337
  246SOL    HW1 1637   5.176   3.288   3.361
  246SOL    HW2 1638   5.144   3.185   3.238
  247SOL     OW 1639   2.873   0.711   3.417
  247SOL    HW1 1640   2.788   0.681   3.375
  247SOL    HW2 1641   2.925   0.767   3.353
  248SOL     OW 1642   6.703   1.350   1.886
  248SOL    HW1 1643   6.673   1.269   1.836
  248SOL    HW2 1644   6.790   1.331   1.930
  249SOL     OW 1645   1.802   6.090   5.252
  249SOL    HW1 1646   1.802   5.992   5.237
  249SOL    HW2 1647   1.829   6.137   5.168
  250SOL     OW 1648   4.760   2.781   6.661
  250SOL    HW1 1649   4.749   2.682   6.658
  250SOL    HW2 1650   4.843   2.804   6.712
  251SOL     OW 1651   2.040   2.138   0.214
  251SOL    HW1 1652   2.009   2.118   0.307
  251SOL    HW2 1653   2.110   2.209   0.216
  252SOL     OW 1654   0.866   1.615   0.560
  252SOL    HW1 1655   0.827   1.706   0.541
  252SOL    HW2 1656   0.887   1.607   0.657
  253SOL     OW 1657   2.058   4.154   5.877
  253SOL    HW1 1658   2.001   4.217   5.825
  253SOL    HW2 1659   2.060   4.182   5.973
  254SOL     OW 1660   4.844   3.462   6.430
  254SOL    HW1 1661   4.922   3.405   6.404
  254SOL    HW2 1662   4.876   3.544   6.478
  255SOL     OW 1663   3.568   2.046   2.430
  255SOL    HW1 1664   3.488   2.075   2.377
  255SOL    HW2 1665   3.553   1.953   2.465
  256SOL     OW 1666   6.301   5.788   2.137
  256SOL    HW1 1667   6.349   5.737   2.065
  256SOL    HW2 1668   6.203   5.768   2.131
  257SOL     OW 1669   2.611   5.805   7.012
  257SOL    HW1 1670   2.627   5.726   6.953
  257SOL    HW2 1671   2.602   5.887   6.955
  258SOL     OW 1672   4.861   4.444   4.595
  258SOL    HW1 1673   4.923   4.404   4.528
  258SOL    HW2 1674   4.839   4.538   4.568
  259SOL     OW 1675   1.080   2.344   3.014
  259SOL    HW1 1676   1.166   2.324   2.965
  259SOL    HW2 1677   1.098   2.410   3.087
  260SOL     OW 1678   0.058   6.668   5.687
  260SOL    HW1 1679   0.012   6.661   5.599
  260SOL    HW2 1680   7.016   6.690   5.758
  261SOL     OW 1681   0.478   1.175   3.391
  261SOL    HW1 1682   0.492   1.161   3.489
  261SOL    HW2 1683   0.551   1.232   3.354
  262SOL     OW 1684   1.640   5.061   2.811
  262SOL    HW1 1685   1.611   5.114   2.890
  262SOL    HW2 1686   1.594   5.096   2.729
  263SOL     OW 1687   0.398   3.435   4.953
  263SOL    HW1 1688   0.464   3.506   4.929
  263SOL    HW2 1689   0.334   3.470   5.021
  264SOL     OW 1690   3.617   4.407   6.641
  264SOL    HW1 1691   3.587   4.320   6.601
  264SOL    HW2 1692   3.537   4.463   6.662
  265SOL     OW 1693   4.959   5.437   4.256
  265SOL    HW1 1694   4.877   5.399   4.212
  265SOL    HW2 1695   5.006   5.365   4.307
  266SOL     OW 1696   4.122   2.773   6.690
  266SOL    HW1 1697   4.216   2.760   6.723
  266SOL    HW2 1698   4.124   2.806   6.595
  267SOL     OW 1699   2.344   1.524   5.865
  267SOL    HW1 1700   2.375   1.602   5.920
  267SOL    HW2 1701   2.337   1.443   5.923
  268SOL     OW 1702   2.718   4.710   3.829
  268SOL    HW1 1703   2.672   4.664   3.905
  268SOL    HW2 1704   2.656   4.718   3.752
  269SOL     OW 1705   1.921   1.287   5.154
  269SOL    HW1 1706   1.914   1.246   5.063
  269SOL    HW2 1707   1.840   1.263   5.208
  270SOL     OW 1708   4.911   6.463   4.852
  270SOL    HW1 1709   4.915   6.414   4.765
  270SOL    HW2 1710   4.816   6.477   4.879
  271SOL     OW 1711   1.495   1.607   0.429
  271SOL    HW1 1712   1.531   1.659   0.351
  271SOL    HW2 1713   1.561   1.536   0.455
  272SOL     OW 1714   4.431   6.185   0.913
  272SOL    HW1 1715   4.477   6.124   0.978
  272SOL    HW2 1716   4.468   6.277   0.923
  273SOL     OW 1717   2.273   6.487   4.226
  273SOL    HW1 1718   2.364   6.449   4.208
  273SOL    HW2 1719   2.207   6.412   4.237
  274SOL     OW 1720   5.497   1.940   1.268
  274SOL    HW1 1721   5.408   1.930   1.314
  274SOL    HW2 1722   5.569   1.947   1.337
  275SOL     OW 1723   5.660   5.799   5.843
  275SOL    HW1 1724   5.610   5.849   5.914
  275SOL    HW2 1725   5.698   5.715   5.883
  276SOL     OW 1726   7.015   6.608   4.666
  276SOL    HW1 1727   0.014   6.533   4.728
  276SOL    HW2 1728   0.073   6.638   4.617
  277SOL     OW 1729   4.499   2.750   5.699
  277SOL    HW1 1730   4.428   2.682   5.679
  277SOL    HW2 1731   4.580   2.729   5.645
  278SOL     OW 1732   5.704   4.097   3.056
  278SOL    HW1 1733   5.728   4.015   3.005
  278SOL    HW2 1734   5.788   4.148   3.080
  279SOL     OW 1735   6.788   3.494   3.627
  279SOL    HW1 1736   6.735   3.414   3.651
  279SOL    HW2 1737   6.872   3.496   3.681
  280SOL     OW 1738   4.477   1.313   3.528
  280SOL    HW1 1739   4.433   1.396   3.562
  280SOL    HW2 1740   4.495   1.251   3.605
  281SOL     OW 1741   5.329   6.101   5.100
  281SOL    HW1 1742   5.325   6.058   5.190
  281SOL    HW2 1743   5.414   6.074   5.054
  282SOL     OW 1744   1.037   3.015   0.201
  282SOL    HW1 1745   1.101   2.977   0.268
  282SOL    HW2 1746   1.081   3.019   0.111
  283SOL     OW 1747   6.123   4.119   4.161
  283SOL    HW1 1748   6.143   4.166   4.075
  283SOL    HW2 1749   6.130   4.184   4.237
  284SOL     OW 1750   4.983   6.103   2.471
  284SOL    HW1 1751   4.934   6.119   2.385
  284SOL    HW2 1752   4.991   6.189   2.521
  285SOL     OW 1753   4.061   6.690   5.715
  285SOL    HW1 1754   4.053   6.785   5.746
  285SOL    HW2 1755   3.974   6.660   5.678
  286SOL     OW 1756   2.710   4.986   5.237
  286SOL    HW1 1757   2.743   4.896   5.264
  286SOL    HW2 1758   2.672   4.982   5.145
  287SOL     OW 1759   4.024   6.138   6.641
  287SOL    HW1 1760   4.000   6.041   6.652
  287SOL    HW2 1761   4.046   6.177   6.730
  288SOL     OW 1762   4.882   1.740   0.135
  288SOL    HW1 1763   4.809   1.682   0.100
  288SOL    HW2 1764   4.916   1.704   0.222
  289SOL     OW 1765   5.873   4.572   4.487
  289SOL    HW1 1766   5.818   4.632   4.545
  289SOL    HW2 1767   5.820   4.491   4.462
  290SOL     OW 1768   3.799   0.607   5.660
  290SOL    HW1 1769   3.714   0.556   5.649
  290SOL    HW2 1770   3.845   0.615   5.571
  291SOL     OW 1771   4.328   0.599   5.480
  291SOL    HW1 1772   4.416   0.642   5.500
  291SOL    HW2 1773   4.258   0.636   5.541
  292SOL     OW 1774   3.268   0.293   3.711
  292SOL    HW1 1775   3.246   0.382   3.673
  292SOL    HW2 1776   3.343   0.302   3.776
  293SOL     OW 1777   5.381   6.626   2.697
  293SOL    HW1 1778   5.383   6.649   2.794
  293SOL    HW2 1779   5.377   6.710   2.643
  294SOL     OW 1780   6.546   1.286   6.802
  294SOL    HW1 1781   6.552   1.256   6.707
  294SOL    HW2 1782   6.619   1.351   6.822
  295SOL     OW 1783   0.776   1.129   4.902
  295SOL    HW1 1784   0.765   1.116   4.803
  295SOL    HW2 1785   0.855   1.189   4.919
  296SOL     OW 1786   0.834   2.249   2.111
  296SOL    HW1 1787   0.851   2.231   2.208
  296SOL    HW2 1788   0.821   2.348   2.097
  297SOL     OW 1789   5.504   3.173   3.351
  297SOL    HW1 1790   5.551   3.162   3.263
  297SOL    HW2 1791   5.501   3.085   3.398
  298SOL     OW 1792   4.428   1.008   5.338
  298SOL    HW1 1793   4.444   1.094   5.291
  298SOL    HW2 1794   4.330   0.993   5.348
  299SOL     OW 1795   0.548   1.261   6.713
  299SOL    HW1 1796   0.568   1.350   6.673
  299SOL    HW2 1797   0.541   1.270   6.812
  300SOL     OW 1798   4.958   6.845   3.602
  300SOL    HW1 1799   4.934   6.875   3.510
  300SOL    HW2 1800   5.048   6.881   3.627
  301SOL     OW 1801   6.931   5.233   5.942
  301SOL    HW1 1802   6.908   5.313   5.997
  301SOL    HW2 1803   7.014   5.252   5.889
  302SOL     OW 1804   0.524   6.658   2.640
  302SOL    HW1 1805   0.586   6.580   2.643
  302SOL    HW2 1806   0.474   6.664   2.726
  303SOL     OW 1807   5.848   6.106   3.128
  303SOL    HW1 1808   5.816   6.041   3.058
  303SOL    HW2 1809   5.821   6.198   3.101
  304SOL     OW 1810   2.289   6.468   4.763
  304SOL    HW1 1811   2.263   6.534   4.693
  304SOL    HW2 1812   2.226   6.390   4.758
  305SOL     OW 1813   0.547   2.336   1.607
  305SOL    HW1 1814   0.486   2.342   1.528
  305SOL    HW2 1815   0.493   2.344   1.691
  306SOL     OW 1816   0.607   6.573   3.075
  306SOL    HW1 1817   0.592   6.533   2.985
  306SOL    HW2 1818   0.701   6.608   3.081
  307SOL     OW 1819   3.483   3.807   3.663
  307SOL    HW1 1820   3.556   3.786   3.728
  307SOL    HW2 1821   3.458   3.904   3.671
  308SOL     OW 1822   6.309   1.601   2.296
  308SOL    HW1 1823   6.330   1.530   2.362
  308SOL    HW2 1824   6.393   1.647   2.268
  309SOL     OW 1825   1.900   5.627   0.292
  309SOL    HW1 1826   1.939   5.665   0.377
  309SOL    HW2 1827   1.803   5.650   0.287
  310SOL     OW 1828   5.541   6.451   4.895
  310SOL    HW1 1829   5.528   6.486   4.802
  310SOL    HW2 1830   5.509   6.519   4.961
  311SOL     OW 1831   1.669   5.931   1.398
  311SOL    HW1 1832   1.706   5.838   1.408
  311SOL    HW2 1833   1.730   5.996   1.442
  312SOL     OW 1834   3.009   0.404   4.116
  312SOL    HW1 1835   3.060   0.490   4.110
  312SOL    HW2 1836   3.005   0.361   4.026
  313SOL     OW 1837   3.169   3.033   2.610
  313SOL    HW1 1838   3.188   2.942   2.573
  313SOL    HW2 1839   3.158   3.027   2.709
  314SOL     OW 1840   2.737   5.443   6.103
  314SOL    HW1 1841   2.693   5.525   6.068
  314SOL    HW2 1842   2.758   5.381   6.027
  315SOL     OW 1843   5.475   0.632   4.798
  315SOL    HW1 1844   5.424   0.633   4.884
  315SOL    HW2 1845   5.442   0.704   4.738
  316SOL     OW 1846   4.056   0.717   6.221
  316SOL    HW1 1847   4.022   0.693   6.312
  316SOL    HW2 1848   3.989   0.774   6.174
  317SOL     OW 1849   0.417   2.429   1.361
  317SOL    HW1 1850   0.411   2.413   1.263
  317SOL    HW2 1851   0.401   2.525   1.381
  318SOL     OW 1852   0.980   0.470   4.933
  318SOL    HW1 1853   1.045   0.545   4.929
  318SOL    HW2 1854   0.927   0.466   4.848
  319SOL     OW 1855   0.178   0.536   3.884
  319SOL    HW1 1856   0.082   0.515   3.901
  319SOL    HW2 1857   0.185   0.622   3.833
  320SOL     OW 1858   5.631   2.094   6.723
  320SOL    HW1 1859   5.585   2.007   6.708
  320SOL    HW2 1860   5.704   2.082   6.790
  321SOL     OW 1861   4.435   3.016   1.019
  321SOL    HW1 1862   4.372   2.939   1.021
  321SOL    HW2 1863   4.461   3.036   0.924
  322SOL     OW 1864   3.359   2.962   6.804
  322SOL    HW1 1865   3.421   2.885   6.816
  322SOL    HW2 1866   3.404   3.033   6.750
  323SOL     OW 1867   1.520   3.821   2.328
  323SOL    HW1 1868   1.482   3.762   2.399
  323SOL    HW2 1869   1.603   3.779   2.291
  324SOL     OW 1870   0.723   0.190   3.133
  324SOL    HW1 1871   0.797   0.189   3.200
  324SOL    HW2 1872   0.743   0.124   3.060
  325SOL     OW 1873   6.836   3.857   0.809
  325SOL    HW1 1874   6.757   3.824   0.861
  325SOL    HW2 1875   6.862   3.789   0.740
  326SOL     OW 1876   0.708   6.070   0.230
  326SOL    HW1 1877   0.686   5.990   0.174
  326SOL    HW2 1878   0.672   6.153   0.185
  327SOL     OW 1879   4.107   5.893   5.960
  327SOL    HW1 1880   4.025   5.892   5.903
  327SOL    HW2 1881   4.142   5.800   5.970
  328SOL     OW 1882   1.539   4.796   3.093
  328SOL    HW1 1883   1.554   4.855   3.172
  328SOL    HW2 1884   1.576   4.705   3.111
  329SOL     OW 1885   3.235   3.460   1.743
  329SOL    HW1 1886   3.189   3.457   1.832
  329SOL    HW2 1887   3.302   3.386   1.738
  330SOL     OW 1888   3.054   3.590   0.176
  330SOL    HW1 1889   3.137   3.592   0.122
  330SOL    HW2 1890   3.008   3.502   0.164
  331SOL     OW 1891   5.538   5.738   5.087
  331SOL    HW1 1892   5.485   5.751   5.171
  331SOL    HW2 1893   5.621   5.687   5.108
  332SOL     OW 1894   5.428   2.038   2.721
  332SOL    HW1 1895   5.358   1.990   2.667
  332SOL    HW2 1896   5.410   2.136   2.718
  333SOL     OW 1897   3.248   6.888   4.440
  333SOL    HW1 1898   3.297   6.960   4.490
  333SOL    HW2 1899   3.159   6.924   4.410
  334SOL     OW 1900   3.561   4.160   3.451
  334SOL    HW1 1901   3.620   4.174   3.530
  334SOL    HW2 1902   3.480   4.108   3.478
  335SOL     OW 1903   3.935   1.461   1.186
  335SOL    HW1 1904   3.875   1.540   1.177
  335SOL    HW2 1905   3.955   1.445   1.282
  336SOL     OW 1906   3.896   1.706   4.446
  336SOL    HW1 1907   3.921   1.610   4.435
  336SOL    HW2 1908   3.797   1.714   4.458
  337SOL     OW 1909   0.206   1.094   4.987
  337SOL    HW1 1910   0.190   1.088   5.086
  337SOL    HW2 1911   0.184   1.006   4.945
  338SOL     OW 1912   4.284   1.502   1.460
  338SOL    HW1 1913   4.187   1.515   1.438
  338SOL    HW2 1914   4.297   1.412   1.502
  339SOL     OW 1915   4.439   5.192   5.669
  339SOL    HW1 1916   4.351   5.192   5.620
  339SOL    HW2 1917   4.451   5.104   5.716
  340SOL     OW 1918   6.316   2.510   4.259
  340SOL    HW1 1919   6.252   2.548   4.193
  340SOL    HW2 1920   6.327   2.412   4.243
  341SOL     OW 1921   0.230   6.880   3.205
  341SOL    HW1 1922   0.202   6.815   3.134
  341SOL    HW2 1923   0.204   6.973   3.177
  342SOL     OW 1924   5.040   1.956   2.301
  342SOL    HW1 1925   4.956   2.002   2.271
  342SOL    HW2 1926   5.020   1.861   2.323
  343SOL     OW 1927   6.368   6.867   1.621
  343SOL    HW1 1928   6.467   6.864   1.608
  343SOL    HW2 1929   6.328   6.933   1.557
  344SOL     OW 1930   0.026   2.340   1.010
  344SOL    HW1 1931   0.077   2.399   0.946
  344SOL    HW2 1932   7.005   2.397   1.078
  345SOL     OW 1933   6.559   2.460   4.515
  345SOL    HW1 1934   6.492   2.388   4.533
  345SOL    HW2 1935   6.563   2.522   4.593
  346SOL     OW 1936   2.565   6.398   3.264
  346SOL    HW1 1937   2.537   6.464   3.334
  346SOL    HW2 1938   2.511   6.412   3.181
  347SOL     OW 1939   1.943   4.365   0.405
  347SOL    HW1 1940   1.963   4.427   0.481
  347SOL    HW2 1941   1.847   4.376   0.377
  348SOL     OW 1942   3.779   5.543   1.833
  348SOL    HW1 1943   3.814   5.538   1.740
  348SOL    HW2 1944   3.814   5.464   1.885
  349SOL     OW 1945   5.544   4.059   0.653
  349SOL    HW1 1946   5.460   4.103   0.686
  349SOL    HW2 1947   5.524   4.010   0.568
  350SOL     OW 1948   3.296   1.937   6.909
  350SOL    HW1 1949   3.198   1.945   6.892
  350SOL    HW2 1950   3.343   2.015   6.867
  351SOL     OW 1951   3.374   4.361   0.610
  351SOL    HW1 1952   3.287   4.311   0.599
  351SOL    HW2 1953   3.446   4.312   0.561
  352SOL     OW 1954   4.222   0.322   2.617
  352SOL    HW1 1955   4.227   0.284   2.709
  352SOL    HW2 1956   4.127   0.326   2.588
  353SOL     OW 1957   1.731   0.639   0.761
  353SOL    HW1 1958   1.773   0.555   0.795
  353SOL    HW2 1959   1.666   0.617   0.689
  354SOL     OW 1960   0.820   2.645   0.162
  354SOL    HW1 1961   0.826   2.651   0.062
  354SOL    HW2 1962   0.902   2.599   0.197
  355SOL     OW 1963   1.237   2.572   2.909
  355SOL    HW1 1964   1.207   2.662   2.878
  355SOL    HW2 1965   1.230   2.567   3.008
  356SOL     OW 1966   2.674   0.201   5.166
  356SOL    HW1 1967   2.753   0.171   5.112
  356SOL    HW2 1968   2.706   0.243   5.251
  357SOL     OW 1969   6.010   0.095   4.725
  357SOL    HW1 1970   5.994   0.143   4.639
  357SOL    HW2 1971   6.093   0.040   4.718
  358SOL     OW 1972   3.434   6.233   6.104
  358SOL    HW1 1973   3.450   6.259   6.009
  358SOL    HW2 1974   3.381   6.148   6.107
  359SOL     OW 1975   1.388   2.012   2.442
  359SOL    HW1 1976   1.320   2.082   2.421
  359SOL    HW2 1977   1.377   1.934   2.380
  360SOL     OW 1978   1.817   4.614   4.319
  360SOL    HW1 1979   1.860   4.525   4.333
  360SOL    HW2 1980   1.817   4.666   4.404
  361SOL     OW 1981   6.665   1.281   2.335
  361SOL    HW1 1982   6.655   1.306   2.239
  361SOL    HW2 1983   6.690   1.362   2.388
  362SOL     OW 1984   3.441   3.570   1.457
  362SOL    HW1 1985   3.451   3.660   1.415
  362SOL    HW2 1986   3.492   3.568   1.544
  363SOL     OW 1987   4.990   5.572   1.906
  363SOL    HW1 1988   4.967   5.630   1.984
  363SOL    HW2 1989   5.073   5.607   1.861
  364SOL     OW 1990   0.992   6.659   0.103
  364SOL    HW1 1991   0.980   6.592   0.177
  364SOL    HW2 1992   1.082   6.701   0.111
  365SOL     OW 1993   5.339   1.523   3.663
  365SOL    HW1 1994   5.336   1.569   3.752
  365SOL    HW2 1995   5.421   1.551   3.613
  366SOL     OW 1996   5.677   1.642   6.709
  366SOL    HW1 1997   5.577   1.649   6.710
  366SOL    HW2 1998   5.713   1.680   6.795
  367SOL     OW 1999   6.035   1.313   0.022
  367SOL    HW1 2000   6.022   1.223   7.006
  367SOL    HW2 2001   5.970   1.326   0.097
  368SOL     OW 2002   0.787   1.975   5.890
  368SOL    HW1 2003   0.781   1.888   5.841
  368SOL    HW2 2004   0.698   1.997   5.928
  369SOL     OW 2005   6.205   3.697   1.119
  369SOL    HW1 2006   6.155   3.621   1.078
  369SOL    HW2 2007   6.302   3.687   1.100
  370SOL     OW 2008   1.820   2.547   3.615
  370SOL    HW1 2009   1.722   2.531   3.625
  370SOL    HW2 2010   1.858   2.479   3.552
  371SOL     OW 2011   0.885   4.754   0.024
  371SOL    HW1 2012   0.932   4.747   0.112
  371SOL    HW2 2013   0.807   4.816   0.033
  372SOL     OW 2014   2.877   6.241   6.036
  372SOL    HW1 2015   2.820   6.238   5.954
  372SOL    HW2 2016   2.822   6.215   6.116
  373SOL     OW 2017   6.496   4.713   3.410
  373SOL    HW1 2018   6.562   4.769   3.359
  373SOL    HW2 2019   6.529   4.700   3.503
  374SOL     OW 2020   2.993   1.391   2.665
  374SOL    HW1 2021   2.894   1.380   2.664
  374SOL    HW2 2022   3.023   1.434   2.580
  375SOL     OW 2023   0.578   5.746   4.531
  375SOL    HW1 2024   0.555   5.814   4.461
  375SOL    HW2 2025   0.577   5.655   4.491
  376SOL     OW 2026   3.947   0.982   3.378
  376SOL    HW1 2027   3.978   1.062   3.431
  376SOL    HW2 2028   3.986   0.899   3.418
  377SOL     OW 2029   2.021   1.952   0.017
  377SOL    HW1 2030   2.034   2.011   0.097
  377SOL    HW2 2031   2.064   1.994   6.961
  378SOL     OW 2032   4.330   1.585   2.667
  378SOL    HW1 2033   4.231   1.582   2.660
  378SOL    HW2 2034   4.358   1.561   2.760
  379SOL     OW 2035   4.642   1.890   5.975
  379SOL    HW1 2036   4.648   1.959   6.047
  379SOL    HW2 2037   4.730   1.843   5.967
  380SOL     OW 2038   4.057   2.606   0.172
  380SOL    HW1 2039   4.046   2.652   0.084
  380SOL    HW2 2040   4.113   2.663   0.232
  381SOL     OW 2041   2.118   3.829   3.004
  381SOL    HW1 2042   2.157   3.737   3.008
  381SOL    HW2 2043   2.086   3.848   2.911
  382SOL     OW 2044   5.790   0.554   6.612
  382SOL    HW1 2045   5.758   0.633   6.561
  382SOL    HW2 2046   5.872   0.516   6.569
  383SOL     OW 2047   5.208   2.492   0.459
  383SOL    HW1 2048   5.147   2.467   0.535
  383SOL    HW2 2049   5.218   2.414   0.397
  384SOL     OW 2050   6.495   3.647   4.886
  384SOL    HW1 2051   6.537   3.614   4.802
  384SOL    HW2 2052   6.457   3.570   4.937
  385SOL     OW 2053   4.601   3.291   0.444
  385SOL    HW1 2054   4.670   3.255   0.507
  385SOL    HW2 2055   4.632   3.378   0.406
  386SOL     OW 2056   4.005   6.459   3.988
  386SOL    HW1 2057   4.009   6.519   4.068
  386SOL    HW2 2058   3.952   6.377   4.011
  387SOL     OW 2059   2.417   5.770   4.263
  387SOL    HW1 2060   2.414   5.811   4.172
  387SOL    HW2 2061   2.347   5.811   4.321
  388SOL     OW 2062   0.858   4.393   6.892
  388SOL    HW1 2063   0.957   4.376   6.902
  388SOL    HW2 2064   0.841   4.491   6.900
  389SOL     OW 2065   3.034   3.435   2.406
  389SOL    HW1 2066   3.104   3.367   2.422
  389SOL    HW2 2067   2.960   3.395   2.353
  390SOL     OW 2068   2.594   1.189   4.424
  390SOL    HW1 2069   2.596   1.194   4.524
  390SOL    HW2 2070   2.539   1.111   4.395
  391SOL     OW 2071   1.438   2.511   6.028
  391SOL    HW1 2072   1.458   2.606   6.053
  391SOL    HW2 2073   1.406   2.461   6.108
  392SOL     OW 2074   2.996   5.345   3.766
  392SOL    HW1 2075   2.934   5.418   3.794
  392SOL    HW2 2076   3.057   5.378   3.694
  393SOL     OW 2077   6.249   3.803   4.863
  393SOL    HW1 2078   6.260   3.880   4.800
  393SOL    HW2 2079   6.336   3.754   4.872
  394SOL     OW 2080   2.626   0.570   6.671
  394SOL    HW1 2081   2.681   0.585   6.589
  394SOL    HW2 2082   2.575   0.653   6.692
  395SOL     OW 2083   5.956   3.465   1.090
  395SOL    HW1 2084   5.997   3.386   1.045
  395SOL    HW2 2085   5.909   3.435   1.173
  396SOL     OW 2086   3.852   3.020   4.587
  396SOL    HW1 2087   3.879   3.043   4.680
  396SOL    HW2 2088   3.776   3.079   4.559
  397SOL     OW 2089   4.013   1.996   6.537
  397SOL    HW1 2090   3.913   1.992   6.544
  397SOL    HW2 2091   4.042   1.961   6.448
  398SOL     OW 2092   0.942   4.586   2.736
  398SOL    HW1 2093   1.015   4.651   2.754
  398SOL    HW2 2094   0.909   4.597   2.642
  399SOL     OW 2095   4.995   4.981   3.125
  399SOL    HW1 2096   5.006   5.075   3.092
  399SOL    HW2 2097   5.059   4.964   3.200
  400SOL     OW 2098   1.597   4.814   4.462
  400SOL    HW1 2099   1.623   4.739   4.523
  400SOL    HW2 2100   1.501   4.837   4.475
  401SOL     OW 2101   5.638   1.212   6.794
  401SOL    HW1 2102   5.731   1.244   6.775
  401SOL    HW2 2103   5.591   1.191   6.708
  402SOL     OW 2104   6.187   4.670   1.513
  402SOL    HW1 2105   6.106   4.673   1.456
  402SOL    HW2 2106   6.209   4.762   1.546
  403SOL     OW 2107   5.113   3.563   6.919
  403SOL    HW1 2108   5.159   3.626   6.982
  403SOL    HW2 2109   5.149   3.471   6.932
  404SOL     OW 2110   0.362   6.947   5.018
  404SOL    HW1 2111   0.413   6.886   4.958
  404SOL    HW2 2112   0.413   0.009   5.030
  405SOL     OW 2113   1.211   2.610   0.431
  405SOL    HW1 2114   1.225   2.637   0.527
  405SOL    HW2 2115   1.276   2.539   0.407
  406SOL     OW 2116   1.218   3.366   2.907
  406SOL    HW1 2117   1.137   3.321   2.947
  406SOL    HW2 2118   1.298   3.307   2.920
  407SOL     OW 2119   2.718   1.423   3.340
  407SOL    HW1 2120   2.791   1.359   3.362
  407SOL    HW2 2121   2.728   1.506   3.395
  408SOL     OW 2122   1.795   0.593   3.525
  408SOL    HW1 2123   1.752   0.603   3.435
  408SOL    HW2 2124   1.770   0.504   3.563
  409SOL     OW 2125   6.044   3.090   4.289
  409SOL    HW1 2126   6.126   3.147   4.295
  409SOL    HW2 2127   6.022   3.073   4.193
  410SOL     OW 2128   3.484   1.029   6.176
  410SOL    HW1 2129   3.551   1.103   6.168
  410SOL    HW2 2130   3.449   1.006   6.085
  411SOL     OW 2131   0.132   3.888   5.540
  411SOL    HW1 2132   0.107   3.801   5.497
  411SOL    HW2 2133   0.049   3.936   5.568
  412SOL     OW 2134   3.889   0.178   2.130
  412SOL    HW1 2135   3.864   0.258   2.074
  412SOL    HW2 2136   3.986   0.158   2.116
  413SOL     OW 2137   2.761   0.499   1.554
  413SOL    HW1 2138   2.769   0.462   1.461
  413SOL    HW2 2139   2.670   0.537   1.566
  414SOL     OW 2140   4.605   3.952   0.197
  414SOL    HW1 2141   4.670   3.973   0.270
  414SOL    HW2 2142   4.524   3.908   0.236
  415SOL     OW 2143   3.180   6.524   1.741
  415SOL    HW1 2144   3.218   6.484   1.825
  415SOL    HW2 2145   3.236   6.497   1.663
  416SOL     OW 2146   3.530   5.875   5.758
  416SOL    HW1 2147   3.614   5.869   5.811
  416SOL    HW2 2148   3.508   5.785   5.720
  417SOL     OW 2149   4.342   5.809   0.777
  417SOL    HW1 2150   4.289   5.742   0.828
  417SOL    HW2 2151   4.406   5.855   0.838
  418SOL     OW 2152   5.495   4.564   0.583
  418SOL    HW1 2153   5.595   4.560   0.581
  418SOL    HW2 2154   5.464   4.646   0.535
  419SOL     OW 2155   6.452   6.339   1.342
  419SOL    HW1 2156   6.384   6.410   1.362
  419SOL    HW2 2157   6.543   6.380   1.336
  420SOL     OW 2158   4.483   4.318   6.904
  420SOL    HW1 2159   4.472   4.259   6.984
  420SOL    HW2 2160   4.469   4.413   6.931
  421SOL     OW 2161   1.416   5.621   6.750
  421SOL    HW1 2162   1.370   5.691   6.804
  421SOL    HW2 2163   1.348   5.563   6.705
  422SOL     OW 2164   5.825   3.486   6.905
  422SOL    HW1 2165   5.734   3.488   6.946
  422SOL    HW2 2166   5.830   3.552   6.831
  423SOL     OW 2167   0.731   2.841   5.883
  423SOL    HW1 2168   0.779   2.785   5.815
  423SOL    HW2 2169   0.786   2.849   5.965
  424SOL     OW 2170   2.526   4.004   6.757
  424SOL    HW1 2171   2.440   4.047   6.730
  424SOL    HW2 2172   2.517   3.963   6.847
  425SOL     OW 2173   3.123   0.813   0.688
  425SOL    HW1 2174   3.030   0.850   0.689
  425SOL    HW2 2175   3.185   0.878   0.731
  426SOL     OW 2176   5.565   4.043   5.515
  426SOL    HW1 2177   5.487   3.999   5.469
  426SOL    HW2 2178   5.559   4.142   5.501
  427SOL     OW 2179   4.692   3.576   0.938
  427SOL    HW1 2180   4.616   3.514   0.916
  427SOL    HW2 2181   4.757   3.529   0.997
  428SOL     OW 2182   3.865   1.176   5.071
  428SOL    HW1 2183   3.766   1.184   5.082
  428SOL    HW2 2184   3.884   1.127   4.986
  429SOL     OW 2185   2.239   5.225   6.929
  429SOL    HW1 2186   2.179   5.151   6.959
  429SOL    HW2 2187   2.213   5.310   6.974
  430SOL     OW 2188   1.605   6.582   5.017
  430SOL    HW1 2189   1.679   6.580   4.949
  430SOL    HW2 2190   1.571   6.489   5.031
  431SOL     OW 2191   3.560   1.687   6.674
  431SOL    HW1 2192   3.593   1.684   6.579
  431SOL    HW2 2193   3.568   1.596   6.714
  432SOL     OW 2194   0.248   1.961   1.125
  432SOL    HW1 2195   0.315   1.905   1.077
  432SOL    HW2 2196   0.157   1.941   1.089
  433SOL     OW 2197   2.944   5.928   4.791
  433SOL    HW1 2198   2.943   6.002   4.724
  433SOL    HW2 2199   2.888   5.852   4.757
  434SOL     OW 2200   6.798   3.608   1.154
  434SOL    HW1 2201   6.733   3.653   1.216
  434SOL    HW2 2202   6.762   3.519   1.127
  435SOL     OW 2203   3.616   3.950   0.582
  435SOL    HW1 2204   3.569   3.884   0.641
  435SOL    HW2 2205   3.675   3.901   0.518
  436SOL     OW 2206   2.699   1.145   0.060
  436SOL    HW1 2207   2.701   1.046   0.048
  436SOL    HW2 2208   2.767   1.187   7.024
  437SOL     OW 2209   6.915   6.718   6.233
  437SOL    HW1 2210   6.952   6.791   6.291
  437SOL    HW2 2211   6.816   6.728   6.227
  438SOL     OW 2212   1.723   2.944   2.069
  438SOL    HW1 2213   1.685   2.918   2.158
  438SOL    HW2 2214   1.809   2.896   2.055
  439SOL     OW 2215   6.061   4.904   2.831
  439SOL    HW1 2216   6.034   4.894   2.927
  439SOL    HW2 2217   5.993   4.861   2.772
  440SOL     OW 2218   0.768   2.907   3.792
  440SOL    HW1 2219   0.785   2.943   3.883
  440SOL    HW2 2220   0.800   2.812   3.787
  441SOL     OW 2221   1.062   0.867   3.990
  441SOL    HW1 2222   1.105   0.942   3.940
  441SOL    HW2 2223   0.977   0.841   3.944
  442SOL     OW 2224   7.019   4.386   0.489
  442SOL    HW1 2225   6.941   4.437   0.526
  442SOL    HW2 2226   0.049   4.350   0.565
  443SOL     OW 2227   0.757   3.968   5.861
  443SOL    HW1 2228   0.717   3.878   5.879
  443SOL    HW2 2229   0.844   3.976   5.910
  444SOL     OW 2230   4.433   3.444   6.211
  444SOL    HW1 2231   4.416   3.349   6.237
  444SOL    HW2 2232   4.420   3.454   6.112
  445SOL     OW 2233   1.922   4.511   3.136
  445SOL    HW1 2234   1.962   4.600   3.113
  445SOL    HW2 2235   1.994   4.442   3.138
  446SOL     OW 2236   4.385   4.730   3.947
  446SOL    HW1 2237   4.477   4.769   3.933
  446SOL    HW2 2238   4.390   4.655   4.013
  447SOL     OW 2239   6.710   5.760   0.514
  447SOL    HW1 2240   6.698   5.775   0.416
  447SOL    HW2 2241   6.678   5.668   0.537
  448SOL     OW 2242   5.081   0.612   5.548
  448SOL    HW1 2243   5.145   0.547   5.588
  448SOL    HW2 2244   5.064   0.587   5.452
  449SOL     OW 2245   6.231   0.674   4.709
  449SOL    HW1 2246   6.215   0.578   4.733
  449SOL    HW2 2247   6.143   0.719   4.693
  450SOL     OW 2248   6.554   6.467   3.830
  450SOL    HW1 2249   6.460   6.442   3.806
  450SOL    HW2 2250   6.564   6.468   3.929
  451SOL     OW 2251   0.341   2.349   3.128
  451SOL    HW1 2252   0.395   2.433   3.137
  451SOL    HW2 2253   0.257   2.359   3.182
  452SOL     OW 2254   0.222   4.682   6.626
  452SOL    HW1 2255   0.189   4.745   6.556
  452SOL    HW2 2256   0.182   4.706   6.714
  453SOL     OW 2257   2.947   0.809   5.628
  453SOL    HW1 2258   2.909   0.718   5.613
  453SOL    HW2 2259   2.949   0.860   5.542
  454SOL     OW 2260   0.983   6.022   0.175
  454SOL    HW1 2261   0.900   6.012   0.229
  454SOL    HW2 2262   0.997   6.119   0.153
  455SOL     OW 2263   5.262   1.447   5.873
  455SOL    HW1 2264   5.276   1.485   5.782
  455SOL    HW2 2265   5.227   1.354   5.866
  456SOL     OW 2266   4.603   5.702   6.566
  456SOL    HW1 2267   4.506   5.717   6.547
  456SOL    HW2 2268   4.616   5.611   6.605
  457SOL     OW 2269   1.536   5.120   2.534
  457SOL    HW1 2270   1.595   5.200   2.545
  457SOL    HW2 2271   1.593   5.039   2.516
  458SOL     OW 2272   6.508   5.737   6.618
  458SOL    HW1 2273   6.559   5.651   6.628
  458SOL    HW2 2274   6.550   5.792   6.546
  459SOL     OW 2275   2.209   0.604   2.799
  459SOL    HW1 2276   2.257   0.586   2.714
  459SOL    HW2 2277   2.163   0.521   2.830
  460SOL     OW 2278   6.514   1.599   3.189
  460SOL    HW1 2279   6.566   1.683   3.173
  460SOL    HW2 2280   6.576   1.527   3.222
  461SOL     OW 2281   4.629   6.205   5.463
  461SOL    HW1 2282   4.549   6.204   5.403
  461SOL    HW2 2283   4.700   6.146   5.424
  462SOL     OW 2284   2.869   3.514   6.215
  462SOL    HW1 2285   2.888   3.433   6.159
  462SOL    HW2 2286   2.778   3.549   6.193
  463SOL     OW 2287   6.398   5.688   1.483
  463SOL    HW1 2288   6.359   5.764   1.430
  463SOL    HW2 2289   6.339   5.668   1.561
  464SOL     OW 2290   1.880   1.068   5.762
  464SOL    HW1 2291   1.958   1.036   5.816
  464SOL    HW2 2292   1.795   1.041   5.806
  465SOL     OW 2293   6.507   2.701   4.217
  465SOL    HW1 2294   6.431   2.639   4.237
  465SOL    HW2 2295   6.476   2.795   4.228
  466SOL     OW 2296   1.826   0.306   3.215
  466SOL    HW1 2297   1.842   0.403   3.231
  466SOL    HW2 2298   1.753   0.274   3.275
  467SOL     OW 2299   2.064   0.649   5.092
  467SOL    HW1 2300   2.160   0.647   5.063
  467SOL    HW2 2301   2.059   0.655   5.192
  468SOL     OW 2302   3.104   4.202   0.650
  468SOL    HW1 2303   3.059   4.124   0.607
  468SOL    HW2 2304   3.055   4.226   0.734
  469SOL     OW 2305   1.986   5.174   0.405
  469SOL    HW1 2306   2.045   5.247   0.370
  469SOL    HW2 2307   1.960   5.114   0.330
  470SOL     OW 2308   3.613   1.410   2.764
  470SOL    HW1 2309   3.559   1.433   2.845
  470SOL    HW2 2310   3.665   1.490   2.734
  471SOL     OW 2311   2.759   2.327   4.869
  471SOL    HW1 2312   2.789   2.354   4.777
  471SOL    HW2 2313   2.705   2.244   4.863
  472SOL     OW 2314   3.517   4.158   5.767
  472SOL    HW1 2315   3.534   4.163   5.669
  472SOL    HW2 2316   3.601   4.181   5.817
  473SOL     OW 2317   1.178   4.269   2.672
  473SOL    HW1 2318   1.159   4.272   2.770
  473SOL    HW2 2319   1.235   4.347   2.646
  474SOL     OW 2320   3.969   4.961   4.867
  474SOL    HW1 2321   3.944   5.058   4.858
  474SOL    HW2 2322   4.058   4.946   4.823
  475SOL     OW 2323   0.435   6.462   6.297
  475SOL    HW1 2324   0.494   6.538   6.326
  475SOL    HW2 2325   0.339   6.488   6.308
  476SOL     OW 2326   6.923   4.419   2.555
  476SOL    HW1 2327   6.888   4.403   2.463
  476SOL    HW2 2328   7.018   4.389   2.559
  477SOL     OW 2329   1.465   5.290   4.057
  477SOL    HW1 2330   1.560   5.272   4.083
  477SOL    HW2 2331   1.463   5.350   3.976
  478SOL     OW 2332   2.096   5.030   3.426
  478SOL    HW1 2333   2.019   5.000   3.371
  478SOL    HW2 2334   2.117   4.962   3.496
  479SOL     OW 2335   3.444   2.247   1.034
  479SOL    HW1 2336   3.423   2.209   1.124
  479SOL    HW2 2337   3.528   2.302   1.039
  480SOL     OW 2338   0.993   0.408   2.643
  480SOL    HW1 2339   0.966   0.335   2.706
  480SOL    HW2 2340   0.917   0.471   2.630
  481SOL     OW 2341   3.855   6.937   1.172
  481SOL    HW1 2342   3.774   6.888   1.205
  481SOL    HW2 2343   3.916   6.956   1.249
  482SOL     OW 2344   5.404   4.356   2.077
  482SOL    HW1 2345   5.377   4.390   1.987
  482SOL    HW2 2346   5.412   4.433   2.141
  483SOL     OW 2347   5.622   1.644   1.377
  483SOL    HW1 2348   5.574   1.647   1.290
  483SOL    HW2 2349   5.718   1.670   1.364
  484SOL     OW 2350   6.699   2.431   4.910
  484SOL    HW1 2351   6.709   2.486   4.993
  484SOL    HW2 2352   6.775   2.367   4.904
  485SOL     OW 2353   3.690   5.276   2.380
  485SOL    HW1 2354   3.651   5.324   2.301
  485SOL    HW2 2355   3.650   5.314   2.464
  486SOL     OW 2356   0.722   0.611   0.456
  486SOL    HW1 2357   0.715   0.612   0.357
  486SOL    HW2 2358   0.807   0.656   0.484
  487SOL     OW 2359   6.242   2.894   6.741
  487SOL    HW1 2360   6.245   2.883   6.642
  487SOL    HW2 2361   6.295   2.974   6.767
  488SOL     OW 2362   0.309   2.230   2.380
  488SOL    HW1 2363   0.295   2.319   2.337
  488SOL    HW2 2364   0.227   2.204   2.431
  489SOL     OW 2365   3.370   5.888   6.355
  489SOL    HW1 2366   3.387   5.880   6.257
  489SOL    HW2 2367   3.278   5.923   6.371
  490SOL     OW 2368   5.547   6.382   4.403
  490SOL    HW1 2369   5.603   6.325   4.462
  490SOL    HW2 2370   5.467   6.330   4.373
  491SOL     OW 2371   6.661   2.641   3.048
  491SOL    HW1 2372   6.664   2.624   3.147
  491SOL    HW2 2373   6.673   2.738   3.030
  492SOL     OW 2374   2.307   0.476   5.306
  492SOL    HW1 2375   2.367   0.506   5.380
  492SOL    HW2 2376   2.295   0.377   5.311
  493SOL     OW 2377   6.524   4.080   4.522
  493SOL    HW1 2378   6.558   4.076   4.615
  493SOL    HW2 2379   6.576   4.016   4.465
  494SOL     OW 2380   6.668   0.655   0.948
  494SOL    HW1 2381   6.638   0.711   0.870
  494SOL    HW2 2382   6.665   0.558   0.923
  495SOL     OW 2383   4.362   4.605   1.487
  495SOL    HW1 2384   4.264   4.587   1.484
  495SOL    HW2 2385   4.412   4.518   1.492
  496SOL     OW 2386   5.720   2.861   3.587
  496SOL    HW1 2387   5.784   2.937   3.597
  496SOL    HW2 2388   5.703   2.820   3.677
  497SOL     OW 2389   4.360   0.888   4.436
  497SOL    HW1 2390   4.429   0.933   4.492
  497SOL    HW2 2391   4.269   0.921   4.461
  498SOL     OW 2392   1.379   3.284   2.584
  498SOL    HW1 2393   1.321   3.342   2.527
  498SOL    HW2 2394   1.471   3.323   2.588
  499SOL     OW 2395   3.416   1.538   4.979
  499SOL    HW1 2396   3.317   1.522   4.978
  499SOL    HW2 2397   3.446   1.564   4.887
  500SOL     OW 2398   0.794   4.143   2.373
  500SOL    HW1 2399   0.732   4.157   2.450
  500SOL    HW2 2400   0.841   4.055   2.384
  501SOL     OW 2401   0.617   4.177   6.009
  501SOL    HW1 2402   0.530   4.131   5.993
  501SOL    HW2 2403   0.692   4.112   5.996
  502SOL     OW 2404   3.402   5.035   6.816
  502SOL    HW1 2405   3.377   4.985   6.899
  502SOL    HW2 2406   3.362   5.127   6.819
  503SOL     OW 2407   5.474   5.361   5.334
  503SOL    HW1 2408   5.495   5.280   5.388
  503SOL    HW2 2409   5.432   5.333   5.247
  504SOL     OW 2410   2.011   6.009   4.455
  504SOL    HW1 2411   2.021   5.931   4.394
  504SOL    HW2 2412   2.073   6.082   4.427
  505SOL     OW 2413   4.032   6.941   5.794
  505SOL    HW1 2414   4.030   6.973   5.888
  505SOL    HW2 2415   4.045   7.019   5.732
  506SOL     OW 2416   2.032   4.048   6.598
  506SOL    HW1 2417   1.988   4.013   6.515
  506SOL    HW2 2418   1.974   4.028   6.677
  507SOL     OW 2419   3.415   1.511   3.922
  507SOL    HW1 2420   3.398   1.598   3.876
  507SOL    HW2 2421   3.511   1.484   3.908
  508SOL     OW 2422   6.707   3.740   3.671
  508SOL    HW1 2423   6.712   3.733   3.770
  508SOL    HW2 2424   6.731   3.651   3.630
  509SOL     OW 2425   4.618   2.144   1.577
  509SOL    HW1 2426   4.659   2.204   1.645
  509SOL    HW2 2427   4.658   2.053   1.584
  510SOL     OW 2428   0.769   3.733   3.881
  510SOL    HW1 2429   0.859   3.700   3.907
  510SOL    HW2 2430   0.778   3.820   3.832
  511SOL     OW 2431   0.191   6.864   0.803
  511SOL    HW1 2432   0.125   6.936   0.778
  511SOL    HW2 2433   0.270   6.905   0.848
  512SOL     OW 2434   0.571   3.587   6.771
  512SOL    HW1 2435   0.538   3.513   6.713
  512SOL    HW2 2436   0.532   3.577   6.863
  513SOL     OW 2437   6.361   5.666   4.225
  513SOL    HW1 2438   6.368   5.735   4.296
  513SOL    HW2 2439   6.354   5.710   4.136
  514SOL     OW 2440   5.881   1.878   3.652
  514SOL    HW1 2441   5.903   1.975   3.663
  514SOL    HW2 2442   5.836   1.845   3.736
  515SOL     OW 2443   2.182   6.007   0.062
  515SOL    HW1 2444   2.183   5.921   0.012
  515SOL    HW2 2445   2.259   6.064   0.034
  516SOL     OW 2446   2.386   5.044   1.932
  516SOL    HW1 2447   2.361   4.973   1.867
  516SOL    HW2 2448   2.319   5.119   1.927
  517SOL     OW 2449   5.256   0.532   0.916
  517SOL    HW1 2450   5.248   0.628   0.945
  517SOL    HW2 2451   5.166   0.489   0.917
  518SOL     OW 2452   2.245   2.628   0.577
  518SOL    HW1 2453   2.339   2.595   0.591
  518SOL    HW2 2454   2.214   2.675   0.659
  519SOL     OW 2455   0.951   6.516   0.331
  519SOL    HW1 2456   1.022   6.565   0.381
  519SOL    HW2 2457   0.861   6.542   0.367
  520SOL     OW 2458   5.592   4.684   5.214
  520SOL    HW1 2459   5.579   4.771   5.260
  520SOL    HW2 2460   5.517   4.622   5.239
  521SOL     OW 2461   6.688   1.465   0.683
  521SOL    HW1 2462   6.641   1.540   0.729
  521SOL    HW2 2463   6.767   1.502   0.633
  522SOL     OW 2464   4.097   3.722   4.508
  522SOL    HW1 2465   4.172   3.781   4.538
  522SOL    HW2 2466   4.123   3.677   4.422
  523SOL     OW 2467   0.070   6.692   5.337
  523SOL    HW1 2468   7.003   6.678   5.375
  523SOL    HW2 2469   0.081   6.788   5.312
  524SOL     OW 2470   2.973   0.938   5.380
  524SOL    HW1 2471   3.052   0.936   5.318
  524SOL    HW2 2472   2.938   1.031   5.387
  525SOL     OW 2473   2.184   3.611   6.811
  525SOL    HW1 2474   2.141   3.523   6.795
  525SOL    HW2 2475   2.250   3.603   6.886
  526SOL     OW 2476   3.561   6.001   4.566
  526SOL    HW1 2477   3.512   6.060   4.502
  526SOL    HW2 2478   3.532   5.906   4.553
  527SOL     OW 2479   0.834   1.895   6.327
  527SOL    HW1 2480   0.746   1.850   6.312
  527SOL    HW2 2481   0.902   1.860   6.262
  528SOL     OW 2482   2.543   0.006   5.316
  528SOL    HW1 2483   2.548   0.048   5.407
  528SOL    HW2 2484   2.596   0.060   5.252
  529SOL     OW 2485   7.000   4.804   3.957
  529SOL    HW1 2486   7.018   4.870   3.885
  529SOL    HW2 2487   0.060   4.786   4.008
  530SOL     OW 2488   2.486   3.026   5.619
  530SOL    HW1 2489   2.497   2.928   5.640
  530SOL    HW2 2490   2.457   3.036   5.524
  531SOL     OW 2491   0.276   0.352   1.119
  531SOL    HW1 2492   0.197   0.392   1.166
  531SOL    HW2 2493   0.303   0.268   1.165
  532SOL     OW 2494   1.856   0.653   5.736
  532SOL    HW1 2495   1.809   0.625   5.820
  532SOL    HW2 2496   1.879   0.572   5.682
  533SOL     OW 2497   5.579   6.966   4.254
  533SOL    HW1 2498   5.507   6.901   4.276
  533SOL    HW2 2499   5.598   6.963   4.155
  534SOL     OW 2500   3.832   5.801   1.869
  534SOL    HW1 2501   3.931   5.801   1.882
  534SOL    HW2 2502   3.802   5.714   1.830
  535SOL     OW 2503   0.288   3.502   3.306
  535SOL    HW1 2504   0.320   3.436   3.238
  535SOL    HW2 2505   0.357   3.574   3.318
  536SOL     OW 2506   0.985   5.802   0.725
  536SOL    HW1 2507   0.984   5.737   0.650
  536SOL    HW2 2508   0.918   5.874   0.707
  537SOL     OW 2509   2.335   0.561   2.549
  537SOL    HW1 2510   2.382   0.593   2.467
  537SOL    HW2 2511   2.239   0.544   2.527
  538SOL     OW 2512   1.089   5.395   3.537
  538SOL    HW1 2513   1.067   5.301   3.563
  538SOL    HW2 2514   1.137   5.394   3.449
  539SOL     OW 2515   1.779   4.898   1.881
  539SOL    HW1 2516   1.703   4.933   1.828
  539SOL    HW2 2517   1.824   4.824   1.831
  540SOL     OW 2518   1.033   2.034   2.170
  540SOL    HW1 2519   0.938   2.040   2.201
  540SOL    HW2 2520   1.092   2.082   2.234
  541SOL     OW 2521   3.239   5.932   5.526
  541SOL    HW1 2522   3.223   5.962   5.432
  541SOL    HW2 2523   3.152   5.928   5.575
  542SOL     OW 2524   6.157   5.393   6.901
  542SOL    HW1 2525   6.081   5.451   6.930
  542SOL    HW2 2526   6.121   5.304   6.873
  543SOL     OW 2527   0.358   5.940   0.212
  543SOL    HW1 2528   0.323   6.015   0.268
  543SOL    HW2 2529   0.399   5.870   0.270
  544SOL     OW 2530   0.979   5.620   0.523
  544SOL    HW1 2531   0.964   5.678   0.443
  544SOL    HW2 2532   1.011   5.530   0.494
  545SOL     OW 2533   3.879   1.879   3.659
  545SOL    HW1 2534   3.824   1.798   3.639
  545SOL    HW2 2535   3.823   1.961   3.647
  546SOL     OW 2536   0.984   3.834   0.483
  546SOL    HW1 2537   1.009   3.826   0.386
  546SOL    HW2 2538   0.920   3.760   0.507
  547SOL     OW 2539   2.553   3.406   0.200
  547SOL    HW1 2540   2.625   3.439   0.139
  547SOL    HW2 2541   2.480   3.364   0.145
  548SOL     OW 2542   3.197   3.076   3.870
  548SOL    HW1 2543   3.156   3.050   3.783
  548SOL    HW2 2544   3.217   2.994   3.923
  549SOL     OW 2545   6.441   3.326   1.596
  549SOL    HW1 2546   6.488   3.411   1.574
  549SOL    HW2 2547   6.500   3.248   1.571
  550SOL     OW 2548   0.175   3.847   1.821
  550SOL    HW1 2549   0.087   3.874   1.860
  550SOL    HW2 2550   0.186   3.891   1.732
  551SOL     OW 2551   6.853   1.743   6.736
  551SOL    HW1 2552   6.881   1.679   6.808
  551SOL    HW2 2553   6.836   1.693   6.651
  552SOL     OW 2554   4.433   6.124   0.615
  552SOL    HW1 2555   4.457   6.106   0.710
  552SOL    HW2 2556   4.335   6.112   0.602
  553SOL     OW 2557   1.627   2.231   1.583
  553SOL    HW1 2558   1.663   2.213   1.675
  553SOL    HW2 2559   1.703   2.237   1.518
  554SOL     OW 2560   5.537   6.185   4.900
  554SOL    HW1 2561   5.522   6.284   4.908
  554SOL    HW2 2562   5.493   6.151   4.817
  555SOL     OW 2563   1.492   4.168   4.629
  555SOL    HW1 2564   1.489   4.207   4.537
  555SOL    HW2 2565   1.538   4.232   4.691
  556SOL     OW 2566   5.374   3.583   3.240
  556SOL    HW1 2567   5.405   3.646   3.312
  556SOL    HW2 2568   5.438   3.587   3.163
  557SOL     OW 2569   0.270   6.058   6.076
  557SOL    HW1 2570   0.351   6.112   6.100
  557SOL    HW2 2571   0.240   6.006   6.156
  558SOL     OW 2572   4.130   4.071   5.474
  558SOL    HW1 2573   4.167   4.157   5.440
  558SOL    HW2 2574   4.195   3.997   5.457
  559SOL     OW 2575   6.218   5.716   6.623
  559SOL    HW1 2576   6.178   5.719   6.532
  559SOL    HW2 2577   6.298   5.776   6.627
  560SOL     OW 2578   3.942   6.776   6.710
  560SOL    HW1 2579   3.870   6.815   6.653
  560SOL    HW2 2580   3.968   6.686   6.674
  561SOL     OW 2581   5.696   6.883   0.915
  561SOL    HW1 2582   5.703   6.913   1.010
  561SOL    HW2 2583   5.602   6.894   0.882
  562SOL     OW 2584   6.509   1.479   5.968
  562SOL    HW1 2585   6.608   1.475   5.978
  562SOL    HW2 2586   6.466   1.468   6.058
  563SOL     OW 2587   2.968   5.971   4.275
  563SOL    HW1 2588   3.057   5.928   4.292
  563SOL    HW2 2589   2.965   6.005   4.181
  564SOL     OW 2590   0.748   1.469   6.688
  564SOL    HW1 2591   0.760   1.564   6.718
  564SOL    HW2 2592   0.770   1.462   6.590
  565SOL     OW 2593   4.760   4.131   5.149
  565SOL    HW1 2594   4.827   4.107   5.079
  565SOL    HW2 2595   4.726   4.224   5.132
  566SOL     OW 2596   5.134   5.223   3.116
  566SOL    HW1 2597   5.231   5.240   3.133
  566SOL    HW2 2598   5.081   5.306   3.133
  567SOL     OW 2599   4.068   3.357   4.613
  567SOL    HW1 2600   4.042   3.451   4.635
  567SOL    HW2 2601   4.090   3.349   4.516
  568SOL     OW 2602   2.268   1.399   6.870
  568SOL    HW1 2603   2.240   1.493   6.850
  568SOL    HW2 2604   2.346   1.400   6.932
  569SOL     OW 2605   2.524   3.800   0.334
  569SOL    HW1 2606   2.589   3.730   0.306
  569SOL    HW2 2607   2.434   3.758   0.348
  570SOL     OW 2608   6.957   6.233   1.034
  570SOL    HW1 2609   6.871   6.218   1.081
  570SOL    HW2 2610   6.958   6.325   0.994
  571SOL     OW 2611   4.200   5.646   2.937
  571SOL    HW1 2612   4.123   5.596   2.896
  571SOL    HW2 2613   4.215   5.730   2.886
  572SOL     OW 2614   1.691   4.218   5.253
  572SOL    HW1 2615   1.769   4.257   5.205
  572SOL    HW2 2616   1.706   4.223   5.351
  573SOL     OW 2617   3.792   2.103   5.814
  573SOL    HW1 2618   3.719   2.172   5.816
  573SOL    HW2 2619   3.874   2.140   5.857
  574SOL     OW 2620   2.743   1.730   4.353
  574SOL    HW1 2621   2.739   1.720   4.253
  574SOL    HW2 2622   2.710   1.821   4.378
  575SOL     OW 2623   5.271   2.339   6.994
  575SOL    HW1 2624   5.334   2.290   6.933
  575SOL    HW2 2625   5.195   2.279   7.018
  576SOL     OW 2626   0.629   1.962   2.600
  576SOL    HW1 2627   0.678   1.881   2.570
  576SOL    HW2 2628   0.575   1.998   2.524
  577SOL     OW 2629   3.359   2.040   3.699
  577SOL    HW1 2630   3.371   1.951   3.656
  577SOL    HW2 2631   3.278   2.085   3.661
  578SOL     OW 2632   0.571   3.272   4.001
  578SOL    HW1 2633   0.495   3.267   4.066
  578SOL    HW2 2634   0.586   3.367   3.974
  579SOL     OW 2635   4.341   3.326   0.416
  579SOL    HW1 2636   4.434   3.299   0.442
  579SOL    HW2 2637   4.297   3.249   0.369
  580SOL     OW 2638   0.494   5.815   0.502
  580SOL    HW1 2639   0.466   5.907   0.532
  580SOL    HW2 2640   0.577   5.822   0.447
  581SOL     OW 2641   3.846   3.630   2.984
  581SOL    HW1 2642   3.828   3.678   2.897
  581SOL    HW2 2643   3.938   3.652   3.015
  582SOL     OW 2644   5.967   3.901   2.631
  582SOL    HW1 2645   5.875   3.937   2.647
  582SOL    HW2 2646   6.030   3.940   2.698
  583SOL     OW 2647   1.944   5.234   6.792
  583SOL    HW1 2648   2.019   5.179   6.756
  583SOL    HW2 2649   1.857   5.194   6.763
  584SOL     OW 2650   0.611   5.499   4.381
  584SOL    HW1 2651   0.708   5.518   4.394
  584SOL    HW2 2652   0.587   5.414   4.428
  585SOL     OW 2653   0.130   1.399   6.143
  585SOL    HW1 2654   0.184   1.411   6.226
  585SOL    HW2 2655   0.085   1.310   6.146
  586SOL     OW 2656   2.181   6.010   0.337
  586SOL    HW1 2657   2.180   6.018   0.237
  586SOL    HW2 2658   2.220   6.094   0.376
  587SOL     OW 2659   1.144   3.607   5.352
  587SOL    HW1 2660   1.147   3.616   5.252
  587SOL    HW2 2661   1.219   3.660   5.392
  588SOL     OW 2662   2.675   6.944   1.352
  588SOL    HW1 2663   2.682   7.007   1.429
  588SOL    HW2 2664   2.735   6.865   1.367
  589SOL     OW 2665   4.544   5.687   2.726
  589SOL    HW1 2666   4.512   5.614   2.787
  589SOL    HW2 2667   4.475   5.703   2.655
  590SOL     OW 2668   6.708   1.975   1.649
  590SOL    HW1 2669   6.684   1.959   1.744
  590SOL    HW2 2670   6.701   2.073   1.629
  591SOL     OW 2671   3.456   0.172   2.986
  591SOL    HW1 2672   3.442   0.217   3.075
  591SOL    HW2 2673   3.482   0.077   3.001
  592SOL     OW 2674   5.444   1.109   6.959
  592SOL    HW1 2675   5.370   1.093   6.893
  592SOL    HW2 2676   5.528   1.132   6.909
  593SOL     OW 2677   5.945   1.603   3.938
  593SOL    HW1 2678   6.020   1.605   3.872
  593SOL    HW2 2679   5.880   1.676   3.916
  594SOL     OW 2680   5.036   3.043   1.570
  594SOL    HW1 2681   4.939   3.052   1.589
  594SOL    HW2 2682   5.058   2.947   1.551
  595SOL     OW 2683   3.708   6.929   4.174
  595SOL    HW1 2684   3.740   6.928   4.079
  595SOL    HW2 2685   3.624   6.984   4.180
  596SOL     OW 2686   1.221   4.592   2.542
  596SOL    HW1 2687   1.180   4.654   2.609
  596SOL    HW2 2688   1.156   4.574   2.469
  597SOL     OW 2689   3.750   1.736   5.614
  597SOL    HW1 2690   3.659   1.731   5.572
  597SOL    HW2 2691   3.742   1.780   5.704
  598SOL     OW 2692   3.346   3.980   0.749
  598SOL    HW1 2693   3.437   4.023   0.741
  598SOL    HW2 2694   3.334   3.944   0.841
  599SOL     OW 2695   6.851   6.498   2.882
  599SOL    HW1 2696   6.882   6.590   2.858
  599SOL    HW2 2697   6.819   6.497   2.977
  600SOL     OW 2698   2.325   0.994   0.923
  600SOL    HW1 2699   2.348   0.962   0.831
  600SOL    HW2 2700   2.310   0.916   0.983
  601SOL     OW 2701   2.713   5.003   3.507
  601SOL    HW1 2702   2.701   5.005   3.408
  601SOL    HW2 2703   2.631   5.039   3.551
  602SOL     OW 2704   0.662   0.169   1.370
  602SOL    HW1 2705   0.706   0.218   1.295
  602SOL    HW2 2706   0.731   0.139   1.436
  603SOL     OW 2707   3.833   2.180   3.563
  603SOL    HW1 2708   3.924   2.206   3.594
  603SOL    HW2 2709   3.767   2.196   3.636
  604SOL     OW 2710   0.668   4.168   5.584
  604SOL    HW1 2711   0.679   4.081   5.633
  604SOL    HW2 2712   0.575   4.175   5.548
  605SOL     OW 2713   5.987   0.800   4.611
  605SOL    HW1 2714   5.918   0.842   4.671
  605SOL    HW2 2715   5.964   0.703   4.597
  606SOL     OW 2716   3.804   0.328   3.279
  606SOL    HW1 2717   3.743   0.285   3.345
  606SOL    HW2 2718   3.892   0.347   3.322
  607SOL     OW 2719   4.707   0.975   3.560
  607SOL    HW1 2720   4.684   0.904   3.627
  607SOL    HW2 2721   4.764   0.936   3.488
  608SOL     OW 2722   4.769   1.856   1.491
  608SOL    HW1 2723   4.723   1.816   1.570
  608SOL    HW2 2724   4.702   1.873   1.418
  609SOL     OW 2725   2.909   3.614   4.269
  609SOL    HW1 2726   2.969   3.550   4.316
  609SOL    HW2 2727   2.858   3.668   4.336
  610SOL     OW 2728   5.436   1.785   4.877
  610SOL    HW1 2729   5.461   1.863   4.935
  610SOL    HW2 2730   5.492   1.786   4.794
  611SOL     OW 2731   6.975   0.249   0.935
  611SOL    HW1 2732   7.001   0.248   1.032
  611SOL    HW2 2733   7.019   0.327   0.890
  612SOL     OW 2734   3.171   5.771   5.761
  612SOL    HW1 2735   3.089   5.755   5.707
  612SOL    HW2 2736   3.249   5.786   5.700
  613SOL     OW 2737   3.411   2.159   6.737
  613SOL    HW1 2738   3.407   2.164   6.638
  613SOL    HW2 2739   3.426   2.251   6.775
  614SOL     OW 2740   4.867   4.358   0.883
  614SOL    HW1 2741   4.797   4.290   0.908
  614SOL    HW2 2742   4.955   4.330   0.920
  615SOL     OW 2743   6.014   6.299   1.282
  615SOL    HW1 2744   5.979   6.360   1.353
  615SOL    HW2 2745   6.030   6.351   1.198
  616SOL     OW 2746   5.843   0.682   4.950
  616SOL    HW1 2747   5.818   0.694   5.046
  616SOL    HW2 2748   5.884   0.592   4.937
  617SOL     OW 2749   6.857   5.373   5.636
  617SOL    HW1 2750   6.918   5.415   5.703
  617SOL    HW2 2751   6.790   5.316   5.684
  618SOL     OW 2752   5.993   4.004   0.197
  618SOL    HW1 2753   6.001   4.068   0.121
  618SOL    HW2 2754   6.055   4.032   0.271
  619SOL     OW 2755   2.939   0.174   6.109
  619SOL    HW1 2756   2.872   0.136   6.173
  619SOL    HW2 2757   3.022   0.201   6.158
  620SOL     OW 2758   5.609   1.550   2.410
  620SOL    HW1 2759   5.537   1.592   2.355
  620SOL    HW2 2760   5.690   1.535   2.353
  621SOL     OW 2761   3.074   0.808   6.485
  621SOL    HW1 2762   3.035   0.898   6.504
  621SOL    HW2 2763   3.116   0.772   6.568
  622SOL     OW 2764   0.642   1.994   4.851
  622SOL    HW1 2765   0.727   2.046   4.858
  622SOL    HW2 2766   0.568   2.045   4.894
  623SOL     OW 2767   5.880   0.406   3.921
  623SOL    HW1 2768   5.964   0.446   3.957
  623SOL    HW2 2769   5.809   0.409   3.992
  624SOL     OW 2770   6.772   0.267   6.683
  624SOL    HW1 2771   6.871   0.279   6.689
  624SOL    HW2 2772   6.747   0.238   6.591
  625SOL     OW 2773   3.062   1.845   0.904
  625SOL    HW1 2774   3.017   1.921   0.950
  625SOL    HW2 2775   3.051   1.762   0.958
  626SOL     OW 2776   6.756   6.275   4.183
  626SOL    HW1 2777   6.818   6.200   4.161
  626SOL    HW2 2778   6.783   6.317   4.270
  627SOL     OW 2779   6.581   6.907   0.063
  627SOL    HW1 2780   6.584   6.916   0.163
  627SOL    HW2 2781   6.539   6.819   0.040
  628SOL     OW 2782   4.340   4.504   6.241
  628SOL    HW1 2783   4.312   4.468   6.330
  628SOL    HW2 2784   4.439   4.498   6.231
  629SOL     OW 2785   1.817   6.860   6.805
  629SOL    HW1 2786   1.873   6.923   6.752
  629SOL    HW2 2787   1.721   6.872   6.781
  630SOL     OW 2788   5.880   1.435   1.347
  630SOL    HW1 2789   5.899   1.523   1.303
  630SOL    HW2 2790   5.800   1.393   1.304
  631SOL     OW 2791   1.749   2.240   3.834
  631SOL    HW1 2792   1.705   2.163   3.788
  631SOL    HW2 2793   1.844   2.216   3.854
  632SOL     OW 2794   2.560   3.864   7.002
  632SOL    HW1 2795   2.494   3.912   0.036
  632SOL    HW2 2796   2.625   3.815   0.035
  633SOL     OW 2797   1.671   5.817   1.128
  633SOL    HW1 2798   1.588   5.815   1.072
  633SOL    HW2 2799   1.734   5.745   1.098
  634SOL     OW 2800   3.229   3.167   4.573
  634SOL    HW1 2801   3.246   3.068   4.571
  634SOL    HW2 2802   3.165   3.189   4.646
  635SOL     OW 2803   5.717   0.399   6.812
  635SOL    HW1 2804   5.796   0.404   6.874
  635SOL    HW2 2805   5.729   0.464   6.737
  636SOL     OW 2806   2.861   0.522   5.549
  636SOL    HW1 2807   2.961   0.513   5.553
  636SOL    HW2 2808   2.824   0.454   5.486
  637SOL     OW 2809   6.759   0.552   2.897
  637SOL    HW1 2810   6.676   0.604   2.915
  637SOL    HW2 2811   6.839   0.609   2.918
  638SOL     OW 2812   6.880   2.745   4.720
  638SOL    HW1 2813   6.881   2.835   4.677
  638SOL    HW2 2814   6.791   2.702   4.705
  639SOL     OW 2815   5.917   4.453   2.403
  639SOL    HW1 2816   6.007   4.413   2.418
  639SOL    HW2 2817   5.854   4.420   2.473
  640SOL     OW 2818   0.587   2.419   2.213
  640SOL    HW1 2819   0.645   2.457   2.141
  640SOL    HW2 2820   0.524   2.489   2.246
  641SOL     OW 2821   2.291   5.110   4.108
  641SOL    HW1 2822   2.204   5.092   4.064
  641SOL    HW2 2823   2.365   5.067   4.055
  642SOL     OW 2824   0.969   4.423   4.657
  642SOL    HW1 2825   0.966   4.349   4.590
  642SOL    HW2 2826   0.981   4.385   4.749
  643SOL     OW 2827   4.302   4.901   0.874
  643SOL    HW1 2828   4.354   4.837   0.930
  643SOL    HW2 2829   4.364   4.960   0.823
  644SOL     OW 2830   0.356   6.726   5.338
  644SOL    HW1 2831   0.403   6.740   5.425
  644SOL    HW2 2832   0.261   6.700   5.356
  645SOL     OW 2833   3.855   5.193   2.185
  645SOL    HW1 2834   3.909   5.113   2.211
  645SOL    HW2 2835   3.805   5.226   2.265
  646SOL     OW 2836   3.955   2.018   4.415
  646SOL    HW1 2837   3.979   2.093   4.477
  646SOL    HW2 2838   3.959   1.931   4.465
  647SOL     OW 2839   3.584   2.552   5.976
  647SOL    HW1 2840   3.504   2.612   5.984
  647SOL    HW2 2841   3.660   2.604   5.936
  648SOL     OW 2842   6.422   0.849   3.095
  648SOL    HW1 2843   6.497   0.900   3.053
  648SOL    HW2 2844   6.456   0.763   3.132
  649SOL     OW 2845   2.083   5.310   0.785
  649SOL    HW1 2846   2.045   5.354   0.704
  649SOL    HW2 2847   2.009   5.282   0.846
  650SOL     OW 2848   6.726   3.373   1.062
  650SOL    HW1 2849   6.789   3.349   0.989
  650SOL    HW2 2850   6.634   3.340   1.040
  651SOL     OW 2851   0.794   0.787   4.038
  651SOL    HW1 2852   0.799   0.692   4.005
  651SOL    HW2 2853   0.772   0.787   4.136
  652SOL     OW 2854   3.977   6.429   1.355
  652SOL    HW1 2855   3.962   6.527   1.341
  652SOL    HW2 2856   3.918   6.377   1.292
  653SOL     OW 2857   1.288   0.046   2.738
  653SOL    HW1 2858   1.265   0.130   2.688
  653SOL    HW2 2859   1.387   0.045   2.755
  654SOL     OW 2860   1.404   0.166   5.755
  654SOL    HW1 2861   1.429   0.108   5.832
  654SOL    HW2 2862   1.474   0.237   5.744
  655SOL     OW 2863   0.268   3.974   1.612
  655SOL    HW1 2864   0.229   4.044   1.553
  655SOL    HW2 2865   0.353   4.008   1.653
  656SOL     OW 2866   3.228   6.246   0.324
  656SOL    HW1 2867   3.164   6.323   0.329
  656SOL    HW2 2868   3.223   6.193   0.409
  657SOL     OW 2869   3.760   3.746   3.270
  657SOL    HW1 2870   3.794   3.752   3.363
  657SOL    HW2 2871   3.821   3.796   3.208
  658SOL     OW 2872   1.375   1.341   4.826
  658SOL    HW1 2873   1.357   1.370   4.732
  658SOL    HW2 2874   1.409   1.419   4.879
  659SOL     OW 2875   1.692   5.743   6.408
  659SOL    HW1 2876   1.738   5.809   6.349
  659SOL    HW2 2877   1.700   5.651   6.368
  660SOL     OW 2878   4.477   4.971   3.190
  660SOL    HW1 2879   4.536   4.915   3.131
  660SOL    HW2 2880   4.383   4.938   3.184
  661SOL     OW 2881   4.150   4.906   4.019
  661SOL    HW1 2882   4.219   4.833   4.021
  661SOL    HW2 2883   4.088   4.896   4.097
  662SOL     OW 2884   5.151   3.308   7.003
  662SOL    HW1 2885   5.172   3.263   6.916
  662SOL    HW2 2886   5.053   3.304   7.020
  663SOL     OW 2887   6.756   4.362   0.003
  663SOL    HW1 2888   6.774   4.363   0.101
  663SOL    HW2 2889   6.837   4.330   6.979
  664SOL     OW 2890   2.167   0.001   6.350
  664SOL    HW1 2891   2.146   6.928   6.352
  664SOL    HW2 2892   2.265   0.014   6.365
  665SOL     OW 2893   3.333   4.835   1.915
  665SOL    HW1 2894   3.419   4.784   1.910
  665SOL    HW2 2895   3.352   4.933   1.914
  666SOL     OW 2896   2.947   0.922   0.457
  666SOL    HW1 2897   2.968   0.936   0.360
  666SOL    HW2 2898   2.894   0.838   0.468
  667SOL     OW 2899   0.868   3.444   2.590
  667SOL    HW1 2900   0.878   3.440   2.491
  667SOL    HW2 2901   0.957   3.457   2.632
  668SOL     OW 2902   5.300   0.072   0.634
  668SOL    HW1 2903   5.341   0.077   0.543
  668SOL    HW2 2904   5.325   0.154   0.686
  669SOL     OW 2905   1.913   5.932   2.688
  669SOL    HW1 2906   2.009   5.933   2.662
  669SOL    HW2 2907   1.902   5.878   2.772
  670SOL     OW 2908   3.172   3.387   3.079
  670SOL    HW1 2909   3.087   3.423   3.040
  670SOL    HW2 2910   3.209   3.453   3.144
  671SOL     OW 2911   1.729   0.153   6.527
  671SOL    HW1 2912   1.654   0.214   6.554
  671SOL    HW2 2913   1.743   0.160   6.428
  672SOL     OW 2914   1.505   1.984   3.132
  672SOL    HW1 2915   1.431   1.998   3.199
  672SOL    HW2 2916   1.478   2.024   3.045
  673SOL     OW 2917   5.085   7.007   0.290
  673SOL    HW1 2918   5.073   0.079   0.315
  673SOL    HW2 2919   5.094   6.952   0.373
  674SOL     OW 2920   6.842   1.564   4.028
  674SOL    HW1 2921   6.839   1.610   3.939
  674SOL    HW2 2922   6.915   1.496   4.028
  675SOL     OW 2923   5.813   0.460   4.295
  675SOL    HW1 2924   5.797   0.386   4.229
  675SOL    HW2 2925   5.791   0.548   4.251
  676SOL     OW 2926   2.214   4.648   4.169
  676SOL    HW1 2927   2.199   4.578   4.239
  676SOL    HW2 2928   2.146   4.720   4.178
  677SOL     OW 2929   5.435   6.965   1.175
  677SOL    HW1 2930   5.422   6.879   1.126
  677SOL    HW2 2931   5.393   0.015   1.124
  678SOL     OW 2932   2.347   1.208   6.430
  678SOL    HW1 2933   2.381   1.252   6.512
  678SOL    HW2 2934   2.337   1.276   6.357
  679SOL     OW 2935   6.464   0.232   2.361
  679SOL    HW1 2936   6.463   0.323   2.320
  679SOL    HW2 2937   6.421   0.167   2.298
  680SOL     OW 2938   5.997   4.389   5.104
  680SOL    HW1 2939   5.902   4.421   5.108
  680SOL    HW2 2940   6.035   4.412   5.014
  681SOL     OW 2941   1.204   0.193   2.205
  681SOL    HW1 2942   1.264   0.268   2.175
  681SOL    HW2 2943   1.175   0.140   2.125
  682SOL     OW 2944   0.608   6.184   6.536
  682SOL    HW1 2945   0.588   6.246   6.612
  682SOL    HW2 2946   0.706   6.179   6.522
  683SOL     OW 2947   5.776   2.218   0.144
  683SOL    HW1 2948   5.715   2.243   0.219
  683SOL    HW2 2949   5.741   2.257   0.058
  684SOL     OW 2950   0.054   5.995   6.422
  684SOL    HW1 2951   0.049   6.074   6.483
  684SOL    HW2 2952   0.030   5.912   6.472
  685SOL     OW 2953   5.825   1.385   5.998
  685SOL    HW1 2954   5.781   1.404   6.086
  685SOL    HW2 2955   5.924   1.387   6.009
  686SOL     OW 2956   5.229   5.043   3.385
  686SOL    HW1 2957   5.250   5.135   3.352
  686SOL    HW2 2958   5.138   5.042   3.425
  687SOL     OW 2959   5.961   2.350   5.231
  687SOL    HW1 2960   5.955   2.449   5.243
  687SOL    HW2 2961   6.006   2.329   5.145
  688SOL     OW 2962   0.203   3.472   4.564
  688SOL    HW1 2963   0.288   3.461   4.511
  688SOL    HW2 2964   0.126   3.441   4.508
  689SOL     OW 2965   6.136   3.926   5.167
  689SOL    HW1 2966   6.138   3.917   5.067
  689SOL    HW2 2967   6.085   3.849   5.206
  690SOL     OW 2968   0.433   2.763   3.650
  690SOL    HW1 2969   0.422   2.784   3.747
  690SOL    HW2 2970   0.402   2.670   3.632
  691SOL     OW 2971   6.750   3.098   6.710
  691SOL    HW1 2972   6.714   3.079   6.801
  691SOL    HW2 2973   6.762   3.197   6.700
  692SOL     OW 2974   2.188   0.149   3.258
  692SOL    HW1 2975   2.169   0.212   3.333
  692SOL    HW2 2976   2.267   0.092   3.281
  693SOL     OW 2977   6.584   1.112   2.663
  693SOL    HW1 2978   6.515   1.144   2.598
  693SOL    HW2 2979   6.674   1.145   2.635
  694SOL     OW 2980   1.478   0.809   2.398
  694SOL    HW1 2981   1.381   0.785   2.400
  694SOL    HW2 2982   1.527   0.754   2.466
  695SOL     OW 2983   4.528   5.274   6.394
  695SOL    HW1 2984   4.592   5.198   6.384
  695SOL    HW2 2985   4.532   5.333   6.313
  696SOL     OW 2986   4.694   5.931   2.691
  696SOL    HW1 2987   4.637   5.848   2.689
  696SOL    HW2 2988   4.784   5.910   2.654
  697SOL     OW 2989   1.493   3.797   3.799
  697SOL    HW1 2990   1.552   3.717   3.812
  697SOL    HW2 2991   1.508   3.835   3.708
  698SOL     OW 2992   4.389   6.674   3.655
  698SOL    HW1 2993   4.357   6.679   3.560
  698SOL    HW2 2994   4.317   6.634   3.711
  699SOL     OW 2995   1.137   4.305   6.885
  699SOL    HW1 2996   1.236   4.300   6.892
  699SOL    HW2 2997   1.102   4.224   6.839
  700SOL     OW 2998   2.365   1.373   3.823
  700SOL    HW1 2999   2.445   1.431   3.831
  700SOL    HW2 3000   2.317   1.393   3.738
  701SOL     OW 3001   0.761   4.329   5.813
  701SOL    HW1 3002   0.680   4.287   5.855
  701SOL    HW2 3003   0.768   4.299   5.717
  702SOL     OW 3004   5.631   5.793   4.604
  702SOL    HW1 3005   5.656   5.766   4.697
  702SOL    HW2 3006   5.551   5.741   4.575
  703SOL     OW 3007   4.443   4.149   0.132
  703SOL    HW1 3008   4.533   4.107   0.144
  703SOL    HW2 3009   4.372   4.080   0.146
  704SOL     OW 3010   2.776   0.411   1.306
  704SOL    HW1 3011   2.701   0.380   1.247
  704SOL    HW2 3012   2.861   0.412   1.253
  705SOL     OW 3013   6.861   2.001   3.684
  705SOL    HW1 3014   6.894   1.925   3.628
  705SOL    HW2 3015   6.856   2.084   3.629
  706SOL     OW 3016   5.012   1.969   3.821
  706SOL    HW1 3017   4.979   1.882   3.785
  706SOL    HW2 3018   4.984   1.978   3.917
  707SOL     OW 3019   4.984   2.043   1.428
  707SOL    HW1 3020   4.924   1.964   1.444
  707SOL    HW2 3021   5.024   2.073   1.515
  708SOL     OW 3022   3.927   0.412   2.007
  708SOL    HW1 3023   3.839   0.398   1.962
  708SOL    HW2 3024   3.919   0.488   2.071
  709SOL     OW 3025   0.718   4.966   0.015
  709SOL    HW1 3026   0.732   5.062   7.015
  709SOL    HW2 3027   0.622   4.942   0.002
  710SOL     OW 3028   3.410   3.597   2.375
  710SOL    HW1 3029   3.330   3.591   2.315
  710SOL    HW2 3030   3.473   3.522   2.353
  711SOL     OW 3031   1.466   0.480   4.367
  711SOL    HW1 3032   1.402   0.403   4.358
  711SOL    HW2 3033   1.500   0.506   4.277
  712SOL     OW 3034   1.332   3.905   1.645
  712SOL    HW1 3035   1.404   3.887   1.712
  712SOL    HW2 3036   1.372   3.914   1.554
  713SOL     OW 3037   4.096   3.765   3.329
  713SOL    HW1 3038   4.068   3.771   3.425
  713SOL    HW2 3039   4.159   3.688   3.317
  714SOL     OW 3040   4.631   4.839   5.507
  714SOL    HW1 3041   4.669   4.922   5.548
  714SOL    HW2 3042   4.533   4.834   5.525
  715SOL     OW 3043   4.912   1.103   6.443
  715SOL    HW1 3044   4.943   1.179   6.499
  715SOL    HW2 3045   4.814   1.113   6.426
  716SOL     OW 3046   6.829   5.254   1.956
  716SOL    HW1 3047   6.738   5.213   1.963
  716SOL    HW2 3048   6.846   5.313   2.034
  717SOL     OW 3049   5.945   2.696   0.378
  717SOL    HW1 3050   5.904   2.762   0.314
  717SOL    HW2 3051   6.038   2.725   0.400
  718SOL     OW 3052   3.305   3.811   6.306
  718SOL    HW1 3053   3.380   3.745   6.305
  718SOL    HW2 3054   3.226   3.773   6.258
  719SOL     OW 3055   5.447   4.868   0.010
  719SOL    HW1 3056   5.532   4.900   0.052
  719SOL    HW2 3057   5.465   4.837   6.941
  720SOL     OW 3058   2.349   0.239   6.937
  720SOL    HW1 3059   2.354   0.228   0.012
  720SOL    HW2 3060   2.436   0.274   6.903
  721SOL     OW 3061   1.267   6.441   5.658
  721SOL    HW1 3062   1.322   6.465   5.737
  721SOL    HW2 3063   1.204   6.517   5.637
  722SOL     OW 3064   4.739   6.789   6.356
  722SOL    HW1 3065   4.746   6.707   6.413
  722SOL    HW2 3066   4.658   6.841   6.381
  723SOL     OW 3067   1.838   3.225   2.099
  723SOL    HW1 3068   1.851   3.129   2.074
  723SOL    HW2 3069   1.751   3.235   2.148
  724SOL     OW 3070   6.783   0.619   4.631
  724SOL    HW1 3071   6.770   0.545   4.565
  724SOL    HW2 3072   6.696   0.637   4.678
  725SOL     OW 3073   2.238   4.941   0.549
  725SOL    HW1 3074   2.294   4.873   0.596
  725SOL    HW2 3075   2.225   4.915   0.454
  726SOL     OW 3076   4.339   0.208   6.402
  726SOL    HW1 3077   4.273   0.223   6.476
  726SOL    HW2 3078   4.428   0.184   6.441
  727SOL     OW 3079   2.594   4.552   4.092
  727SOL    HW1 3080   2.552   4.513   4.174
  727SOL    HW2 3081   2.531   4.540   4.014
  728SOL     OW 3082   6.911   3.210   4.955
  728SOL    HW1 3083   7.003   3.247   4.966
  728SOL    HW2 3084   6.917   3.110   4.944
  729SOL     OW 3085   2.911   0.430   0.434
  729SOL    HW1 3086   2.844   0.402   0.503
  729SOL    HW2 3087   2.901   0.372   0.353
  730SOL     OW 3088   6.173   0.276   5.375
  730SOL    HW1 3089   6.088   0.325   5.355
  730SOL    HW2 3090   6.157   0.210   5.449
  731SOL     OW 3091   6.307   3.380   3.512
  731SOL    HW1 3092   6.304   3.432   3.427
  731SOL    HW2 3093   6.297   3.442   3.590
  732SOL     OW 3094   6.559   2.705   2.278
  732SOL    HW1 3095   6.589   2.630   2.219
  732SOL    HW2 3096   6.565   2.678   2.374
  733SOL     OW 3097   4.216   4.738   3.737
  733SOL    HW1 3098   4.278   4.740   3.816
  733SOL    HW2 3099   4.126   4.774   3.765
  734SOL     OW 3100   6.724   4.660   0.907
  734SOL    HW1 3101   6.683   4.697   0.823
  734SOL    HW2 3102   6.663   4.591   0.946
  735SOL     OW 3103   1.632   4.560   6.175
  735SOL    HW1 3104   1.677   4.512   6.099
  735SOL    HW2 3105   1.625   4.499   6.254
  736SOL     OW 3106   6.196   0.962   3.252
  736SOL    HW1 3107   6.171   0.866   3.242
  736SOL    HW2 3108   6.260   0.987   3.179
  737SOL     OW 3109   5.702   3.660   0.468
  737SOL    HW1 3110   5.626   3.681   0.406
  737SOL    HW2 3111   5.787   3.696   0.430
  738SOL     OW 3112   0.573   4.119   3.098
  738SOL    HW1 3113   0.658   4.146   3.142
  738SOL    HW2 3114   0.592   4.084   3.006
  739SOL     OW 3115   4.808   5.716   6.905
  739SOL    HW1 3116   4.801   5.781   6.829
  739SOL    HW2 3117   4.904   5.690   6.918
  740SOL     OW 3118   5.627   0.259   0.730
  740SOL    HW1 3119   5.681   0.310   0.796
  740SOL    HW2 3120   5.664   0.166   0.722
  741SOL     OW 3121   2.727   0.623   3.847
  741SOL    HW1 3122   2.663   0.700   3.846
  741SOL    HW2 3123   2.756   0.606   3.941
  742SOL     OW 3124   1.547   0.650   3.008
  742SOL    HW1 3125   1.610   0.664   2.931
  742SOL    HW2 3126   1.463   0.702   2.992
  743SOL     OW 3127   2.175   3.681   3.949
  743SOL    HW1 3128   2.161   3.630   4.034
  743SOL    HW2 3129   2.118   3.641   3.877
  744SOL     OW 3130   0.478   6.383   1.379
  744SOL    HW1 3131   0.457   6.286   1.372
  744SOL    HW2 3132   0.523   6.401   1.467
  745SOL     OW 3133   1.412   6.522   3.182
  745SOL    HW1 3134   1.435   6.431   3.148
  745SOL    HW2 3135   1.454   6.536   3.272
  746SOL     OW 3136   2.982   0.605   4.659
  746SOL    HW1 3137   3.070   0.647   4.678
  746SOL    HW2 3138   2.914   0.677   4.642
  747SOL     OW 3139   5.868   4.722   2.375
  747SOL    HW1 3140   5.858   4.623   2.364
  747SOL    HW2 3141   5.782   4.766   2.348
  748SOL     OW 3142   4.103   3.129   1.830
  748SOL    HW1 3143   4.085   3.125   1.928
  748SOL    HW2 3144   4.114   3.036   1.794
  749SOL     OW 3145   0.090   1.429   5.449
  749SOL    HW1 3146   0.067   1.526   5.438
  749SOL    HW2 3147   0.162   1.404   5.385
  750SOL     OW 3148   2.470   4.593   0.485
  750SOL    HW1 3149   2.403   4.633   0.422
  750SOL    HW2 3150   2.492   4.500   0.455
  751SOL     OW 3151   5.037   1.089   0.718
  751SOL    HW1 3152   5.125   1.104   0.673
  751SOL    HW2 3153   5.051   1.039   0.803
  752SOL     OW 3154   5.475   1.224   1.764
  752SOL    HW1 3155   5.424   1.244   1.681
  752SOL    HW2 3156   5.455   1.294   1.833
  753SOL     OW 3157   2.239   2.173   3.169
  753SOL    HW1 3158   2.226   2.101   3.101
  753SOL    HW2 3159   2.260   2.259   3.123
  754SOL     OW 3160   5.060   5.653   6.921
  754SOL    HW1 3161   5.110   5.637   6.836
  754SOL    HW2 3162   5.087   5.585   6.989
  755SOL     OW 3163   0.485   6.352   2.611
  755SOL    HW1 3164   0.396   6.372   2.570
  755SOL    HW2 3165   0.556   6.400   2.560
  756SOL     OW 3166   4.051   0.682   3.259
  756SOL    HW1 3167   4.132   0.629   3.283
  756SOL    HW2 3168   3.972   0.645   3.308
  757SOL     OW 3169   7.017   0.772   4.615
  757SOL    HW1 3170   6.927   0.729   4.622
  757SOL    HW2 3171   0.048   0.723   4.548
  758SOL     OW 3172   4.353   2.434   1.685
  758SOL    HW1 3173   4.338   2.527   1.652
  758SOL    HW2 3174   4.449   2.422   1.707
  759SOL     OW 3175   1.566   1.016   0.149
  759SOL    HW1 3176   1.488   0.963   0.180
  759SOL    HW2 3177   1.544   1.060   0.062
  760SOL     OW 3178   4.535   1.197   5.943
  760SOL    HW1 3179   4.586   1.115   5.916
  760SOL    HW2 3180   4.565   1.274   5.885
  761SOL     OW 3181   5.928   3.060   6.669
  761SOL    HW1 3182   5.891   2.967   6.672
  761SOL    HW2 3183   5.863   3.119   6.621
  762SOL     OW 3184   2.152   5.547   3.588
  762SOL    HW1 3185   2.133   5.597   3.503
  762SOL    HW2 3186   2.093   5.467   3.595
  763SOL     OW 3187   5.797   5.049   5.990
  763SOL    HW1 3188   5.880   5.036   6.043
  763SOL    HW2 3189   5.751   5.133   6.018
  764SOL     OW 3190   4.298   1.081   2.264
  764SOL    HW1 3191   4.368   1.060   2.195
  764SOL    HW2 3192   4.271   1.177   2.255
  765SOL     OW 3193   0.259   0.144   3.387
  765SOL    HW1 3194   0.160   0.156   3.384
  765SOL    HW2 3195   0.296   0.196   3.464
  766SOL     OW 3196   0.578   6.335   0.105
  766SOL    HW1 3197   0.489   6.302   0.136
  766SOL    HW2 3198   0.587   6.432   0.127
  767SOL     OW 3199   6.084   0.104   2.019
  767SOL    HW1 3200   6.045   0.138   1.934
  767SOL    HW2 3201   6.052   0.162   2.095
  768SOL     OW 3202   3.460   6.683   3.286
  768SOL    HW1 3203   3.408   6.769   3.289
  768SOL    HW2 3204   3.463   6.650   3.192
  769SOL     OW 3205   3.921   1.080   5.895
  769SOL    HW1 3206   3.994   1.071   5.826
  769SOL    HW2 3207   3.923   1.001   5.956
  770SOL     OW 3208   3.524   5.046   4.084
  770SOL    HW1 3209   3.487   5.135   4.111
  770SOL    HW2 3210   3.458   4.975   4.106
  771SOL     OW 3211   0.549   6.067   3.403
  771SOL    HW1 3212   0.505   6.155   3.420
  771SOL    HW2 3213   0.483   5.993   3.414
  772SOL     OW 3214   6.849   4.290   5.161
  772SOL    HW1 3215   6.890   4.337   5.083
  772SOL    HW2 3216   6.791   4.215   5.128
  773SOL     OW 3217   0.165   4.108   2.149
  773SOL    HW1 3218   0.236   4.056   2.100
  773SOL    HW2 3219   0.159   4.200   2.111
  774SOL     OW 3220   1.333   0.915   1.871
  774SOL    HW1 3221   1.268   0.947   1.940
  774SOL    HW2 3222   1.410   0.870   1.915
  775SOL     OW 3223   1.045   2.179   4.649
  775SOL    HW1 3224   1.140   2.177   4.681
  775SOL    HW2 3225   0.983   2.178   4.727
  776SOL     OW 3226   2.336   0.725   6.166
  776SOL    HW1 3227   2.332   0.707   6.068
  776SOL    HW2 3228   2.386   0.810   6.183
  777SOL     OW 3229   4.626   0.751   1.160
  777SOL    HW1 3230   4.599   0.731   1.066
  777SOL    HW2 3231   4.612   0.848   1.180
  778SOL     OW 3232   4.343   6.718   4.023
  778SOL    HW1 3233   4.398   6.709   4.106
  778SOL    HW2 3234   4.348   6.634   3.970
  779SOL     OW 3235   0.998   1.154   2.290
  779SOL    HW1 3236   0.921   1.186   2.234
  779SOL    HW2 3237   0.964   1.122   2.378
  780SOL     OW 3238   5.180   3.445   5.153
  780SOL    HW1 3239   5.256   3.381   5.143
  780SOL    HW2 3240   5.106   3.419   5.091
  781SOL     OW 3241   0.903   1.512   5.797
  781SOL    HW1 3242   0.976   1.514   5.866
  781SOL    HW2 3243   0.876   1.417   5.781
  782SOL     OW 3244   0.244   3.686   0.647
  782SOL    HW1 3245   0.260   3.705   0.744
  782SOL    HW2 3246   0.304   3.612   0.618
  783SOL     OW 3247   2.809   4.014   0.281
  783SOL    HW1 3248   2.839   4.054   0.194
  783SOL    HW2 3249   2.725   4.058   0.310
  784SOL     OW 3250   5.428   0.211   4.306
  784SOL    HW1 3251   5.481   0.126   4.310
  784SOL    HW2 3252   5.478   0.284   4.353
  785SOL     OW 3253   6.818   2.185   3.489
  785SOL    HW1 3254   6.721   2.193   3.511
  785SOL    HW2 3255   6.840   2.244   3.411
  786SOL     OW 3256   6.786   0.098   0.029
  786SOL    HW1 3257   6.707   0.039   0.043
  786SOL    HW2 3258   6.762   0.192   0.053
  787SOL     OW 3259   3.503   1.374   6.530
  787SOL    HW1 3260   3.502   1.376   6.630
  787SOL    HW2 3261   3.420   1.329   6.497
  788SOL     OW 3262   1.098   4.541   3.850
  788SOL    HW1 3263   1.099   4.454   3.801
  788SOL    HW2 3264   1.133   4.528   3.943
  789SOL     OW 3265   5.707   3.943   1.275
  789SOL    HW1 3266   5.727   4.026   1.224
  789SOL    HW2 3267   5.785   3.919   1.333
  790SOL     OW 3268   3.088   1.089   4.021
  790SOL    HW1 3269   3.021   1.163   4.033
  790SOL    HW2 3270   3.180   1.125   4.029
  791SOL     OW 3271   4.188   1.602   4.112
  791SOL    HW1 3272   4.272   1.571   4.067
  791SOL    HW2 3273   4.211   1.664   4.187
  792SOL     OW 3274   5.833   0.531   3.468
  792SOL    HW1 3275   5.874   0.446   3.435
  792SOL    HW2 3276   5.811   0.522   3.565
  793SOL     OW 3277   6.565   0.002   6.490
  793SOL    HW1 3278   6.526   0.031   6.577
  793SOL    HW2 3279   6.656   6.988   6.505
  794SOL     OW 3280   2.395   5.358   5.114
  794SOL    HW1 3281   2.421   5.303   5.193
  794SOL    HW2 3282   2.340   5.436   5.145
  795SOL     OW 3283   4.956   4.703   6.108
  795SOL    HW1 3284   4.881   4.710   6.042
  795SOL    HW2 3285   4.922   4.663   6.193
  796SOL     OW 3286   0.970   2.187   5.921
  796SOL    HW1 3287   0.916   2.266   5.951
  796SOL    HW2 3288   0.909   2.110   5.905
  797SOL     OW 3289   5.764   2.945   4.814
  797SOL    HW1 3290   5.784   2.990   4.727
  797SOL    HW2 3291   5.800   2.852   4.814
  798SOL     OW 3292   6.224   0.657   5.821
  798SOL    HW1 3293   6.308   0.687   5.776
  798SOL    HW2 3294   6.150   0.720   5.800
  799SOL     OW 3295   6.831   3.296   3.043
  799SOL    HW1 3296   6.759   3.309   2.975
  799SOL    HW2 3297   6.800   3.328   3.132
  800SOL     OW 3298   6.514   1.385   2.096
  800SOL    HW1 3299   6.582   1.365   2.025
  800SOL    HW2 3300   6.436   1.431   2.055
  801SOL     OW 3301   0.069   2.482   3.663
  801SOL    HW1 3302   0.008   2.544   3.713
  801SOL    HW2 3303   0.038   2.388   3.676
  802SOL     OW 3304   5.968   1.235   0.672
  802SOL    HW1 3305   5.989   1.280   0.759
  802SOL    HW2 3306   6.007   1.143   0.672
  803SOL     OW 3307   1.243   6.817   5.341
  803SOL    HW1 3308   1.150   6.824   5.376
  803SOL    HW2 3309   1.250   6.867   5.254
  804SOL     OW 3310   6.808   0.718   0.568
  804SOL    HW1 3311   6.791   0.728   0.470
  804SOL    HW2 3312   6.907   0.713   0.584
  805SOL     OW 3313   1.842   3.083   6.005
  805SOL    HW1 3314   1.847   3.183   5.995
  805SOL    HW2 3315   1.878   3.057   6.095
  806SOL     OW 3316   5.658   0.807   0.681
  806SOL    HW1 3317   5.563   0.777   0.675
  806SOL    HW2 3318   5.664   0.886   0.743
  807SOL     OW 3319   1.471   0.438   3.235
  807SOL    HW1 3320   1.518   0.360   3.277
  807SOL    HW2 3321   1.475   0.430   3.135
  808SOL     OW 3322   5.390   3.437   4.674
  808SOL    HW1 3323   5.435   3.483   4.598
  808SOL    HW2 3324   5.346   3.506   4.733
  809SOL     OW 3325   0.287   4.700   6.143
  809SOL    HW1 3326   0.323   4.610   6.167
  809SOL    HW2 3327   0.324   4.769   6.206
  810SOL     OW 3328   6.179   4.557   6.753
  810SOL    HW1 3329   6.205   4.615   6.675
  810SOL    HW2 3330   6.228   4.587   6.834
  811SOL     OW 3331   4.925   5.078   4.131
  811SOL    HW1 3332   4.920   5.069   4.032
  811SOL    HW2 3333   4.882   5.164   4.159
  812SOL     OW 3334   0.467   0.132   2.682
  812SOL    HW1 3335   0.464   0.197   2.606
  812SOL    HW2 3336   0.462   0.180   2.769
  813SOL     OW 3337   6.381   5.590   2.467
  813SOL    HW1 3338   6.375   5.665   2.401
  813SOL    HW2 3339   6.451   5.526   2.438
  814SOL     OW 3340   5.152   5.682   1.241
  814SOL    HW1 3341   5.100   5.723   1.166
  814SOL    HW2 3342   5.244   5.660   1.209
  815SOL     OW 3343   0.730   2.278   0.708
  815SOL    HW1 3344   0.827   2.284   0.685
  815SOL    HW2 3345   0.675   2.297   0.627
  816SOL     OW 3346   6.393   0.664   1.056
  816SOL    HW1 3347   6.369   0.575   1.094
  816SOL    HW2 3348   6.487   0.662   1.023
  817SOL     OW 3349   1.924   2.086   2.630
  817SOL    HW1 3350   1.839   2.036   2.611
  817SOL    HW2 3351   1.914   2.180   2.596
  818SOL     OW 3352   6.666   1.952   1.253
  818SOL    HW1 3353   6.675   2.047   1.281
  818SOL    HW2 3354   6.702   1.892   1.324
  819SOL     OW 3355   0.331   4.117   3.482
  819SOL    HW1 3356   0.300   4.111   3.387
  819SOL    HW2 3357   0.255   4.141   3.542
  820SOL     OW 3358   0.914   3.478   4.565
  820SOL    HW1 3359   0.975   3.498   4.488
  820SOL    HW2 3360   0.903   3.379   4.574
  821SOL     OW 3361   1.091   3.500   0.353
  821SOL    HW1 3362   1.145   3.539   0.278
  821SOL    HW2 3363   1.151   3.481   0.431
  822SOL     OW 3364   1.354   3.512   4.443
  822SOL    HW1 3365   1.283   3.530   4.511
  822SOL    HW2 3366   1.439   3.486   4.489
  823SOL     OW 3367   3.141   3.233   1.049
  823SOL    HW1 3368   3.163   3.318   1.001
  823SOL    HW2 3369   3.111   3.165   0.982
  824SOL     OW 3370   6.194   2.201   5.718
  824SOL    HW1 3371   6.268   2.197   5.650
  824SOL    HW2 3372   6.154   2.292   5.719
  825SOL     OW 3373   1.662   4.054   2.354
  825SOL    HW1 3374   1.666   4.064   2.453
  825SOL    HW2 3375   1.612   3.970   2.331
  826SOL     OW 3376   0.419   3.940   5.958
  826SOL    HW1 3377   0.423   4.012   5.888
  826SOL    HW2 3378   0.342   3.958   6.018
  827SOL     OW 3379   4.291   5.934   0.283
  827SOL    HW1 3380   4.286   6.033   0.294
  827SOL    HW2 3381   4.374   5.910   0.233
  828SOL     OW 3382   6.302   6.407   6.694
  828SOL    HW1 3383   6.315   6.362   6.782
  828SOL    HW2 3384   6.341   6.351   6.621
  829SOL     OW 3385   3.694   2.888   4.773
  829SOL    HW1 3386   3.741   2.841   4.699
  829SOL    HW2 3387   3.761   2.927   4.836
  830SOL     OW 3388   4.584   4.045   5.369
  830SOL    HW1 3389   4.659   4.052   5.303
  830SOL    HW2 3390   4.595   4.115   5.439
  831SOL     OW 3391   6.387   0.735   5.165
  831SOL    HW1 3392   6.300   0.754   5.120
  831SOL    HW2 3393   6.404   0.637   5.165
  832SOL     OW 3394   2.729   1.196   5.968
  832SOL    HW1 3395   2.641   1.242   5.957
  832SOL    HW2 3396   2.723   1.128   6.041
  833SOL     OW 3397   1.168   6.836   6.335
  833SOL    HW1 3398   1.097   6.841   6.265
  833SOL    HW2 3399   1.256   6.861   6.295
  834SOL     OW 3400   3.118   4.338   5.538
  834SOL    HW1 3401   3.168   4.251   5.543
  834SOL    HW2 3402   3.042   4.328   5.474
  835SOL     OW 3403   3.849   0.427   2.850
  835SOL    HW1 3404   3.824   0.465   2.939
  835SOL    HW2 3405   3.935   0.377   2.859
  836SOL     OW 3406   2.378   1.000   0.670
  836SOL    HW1 3407   2.370   1.076   0.606
  836SOL    HW2 3408   2.358   0.914   0.623
  837SOL     OW 3409   4.064   0.425   5.724
  837SOL    HW1 3410   4.111   0.337   5.724
  837SOL    HW2 3411   4.001   0.430   5.801
  838SOL     OW 3412   2.044   4.453   2.596
  838SOL    HW1 3413   1.981   4.399   2.540
  838SOL    HW2 3414   2.024   4.438   2.692
  839SOL     OW 3415   3.209   1.345   1.900
  839SOL    HW1 3416   3.306   1.346   1.872
  839SOL    HW2 3417   3.192   1.266   1.959
  840SOL     OW 3418   1.137   1.744   6.597
  840SOL    HW1 3419   1.183   1.827   6.566
  840SOL    HW2 3420   1.164   1.667   6.539
  841SOL     OW 3421   0.468   3.611   0.366
  841SOL    HW1 3422   0.554   3.648   0.401
  841SOL    HW2 3423   0.453   3.520   0.404
  842SOL     OW 3424   3.720   5.285   3.932
  842SOL    HW1 3425   3.734   5.281   3.833
  842SOL    HW2 3426   3.624   5.306   3.951
  843SOL     OW 3427   6.553   2.982   2.316
  843SOL    HW1 3428   6.511   3.035   2.242
  843SOL    HW2 3429   6.552   2.885   2.293
  844SOL     OW 3430   5.195   5.304   0.739
  844SOL    HW1 3431   5.291   5.280   0.727
  844SOL    HW2 3432   5.153   5.321   0.650
  845SOL     OW 3433   0.768   4.606   4.562
  845SOL    HW1 3434   0.819   4.687   4.532
  845SOL    HW2 3435   0.832   4.538   4.596
  846SOL     OW 3436   5.966   2.327   6.724
  846SOL    HW1 3437   6.053   2.349   6.680
  846SOL    HW2 3438   5.957   2.380   6.808
  847SOL     OW 3439   5.052   3.419   2.057
  847SOL    HW1 3440   4.984   3.389   1.990
  847SOL    HW2 3441   5.068   3.345   2.123
  848SOL     OW 3442   6.953   0.151   5.718
  848SOL    HW1 3443   6.938   0.070   5.776
  848SOL    HW2 3444   6.986   0.122   5.628
  849SOL     OW 3445   0.511   5.312   4.155
  849SOL    HW1 3446   0.532   5.388   4.216
  849SOL    HW2 3447   0.414   5.312   4.134
  850SOL     OW 3448   3.478   0.897   2.793
  850SOL    HW1 3449   3.511   0.914   2.700
  850SOL    HW2 3450   3.494   0.800   2.816
  851SOL     OW 3451   0.639   0.474   5.999
  851SOL    HW1 3452   0.613   0.411   5.926
  851SOL    HW2 3453   0.573   0.468   6.074
  852SOL     OW 3454   2.366   4.253   6.196
  852SOL    HW1 3455   2.447   4.293   6.151
  852SOL    HW2 3456   2.389   4.228   6.290
  853SOL     OW 3457   1.495   3.356   1.350
  853SOL    HW1 3458   1.573   3.298   1.375
  853SOL    HW2 3459   1.456   3.397   1.432
  854SOL     OW 3460   5.211   5.082   2.064
  854SOL    HW1 3461   5.120   5.045   2.042
  854SOL    HW2 3462   5.281   5.021   2.028
  855SOL     OW 3463   5.906   0.454   1.662
  855SOL    HW1 3464   5.905   0.529   1.727
  855SOL    HW2 3465   5.931   0.369   1.708
  856SOL     OW 3466   1.794   0.319   4.749
  856SOL    HW1 3467   1.754   0.228   4.761
  856SOL    HW2 3468   1.877   0.327   4.805
  857SOL     OW 3469   6.645   3.860   2.074
  857SOL    HW1 3470   6.673   3.954   2.052
  857SOL    HW2 3471   6.644   3.847   2.173
  858SOL     OW 3472   3.175   3.943   1.147
  858SOL    HW1 3473   3.269   3.909   1.138
  858SOL    HW2 3474   3.150   3.947   1.244
  859SOL     OW 3475   6.920   4.973   0.342
  859SOL    HW1 3476   6.864   4.974   0.426
  859SOL    HW2 3477   7.014   4.949   0.365
  860SOL     OW 3478   1.610   5.027   1.683
  860SOL    HW1 3479   1.684   5.017   1.618
  860SOL    HW2 3480   1.556   5.108   1.660
  861SOL     OW 3481   3.783   5.674   5.565
  861SOL    HW1 3482   3.810   5.602   5.500
  861SOL    HW2 3483   3.860   5.736   5.580
  862SOL     OW 3484   4.550   4.467   4.377
  862SOL    HW1 3485   4.582   4.424   4.461
  862SOL    HW2 3486   4.628   4.508   4.329
  863SOL     OW 3487   6.062   1.279   0.925
  863SOL    HW1 3488   5.979   1.255   0.975
  863SOL    HW2 3489   6.100   1.365   0.962
  864SOL     OW 3490   6.159   4.328   2.497
  864SOL    HW1 3491   6.141   4.273   2.579
  864SOL    HW2 3492   6.181   4.422   2.524
  865SOL     OW 3493   1.417   0.709   4.533
  865SOL    HW1 3494   1.336   0.759   4.503
  865SOL    HW2 3495   1.441   0.640   4.465
  866SOL     OW 3496   3.619   1.195   1.695
  866SOL    HW1 3497   3.560   1.230   1.623
  866SOL    HW2 3498   3.594   1.100   1.715
  867SOL     OW 3499   1.751   2.381   6.052
  867SOL    HW1 3500   1.691   2.326   5.995
  867SOL    HW2 3501   1.748   2.476   6.022
  868SOL     OW 3502   5.230   2.850   3.370
  868SOL    HW1 3503   5.311   2.862   3.427
  868SOL    HW2 3504   5.241   2.899   3.284
  869SOL     OW 3505   6.251   4.100   2.378
  869SOL    HW1 3506   6.206   4.179   2.419
  869SOL    HW2 3507   6.340   4.128   2.341
  870SOL     OW 3508   0.085   2.833   0.953
  870SOL    HW1 3509   0.017   2.848   1.025
  870SOL    HW2 3510   0.120   2.921   0.922
  871SOL     OW 3511   5.576   3.854   0.978
  871SOL    HW1 3512   5.594   3.952   0.990
  871SOL    HW2 3513   5.585   3.830   0.882
  872SOL     OW 3514   5.389   2.471   2.482
  872SOL    HW1 3515   5.381   2.513   2.392
  872SOL    HW2 3516   5.310   2.496   2.538
  873SOL     OW 3517   4.761   6.557   5.739
  873SOL    HW1 3518   4.834   6.581   5.675
  873SOL    HW2 3519   4.719   6.471   5.711
  874SOL     OW 3520   0.115   3.486   6.395
  874SOL    HW1 3521   0.057   3.568   6.398
  874SOL    HW2 3522   0.107   3.436   6.481
  875SOL     OW 3523   6.401   5.045   6.504
  875SOL    HW1 3524   6.500   5.039   6.494
  875SOL    HW2 3525   6.372   5.140   6.494
  876SOL     OW 3526   0.930   2.851   1.394
  876SOL    HW1 3527   0.841   2.885   1.427
  876SOL    HW2 3528   0.976   2.801   1.467
  877SOL     OW 3529   5.949   5.732   0.700
  877SOL    HW1 3530   5.880   5.705   0.768
  877SOL    HW2 3531   5.977   5.827   0.717
  878SOL     OW 3532   3.049   2.778   0.190
  878SOL    HW1 3533   3.053   2.685   0.227
  878SOL    HW2 3534   3.077   2.843   0.261
  879SOL     OW 3535   4.377   1.989   2.838
  879SOL    HW1 3536   4.394   1.933   2.757
  879SOL    HW2 3537   4.330   1.934   2.907
  880SOL     OW 3538   4.054   5.097   0.699
  880SOL    HW1 3539   3.976   5.106   0.761
  880SOL    HW2 3540   4.132   5.149   0.736
  881SOL     OW 3541   3.956   5.225   4.825
  881SOL    HW1 3542   4.049   5.242   4.793
  881SOL    HW2 3543   3.896   5.209   4.747
  882SOL     OW 3544   1.199   1.652   4.622
  882SOL    HW1 3545   1.150   1.633   4.708
  882SOL    HW2 3546   1.136   1.695   4.558
  883SOL     OW 3547   2.952   4.552   6.997
  883SOL    HW1 3548   2.874   4.608   6.968
  883SOL    HW2 3549   3.029   4.569   6.936
  884SOL     OW 3550   4.340   3.756   1.724
  884SOL    HW1 3551   4.389   3.676   1.757
  884SOL    HW2 3552   4.392   3.839   1.748
  885SOL     OW 3553   4.715   5.932   6.750
  885SOL    HW1 3554   4.661   6.015   6.752
  885SOL    HW2 3555   4.681   5.871   6.678
  886SOL     OW 3556   4.439   1.089   6.197
  886SOL    HW1 3557   4.459   1.146   6.117
  886SOL    HW2 3558   4.387   1.009   6.168
  887SOL     OW 3559   5.264   0.305   6.628
  887SOL    HW1 3560   5.222   0.217   6.650
  887SOL    HW2 3561   5.350   0.290   6.580
  888SOL     OW 3562   6.258   6.621   3.621
  888SOL    HW1 3563   6.293   6.534   3.658
  888SOL    HW2 3564   6.244   6.612   3.523
  889SOL     OW 3565   1.067   6.909   4.742
  889SOL    HW1 3566   1.163   6.914   4.769
  889SOL    HW2 3567   1.010   6.895   4.823
  890SOL     OW 3568   2.185   4.908   2.623
  890SOL    HW1 3569   2.197   4.951   2.533
  890SOL    HW2 3570   2.098   4.937   2.662
  891SOL     OW 3571   5.804   3.568   6.081
  891SOL    HW1 3572   5.844   3.619   6.158
  891SOL    HW2 3573   5.803   3.626   6.000
  892SOL     OW 3574   2.442   5.687   1.601
  892SOL    HW1 3575   2.499   5.606   1.614
  892SOL    HW2 3576   2.492   5.768   1.631
  893SOL     OW 3577   2.014   6.758   0.805
  893SOL    HW1 3578   2.062   6.799   0.728
  893SOL    HW2 3579   2.034   6.811   0.888
  894SOL     OW 3580   1.349   5.422   3.774
  894SOL    HW1 3581   1.302   5.349   3.823
  894SOL    HW2 3582   1.283   5.493   3.750
  895SOL     OW 3583   1.984   0.454   4.931
  895SOL    HW1 3584   2.002   0.542   4.974
  895SOL    HW2 3585   2.067   0.398   4.934
  896SOL     OW 3586   5.505   6.879   3.760
  896SOL    HW1 3587   5.561   6.856   3.840
  896SOL    HW2 3588   5.562   6.878   3.678
  897SOL     OW 3589   5.512   2.300   6.070
  897SOL    HW1 3590   5.575   2.273   6.142
  897SOL    HW2 3591   5.457   2.221   6.043
  898SOL     OW 3592   6.105   6.200   3.952
  898SOL    HW1 3593   6.196   6.169   3.981
  898SOL    HW2 3594   6.107   6.299   3.935
  899SOL     OW 3595   1.054   4.467   6.598
  899SOL    HW1 3596   1.046   4.536   6.526
  899SOL    HW2 3597   1.082   4.512   6.683
  900SOL     OW 3598   0.582   5.639   3.590
  900SOL    HW1 3599   0.671   5.650   3.547
  900SOL    HW2 3600   0.518   5.706   3.553
  901SOL     OW 3601   5.537   1.952   3.163
  901SOL    HW1 3602   5.625   1.984   3.126
  901SOL    HW2 3603   5.498   2.023   3.221
  902SOL     OW 3604   0.877   6.007   0.455
  902SOL    HW1 3605   0.969   5.994   0.490
  902SOL    HW2 3606   0.866   6.102   0.424
  903SOL     OW 3607   0.587   4.672   6.948
  903SOL    HW1 3608   0.531   4.606   6.898
  903SOL    HW2 3609   0.551   4.764   6.934
  904SOL     OW 3610   1.490   1.368   3.623
  904SOL    HW1 3611   1.411   1.372   3.563
  904SOL    HW2 3612   1.490   1.448   3.683
  905SOL     OW 3613   6.425   1.897   5.721
  905SOL    HW1 3614   6.479   1.813   5.707
  905SOL    HW2 3615   6.372   1.889   5.805
  906SOL     OW 3616   6.391   3.845   5.217
  906SOL    HW1 3617   6.382   3.768   5.281
  906SOL    HW2 3618   6.301   3.884   5.199
  907SOL     OW 3619   0.445   3.530   1.308
  907SOL    HW1 3620   0.433   3.596   1.234
  907SOL    HW2 3621   0.359   3.519   1.357
  908SOL     OW 3622   1.948   0.991   3.124
  908SOL    HW1 3623   1.952   0.906   3.070
  908SOL    HW2 3624   1.985   0.974   3.216
  909SOL     OW 3625   4.283   0.332   1.161
  909SOL    HW1 3626   4.271   0.427   1.133
  909SOL    HW2 3627   4.195   0.286   1.161
  910SOL     OW 3628   1.958   2.197   1.896
  910SOL    HW1 3629   1.975   2.127   1.826
  910SOL    HW2 3630   1.876   2.250   1.871
  911SOL     OW 3631   0.384   4.376   1.079
  911SOL    HW1 3632   0.290   4.351   1.101
  911SOL    HW2 3633   0.387   4.469   1.044
  912SOL     OW 3634   0.922   0.413   6.369
  912SOL    HW1 3635   0.945   0.381   6.277
  912SOL    HW2 3636   1.005   0.420   6.424
  913SOL     OW 3637   2.143   1.744   1.777
  913SOL    HW1 3638   2.164   1.775   1.869
  913SOL    HW2 3639   2.050   1.707   1.774
  914SOL     OW 3640   2.853   6.071   3.030
  914SOL    HW1 3641   2.877   6.085   3.126
  914SOL    HW2 3642   2.754   6.054   3.022
  915SOL     OW 3643   1.322   2.522   6.615
  915SOL    HW1 3644   1.357   2.428   6.614
  915SOL    HW2 3645   1.371   2.577   6.547
  916SOL     OW 3646   1.113   3.490   2.679
  916SOL    HW1 3647   1.154   3.443   2.756
  916SOL    HW2 3648   1.163   3.469   2.595
  917SOL     OW 3649   3.504   2.476   6.553
  917SOL    HW1 3650   3.422   2.501   6.605
  917SOL    HW2 3651   3.481   2.468   6.456
  918SOL     OW 3652   1.159   0.719   5.513
  918SOL    HW1 3653   1.246   0.757   5.481
  918SOL    HW2 3654   1.169   0.621   5.529
  919SOL     OW 3655   2.315   0.476   1.119
  919SOL    HW1 3656   2.224   0.435   1.125
  919SOL    HW2 3657   2.306   0.573   1.097
  920SOL     OW 3658   2.137   0.947   3.658
  920SOL    HW1 3659   2.170   1.010   3.587
  920SOL    HW2 3660   2.159   0.853   3.631
  921SOL     OW 3661   4.576   4.512   6.582
  921SOL    HW1 3662   4.542   4.528   6.675
  921SOL    HW2 3663   4.525   4.569   6.518
  922SOL     OW 3664   1.963   4.004   6.313
  922SOL    HW1 3665   2.016   4.045   6.239
  922SOL    HW2 3666   1.964   3.905   6.303
  923SOL     OW 3667   4.130   1.244   6.593
  923SOL    HW1 3668   4.065   1.191   6.648
  923SOL    HW2 3669   4.201   1.183   6.558
  924SOL     OW 3670   6.375   4.382   2.919
  924SOL    HW1 3671   6.454   4.321   2.922
  924SOL    HW2 3672   6.298   4.339   2.965
  925SOL     OW 3673   6.731   1.695   2.751
  925SOL    HW1 3674   6.768   1.606   2.726
  925SOL    HW2 3675   6.653   1.683   2.814
  926SOL     OW 3676   5.585   6.179   1.169
  926SOL    HW1 3677   5.488   6.164   1.187
  926SOL    HW2 3678   5.597   6.258   1.109
  927SOL     OW 3679   5.075   5.363   4.842
  927SOL    HW1 3680   5.171   5.391   4.843
  927SOL    HW2 3681   5.066   5.275   4.888
  928SOL     OW 3682   0.373   1.380   1.150
  928SOL    HW1 3683   0.463   1.398   1.110
  928SOL    HW2 3684   0.383   1.360   1.247
  929SOL     OW 3685   0.556   2.372   2.507
  929SOL    HW1 3686   0.562   2.366   2.407
  929SOL    HW2 3687   0.611   2.300   2.548
  930SOL     OW 3688   5.520   5.736   2.930
  930SOL    HW1 3689   5.455   5.686   2.872
  930SOL    HW2 3690   5.614   5.717   2.899
  931SOL     OW 3691   1.766   3.150   2.453
  931SOL    HW1 3692   1.814   3.063   2.454
  931SOL    HW2 3693   1.714   3.159   2.368
  932SOL     OW 3694   4.724   6.385   0.933
  932SOL    HW1 3695   4.808   6.421   0.973
  932SOL    HW2 3696   4.647   6.404   0.994
  933SOL     OW 3697   1.626   5.622   3.979
  933SOL    HW1 3698   1.530   5.637   4.003
  933SOL    HW2 3699   1.678   5.604   4.062
  934SOL     OW 3700   3.361   0.522   5.341
  934SOL    HW1 3701   3.345   0.424   5.328
  934SOL    HW2 3702   3.391   0.563   5.255
  935SOL     OW 3703   2.327   3.121   6.078
  935SOL    HW1 3704   2.273   3.142   6.159
  935SOL    HW2 3705   2.282   3.157   5.997
  936SOL     OW 3706   0.074   1.989   1.835
  936SOL    HW1 3707   7.020   1.933   1.863
  936SOL    HW2 3708   0.050   2.042   1.753
  937SOL     OW 3709   5.323   2.119   3.643
  937SOL    HW1 3710   5.370   2.202   3.612
  937SOL    HW2 3711   5.229   2.141   3.666
  938SOL     OW 3712   6.656   1.628   0.030
  938SOL    HW1 3713   6.720   1.607   0.104
  938SOL    HW2 3714   6.628   1.724   0.037
  939SOL     OW 3715   6.490   0.746   5.671
  939SOL    HW1 3716   6.486   0.799   5.586
  939SOL    HW2 3717   6.514   0.651   5.650
  940SOL     OW 3718   0.482   0.704   4.132
  940SOL    HW1 3719   0.489   0.653   4.217
  940SOL    HW2 3720   0.388   0.735   4.119
  941SOL     OW 3721   5.726   3.066   5.063
  941SOL    HW1 3722   5.676   2.993   5.109
  941SOL    HW2 3723   5.749   3.037   4.970
  942SOL     OW 3724   4.760   0.435   5.480
  942SOL    HW1 3725   4.791   0.343   5.455
  942SOL    HW2 3726   4.758   0.444   5.579
  943SOL     OW 3727   5.877   2.004   0.030
  943SOL    HW1 3728   5.831   2.089   0.054
  943SOL    HW2 3729   5.895   2.002   6.956
  944SOL     OW 3730   5.315   3.893   4.636
  944SOL    HW1 3731   5.266   3.969   4.679
  944SOL    HW2 3732   5.400   3.877   4.685
  945SOL     OW 3733   5.476   3.552   5.246
  945SOL    HW1 3734   5.414   3.568   5.323
  945SOL    HW2 3735   5.449   3.468   5.200
  946SOL     OW 3736   5.708   2.982   6.417
  946SOL    HW1 3737   5.720   3.077   6.446
  946SOL    HW2 3738   5.778   2.958   6.350
  947SOL     OW 3739   0.987   2.514   5.391
  947SOL    HW1 3740   1.027   2.602   5.417
  947SOL    HW2 3741   1.055   2.442   5.404
  948SOL     OW 3742   4.036   1.936   0.756
  948SOL    HW1 3743   3.989   1.875   0.693
  948SOL    HW2 3744   4.009   1.914   0.850
  949SOL     OW 3745   5.630   5.743   6.857
  949SOL    HW1 3746   5.647   5.705   6.766
  949SOL    HW2 3747   5.710   5.795   6.887
  950SOL     OW 3748   3.796   5.309   0.421
  950SOL    HW1 3749   3.822   5.376   0.352
  950SOL    HW2 3750   3.862   5.234   0.423
  951SOL     OW 3751   0.650   2.435   3.404
  951SOL    HW1 3752   0.604   2.357   3.446
  951SOL    HW2 3753   0.633   2.434   3.306
  952SOL     OW 3754   5.218   0.812   1.653
  952SOL    HW1 3755   5.318   0.817   1.653
  952SOL    HW2 3756   5.181   0.904   1.636
  953SOL     OW 3757   3.639   6.399   5.750
  953SOL    HW1 3758   3.611   6.468   5.683
  953SOL    HW2 3759   3.725   6.427   5.792
  954SOL     OW 3760   0.237   6.582   1.455
  954SOL    HW1 3761   0.307   6.511   1.454
  954SOL    HW2 3762   0.161   6.555   1.396
  955SOL     OW 3763   6.909   6.720   2.436
  955SOL    HW1 3764   6.932   6.814   2.412
  955SOL    HW2 3765   6.813   6.714   2.464
  956SOL     OW 3766   1.134   2.500   6.879
  956SOL    HW1 3767   1.223   2.544   6.893
  956SOL    HW2 3768   1.080   2.555   6.816
  957SOL     OW 3769   2.507   6.581   4.916
  957SOL    HW1 3770   2.417   6.557   4.881
  957SOL    HW2 3771   2.515   6.554   5.012
  958SOL     OW 3772   4.609   2.130   0.450
  958SOL    HW1 3773   4.583   2.094   0.540
  958SOL    HW2 3774   4.669   2.210   0.463
  959SOL     OW 3775   1.793   3.934   2.059
  959SOL    HW1 3776   1.807   3.920   2.157
  959SOL    HW2 3777   1.735   4.014   2.045
  960SOL     OW 3778   1.406   5.506   5.405
  960SOL    HW1 3779   1.439   5.421   5.364
  960SOL    HW2 3780   1.308   5.499   5.421
  961SOL     OW 3781   3.285   6.824   0.991
  961SOL    HW1 3782   3.225   6.752   0.956
  961SOL    HW2 3783   3.373   6.785   1.016
  962SOL     OW 3784   1.739   6.269   4.097
  962SOL    HW1 3785   1.720   6.178   4.060
  962SOL    HW2 3786   1.686   6.337   4.045
  963SOL     OW 3787   5.831   0.290   2.594
  963SOL    HW1 3788   5.772   0.268   2.671
  963SOL    HW2 3789   5.851   0.206   2.543
  964SOL     OW 3790   5.510   3.553   1.032
  964SOL    HW1 3791   5.580   3.483   1.019
  964SOL    HW2 3792   5.534   3.634   0.978
  965SOL     OW 3793   1.474   2.442   0.424
  965SOL    HW1 3794   1.517   2.484   0.344
  965SOL    HW2 3795   1.545   2.415   0.490
  966SOL     OW 3796   6.838   2.578   1.823
  966SOL    HW1 3797   6.839   2.613   1.729
  966SOL    HW2 3798   6.868   2.483   1.823
  967SOL     OW 3799   1.151   5.935   2.706
  967SOL    HW1 3800   1.209   5.981   2.773
  967SOL    HW2 3801   1.159   5.981   2.618
  968SOL     OW 3802   6.621   4.629   1.665
  968SOL    HW1 3803   6.655   4.536   1.681
  968SOL    HW2 3804   6.542   4.646   1.723
  969SOL     OW 3805   4.097   6.180   6.914
  969SOL    HW1 3806   4.167   6.251   6.922
  969SOL    HW2 3807   4.127   6.098   6.963
  970SOL     OW 3808   4.514   2.284   5.128
  970SOL    HW1 3809   4.560   2.197   5.148
  970SOL    HW2 3810   4.574   2.360   5.155
  971SOL     OW 3811   0.507   2.518   1.111
  971SOL    HW1 3812   0.421   2.567   1.094
  971SOL    HW2 3813   0.527   2.457   1.034
  972SOL     OW 3814   6.221   6.080   1.169
  972SOL    HW1 3815   6.303   6.089   1.225
  972SOL    HW2 3816   6.174   6.168   1.163
  973SOL     OW 3817   5.651   3.773   5.320
  973SOL    HW1 3818   5.557   3.805   5.313
  973SOL    HW2 3819   5.676   3.762   5.417
  974SOL     OW 3820   3.277   1.531   4.138
  974SOL    HW1 3821   3.356   1.581   4.172
  974SOL    HW2 3822   3.295   1.499   4.045
  975SOL     OW 3823   3.357   6.592   5.384
  975SOL    HW1 3824   3.393   6.500   5.403
  975SOL    HW2 3825   3.258   6.587   5.371
  976SOL     OW 3826   6.947   6.382   3.964
  976SOL    HW1 3827   6.862   6.351   4.006
  976SOL    HW2 3828   6.962   6.333   3.878
  977SOL     OW 3829   1.592   2.487   2.490
  977SOL    HW1 3830   1.544   2.419   2.545
  977SOL    HW2 3831   1.595   2.458   2.395
  978SOL     OW 3832   5.987   3.220   4.515
  978SOL    HW1 3833   6.008   3.152   4.445
  978SOL    HW2 3834   6.069   3.237   4.570
  979SOL     OW 3835   5.715   1.742   3.355
  979SOL    HW1 3836   5.765   1.739   3.268
  979SOL    HW2 3837   5.656   1.823   3.356
  980SOL     OW 3838   6.584   1.101   4.921
  980SOL    HW1 3839   6.572   1.044   4.839
  980SOL    HW2 3840   6.569   1.045   5.002
  981SOL     OW 3841   7.004   3.403   5.176
  981SOL    HW1 3842   6.914   3.421   5.134
  981SOL    HW2 3843   7.008   3.308   5.206
  982SOL     OW 3844   1.640   2.824   1.080
  982SOL    HW1 3845   1.652   2.845   1.177
  982SOL    HW2 3846   1.718   2.770   1.048
  983SOL     OW 3847   5.941   1.531   2.899
  983SOL    HW1 3848   6.003   1.456   2.923
  983SOL    HW2 3849   5.966   1.567   2.808
  984SOL     OW 3850   4.716   1.648   4.571
  984SOL    HW1 3851   4.793   1.590   4.544
  984SOL    HW2 3852   4.715   1.659   4.670
  985SOL     OW 3853   3.117   5.027   1.170
  985SOL    HW1 3854   3.102   4.928   1.165
  985SOL    HW2 3855   3.180   5.047   1.245
  986SOL     OW 3856   3.882   5.167   6.434
  986SOL    HW1 3857   3.942   5.180   6.355
  986SOL    HW2 3858   3.850   5.256   6.466
  987SOL     OW 3859   3.406   6.709   1.954
  987SOL    HW1 3860   3.411   6.623   1.903
  987SOL    HW2 3861   3.492   6.759   1.944
  988SOL     OW 3862   3.458   3.980   1.972
  988SOL    HW1 3863   3.479   3.917   1.898
  988SOL    HW2 3864   3.542   4.005   2.020
  989SOL     OW 3865   0.553   6.923   4.752
  989SOL    HW1 3866   0.522   7.001   4.698
  989SOL    HW2 3867   0.558   6.842   4.695
  990SOL     OW 3868   4.834   6.321   3.439
  990SOL    HW1 3869   4.930   6.331   3.467
  990SOL    HW2 3870   4.831   6.307   3.340
  991SOL     OW 3871   6.775   1.504   5.111
  991SOL    HW1 3872   6.715   1.424   5.117
  991SOL    HW2 3873   6.842   1.501   5.186
  992SOL     OW 3874   6.927   3.103   1.089
  992SOL    HW1 3875   6.953   3.023   1.143
  992SOL    HW2 3876   7.007   3.161   1.075
  993SOL     OW 3877   3.460   5.363   3.967
  993SOL    HW1 3878   3.372   5.320   3.946
  993SOL    HW2 3879   3.459   5.395   4.062
  994SOL     OW 3880   3.121   3.898   2.442
  994SOL    HW1 3881   3.061   3.891   2.362
  994SOL    HW2 3882   3.215   3.875   2.415
  995SOL     OW 3883   0.357   1.145   4.762
  995SOL    HW1 3884   0.301   1.120   4.841
  995SOL    HW2 3885   0.310   1.117   4.678
  996SOL     OW 3886   1.274   3.623   1.761
  996SOL    HW1 3887   1.212   3.585   1.829
  996SOL    HW2 3888   1.262   3.723   1.757
  997SOL     OW 3889   0.072   0.824   1.329
  997SOL    HW1 3890   7.007   0.852   1.295
  997SOL    HW2 3891   0.060   0.760   1.406
  998SOL     OW 3892   4.730   0.222   3.188
  998SOL    HW1 3893   4.662   0.193   3.120
  998SOL    HW2 3894   4.689   0.222   3.279
  999SOL     OW 3895   6.888   5.568   1.418
  999SOL    HW1 3896   6.910   5.626   1.497
  999SOL    HW2 3897   6.964   5.571   1.352
 1000SOL     OW 3898   4.010   2.169   4.018
 1000SOL    HW1 3899   4.023   2.076   3.983
 1000SOL    HW2 3900   4.077   2.230   3.977
 1001SOL     OW 3901   4.472   0.427   5.763
 1001SOL    HW1 3902   4.405   0.492   5.728
 1001SOL    HW2 3903   4.425   0.349   5.804
 1002SOL     OW 3904   6.797   1.583   0.275
 1002SOL    HW1 3905   6.815   1.534   0.360
 1002SOL    HW2 3906   6.801   1.681   0.291
 1003SOL     OW 3907   4.623   4.692   2.892
 1003SOL    HW1 3908   4.540   4.686   2.948
 1003SOL    HW2 3909   4.700   4.654   2.943
 1004SOL     OW 3910   5.758   5.695   0.878
 1004SOL    HW1 3911   5.684   5.639   0.840
 1004SOL    HW2 3912   5.720   5.780   0.914
 1005SOL     OW 3913   6.596   6.073   3.826
 1005SOL    HW1 3914   6.620   6.141   3.757
 1005SOL    HW2 3915   6.554   6.118   3.904
 1006SOL     OW 3916   2.245   4.300   0.933
 1006SOL    HW1 3917   2.197   4.235   0.992
 1006SOL    HW2 3918   2.340   4.272   0.923
 1007SOL     OW 3919   1.216   0.302   3.637
 1007SOL    HW1 3920   1.280   0.367   3.677
 1007SOL    HW2 3921   1.154   0.349   3.574
 1008SOL     OW 3922   2.488   2.574   3.572
 1008SOL    HW1 3923   2.537   2.493   3.541
 1008SOL    HW2 3924   2.436   2.552   3.655
 1009SOL     OW 3925   1.628   5.677   4.827
 1009SOL    HW1 3926   1.615   5.578   4.830
 1009SOL    HW2 3927   1.578   5.720   4.902
 1010SOL     OW 3928   4.464   1.431   6.847
 1010SOL    HW1 3929   4.545   1.490   6.842
 1010SOL    HW2 3930   4.403   1.452   6.770
 1011SOL     OW 3931   3.380   5.526   3.723
 1011SOL    HW1 3932   3.300   5.549   3.779
 1011SOL    HW2 3933   3.444   5.471   3.777
 1012SOL     OW 3934   4.566   5.731   7.008
 1012SOL    HW1 3935   4.494   5.706   6.943
 1012SOL    HW2 3936   4.656   5.714   6.968
 1013SOL     OW 3937   6.965   1.142   1.116
 1013SOL    HW1 3938   6.940   1.061   1.062
 1013SOL    HW2 3939   0.039   1.141   1.134
 1014SOL     OW 3940   5.330   0.593   6.313
 1014SOL    HW1 3941   5.372   0.503   6.298
 1014SOL    HW2 3942   5.320   0.609   6.411
 1015SOL     OW 3943   3.026   6.231   4.389
 1015SOL    HW1 3944   3.021   6.148   4.334
 1015SOL    HW2 3945   3.085   6.297   4.342
 1016SOL     OW 3946   4.727   2.495   1.539
 1016SOL    HW1 3947   4.755   2.591   1.547
 1016SOL    HW2 3948   4.640   2.489   1.489
 1017SOL     OW 3949   4.642   2.054   6.866
 1017SOL    HW1 3950   4.599   1.963   6.870
 1017SOL    HW2 3951   4.638   2.088   6.773
 1018SOL     OW 3952   1.427   2.971   2.001
 1018SOL    HW1 3953   1.354   2.950   2.066
 1018SOL    HW2 3954   1.516   2.949   2.041
 1019SOL     OW 3955   6.453   0.388   0.453
 1019SOL    HW1 3956   6.353   0.393   0.449
 1019SOL    HW2 3957   6.492   0.440   0.378
 1020SOL     OW 3958   2.750   1.966   1.026
 1020SOL    HW1 3959   2.821   1.982   1.094
 1020SOL    HW2 3960   2.723   2.053   0.984
 1021SOL     OW 3961   6.255   1.997   0.985
 1021SOL    HW1 3962   6.340   1.957   1.019
 1021SOL    HW2 3963   6.182   1.930   0.992
 1022SOL     OW 3964   3.997   2.707   6.957
 1022SOL    HW1 3965   3.941   2.633   6.921
 1022SOL    HW2 3966   4.028   2.765   6.881
 1023SOL     OW 3967   5.448   1.284   4.217
 1023SOL    HW1 3968   5.428   1.187   4.205
 1023SOL    HW2 3969   5.413   1.315   4.306
 1024SOL     OW 3970   6.109   1.617   3.688
 1024SOL    HW1 3971   6.036   1.599   3.622
 1024SOL    HW2 3972   6.191   1.567   3.662
 1025SOL     OW 3973   2.926   4.212   0.880
 1025SOL    HW1 3974   2.985   4.236   0.957
 1025SOL    HW2 3975   2.831   4.220   0.907
 1026SOL     OW 3976   1.038   3.054   6.520
 1026SOL    HW1 3977   1.063   3.126   6.584
 1026SOL    HW2 3978   1.118   2.997   6.501
 1027SOL     OW 3979   2.652   5.563   2.107
 1027SOL    HW1 3980   2.637   5.661   2.118
 1027SOL    HW2 3981   2.661   5.520   2.197
 1028SOL     OW 3982   1.498   5.796   0.944
 1028SOL    HW1 3983   1.550   5.845   0.874
 1028SOL    HW2 3984   1.400   5.802   0.922
 1029SOL     OW 3985   3.264   0.252   5.317
 1029SOL    HW1 3986   3.313   0.191   5.255
 1029SOL    HW2 3987   3.297   0.237   5.410
 1030SOL     OW 3988   3.460   4.038   4.926
 1030SOL    HW1 3989   3.437   4.096   5.003
 1030SOL    HW2 3990   3.394   4.052   4.852
 1031SOL     OW 3991   2.221   5.559   1.460
 1031SOL    HW1 3992   2.290   5.603   1.517
 1031SOL    HW2 3993   2.262   5.483   1.410
 1032SOL     OW 3994   2.101   1.127   4.455
 1032SOL    HW1 3995   2.072   1.223   4.464
 1032SOL    HW2 3996   2.127   1.110   4.360
 1033SOL     OW 3997   2.278   5.989   3.224
 1033SOL    HW1 3998   2.351   6.057   3.233
 1033SOL    HW2 3999   2.315   5.898   3.243
 1034SOL     OW 4000   1.619   6.466   2.852
 1034SOL    HW1 4001   1.548   6.503   2.792
 1034SOL    HW2 4002   1.576   6.421   2.930
 1035SOL     OW 4003   2.747   0.984   4.220
 1035SOL    HW1 4004   2.712   0.897   4.255
 1035SOL    HW2 4005   2.791   1.035   4.294
 1036SOL     OW 4006   4.246   0.643   6.718
 1036SOL    HW1 4007   4.272   0.561   6.769
 1036SOL    HW2 4008   4.264   0.724   6.773
 1037SOL     OW 4009   2.963   1.786   6.346
 1037SOL    HW1 4010   2.983   1.833   6.260
 1037SOL    HW2 4011   2.986   1.846   6.422
 1038SOL     OW 4012   2.872   1.110   4.689
 1038SOL    HW1 4013   2.817   1.173   4.744
 1038SOL    HW2 4014   2.878   1.146   4.595
 1039SOL     OW 4015   4.219   1.386   3.385
 1039SOL    HW1 4016   4.269   1.470   3.362
 1039SOL    HW2 4017   4.284   1.311   3.397
 1040SOL     OW 4018   6.204   3.299   3.916
 1040SOL    HW1 4019   6.263   3.234   3.962
 1040SOL    HW2 4020   6.109   3.284   3.944
 1041SOL     OW 4021   1.071   7.007   4.430
 1041SOL    HW1 4022   1.110   0.073   4.414
 1041SOL    HW2 4023   1.133   6.953   4.487
 1042SOL     OW 4024   4.861   3.806   1.149
 1042SOL    HW1 4025   4.827   3.872   1.216
 1042SOL    HW2 4026   4.960   3.817   1.139
 1043SOL     OW 4027   3.410   0.816   6.590
 1043SOL    HW1 4028   3.375   0.867   6.511
 1043SOL    HW2 4029   3.410   0.718   6.569
 1044SOL     OW 4030   3.731   4.105   1.885
 1044SOL    HW1 4031   3.809   4.103   1.823
 1044SOL    HW2 4032   3.665   4.174   1.855
 1045SOL     OW 4033   3.787   1.641   3.489
 1045SOL    HW1 4034   3.875   1.613   3.452
 1045SOL    HW2 4035   3.714   1.617   3.424
 1046SOL     OW 4036   3.874   1.054   2.265
 1046SOL    HW1 4037   3.953   1.001   2.232
 1046SOL    HW2 4038   3.880   1.147   2.229
 1047SOL     OW 4039   0.245   5.225   2.075
 1047SOL    HW1 4040   0.194   5.196   1.994
 1047SOL    HW2 4041   0.342   5.206   2.061
 1048SOL     OW 4042   6.350   4.548   5.105
 1048SOL    HW1 4043   6.282   4.480   5.079
 1048SOL    HW2 4044   6.370   4.539   5.203
 1049SOL     OW 4045   0.908   3.307   5.144
 1049SOL    HW1 4046   0.934   3.217   5.180
 1049SOL    HW2 4047   0.989   3.353   5.109
 1050SOL     OW 4048   3.516   0.544   6.979
 1050SOL    HW1 4049   3.535   0.609   0.028
 1050SOL    HW2 4050   3.418   0.542   6.960
 1051SOL     OW 4051   4.894   5.299   2.482
 1051SOL    HW1 4052   4.897   5.358   2.401
 1051SOL    HW2 4053   4.884   5.355   2.564
 1052SOL     OW 4054   3.154   0.028   4.001
 1052SOL    HW1 4055   3.181   6.956   3.999
 1052SOL    HW2 4056   3.195   0.072   4.081
 1053SOL     OW 4057   4.232   4.862   3.160
 1053SOL    HW1 4058   4.193   4.835   3.248
 1053SOL    HW2 4059   4.161   4.908   3.106
 1054SOL     OW 4060   3.580   6.088   4.138
 1054SOL    HW1 4061   3.519   6.136   4.075
 1054SOL    HW2 4062   3.573   5.989   4.123
 1055SOL     OW 4063   4.534   5.510   4.169
 1055SOL    HW1 4064   4.470   5.521   4.093
 1055SOL    HW2 4065   4.492   5.544   4.253
 1056SOL     OW 4066   1.520   5.720   5.601
 1056SOL    HW1 4067   1.496   5.648   5.536
 1056SOL    HW2 4068   1.549   5.679   5.688
 1057SOL     OW 4069   3.512   4.228   1.142
 1057SOL    HW1 4070   3.432   4.188   1.186
 1057SOL    HW2 4071   3.572   4.156   1.109
 1058SOL     OW 4072   3.643   0.348   1.482
 1058SOL    HW1 4073   3.577   0.410   1.441
 1058SOL    HW2 4074   3.625   0.254   1.451
 1059SOL     OW 4075   3.494   1.440   0.945
 1059SOL    HW1 4076   3.519   1.529   0.981
 1059SOL    HW2 4077   3.396   1.438   0.923
 1060SOL     OW 4078   2.617   2.151   4.489
 1060SOL    HW1 4079   2.554   2.113   4.421
 1060SOL    HW2 4080   2.704   2.101   4.484
 1061SOL     OW 4081   3.137   6.137   1.631
 1061SOL    HW1 4082   3.136   6.043   1.596
 1061SOL    HW2 4083   3.057   6.186   1.595
 1062SOL     OW 4084   4.834   4.463   5.206
 1062SOL    HW1 4085   4.751   4.444   5.154
 1062SOL    HW2 4086   4.810   4.503   5.295
 1063SOL     OW 4087   1.872   2.910   5.788
 1063SOL    HW1 4088   1.901   2.815   5.794
 1063SOL    HW2 4089   1.910   2.962   5.865
 1064SOL     OW 4090   0.183   3.720   1.507
 1064SOL    HW1 4091   0.086   3.741   1.502
 1064SOL    HW2 4092   0.236   3.805   1.511
 1065SOL     OW 4093   5.128   5.230   5.122
 1065SOL    HW1 4094   5.184   5.313   5.130
 1065SOL    HW2 4095   5.150   5.167   5.196
 1066SOL     OW 4096   3.861   0.385   3.588
 1066SOL    HW1 4097   3.944   0.336   3.563
 1066SOL    HW2 4098   3.852   0.387   3.688
 1067SOL     OW 4099   1.779   3.377   1.418
 1067SOL    HW1 4100   1.739   3.287   1.397
 1067SOL    HW2 4101   1.772   3.394   1.517
 1068SOL     OW 4102   0.566   4.179   1.092
 1068SOL    HW1 4103   0.512   4.255   1.056
 1068SOL    HW2 4104   0.545   4.165   1.189
 1069SOL     OW 4105   3.424   3.848   1.389
 1069SOL    HW1 4106   3.468   3.861   1.478
 1069SOL    HW2 4107   3.397   3.937   1.352
 1070SOL     OW 4108   2.281   0.166   0.486
 1070SOL    HW1 4109   2.248   0.139   0.577
 1070SOL    HW2 4110   2.212   0.223   0.441
 1071SOL     OW 4111   4.562   6.241   3.883
 1071SOL    HW1 4112   4.567   6.149   3.922
 1071SOL    HW2 4113   4.612   6.243   3.796
 1072SOL     OW 4114   3.650   5.721   3.383
 1072SOL    HW1 4115   3.740   5.713   3.341
 1072SOL    HW2 4116   3.584   5.753   3.314
 1073SOL     OW 4117   2.748   5.114   2.818
 1073SOL    HW1 4118   2.814   5.067   2.876
 1073SOL    HW2 4119   2.762   5.213   2.823
 1074SOL     OW 4120   1.551   5.332   2.164
 1074SOL    HW1 4121   1.529   5.235   2.151
 1074SOL    HW2 4122   1.650   5.343   2.174
 1075SOL     OW 4123   0.528   3.910   2.682
 1075SOL    HW1 4124   0.605   3.933   2.742
 1075SOL    HW2 4125   0.445   3.900   2.737
 1076SOL     OW 4126   0.077   4.460   2.832
 1076SOL    HW1 4127   0.046   4.381   2.779
 1076SOL    HW2 4128   7.024   4.499   2.882
 1077SOL     OW 4129   5.160   0.962   1.315
 1077SOL    HW1 4130   5.114   0.874   1.325
 1077SOL    HW2 4131   5.144   1.018   1.396
 1078SOL     OW 4132   1.059   3.353   1.560
 1078SOL    HW1 4133   1.021   3.275   1.509
 1078SOL    HW2 4134   0.984   3.415   1.586
 1079SOL     OW 4135   2.546   5.522   2.831
 1079SOL    HW1 4136   2.530   5.591   2.901
 1079SOL    HW2 4137   2.468   5.460   2.826
 1080SOL     OW 4138   1.399   5.693   4.088
 1080SOL    HW1 4139   1.386   5.624   4.159
 1080SOL    HW2 4140   1.460   5.764   4.122
 1081SOL     OW 4141   1.239   1.267   0.423
 1081SOL    HW1 4142   1.225   1.173   0.453
 1081SOL    HW2 4143   1.198   1.330   0.489
 1082SOL     OW 4144   2.186   6.819   0.155
 1082SOL    HW1 4145   2.134   6.865   0.227
 1082SOL    HW2 4146   2.177   6.870   0.070
 1083SOL     OW 4147   3.808   2.589   1.525
 1083SOL    HW1 4148   3.794   2.499   1.566
 1083SOL    HW2 4149   3.732   2.649   1.549
 1084SOL     OW 4150   6.682   3.623   0.217
 1084SOL    HW1 4151   6.617   3.552   0.242
 1084SOL    HW2 4152   6.762   3.581   0.173
 1085SOL     OW 4153   2.114   4.632   3.357
 1085SOL    HW1 4154   2.025   4.593   3.383
 1085SOL    HW2 4155   2.099   4.706   3.292
 1086SOL     OW 4156   4.207   5.299   1.953
 1086SOL    HW1 4157   4.108   5.288   1.946
 1086SOL    HW2 4158   4.250   5.210   1.967
 1087SOL     OW 4159   3.776   3.242   5.319
 1087SOL    HW1 4160   3.759   3.145   5.332
 1087SOL    HW2 4161   3.691   3.289   5.296
 1088SOL     OW 4162   5.906   4.676   3.455
 1088SOL    HW1 4163   5.849   4.699   3.375
 1088SOL    HW2 4164   5.888   4.582   3.483
 1089SOL     OW 4165   5.993   0.171   3.158
 1089SOL    HW1 4166   5.955   0.220   3.080
 1089SOL    HW2 4167   6.005   0.074   3.135
 1090SOL     OW 4168   1.205   2.213   5.596
 1090SOL    HW1 4169   1.182   2.116   5.589
 1090SOL    HW2 4170   1.300   2.223   5.628
 1091SOL     OW 4171   1.151   2.646   5.046
 1091SOL    HW1 4172   1.202   2.676   5.126
 1091SOL    HW2 4173   1.087   2.574   5.072
 1092SOL     OW 4174   1.988   4.664   1.203
 1092SOL    HW1 4175   1.968   4.716   1.121
 1092SOL    HW2 4176   2.067   4.605   1.187
 1093SOL     OW 4177   0.491   2.039   2.357
 1093SOL    HW1 4178   0.434   2.117   2.384
 1093SOL    HW2 4179   0.442   1.984   2.290
 1094SOL     OW 4180   0.663   6.067   2.206
 1094SOL    HW1 4181   0.720   6.002   2.256
 1094SOL    HW2 4182   0.689   6.160   2.231
 1095SOL     OW 4183   5.625   3.337   6.139
 1095SOL    HW1 4184   5.717   3.304   6.119
 1095SOL    HW2 4185   5.613   3.428   6.100
 1096SOL     OW 4186   3.559   4.218   1.491
 1096SOL    HW1 4187   3.523   4.169   1.570
 1096SOL    HW2 4188   3.658   4.210   1.489
 1097SOL     OW 4189   1.797   4.637   5.486
 1097SOL    HW1 4190   1.726   4.664   5.421
 1097SOL    HW2 4191   1.845   4.719   5.519
 1098SOL     OW 4192   4.106   1.143   2.938
 1098SOL    HW1 4193   4.116   1.063   2.998
 1098SOL    HW2 4194   4.110   1.113   2.842
 1099SOL     OW 4195   3.971   1.415   2.446
 1099SOL    HW1 4196   4.010   1.446   2.533
 1099SOL    HW2 4197   3.872   1.430   2.447
 1100SOL     OW 4198   0.361   0.441   0.424
 1100SOL    HW1 4199   0.403   0.506   0.488
 1100SOL    HW2 4200   0.417   0.359   0.419
 1101SOL     OW 4201   6.172   2.621   0.939
 1101SOL    HW1 4202   6.092   2.569   0.968
 1101SOL    HW2 4203   6.241   2.620   1.012
 1102SOL     OW 4204   0.079   4.201   3.868
 1102SOL    HW1 4205   0.135   4.217   3.786
 1102SOL    HW2 4206   0.084   4.105   3.893
 1103SOL     OW 4207   0.863   3.327   1.244
 1103SOL    HW1 4208   0.936   3.382   1.204
 1103SOL    HW2 4209   0.877   3.231   1.221
 1104SOL     OW 4210   2.977   5.347   5.674
 1104SOL    HW1 4211   2.885   5.355   5.636
 1104SOL    HW2 4212   3.033   5.289   5.615
 1105SOL     OW 4213   3.992   5.092   0.427
 1105SOL    HW1 4214   4.045   5.037   0.363
 1105SOL    HW2 4215   4.018   5.069   0.521
 1106SOL     OW 4216   1.666   1.029   5.906
 1106SOL    HW1 4217   1.718   1.012   5.990
 1106SOL    HW2 4218   1.577   0.984   5.912
 1107SOL     OW 4219   1.112   0.014   2.027
 1107SOL    HW1 4220   1.100   6.982   2.109
 1107SOL    HW2 4221   1.132   6.979   1.949
 1108SOL     OW 4222   1.530   1.148   6.286
 1108SOL    HW1 4223   1.517   1.049   6.293
 1108SOL    HW2 4224   1.524   1.190   6.377
 1109SOL     OW 4225   4.687   1.229   3.928
 1109SOL    HW1 4226   4.627   1.197   3.855
 1109SOL    HW2 4227   4.744   1.154   3.960
 1110SOL     OW 4228   3.570   2.798   2.006
 1110SOL    HW1 4229   3.588   2.732   1.932
 1110SOL    HW2 4230   3.627   2.879   1.992
 1111SOL     OW 4231   5.760   0.001   6.826
 1111SOL    HW1 4232   5.775   0.038   6.734
 1111SOL    HW2 4233   5.826   0.041   6.889
 1112SOL     OW 4234   0.609   1.265   2.943
 1112SOL    HW1 4235   0.561   1.342   2.986
 1112SOL    HW2 4236   0.547   1.187   2.934
 1113SOL     OW 4237   6.188   3.453   2.179
 1113SOL    HW1 4238   6.262   3.517   2.201
 1113SOL    HW2 4239   6.154   3.472   2.087
 1114SOL     OW 4240   6.215   1.586   5.597
 1114SOL    HW1 4241   6.119   1.602   5.570
 1114SOL    HW2 4242   6.232   1.628   5.686
 1115SOL     OW 4243   2.813   3.736   0.220
 1115SOL    HW1 4244   2.908   3.715   0.242
 1115SOL    HW2 4245   2.794   3.831   0.244
 1116SOL     OW 4246   3.803   5.926   5.863
 1116SOL    HW1 4247   3.793   6.000   5.796
 1116SOL    HW2 4248   3.785   5.961   5.955
 1117SOL     OW 4249   2.601   3.189   0.648
 1117SOL    HW1 4250   2.533   3.215   0.716
 1117SOL    HW2 4251   2.558   3.187   0.558
 1118SOL     OW 4252   1.395   3.200   3.022
 1118SOL    HW1 4253   1.492   3.174   3.023
 1118SOL    HW2 4254   1.344   3.143   3.086
 1119SOL     OW 4255   3.094   3.532   2.790
 1119SOL    HW1 4256   3.053   3.444   2.815
 1119SOL    HW2 4257   3.056   3.564   2.704
 1120SOL     OW 4258   4.947   0.558   4.266
 1120SOL    HW1 4259   4.924   0.461   4.254
 1120SOL    HW2 4260   4.867   0.614   4.245
 1121SOL     OW 4261   5.334   3.142   2.408
 1121SOL    HW1 4262   5.257   3.162   2.347
 1121SOL    HW2 4263   5.420   3.162   2.361
 1122SOL     OW 4264   4.626   5.249   0.056
 1122SOL    HW1 4265   4.575   5.309   7.019
 1122SOL    HW2 4266   4.724   5.256   0.037
 1123SOL     OW 4267   3.802   0.805   1.946
 1123SOL    HW1 4268   3.828   0.727   2.003
 1123SOL    HW2 4269   3.857   0.884   1.971
 1124SOL     OW 4270   0.456   4.710   4.661
 1124SOL    HW1 4271   0.531   4.690   4.597
 1124SOL    HW2 4272   0.471   4.800   4.702
 1125SOL     OW 4273   3.832   3.273   4.748
 1125SOL    HW1 4274   3.917   3.295   4.700
 1125SOL    HW2 4275   3.854   3.239   4.840
 1126SOL     OW 4276   5.951   0.025   2.546
 1126SOL    HW1 4277   5.904   6.961   2.550
 1126SOL    HW2 4278   5.993   0.045   2.635
 1127SOL     OW 4279   1.485   5.202   6.415
 1127SOL    HW1 4280   1.468   5.109   6.446
 1127SOL    HW2 4281   1.555   5.245   6.474
 1128SOL     OW 4282   2.495   1.686   4.153
 1128SOL    HW1 4283   2.498   1.596   4.196
 1128SOL    HW2 4284   2.576   1.698   4.095
 1129SOL     OW 4285   4.883   0.229   6.768
 1129SOL    HW1 4286   4.960   0.166   6.756
 1129SOL    HW2 4287   4.873   0.251   6.865
 1130SOL     OW 4288   0.215   4.745   5.679
 1130SOL    HW1 4289   0.146   4.714   5.745
 1130SOL    HW2 4290   0.210   4.845   5.671
 1131SOL     OW 4291   0.573   5.175   5.619
 1131SOL    HW1 4292   0.526   5.089   5.597
 1131SOL    HW2 4293   0.572   5.189   5.718
 1132SOL     OW 4294   5.100   0.349   4.905
 1132SOL    HW1 4295   5.068   0.268   4.856
 1132SOL    HW2 4296   5.127   0.323   4.998
 1133SOL     OW 4297   0.563   2.356   0.890
 1133SOL    HW1 4298   0.631   2.315   0.829
 1133SOL    HW2 4299   0.472   2.321   0.867
 1134SOL     OW 4300   6.679   2.578   5.873
 1134SOL    HW1 4301   6.759   2.531   5.836
 1134SOL    HW2 4302   6.636   2.632   5.801
 1135SOL     OW 4303   5.288   1.817   3.240
 1135SOL    HW1 4304   5.269   1.771   3.154
 1135SOL    HW2 4305   5.367   1.877   3.230
 1136SOL     OW 4306   3.827   5.424   4.510
 1136SOL    HW1 4307   3.782   5.365   4.577
 1136SOL    HW2 4308   3.884   5.369   4.449
 1137SOL     OW 4309   1.835   0.983   6.106
 1137SOL    HW1 4310   1.869   1.073   6.134
 1137SOL    HW2 4311   1.895   0.912   6.142
 1138SOL     OW 4312   0.472   4.439   5.758
 1138SOL    HW1 4313   0.454   4.425   5.661
 1138SOL    HW2 4314   0.509   4.530   5.772
 1139SOL     OW 4315   1.033   6.338   1.372
 1139SOL    HW1 4316   0.988   6.385   1.296
 1139SOL    HW2 4317   1.119   6.298   1.340
 1140SOL     OW 4318   3.943   1.597   3.738
 1140SOL    HW1 4319   3.904   1.598   3.646
 1140SOL    HW2 4320   4.011   1.523   3.744
 1141SOL     OW 4321   6.425   6.202   5.856
 1141SOL    HW1 4322   6.513   6.231   5.894
 1141SOL    HW2 4323   6.355   6.206   5.928
 1142SOL     OW 4324   5.970   0.722   4.037
 1142SOL    HW1 4325   5.881   0.711   3.992
 1142SOL    HW2 4326   5.984   0.818   4.059
 1143SOL     OW 4327   4.072   2.202   2.656
 1143SOL    HW1 4328   3.995   2.266   2.660
 1143SOL    HW2 4329   4.044   2.120   2.606
 1144SOL     OW 4330   1.424   6.706   5.781
 1144SOL    HW1 4331   1.470   6.765   5.714
 1144SOL    HW2 4332   1.493   6.661   5.838
 1145SOL     OW 4333   1.612   5.080   5.203
 1145SOL    HW1 4334   1.624   5.047   5.109
 1145SOL    HW2 4335   1.698   5.069   5.253
 1146SOL     OW 4336   6.030   2.174   0.864
 1146SOL    HW1 4337   6.069   2.128   0.785
 1146SOL    HW2 4338   6.078   2.260   0.880
 1147SOL     OW 4339   5.925   2.398   1.768
 1147SOL    HW1 4340   6.017   2.438   1.768
 1147SOL    HW2 4341   5.859   2.466   1.738
 1148SOL     OW 4342   4.653   0.767   0.106
 1148SOL    HW1 4343   4.741   0.719   0.115
 1148SOL    HW2 4344   4.662   0.840   0.039
 1149SOL     OW 4345   6.801   2.883   2.973
 1149SOL    HW1 4346   6.814   2.981   2.955
 1149SOL    HW2 4347   6.884   2.833   2.949
 1150SOL     OW 4348   0.887   4.682   5.578
 1150SOL    HW1 4349   0.831   4.626   5.516
 1150SOL    HW2 4350   0.978   4.693   5.538
 1151SOL     OW 4351   4.357   5.749   6.833
 1151SOL    HW1 4352   4.335   5.727   6.738
 1151SOL    HW2 4353   4.322   5.677   6.893
 1152SOL     OW 4354   0.495   0.887   4.738
 1152SOL    HW1 4355   0.501   0.986   4.729
 1152SOL    HW2 4356   0.436   0.864   4.815
 1153SOL     OW 4357   2.472   5.135   2.178
 1153SOL    HW1 4358   2.431   5.092   2.098
 1153SOL    HW2 4359   2.562   5.095   2.195
 1154SOL     OW 4360   2.001   4.076   1.723
 1154SOL    HW1 4361   1.918   4.020   1.731
 1154SOL    HW2 4362   2.077   4.029   1.767
 1155SOL     OW 4363   3.568   6.053   2.241
 1155SOL    HW1 4364   3.592   6.142   2.278
 1155SOL    HW2 4365   3.649   6.012   2.199
 1156SOL     OW 4366   1.750   1.108   4.204
 1156SOL    HW1 4367   1.768   1.016   4.239
 1156SOL    HW2 4368   1.680   1.103   4.132
 1157SOL     OW 4369   0.743   3.037   4.048
 1157SOL    HW1 4370   0.707   3.129   4.037
 1157SOL    HW2 4371   0.690   2.988   4.117
 1158SOL     OW 4372   4.550   5.425   6.154
 1158SOL    HW1 4373   4.531   5.506   6.210
 1158SOL    HW2 4374   4.648   5.419   6.137
 1159SOL     OW 4375   5.200   5.642   3.317
 1159SOL    HW1 4376   5.252   5.709   3.264
 1159SOL    HW2 4377   5.262   5.577   3.359
 1160SOL     OW 4378   2.375   2.791   0.393
 1160SOL    HW1 4379   2.404   2.842   0.473
 1160SOL    HW2 4380   2.350   2.698   0.419
 1161SOL     OW 4381   4.335   0.189   4.480
 1161SOL    HW1 4382   4.368   0.282   4.465
 1161SOL    HW2 4383   4.364   0.131   4.404
 1162SOL     OW 4384   3.878   4.512   1.630
 1162SOL    HW1 4385   3.939   4.527   1.707
 1162SOL    HW2 4386   3.855   4.415   1.623
 1163SOL     OW 4387   4.710   1.725   2.447
 1163SOL    HW1 4388   4.711   1.795   2.519
 1163SOL    HW2 4389   4.686   1.636   2.488
 1164SOL     OW 4390   5.688   3.577   3.828
 1164SOL    HW1 4391   5.726   3.541   3.913
 1164SOL    HW2 4392   5.705   3.675   3.823
 1165SOL     OW 4393   1.393   4.601   2.110
 1165SOL    HW1 4394   1.418   4.616   2.206
 1165SOL    HW2 4395   1.474   4.574   2.058
 1166SOL     OW 4396   3.832   2.728   6.434
 1166SOL    HW1 4397   3.826   2.630   6.455
 1166SOL    HW2 4398   3.854   2.739   6.337
 1167SOL     OW 4399   4.536   1.824   4.396
 1167SOL    HW1 4400   4.591   1.747   4.431
 1167SOL    HW2 4401   4.451   1.831   4.449
 1168SOL     OW 4402   6.167   6.559   3.363
 1168SOL    HW1 4403   6.105   6.636   3.347
 1168SOL    HW2 4404   6.150   6.488   3.294
 1169SOL     OW 4405   0.776   4.043   1.665
 1169SOL    HW1 4406   0.836   4.120   1.688
 1169SOL    HW2 4407   0.831   3.970   1.623
 1170SOL     OW 4408   2.665   0.869   0.972
 1170SOL    HW1 4409   2.735   0.941   0.972
 1170SOL    HW2 4410   2.626   0.861   1.064
 1171SOL     OW 4411   2.725   0.394   0.625
 1171SOL    HW1 4412   2.721   0.452   0.706
 1171SOL    HW2 4413   2.664   0.316   0.636
 1172SOL     OW 4414   3.083   3.253   4.763
 1172SOL    HW1 4415   3.059   3.174   4.820
 1172SOL    HW2 4416   3.153   3.307   4.809
 1173SOL     OW 4417   5.139   0.573   6.123
 1173SOL    HW1 4418   5.116   0.476   6.124
 1173SOL    HW2 4419   5.210   0.591   6.190
 1174SOL     OW 4420   3.457   6.675   0.796
 1174SOL    HW1 4421   3.501   6.693   0.708
 1174SOL    HW2 4422   3.361   6.705   0.791
 1175SOL     OW 4423   6.798   5.666   5.082
 1175SOL    HW1 4424   6.807   5.713   4.994
 1175SOL    HW2 4425   6.700   5.655   5.104
 1176SOL     OW 4426   6.519   3.538   1.229
 1176SOL    HW1 4427   6.474   3.589   1.156
 1176SOL    HW2 4428   6.496   3.441   1.221
 1177SOL     OW 4429   6.488   3.480   0.314
 1177SOL    HW1 4430   6.428   3.541   0.365
 1177SOL    HW2 4431   6.492   3.391   0.360
 1178SOL     OW 4432   5.231   4.106   1.858
 1178SOL    HW1 4433   5.133   4.105   1.837
 1178SOL    HW2 4434   5.244   4.106   1.957
 1179SOL     OW 4435   2.334   5.632   6.206
 1179SOL    HW1 4436   2.273   5.675   6.272
 1179SOL    HW2 4437   2.290   5.629   6.117
 1180SOL     OW 4438   2.192   1.246   3.974
 1180SOL    HW1 4439   2.175   1.301   4.056
 1180SOL    HW2 4440   2.262   1.290   3.918
 1181SOL     OW 4441   2.122   4.315   2.885
 1181SOL    HW1 4442   2.175   4.260   2.821
 1181SOL    HW2 4443   2.183   4.376   2.935
 1182SOL     OW 4444   1.270   4.083   3.049
 1182SOL    HW1 4445   1.311   3.996   3.075
 1182SOL    HW2 4446   1.300   4.154   3.113
 1183SOL     OW 4447   4.595   5.630   0.619
 1183SOL    HW1 4448   4.592   5.632   0.718
 1183SOL    HW2 4449   4.590   5.723   0.583
 1184SOL     OW 4450   3.213   2.993   5.326
 1184SOL    HW1 4451   3.224   2.908   5.378
 1184SOL    HW2 4452   3.116   3.012   5.312
 1185SOL     OW 4453   2.774   1.862   0.284
 1185SOL    HW1 4454   2.837   1.822   0.351
 1185SOL    HW2 4455   2.682   1.825   0.300
 1186SOL     OW 4456   4.278   0.599   5.210
 1186SOL    HW1 4457   4.193   0.643   5.182
 1186SOL    HW2 4458   4.278   0.586   5.309
 1187SOL     OW 4459   0.821   1.007   5.473
 1187SOL    HW1 4460   0.853   0.935   5.536
 1187SOL    HW2 4461   0.856   0.989   5.382
 1188SOL     OW 4462   1.528   6.920   5.659
 1188SOL    HW1 4463   1.586   6.937   5.579
 1188SOL    HW2 4464   1.577   6.945   5.742
 1189SOL     OW 4465   6.594   1.163   1.091
 1189SOL    HW1 4466   6.547   1.129   1.173
 1189SOL    HW2 4467   6.649   1.090   1.051
 1190SOL     OW 4468   4.379   4.647   3.045
 1190SOL    HW1 4469   4.316   4.706   3.096
 1190SOL    HW2 4470   4.339   4.624   2.957
 1191SOL     OW 4471   3.023   4.996   0.748
 1191SOL    HW1 4472   3.028   4.898   0.769
 1191SOL    HW2 4473   3.013   5.048   0.833
 1192SOL     OW 4474   4.633   5.341   2.325
 1192SOL    HW1 4475   4.666   5.378   2.238
 1192SOL    HW2 4476   4.705   5.346   2.393
 1193SOL     OW 4477   3.873   6.896   3.941
 1193SOL    HW1 4478   3.913   6.972   3.890
 1193SOL    HW2 4479   3.936   6.868   4.014
 1194SOL     OW 4480   6.606   0.746   1.427
 1194SOL    HW1 4481   6.659   0.708   1.351
 1194SOL    HW2 4482   6.531   0.801   1.390
 1195SOL     OW 4483   3.342   6.715   6.951
 1195SOL    HW1 4484   3.435   6.743   6.975
 1195SOL    HW2 4485   3.332   6.713   6.852
 1196SOL     OW 4486   0.590   5.299   2.848
 1196SOL    HW1 4487   0.543   5.223   2.894
 1196SOL    HW2 4488   0.526   5.346   2.787
 1197SOL     OW 4489   3.052   5.334   6.497
 1197SOL    HW1 4490   3.105   5.250   6.511
 1197SOL    HW2 4491   3.093   5.388   6.425
 1198SOL     OW 4492   3.433   1.900   2.671
 1198SOL    HW1 4493   3.368   1.968   2.636
 1198SOL    HW2 4494   3.508   1.946   2.717
 1199SOL     OW 4495   2.896   3.735   3.422
 1199SOL    HW1 4496   2.942   3.726   3.511
 1199SOL    HW2 4497   2.803   3.767   3.436
 1200SOL     OW 4498   3.810   3.397   0.654
 1200SOL    HW1 4499   3.873   3.444   0.592
 1200SOL    HW2 4500   3.722   3.384   0.608
 1201SOL     OW 4501   1.324   0.933   4.763
 1201SOL    HW1 4502   1.264   0.986   4.823
 1201SOL    HW2 4503   1.272   0.893   4.689
 1202SOL     OW 4504   5.461   0.295   5.013
 1202SOL    HW1 4505   5.426   0.203   5.025
 1202SOL    HW2 4506   5.557   0.298   5.041
 1203SOL     OW 4507   6.080   6.833   1.964
 1203SOL    HW1 4508   6.058   6.816   1.868
 1203SOL    HW2 4509   6.065   6.929   1.985
 1204SOL     OW 4510   2.465   6.576   6.776
 1204SOL    HW1 4511   2.491   6.529   6.691
 1204SOL    HW2 4512   2.477   6.674   6.764
 1205SOL     OW 4513   0.964   1.907   5.092
 1205SOL    HW1 4514   0.983   1.895   4.995
 1205SOL    HW2 4515   0.866   1.894   5.109
 1206SOL     OW 4516   0.673   1.700   4.203
 1206SOL    HW1 4517   0.702   1.795   4.206
 1206SOL    HW2 4518   0.627   1.676   4.288
 1207SOL     OW 4519   6.055   6.103   6.467
 1207SOL    HW1 4520   6.000   6.034   6.421
 1207SOL    HW2 4521   6.060   6.083   6.565
 1208SOL     OW 4522   3.694   4.071   3.667
 1208SOL    HW1 4523   3.748   4.025   3.737
 1208SOL    HW2 4524   3.602   4.088   3.702
 1209SOL     OW 4525   6.744   4.044   5.143
 1209SOL    HW1 4526   6.669   4.015   5.084
 1209SOL    HW2 4527   6.828   3.999   5.115
 1210SOL     OW 4528   3.019   6.862   2.156
 1210SOL    HW1 4529   3.090   6.863   2.226
 1210SOL    HW2 4530   3.039   6.932   2.088
 1211SOL     OW 4531   1.482   3.111   3.573
 1211SOL    HW1 4532   1.431   3.083   3.654
 1211SOL    HW2 4533   1.419   3.151   3.507
 1212SOL     OW 4534   2.118   3.861   4.246
 1212SOL    HW1 4535   2.064   3.868   4.329
 1212SOL    HW2 4536   2.120   3.766   4.215
 1213SOL     OW 4537   5.925   2.875   5.383
 1213SOL    HW1 4538   5.973   2.931   5.316
 1213SOL    HW2 4539   5.974   2.878   5.470
 1214SOL     OW 4540   1.926   2.611   2.875
 1214SOL    HW1 4541   1.932   2.683   2.805
 1214SOL    HW2 4542   1.962   2.646   2.961
 1215SOL     OW 4543   6.936   5.403   2.208
 1215SOL    HW1 4544   6.932   5.469   2.283
 1215SOL    HW2 4545   0.007   5.388   2.183
 1216SOL     OW 4546   3.171   0.377   1.511
 1216SOL    HW1 4547   3.126   0.448   1.565
 1216SOL    HW2 4548   3.109   0.299   1.500
 1217SOL     OW 4549   1.803   1.439   2.672
 1217SOL    HW1 4550   1.847   1.389   2.598
 1217SOL    HW2 4551   1.759   1.374   2.735
 1218SOL     OW 4552   0.531   3.637   3.509
 1218SOL    HW1 4553   0.579   3.576   3.446
 1218SOL    HW2 4554   0.467   3.584   3.564
 1219SOL     OW 4555   2.359   6.164   3.591
 1219SOL    HW1 4556   2.372   6.219   3.673
 1219SOL    HW2 4557   2.446   6.123   3.564
 1220SOL     OW 4558   6.096   4.408   3.116
 1220SOL    HW1 4559   6.001   4.431   3.136
 1220SOL    HW2 4560   6.137   4.481   3.062
 1221SOL     OW 4561   5.002   3.713   6.396
 1221SOL    HW1 4562   5.034   3.619   6.388
 1221SOL    HW2 4563   4.968   3.745   6.307
 1222SOL     OW 4564   5.092   5.404   1.506
 1222SOL    HW1 4565   5.177   5.363   1.474
 1222SOL    HW2 4566   5.042   5.443   1.428
 1223SOL     OW 4567   5.790   5.092   4.705
 1223SOL    HW1 4568   5.847   5.011   4.693
 1223SOL    HW2 4569   5.845   5.167   4.743
 1224SOL     OW 4570   4.816   5.187   1.882
 1224SOL    HW1 4571   4.827   5.264   1.945
 1224SOL    HW2 4572   4.771   5.112   1.928
 1225SOL     OW 4573   4.280   1.157   0.067
 1225SOL    HW1 4574   4.352   1.143   7.024
 1225SOL    HW2 4575   4.321   1.171   0.158
 1226SOL     OW 4576   5.453   5.093   0.935
 1226SOL    HW1 4577   5.404   5.054   1.013
 1226SOL    HW2 4578   5.547   5.059   0.934
 1227SOL     OW 4579   4.883   4.680   6.879
 1227SOL    HW1 4580   4.863   4.612   6.949
 1227SOL    HW2 4581   4.903   4.768   6.923
 1228SOL     OW 4582   3.947   3.991   4.447
 1228SOL    HW1 4583   3.978   3.899   4.422
 1228SOL    HW2 4584   3.931   4.044   4.363
 1229SOL     OW 4585   2.605   5.811   2.369
 1229SOL    HW1 4586   2.617   5.727   2.422
 1229SOL    HW2 4587   2.526   5.802   2.309
 1230SOL     OW 4588   5.967   4.906   1.933
 1230SOL    HW1 4589   5.899   4.836   1.955
 1230SOL    HW2 4590   5.982   4.907   1.834
 1231SOL     OW 4591   2.304   1.717   6.222
 1231SOL    HW1 4592   2.250   1.715   6.138
 1231SOL    HW2 4593   2.401   1.725   6.200
 1232SOL     OW 4594   3.232   0.807   4.913
 1232SOL    HW1 4595   3.299   0.881   4.912
 1232SOL    HW2 4596   3.218   0.774   4.819
 1233SOL     OW 4597   0.287   5.615   4.967
 1233SOL    HW1 4598   0.349   5.649   5.038
 1233SOL    HW2 4599   0.340   5.586   4.888
 1234SOL     OW 4600   6.167   4.104   6.718
 1234SOL    HW1 4601   6.083   4.158   6.725
 1234SOL    HW2 4602   6.217   4.131   6.635
 1235SOL     OW 4603   6.371   4.862   1.136
 1235SOL    HW1 4604   6.275   4.833   1.134
 1235SOL    HW2 4605   6.418   4.816   1.212
 1236SOL     OW 4606   1.582   1.375   2.125
 1236SOL    HW1 4607   1.497   1.393   2.175
 1236SOL    HW2 4608   1.639   1.311   2.177
 1237SOL     OW 4609   0.707   6.972   4.972
 1237SOL    HW1 4610   0.795   6.926   4.983
 1237SOL    HW2 4611   0.661   6.935   4.891
 1238SOL     OW 4612   0.800   0.887   4.682
 1238SOL    HW1 4613   0.714   0.858   4.724
 1238SOL    HW2 4614   0.791   0.982   4.652
 1239SOL     OW 4615   5.025   5.042   3.564
 1239SOL    HW1 4616   5.031   5.033   3.664
 1239SOL    HW2 4617   4.938   5.004   3.533
 1240SOL     OW 4618   0.891   3.689   1.871
 1240SOL    HW1 4619   0.964   3.671   1.937
 1240SOL    HW2 4620   0.820   3.745   1.915
 1241SOL     OW 4621   3.860   5.402   5.874
 1241SOL    HW1 4622   3.959   5.397   5.885
 1241SOL    HW2 4623   3.829   5.494   5.898
 1242SOL     OW 4624   2.213   4.491   1.133
 1242SOL    HW1 4625   2.230   4.446   1.046
 1242SOL    HW2 4626   2.194   4.422   1.203
 1243SOL     OW 4627   1.201   3.335   3.685
 1243SOL    HW1 4628   1.111   3.369   3.709
 1243SOL    HW2 4629   1.266   3.359   3.757
 1244SOL     OW 4630   6.737   6.849   5.869
 1244SOL    HW1 4631   6.812   6.811   5.923
 1244SOL    HW2 4632   6.673   6.895   5.930
 1245SOL     OW 4633   4.864   6.278   0.735
 1245SOL    HW1 4634   4.807   6.310   0.810
 1245SOL    HW2 4635   4.952   6.246   0.771
 1246SOL     OW 4636   4.974   1.384   1.133
 1246SOL    HW1 4637   4.892   1.420   1.088
 1246SOL    HW2 4638   5.003   1.300   1.087
 1247SOL     OW 4639   6.560   0.180   3.516
 1247SOL    HW1 4640   6.644   0.129   3.537
 1247SOL    HW2 4641   6.488   0.151   3.579
 1248SOL     OW 4642   0.780   6.650   4.433
 1248SOL    HW1 4643   0.844   6.710   4.482
 1248SOL    HW2 4644   0.809   6.555   4.443
 1249SOL     OW 4645   5.882   5.836   6.456
 1249SOL    HW1 4646   5.943   5.855   6.533
 1249SOL    HW2 4647   5.929   5.775   6.392
 1250SOL     OW 4648   0.527   3.405   5.387
 1250SOL    HW1 4649   0.430   3.382   5.377
 1250SOL    HW2 4650   0.580   3.359   5.315
 1251SOL     OW 4651   2.962   0.637   2.613
 1251SOL    HW1 4652   2.954   0.642   2.513
 1251SOL    HW2 4653   2.948   0.727   2.652
 1252SOL     OW 4654   1.917   5.492   6.606
 1252SOL    HW1 4655   1.983   5.420   6.630
 1252SOL    HW2 4656   1.871   5.467   6.521
 1253SOL     OW 4657   3.232   6.990   6.981
 1253SOL    HW1 4658   3.233   6.911   6.920
 1253SOL    HW2 4659   3.141   7.000   7.020
 1254SOL     OW 4660   5.686   0.970   2.998
 1254SOL    HW1 4661   5.666   1.039   3.068
 1254SOL    HW2 4662   5.675   1.011   2.908
 1255SOL     OW 4663   5.737   1.307   5.756
 1255SOL    HW1 4664   5.731   1.354   5.844
 1255SOL    HW2 4665   5.830   1.272   5.743
 1256SOL     OW 4666   0.039   5.717   4.672
 1256SOL    HW1 4667   0.050   5.768   4.758
 1256SOL    HW2 4668   0.128   5.680   4.644
 1257SOL     OW 4669   0.084   6.124   3.129
 1257SOL    HW1 4670   0.081   6.144   3.031
 1257SOL    HW2 4671   0.167   6.162   3.169
 1258SOL     OW 4672   4.446   6.114   6.493
 1258SOL    HW1 4673   4.507   6.049   6.447
 1258SOL    HW2 4674   4.391   6.065   6.560
 1259SOL     OW 4675   5.543   0.655   5.730
 1259SOL    HW1 4676   5.502   0.738   5.693
 1259SOL    HW2 4677   5.581   0.600   5.656
 1260SOL     OW 4678   2.863   1.474   1.376
 1260SOL    HW1 4679   2.853   1.548   1.442
 1260SOL    HW2 4680   2.807   1.492   1.295
 1261SOL     OW 4681   6.746   5.010   4.818
 1261SOL    HW1 4682   6.733   5.076   4.893
 1261SOL    HW2 4683   6.659   4.964   4.799
 1262SOL     OW 4684   4.030   5.157   1.271
 1262SOL    HW1 4685   4.075   5.099   1.340
 1262SOL    HW2 4686   3.955   5.207   1.314
 1263SOL     OW 4687   6.369   2.392   0.850
 1263SOL    HW1 4688   6.414   2.309   0.882
 1263SOL    HW2 4689   6.411   2.471   0.895
 1264SOL     OW 4690   6.597   2.564   4.008
 1264SOL    HW1 4691   6.593   2.600   4.101
 1264SOL    HW2 4692   6.583   2.465   4.010
 1265SOL     OW 4693   6.789   6.085   4.864
 1265SOL    HW1 4694   6.736   6.138   4.930
 1265SOL    HW2 4695   6.887   6.097   4.882
 1266SOL     OW 4696   2.446   0.806   4.526
 1266SOL    HW1 4697   2.438   0.860   4.610
 1266SOL    HW2 4698   2.371   0.739   4.523
 1267SOL     OW 4699   6.695   4.652   2.902
 1267SOL    HW1 4700   6.772   4.682   2.957
 1267SOL    HW2 4701   6.637   4.590   2.956
 1268SOL     OW 4702   5.915   3.723   0.330
 1268SOL    HW1 4703   6.008   3.694   0.307
 1268SOL    HW2 4704   5.871   3.761   0.249
 1269SOL     OW 4705   6.817   5.079   6.119
 1269SOL    HW1 4706   6.884   5.061   6.191
 1269SOL    HW2 4707   6.860   5.130   6.045
 1270SOL     OW 4708   1.603   2.200   5.154
 1270SOL    HW1 4709   1.623   2.102   5.148
 1270SOL    HW2 4710   1.688   2.252   5.149
 1271SOL     OW 4711   4.821   2.500   3.057
 1271SOL    HW1 4712   4.836   2.520   3.154
 1271SOL    HW2 4713   4.814   2.585   3.006
 1272SOL     OW 4714   6.614   6.521   1.569
 1272SOL    HW1 4715   6.670   6.490   1.492
 1272SOL    HW2 4716   6.523   6.548   1.535
 1273SOL     OW 4717   2.371   6.503   6.488
 1273SOL    HW1 4718   2.411   6.455   6.410
 1273SOL    HW2 4719   2.313   6.441   6.540
 1274SOL     OW 4720   5.745   2.832   1.109
 1274SOL    HW1 4721   5.740   2.931   1.105
 1274SOL    HW2 4722   5.672   2.792   1.054
 1275SOL     OW 4723   4.092   1.786   3.903
 1275SOL    HW1 4724   4.051   1.742   3.824
 1275SOL    HW2 4725   4.105   1.719   3.976
 1276SOL     OW 4726   5.984   0.319   3.411
 1276SOL    HW1 4727   5.970   0.302   3.314
 1276SOL    HW2 4728   6.079   0.347   3.427
 1277SOL     OW 4729   0.448   1.112   5.465
 1277SOL    HW1 4730   0.456   1.037   5.530
 1277SOL    HW2 4731   0.465   1.079   5.373
 1278SOL     OW 4732   3.041   1.987   5.446
 1278SOL    HW1 4733   3.041   2.082   5.413
 1278SOL    HW2 4734   3.126   1.969   5.495
 1279SOL     OW 4735   2.892   5.051   0.492
 1279SOL    HW1 4736   2.795   5.038   0.511
 1279SOL    HW2 4737   2.944   5.042   0.578
 1280SOL     OW 4738   1.899   5.962   2.972
 1280SOL    HW1 4739   1.815   6.005   2.938
 1280SOL    HW2 4740   1.880   5.918   3.060
 1281SOL     OW 4741   0.681   6.586   3.975
 1281SOL    HW1 4742   0.646   6.556   3.886
 1281SOL    HW2 4743   0.704   6.683   3.970
 1282SOL     OW 4744   1.204   0.252   2.565
 1282SOL    HW1 4745   1.118   0.302   2.574
 1282SOL    HW2 4746   1.231   0.249   2.469
 1283SOL     OW 4747   5.225   4.788   5.184
 1283SOL    HW1 4748   5.245   4.721   5.257
 1283SOL    HW2 4749   5.132   4.774   5.151
 1284SOL     OW 4750   2.462   2.168   2.678
 1284SOL    HW1 4751   2.523   2.183   2.756
 1284SOL    HW2 4752   2.379   2.222   2.690
 1285SOL     OW 4753   5.636   2.663   5.782
 1285SOL    HW1 4754   5.566   2.611   5.733
 1285SOL    HW2 4755   5.643   2.754   5.743
 1286SOL     OW 4756   5.975   5.600   1.677
 1286SOL    HW1 4757   5.908   5.526   1.666
 1286SOL    HW2 4758   5.932   5.677   1.724
 1287SOL     OW 4759   6.002   5.053   6.177
 1287SOL    HW1 4760   6.092   5.010   6.170
 1287SOL    HW2 4761   5.996   5.105   6.262
 1288SOL     OW 4762   6.742   2.562   2.812
 1288SOL    HW1 4763   6.722   2.603   2.901
 1288SOL    HW2 4764   6.750   2.633   2.743
 1289SOL     OW 4765   6.656   5.759   2.788
 1289SOL    HW1 4766   6.570   5.707   2.787
 1289SOL    HW2 4767   6.703   5.744   2.874
 1290SOL     OW 4768   0.471   6.436   1.636
 1290SOL    HW1 4769   0.474   6.525   1.680
 1290SOL    HW2 4770   0.381   6.395   1.648
 1291SOL     OW 4771   2.146   0.181   0.742
 1291SOL    HW1 4772   2.225   0.216   0.792
 1291SOL    HW2 4773   2.070   0.245   0.753
 1292SOL     OW 4774   0.901   5.793   6.624
 1292SOL    HW1 4775   0.977   5.773   6.561
 1292SOL    HW2 4776   0.826   5.835   6.574
 1293SOL     OW 4777   0.170   2.814   5.660
 1293SOL    HW1 4778   0.131   2.749   5.724
 1293SOL    HW2 4779   0.195   2.898   5.708
 1294SOL     OW 4780   6.829   1.327   2.857
 1294SOL    HW1 4781   6.893   1.274   2.912
 1294SOL    HW2 4782   6.849   1.425   2.867
 1295SOL     OW 4783   6.000   3.398   2.366
 1295SOL    HW1 4784   5.998   3.298   2.367
 1295SOL    HW2 4785   6.076   3.428   2.308
 1296SOL     OW 4786   3.538   2.718   6.379
 1296SOL    HW1 4787   3.628   2.737   6.417
 1296SOL    HW2 4788   3.491   2.805   6.360
 1297SOL     OW 4789   6.590   1.246   6.518
 1297SOL    HW1 4790   6.684   1.232   6.487
 1297SOL    HW2 4791   6.565   1.342   6.510
 1298SOL     OW 4792   5.913   2.658   3.502
 1298SOL    HW1 4793   5.974   2.647   3.580
 1298SOL    HW2 4794   5.843   2.726   3.523
 1299SOL     OW 4795   1.035   4.100   4.263
 1299SOL    HW1 4796   1.104   4.156   4.218
 1299SOL    HW2 4797   1.032   4.010   4.220
 1300SOL     OW 4798   2.858   3.214   1.578
 1300SOL    HW1 4799   2.947   3.208   1.532
 1300SOL    HW2 4800   2.838   3.127   1.623
 1301SOL     OW 4801   0.710   0.434   3.380
 1301SOL    HW1 4802   0.696   0.338   3.358
 1301SOL    HW2 4803   0.742   0.483   3.299
 1302SOL     OW 4804   2.393   5.941   5.129
 1302SOL    HW1 4805   2.440   5.997   5.197
 1302SOL    HW2 4806   2.456   5.871   5.095
 1303SOL     OW 4807   3.786   0.928   1.601
 1303SOL    HW1 4808   3.711   0.917   1.667
 1303SOL    HW2 4809   3.751   0.916   1.509
 1304SOL     OW 4810   3.164   0.720   6.243
 1304SOL    HW1 4811   3.116   0.731   6.330
 1304SOL    HW2 4812   3.248   0.667   6.258
 1305SOL     OW 4813   5.218   6.691   4.846
 1305SOL    HW1 4814   5.139   6.746   4.871
 1305SOL    HW2 4815   5.222   6.682   4.746
 1306SOL     OW 4816   0.883   4.600   3.651
 1306SOL    HW1 4817   0.977   4.608   3.686
 1306SOL    HW2 4818   0.819   4.618   3.725
 1307SOL     OW 4819   2.214   1.636   4.138
 1307SOL    HW1 4820   2.314   1.644   4.133
 1307SOL    HW2 4821   2.188   1.539   4.135
 1308SOL     OW 4822   4.937   5.347   2.763
 1308SOL    HW1 4823   4.918   5.445   2.769
 1308SOL    HW2 4824   4.880   5.298   2.829
 1309SOL     OW 4825   6.059   2.265   4.509
 1309SOL    HW1 4826   5.971   2.310   4.494
 1309SOL    HW2 4827   6.046   2.186   4.570
 1310SOL     OW 4828   4.963   3.497   5.585
 1310SOL    HW1 4829   5.047   3.443   5.596
 1310SOL    HW2 4830   4.969   3.580   5.641
 1311SOL     OW 4831   5.068   5.753   5.138
 1311SOL    HW1 4832   5.058   5.792   5.230
 1311SOL    HW2 4833   5.088   5.827   5.073
 1312SOL     OW 4834   0.001   6.616   1.915
 1312SOL    HW1 4835   0.064   6.646   1.843
 1312SOL    HW2 4836   6.937   6.592   1.874
 1313SOL     OW 4837   3.475   4.862   5.149
 1313SOL    HW1 4838   3.478   4.826   5.242
 1313SOL    HW2 4839   3.387   4.907   5.133
 1314SOL     OW 4840   5.993   1.208   4.882
 1314SOL    HW1 4841   5.976   1.169   4.972
 1314SOL    HW2 4842   6.053   1.147   4.830
 1315SOL     OW 4843   2.153   0.806   2.977
 1315SOL    HW1 4844   2.217   0.742   2.935
 1315SOL    HW2 4845   2.153   0.892   2.926
 1316SOL     OW 4846   3.442   6.317   2.152
 1316SOL    HW1 4847   3.415   6.268   2.235
 1316SOL    HW2 4848   3.509   6.262   2.102
 1317SOL     OW 4849   0.210   5.110   3.482
 1317SOL    HW1 4850   0.206   5.012   3.500
 1317SOL    HW2 4851   0.278   5.152   3.542
 1318SOL     OW 4852   0.204   6.345   1.100
 1318SOL    HW1 4853   0.279   6.385   1.047
 1318SOL    HW2 4854   0.188   6.251   1.070
 1319SOL     OW 4855   6.540   1.148   0.442
 1319SOL    HW1 4856   6.461   1.184   0.393
 1319SOL    HW2 4857   6.510   1.111   0.530
 1320SOL     OW 4858   5.209   5.583   5.876
 1320SOL    HW1 4859   5.279   5.624   5.817
 1320SOL    HW2 4860   5.123   5.577   5.826
 1321SOL     OW 4861   3.803   2.167   6.355
 1321SOL    HW1 4862   3.741   2.122   6.291
 1321SOL    HW2 4863   3.808   2.113   6.439
 1322SOL     OW 4864   5.942   1.074   5.161
 1322SOL    HW1 4865   5.985   1.122   5.238
 1322SOL    HW2 4866   5.932   0.977   5.183
 1323SOL     OW 4867   5.744   1.320   4.744
 1323SOL    HW1 4868   5.825   1.330   4.802
 1323SOL    HW2 4869   5.680   1.257   4.788
 1324SOL     OW 4870   1.026   3.904   0.755
 1324SOL    HW1 4871   1.024   3.926   0.658
 1324SOL    HW2 4872   0.932   3.891   0.789
 1325SOL     OW 4873   3.525   5.429   2.937
 1325SOL    HW1 4874   3.586   5.489   2.883
 1325SOL    HW2 4875   3.537   5.448   3.034
 1326SOL     OW 4876   5.328   4.027   3.988
 1326SOL    HW1 4877   5.359   3.932   3.997
 1326SOL    HW2 4878   5.249   4.030   3.926
 1327SOL     OW 4879   3.240   5.716   3.139
 1327SOL    HW1 4880   3.186   5.655   3.198
 1327SOL    HW2 4881   3.233   5.685   3.044
 1328SOL     OW 4882   1.963   2.121   6.653
 1328SOL    HW1 4883   2.044   2.141   6.597
 1328SOL    HW2 4884   1.919   2.206   6.679
 1329SOL     OW 4885   0.908   0.122   1.540
 1329SOL    HW1 4886   1.003   0.147   1.520
 1329SOL    HW2 4887   0.894   0.025   1.519
 1330SOL     OW 4888   5.956   6.814   1.137
 1330SOL    HW1 4889   5.898   6.892   1.161
 1330SOL    HW2 4890   6.025   6.842   1.070
 1331SOL     OW 4891   6.575   0.524   2.646
 1331SOL    HW1 4892   6.509   0.551   2.576
 1331SOL    HW2 4893   6.527   0.496   2.728
 1332SOL     OW 4894   4.555   1.605   1.139
 1332SOL    HW1 4895   4.620   1.547   1.188
 1332SOL    HW2 4896   4.490   1.645   1.204
 1333SOL     OW 4897   3.782   4.267   5.192
 1333SOL    HW1 4898   3.795   4.237   5.098
 1333SOL    HW2 4899   3.768   4.188   5.251
 1334SOL     OW 4900   1.061   4.005   3.509
 1334SOL    HW1 4901   0.989   3.995   3.578
 1334SOL    HW2 4902   1.050   4.093   3.462
 1335SOL     OW 4903   2.294   4.828   2.347
 1335SOL    HW1 4904   2.332   4.773   2.422
 1335SOL    HW2 4905   2.358   4.827   2.270
 1336SOL     OW 4906   0.658   0.186   4.794
 1336SOL    HW1 4907   0.705   0.115   4.847
 1336SOL    HW2 4908   0.724   0.256   4.766
 1337SOL     OW 4909   2.739   0.647   5.960
 1337SOL    HW1 4910   2.640   0.657   5.970
 1337SOL    HW2 4911   2.779   0.735   5.934
 1338SOL     OW 4912   3.380   5.674   0.353
 1338SOL    HW1 4913   3.300   5.616   0.338
 1338SOL    HW2 4914   3.392   5.736   0.275
 1339SOL     OW 4915   6.939   4.838   4.884
 1339SOL    HW1 4916   6.875   4.912   4.867
 1339SOL    HW2 4917   6.903   4.752   4.847
 1340SOL     OW 4918   2.330   1.420   6.248
 1340SOL    HW1 4919   2.239   1.458   6.236
 1340SOL    HW2 4920   2.394   1.493   6.272
 1341SOL     OW 4921   4.968   1.426   3.736
 1341SOL    HW1 4922   4.987   1.498   3.670
 1341SOL    HW2 4923   4.882   1.446   3.784
 1342SOL     OW 4924   0.574   5.855   1.072
 1342SOL    HW1 4925   0.658   5.802   1.061
 1342SOL    HW2 4926   0.497   5.792   1.083
 1343SOL     OW 4927   3.858   5.037   3.195
 1343SOL    HW1 4928   3.854   4.979   3.276
 1343SOL    HW2 4929   3.939   5.096   3.200
 1344SOL     OW 4930   5.955   1.320   2.405
 1344SOL    HW1 4931   5.858   1.318   2.430
 1344SOL    HW2 4932   5.998   1.234   2.433
 1345SOL     OW 4933   1.179   6.853   3.440
 1345SOL    HW1 4934   1.205   6.948   3.459
 1345SOL    HW2 4935   1.138   6.847   3.349
 1346SOL     OW 4936   0.190   0.785   4.155
 1346SOL    HW1 4937   0.165   0.832   4.070
 1346SOL    HW2 4938   0.172   0.687   4.145
 1347SOL     OW 4939   5.908   0.342   2.970
 1347SOL    HW1 4940   5.831   0.378   3.022
 1347SOL    HW2 4941   5.942   0.413   2.908
 1348SOL     OW 4942   4.128   5.544   4.425
 1348SOL    HW1 4943   4.115   5.542   4.524
 1348SOL    HW2 4944   4.046   5.507   4.380
 1349SOL     OW 4945   4.529   2.497   7.004
 1349SOL    HW1 4946   4.543   2.547   0.066
 1349SOL    HW2 4947   4.576   2.409   7.010
 1350SOL     OW 4948   3.289   6.983   5.524
 1350SOL    HW1 4949   3.190   6.990   5.512
 1350SOL    HW2 4950   3.328   0.050   5.527
 1351SOL     OW 4951   0.823   1.496   4.428
 1351SOL    HW1 4952   0.804   1.409   4.382
 1351SOL    HW2 4953   0.892   1.547   4.376
 1352SOL     OW 4954   0.204   6.914   3.924
 1352SOL    HW1 4955   0.187   6.818   3.947
 1352SOL    HW2 4956   0.297   6.924   3.887
 1353SOL     OW 4957   1.789   3.816   3.762
 1353SOL    HW1 4958   1.850   3.737   3.761
 1353SOL    HW2 4959   1.776   3.847   3.856
 1354SOL     OW 4960   0.197   0.325   1.511
 1354SOL    HW1 4961   0.231   0.419   1.504
 1354SOL    HW2 4962   0.141   0.316   1.593
 1355SOL     OW 4963   4.635   3.083   0.271
 1355SOL    HW1 4964   4.619   3.151   0.342
 1355SOL    HW2 4965   4.573   3.099   0.194
 1356SOL     OW 4966   3.185   3.942   1.684
 1356SOL    HW1 4967   3.223   3.864   1.734
 1356SOL    HW2 4968   3.089   3.953   1.708
 1357SOL     OW 4969   2.842   2.505   6.060
 1357SOL    HW1 4970   2.872   2.526   6.153
 1357SOL    HW2 4971   2.798   2.585   6.020
 1358SOL     OW 4972   2.843   3.043   5.784
 1358SOL    HW1 4973   2.883   3.134   5.793
 1358SOL    HW2 4974   2.745   3.047   5.803
 1359SOL     OW 4975   0.170   1.241   0.014
 1359SOL    HW1 4976   0.162   1.198   0.104
 1359SOL    HW2 4977   0.101   1.313   0.006
 1360SOL     OW 4978   2.869   3.516   3.810
 1360SOL    HW1 4979   2.867   3.474   3.901
 1360SOL    HW2 4980   2.858   3.445   3.740
 1361SOL     OW 4981   1.148   5.891   1.157
 1361SOL    HW1 4982   1.106   5.982   1.154
 1361SOL    HW2 4983   1.180   5.866   1.065
 1362SOL     OW 4984   3.166   2.715   6.657
 1362SOL    HW1 4985   3.256   2.738   6.693
 1362SOL    HW2 4986   3.096   2.754   6.716
 1363SOL     OW 4987   6.309   6.711   1.885
 1363SOL    HW1 4988   6.334   6.743   1.794
 1363SOL    HW2 4989   6.224   6.756   1.915
 1364SOL     OW 4990   0.828   3.541   0.877
 1364SOL    HW1 4991   0.864   3.457   0.917
 1364SOL    HW2 4992   0.824   3.613   0.947
 1365SOL     OW 4993   0.232   4.045   5.336
 1365SOL    HW1 4994   0.179   3.985   5.396
 1365SOL    HW2 4995   0.189   4.049   5.246
 1366SOL     OW 4996   5.449   0.382   1.155
 1366SOL    HW1 4997   5.356   0.345   1.163
 1366SOL    HW2 4998   5.486   0.357   1.065
 1367SOL     OW 4999   1.032   6.697   4.575
 1367SOL    HW1 5000   1.050   6.778   4.631
 1367SOL    HW2 5001   1.103   6.628   4.593
 1368SOL     OW 5002   1.281   6.548   5.378
 1368SOL    HW1 5003   1.264   6.519   5.472
 1368SOL    HW2 5004   1.268   6.647   5.371
 1369SOL     OW 5005   2.894   6.493   3.275
 1369SOL    HW1 5006   2.962   6.421   3.283
 1369SOL    HW2 5007   2.807   6.462   3.313
 1370SOL     OW 5008   6.946   2.256   2.270
 1370SOL    HW1 5009   6.897   2.196   2.206
 1370SOL    HW2 5010   6.881   2.298   2.333
 1371SOL     OW 5011   6.172   2.091   5.966
 1371SOL    HW1 5012   6.139   2.160   6.030
 1371SOL    HW2 5013   6.176   2.130   5.874
 1372SOL     OW 5014   6.409   3.226   0.826
 1372SOL    HW1 5015   6.449   3.177   0.903
 1372SOL    HW2 5016   6.333   3.173   0.788
 1373SOL     OW 5017   5.531   2.213   1.226
 1373SOL    HW1 5018   5.522   2.114   1.243
 1373SOL    HW2 5019   5.503   2.263   1.307
 1374SOL     OW 5020   3.924   3.830   1.007
 1374SOL    HW1 5021   3.953   3.767   1.079
 1374SOL    HW2 5022   3.836   3.800   0.970
 1375SOL     OW 5023   5.737   5.339   3.648
 1375SOL    HW1 5024   5.673   5.388   3.590
 1375SOL    HW2 5025   5.777   5.402   3.714
 1376SOL     OW 5026   3.035   4.629   5.976
 1376SOL    HW1 5027   3.108   4.642   6.043
 1376SOL    HW2 5028   3.066   4.566   5.905
 1377SOL     OW 5029   1.956   1.665   2.677
 1377SOL    HW1 5030   1.879   1.602   2.686
 1377SOL    HW2 5031   1.953   1.732   2.752
 1378SOL     OW 5032   5.230   2.827   4.351
 1378SOL    HW1 5033   5.181   2.914   4.354
 1378SOL    HW2 5034   5.190   2.769   4.280
 1379SOL     OW 5035   4.933   5.483   1.285
 1379SOL    HW1 5036   4.998   5.548   1.247
 1379SOL    HW2 5037   4.851   5.531   1.315
 1380SOL     OW 5038   6.979   5.848   2.356
 1380SOL    HW1 5039   6.950   5.906   2.432
 1380SOL    HW2 5040   0.023   5.897   2.301
 1381SOL     OW 5041   6.419   2.444   5.671
 1381SOL    HW1 5042   6.324   2.456   5.698
 1381SOL    HW2 5043   6.459   2.533   5.650
 1382SOL     OW 5044   4.789   2.800   0.032
 1382SOL    HW1 5045   4.829   2.825   0.120
 1382SOL    HW2 5046   4.758   2.705   0.035
 1383SOL     OW 5047   0.253   1.123   1.587
 1383SOL    HW1 5048   0.171   1.084   1.544
 1383SOL    HW2 5049   0.331   1.062   1.570
 1384SOL     OW 5050   6.007   1.723   1.761
 1384SOL    HW1 5051   5.912   1.753   1.772
 1384SOL    HW2 5052   6.037   1.678   1.845
 1385SOL     OW 5053   0.706   5.434   1.039
 1385SOL    HW1 5054   0.776   5.372   1.004
 1385SOL    HW2 5055   0.734   5.529   1.024
 1386SOL     OW 5056   1.819   5.484   4.106
 1386SOL    HW1 5057   1.855   5.412   4.045
 1386SOL    HW2 5058   1.877   5.565   4.099
 1387SOL     OW 5059   2.670   6.175   1.941
 1387SOL    HW1 5060   2.673   6.087   1.987
 1387SOL    HW2 5061   2.757   6.222   1.953
 1388SOL     OW 5062   6.961   0.850   1.878
 1388SOL    HW1 5063   6.866   0.847   1.908
 1388SOL    HW2 5064   6.981   0.940   1.840
 1389SOL     OW 5065   6.212   0.829   2.532
 1389SOL    HW1 5066   6.280   0.845   2.604
 1389SOL    HW2 5067   6.257   0.829   2.443
 1390SOL     OW 5068   1.592   1.727   5.814
 1390SOL    HW1 5069   1.548   1.682   5.892
 1390SOL    HW2 5070   1.635   1.658   5.756
 1391SOL     OW 5071   0.543   2.968   3.497
 1391SOL    HW1 5072   0.499   2.900   3.556
 1391SOL    HW2 5073   0.614   3.015   3.550
 1392SOL     OW 5074   4.963   4.786   5.079
 1392SOL    HW1 5075   4.918   4.821   5.161
 1392SOL    HW2 5076   4.895   4.769   5.008
 1393SOL     OW 5077   3.244   6.485   6.020
 1393SOL    HW1 5078   3.292   6.572   6.031
 1393SOL    HW2 5079   3.292   6.429   5.952
 1394SOL     OW 5080   1.595   6.140   6.438
 1394SOL    HW1 5081   1.547   6.223   6.465
 1394SOL    HW2 5082   1.620   6.088   6.519
 1395SOL     OW 5083   3.594   4.288   5.517
 1395SOL    HW1 5084   3.531   4.291   5.440
 1395SOL    HW2 5085   3.672   4.230   5.494
 1396SOL     OW 5086   5.488   5.703   3.780
 1396SOL    HW1 5087   5.529   5.750   3.858
 1396SOL    HW2 5088   5.433   5.768   3.727
 1397SOL     OW 5089   4.324   5.978   5.527
 1397SOL    HW1 5090   4.255   6.050   5.533
 1397SOL    HW2 5091   4.338   5.953   5.431
 1398SOL     OW 5092   2.130   1.374   4.209
 1398SOL    HW1 5093   2.190   1.348   4.284
 1398SOL    HW2 5094   2.038   1.392   4.244
 1399SOL     OW 5095   2.866   6.459   1.363
 1399SOL    HW1 5096   2.880   6.427   1.457
 1399SOL    HW2 5097   2.801   6.535   1.364
 1400SOL     OW 5098   1.299   6.465   2.156
 1400SOL    HW1 5099   1.269   6.415   2.237
 1400SOL    HW2 5100   1.360   6.538   2.183
 1401SOL     OW 5101   6.427   1.325   4.839
 1401SOL    HW1 5102   6.492   1.256   4.873
 1401SOL    HW2 5103   6.440   1.338   4.741
 1402SOL     OW 5104   0.090   3.383   0.576
 1402SOL    HW1 5105   0.095   3.289   0.544
 1402SOL    HW2 5106   0.004   3.424   0.546
 1403SOL     OW 5107   2.709   1.115   2.449
 1403SOL    HW1 5108   2.641   1.147   2.384
 1403SOL    HW2 5109   2.688   1.022   2.477
 1404SOL     OW 5110   5.536   1.067   0.322
 1404SOL    HW1 5111   5.610   1.037   0.382
 1404SOL    HW2 5112   5.572   1.083   0.230
 1405SOL     OW 5113   2.609   3.628   1.102
 1405SOL    HW1 5114   2.576   3.610   1.010
 1405SOL    HW2 5115   2.681   3.563   1.126
 1406SOL     OW 5116   1.358   4.336   0.964
 1406SOL    HW1 5117   1.425   4.410   0.955
 1406SOL    HW2 5118   1.289   4.362   1.032
 1407SOL     OW 5119   6.388   2.234   2.911
 1407SOL    HW1 5120   6.457   2.233   2.840
 1407SOL    HW2 5121   6.395   2.318   2.964
 1408SOL     OW 5122   6.373   0.648   7.001
 1408SOL    HW1 5123   6.291   0.592   6.993
 1408SOL    HW2 5124   6.359   0.735   6.954
 1409SOL     OW 5125   0.699   1.236   4.356
 1409SOL    HW1 5126   0.773   1.203   4.298
 1409SOL    HW2 5127   0.611   1.211   4.317
 1410SOL     OW 5128   0.640   2.568   6.846
 1410SOL    HW1 5129   0.650   2.485   6.791
 1410SOL    HW2 5130   0.570   2.553   6.916
 1411SOL     OW 5131   2.143   0.019   1.323
 1411SOL    HW1 5132   2.137   0.068   1.410
 1411SOL    HW2 5133   2.229   0.041   1.277
 1412SOL     OW 5134   1.385   2.982   7.004
 1412SOL    HW1 5135   1.301   2.934   0.004
 1412SOL    HW2 5136   1.426   2.939   6.924
 1413SOL     OW 5137   2.618   0.336   4.134
 1413SOL    HW1 5138   2.537   0.321   4.078
 1413SOL    HW2 5139   2.647   0.249   4.176
 1414SOL     OW 5140   1.888   1.539   1.870
 1414SOL    HW1 5141   1.862   1.561   1.964
 1414SOL    HW2 5142   1.809   1.503   1.821
 1415SOL     OW 5143   4.231   6.248   6.180
 1415SOL    HW1 5144   4.267   6.192   6.105
 1415SOL    HW2 5145   4.307   6.278   6.238
 1416SOL     OW 5146   4.481   5.289   1.770
 1416SOL    HW1 5147   4.390   5.292   1.811
 1416SOL    HW2 5148   4.546   5.250   1.835
 1417SOL     OW 5149   3.133   1.812   5.797
 1417SOL    HW1 5150   3.207   1.850   5.742
 1417SOL    HW2 5151   3.172   1.762   5.874
 1418SOL     OW 5152   3.575   4.126   2.629
 1418SOL    HW1 5153   3.512   4.183   2.576
 1418SOL    HW2 5154   3.621   4.062   2.568
 1419SOL     OW 5155   4.606   6.643   4.813
 1419SOL    HW1 5156   4.602   6.722   4.874
 1419SOL    HW2 5157   4.636   6.563   4.864
 1420SOL     OW 5158   0.886   5.886   2.318
 1420SOL    HW1 5159   0.931   5.888   2.229
 1420SOL    HW2 5160   0.940   5.832   2.382
 1421SOL     OW 5161   3.199   1.189   2.660
 1421SOL    HW1 5162   3.267   1.218   2.592
 1421SOL    HW2 5163   3.109   1.222   2.633
 1422SOL     OW 5164   2.951   6.104   6.882
 1422SOL    HW1 5165   3.040   6.070   6.851
 1422SOL    HW2 5166   2.949   6.108   6.982
 1423SOL     OW 5167   4.773   6.901   2.853
 1423SOL    HW1 5168   4.844   6.971   2.856
 1423SOL    HW2 5169   4.763   6.869   2.759
 1424SOL     OW 5170   6.646   4.945   4.376
 1424SOL    HW1 5171   6.589   4.871   4.411
 1424SOL    HW2 5172   6.705   4.979   4.449
 1425SOL     OW 5173   2.448   6.813   4.076
 1425SOL    HW1 5174   2.355   6.813   4.112
 1425SOL    HW2 5175   2.449   6.859   3.988
 1426SOL     OW 5176   1.089   1.665   5.586
 1426SOL    HW1 5177   1.007   1.629   5.543
 1426SOL    HW2 5178   1.088   1.643   5.684
 1427SOL     OW 5179   6.306   0.621   4.421
 1427SOL    HW1 5180   6.268   0.625   4.513
 1427SOL    HW2 5181   6.233   0.637   4.354
 1428SOL     OW 5182   5.403   1.488   6.823
 1428SOL    HW1 5183   5.401   1.504   6.922
 1428SOL    HW2 5184   5.379   1.572   6.775
 1429SOL     OW 5185   6.826   1.034   0.495
 1429SOL    HW1 5186   6.824   0.959   0.560
 1429SOL    HW2 5187   6.751   1.023   0.429
 1430SOL     OW 5188   1.960   5.012   3.735
 1430SOL    HW1 5189   1.941   4.929   3.683
 1430SOL    HW2 5190   1.889   5.080   3.719
 1431SOL     OW 5191   1.809   0.917   0.698
 1431SOL    HW1 5192   1.817   0.820   0.720
 1431SOL    HW2 5193   1.824   0.972   0.781
 1432SOL     OW 5194   2.181   1.234   2.201
 1432SOL    HW1 5195   2.257   1.177   2.169
 1432SOL    HW2 5196   2.122   1.179   2.260
 1433SOL     OW 5197   4.492   0.988   4.152
 1433SOL    HW1 5198   4.416   0.943   4.198
 1433SOL    HW2 5199   4.559   0.919   4.124
 1434SOL     OW 5200   1.015   0.313   5.476
 1434SOL    HW1 5201   1.032   0.320   5.378
 1434SOL    HW2 5202   0.917   0.323   5.493
 1435SOL     OW 5203   6.379   1.662   2.893
 1435SOL    HW1 5204   6.391   1.587   2.958
 1435SOL    HW2 5205   6.362   1.747   2.944
 1436SOL     OW 5206   4.106   3.592   1.047
 1436SOL    HW1 5207   4.072   3.615   1.138
 1436SOL    HW2 5208   4.205   3.581   1.050
 1437SOL     OW 5209   3.610   1.051   2.278
 1437SOL    HW1 5210   3.605   0.993   2.359
 1437SOL    HW2 5211   3.705   1.061   2.250
 1438SOL     OW 5212   2.588   0.178   0.854
 1438SOL    HW1 5213   2.582   0.127   0.940
 1438SOL    HW2 5214   2.628   0.120   0.784
 1439SOL     OW 5215   0.460   5.716   2.773
 1439SOL    HW1 5216   0.541   5.769   2.798
 1439SOL    HW2 5217   0.381   5.749   2.826
 1440SOL     OW 5218   2.637   3.561   1.779
 1440SOL    HW1 5219   2.664   3.508   1.699
 1440SOL    HW2 5220   2.549   3.527   1.813
 1441SOL     OW 5221   5.852   6.496   0.971
 1441SOL    HW1 5222   5.842   6.593   0.946
 1441SOL    HW2 5223   5.938   6.483   1.020
 1442SOL     OW 5224   5.943   5.465   0.879
 1442SOL    HW1 5225   5.991   5.436   0.796
 1442SOL    HW2 5226   5.883   5.542   0.857
 1443SOL     OW 5227   0.438   2.633   2.952
 1443SOL    HW1 5228   0.387   2.685   2.883
 1443SOL    HW2 5229   0.413   2.667   3.043
 1444SOL     OW 5230   6.022   5.144   6.831
 1444SOL    HW1 5231   5.937   5.115   6.876
 1444SOL    HW2 5232   6.100   5.115   6.887
 1445SOL     OW 5233   1.327   3.256   1.931
 1445SOL    HW1 5234   1.277   3.324   1.877
 1445SOL    HW2 5235   1.367   3.187   1.870
 1446SOL     OW 5236   0.187   0.246   6.911
 1446SOL    HW1 5237   0.275   0.201   6.922
 1446SOL    HW2 5238   0.149   0.267   7.002
 1447SOL     OW 5239   6.036   5.324   4.577
 1447SOL    HW1 5240   6.058   5.263   4.502
 1447SOL    HW2 5241   6.110   5.390   4.589
 1448SOL     OW 5242   1.253   3.073   5.484
 1448SOL    HW1 5243   1.321   3.034   5.545
 1448SOL    HW2 5244   1.218   3.158   5.524
 1449SOL     OW 5245   2.002   3.586   3.756
 1449SOL    HW1 5246   2.036   3.501   3.795
 1449SOL    HW2 5247   1.996   3.577   3.657
 1450SOL     OW 5248   2.345   2.844   4.121
 1450SOL    HW1 5249   2.391   2.759   4.094
 1450SOL    HW2 5250   2.346   2.852   4.220
 1451SOL     OW 5251   2.328   0.388   2.076
 1451SOL    HW1 5252   2.364   0.480   2.092
 1451SOL    HW2 5253   2.383   0.342   2.006
 1452SOL     OW 5254   5.113   3.147   5.834
 1452SOL    HW1 5255   5.025   3.100   5.823
 1452SOL    HW2 5256   5.116   3.191   5.924
 1453SOL     OW 5257   6.838   5.222   4.981
 1453SOL    HW1 5258   6.852   5.178   5.069
 1453SOL    HW2 5259   6.795   5.311   4.994
 1454SOL     OW 5260   3.607   1.993   3.968
 1454SOL    HW1 5261   3.642   2.048   4.044
 1454SOL    HW2 5262   3.661   1.909   3.960
 1455SOL     OW 5263   0.685   5.701   1.526
 1455SOL    HW1 5264   0.737   5.786   1.509
 1455SOL    HW2 5265   0.708   5.666   1.617
 1456SOL     OW 5266   6.362   4.844   4.534
 1456SOL    HW1 5267   6.340   4.750   4.560
 1456SOL    HW2 5268   6.283   4.885   4.488
 1457SOL     OW 5269   1.174   4.380   6.273
 1457SOL    HW1 5270   1.095   4.327   6.242
 1457SOL    HW2 5271   1.142   4.463   6.319
 1458SOL     OW 5272   4.864   5.155   5.334
 1458SOL    HW1 5273   4.950   5.119   5.299
 1458SOL    HW2 5274   4.806   5.184   5.257
 1459SOL     OW 5275   5.246   6.368   5.126
 1459SOL    HW1 5276   5.270   6.277   5.093
 1459SOL    HW2 5277   5.315   6.434   5.097
 1460SOL     OW 5278   1.198   6.192   5.544
 1460SOL    HW1 5279   1.217   6.276   5.594
 1460SOL    HW2 5280   1.282   6.160   5.500
 1461SOL     OW 5281   6.763   3.359   3.312
 1461SOL    HW1 5282   6.833   3.329   3.376
 1461SOL    HW2 5283   6.673   3.330   3.345
 1462SOL     OW 5284   0.469   0.289   1.892
 1462SOL    HW1 5285   0.556   0.251   1.924
 1462SOL    HW2 5286   0.486   0.374   1.842
 1463SOL     OW 5287   1.621   5.712   0.392
 1463SOL    HW1 5288   1.557   5.637   0.382
 1463SOL    HW2 5289   1.585   5.794   0.347
 1464SOL     OW 5290   1.246   4.424   3.486
 1464SOL    HW1 5291   1.192   4.423   3.571
 1464SOL    HW2 5292   1.323   4.488   3.497
 1465SOL     OW 5293   0.941   2.541   3.549
 1465SOL    HW1 5294   0.846   2.548   3.580
 1465SOL    HW2 5295   0.992   2.481   3.610
 1466SOL     OW 5296   4.607   2.256   1.981
 1466SOL    HW1 5297   4.638   2.286   1.891
 1466SOL    HW2 5298   4.596   2.336   2.040
 1467SOL     OW 5299   1.364   1.454   4.599
 1467SOL    HW1 5300   1.304   1.532   4.582
 1467SOL    HW2 5301   1.347   1.383   4.531
 1468SOL     OW 5302   2.434   5.828   2.763
 1468SOL    HW1 5303   2.388   5.762   2.702
 1468SOL    HW2 5304   2.366   5.891   2.801
 1469SOL     OW 5305   6.332   4.075   3.112
 1469SOL    HW1 5306   6.365   3.991   3.069
 1469SOL    HW2 5307   6.409   4.137   3.128
 1470SOL     OW 5308   6.491   1.897   1.041
 1470SOL    HW1 5309   6.542   1.918   1.125
 1470SOL    HW2 5310   6.554   1.858   0.974
 1471SOL     OW 5311   5.345   6.612   1.879
 1471SOL    HW1 5312   5.400   6.550   1.823
 1471SOL    HW2 5313   5.328   6.570   1.968
 1472SOL     OW 5314   1.830   6.984   6.286
 1472SOL    HW1 5315   1.762   6.926   6.330
 1472SOL    HW2 5316   1.900   6.927   6.244
 1473SOL     OW 5317   2.022   5.534   3.862
 1473SOL    HW1 5318   1.991   5.442   3.886
 1473SOL    HW2 5319   2.049   5.536   3.766
 1474SOL     OW 5320   3.303   4.953   1.627
 1474SOL    HW1 5321   3.281   4.942   1.724
 1474SOL    HW2 5322   3.328   4.864   1.589
 1475SOL     OW 5323   5.205   0.415   6.897
 1475SOL    HW1 5324   5.157   0.377   6.818
 1475SOL    HW2 5325   5.252   0.499   6.871
 1476SOL     OW 5326   4.936   0.490   1.556
 1476SOL    HW1 5327   4.892   0.483   1.467
 1476SOL    HW2 5328   4.986   0.576   1.562
 1477SOL     OW 5329   3.604   4.845   1.475
 1477SOL    HW1 5330   3.618   4.815   1.381
 1477SOL    HW2 5331   3.610   4.944   1.480
 1478SOL     OW 5332   5.263   5.562   6.406
 1478SOL    HW1 5333   5.328   5.488   6.387
 1478SOL    HW2 5334   5.211   5.584   6.324
 1479SOL     OW 5335   3.941   3.688   1.276
 1479SOL    HW1 5336   3.843   3.692   1.260
 1479SOL    HW2 5337   3.960   3.712   1.372
 1480SOL     OW 5338   3.391   0.302   4.788
 1480SOL    HW1 5339   3.332   0.272   4.863
 1480SOL    HW2 5340   3.336   0.325   4.708
 1481SOL     OW 5341   5.207   2.583   5.990
 1481SOL    HW1 5342   5.182   2.664   5.938
 1481SOL    HW2 5343   5.303   2.589   6.019
 1482SOL     OW 5344   4.905   1.329   0.753
 1482SOL    HW1 5345   4.962   1.409   0.733
 1482SOL    HW2 5346   4.952   1.246   0.723
 1483SOL     OW 5347   5.625   1.722   5.945
 1483SOL    HW1 5348   5.564   1.742   5.868
 1483SOL    HW2 5349   5.602   1.781   6.022
 1484SOL     OW 5350   3.476   5.786   4.992
 1484SOL    HW1 5351   3.573   5.773   4.971
 1484SOL    HW2 5352   3.433   5.839   4.919
 1485SOL     OW 5353   5.243   2.289   3.092
 1485SOL    HW1 5354   5.264   2.251   3.001
 1485SOL    HW2 5355   5.304   2.366   3.111
 1486SOL     OW 5356   4.797   6.928   3.803
 1486SOL    HW1 5357   4.700   6.922   3.779
 1486SOL    HW2 5358   4.853   6.903   3.724
 1487SOL     OW 5359   6.774   0.698   1.202
 1487SOL    HW1 5360   6.740   0.696   1.108
 1487SOL    HW2 5361   6.847   0.631   1.213
 1488SOL     OW 5362   6.174   1.306   2.645
 1488SOL    HW1 5363   6.227   1.316   2.561
 1488SOL    HW2 5364   6.104   1.237   2.632
 1489SOL     OW 5365   3.392   4.268   0.290
 1489SOL    HW1 5366   3.337   4.350   0.280
 1489SOL    HW2 5367   3.489   4.292   0.282
 1490SOL     OW 5368   6.741   2.406   2.361
 1490SOL    HW1 5369   6.722   2.451   2.448
 1490SOL    HW2 5370   6.676   2.438   2.292
 1491SOL     OW 5371   6.415   2.478   3.526
 1491SOL    HW1 5372   6.429   2.510   3.619
 1491SOL    HW2 5373   6.365   2.547   3.474
 1492SOL     OW 5374   5.967   1.112   3.350
 1492SOL    HW1 5375   6.044   1.056   3.319
 1492SOL    HW2 5376   5.899   1.120   3.277
 1493SOL     OW 5377   4.662   2.562   5.834
 1493SOL    HW1 5378   4.711   2.612   5.906
 1493SOL    HW2 5379   4.572   2.604   5.819
 1494SOL     OW 5380   6.467   4.268   5.506
 1494SOL    HW1 5381   6.499   4.216   5.427
 1494SOL    HW2 5382   6.373   4.243   5.527
 1495SOL     OW 5383   6.669   3.926   4.333
 1495SOL    HW1 5384   6.703   3.972   4.251
 1495SOL    HW2 5385   6.746   3.897   4.390
 1496SOL     OW 5386   6.671   5.313   6.224
 1496SOL    HW1 5387   6.572   5.324   6.231
 1496SOL    HW2 5388   6.693   5.219   6.198
 1497SOL     OW 5389   5.633   2.537   2.799
 1497SOL    HW1 5390   5.730   2.533   2.823
 1497SOL    HW2 5391   5.583   2.588   2.869
 1498SOL     OW 5392   3.227   3.887   0.497
 1498SOL    HW1 5393   3.272   3.925   0.578
 1498SOL    HW2 5394   3.215   3.788   0.509
 1499SOL     OW 5395   0.623   4.063   5.142
 1499SOL    HW1 5396   0.721   4.068   5.164
 1499SOL    HW2 5397   0.582   3.987   5.192
 1500SOL     OW 5398   1.065   5.581   1.636
 1500SOL    HW1 5399   1.043   5.522   1.559
 1500SOL    HW2 5400   1.074   5.675   1.605
 1501SOL     OW 5401   5.759   2.556   0.186
 1501SOL    HW1 5402   5.797   2.631   0.239
 1501SOL    HW2 5403   5.714   2.491   0.248
 1502SOL     OW 5404   6.586   0.271   6.280
 1502SOL    HW1 5405   6.653   0.266   6.354
 1502SOL    HW2 5406   6.533   0.187   6.277
 1503SOL     OW 5407   6.881   4.862   2.006
 1503SOL    HW1 5408   6.967   4.880   2.054
 1503SOL    HW2 5409   6.806   4.865   2.072
 1504SOL     OW 5410   0.749   0.136   2.605
 1504SOL    HW1 5411   0.820   0.152   2.536
 1504SOL    HW2 5412   0.716   0.042   2.596
 1505SOL     OW 5413   4.847   6.021   5.001
 1505SOL    HW1 5414   4.857   6.121   5.010
 1505SOL    HW2 5415   4.935   5.981   4.977
 1506SOL     OW 5416   0.381   1.844   0.934
 1506SOL    HW1 5417   0.444   1.767   0.922
 1506SOL    HW2 5418   0.419   1.926   0.892
 1507SOL     OW 5419   1.295   3.040   4.368
 1507SOL    HW1 5420   1.217   3.098   4.392
 1507SOL    HW2 5421   1.287   2.952   4.415
 1508SOL     OW 5422   0.938   0.663   0.828
 1508SOL    HW1 5423   0.859   0.607   0.853
 1508SOL    HW2 5424   0.907   0.745   0.781
 1509SOL     OW 5425   5.166   0.571   4.066
 1509SOL    HW1 5426   5.153   0.621   3.980
 1509SOL    HW2 5427   5.087   0.585   4.125
 1510SOL     OW 5428   3.850   5.645   4.330
 1510SOL    HW1 5429   3.873   5.733   4.371
 1510SOL    HW2 5430   3.793   5.593   4.393
 1511SOL     OW 5431   3.367   3.831   4.361
 1511SOL    HW1 5432   3.347   3.808   4.457
 1511SOL    HW2 5433   3.353   3.750   4.304
 1512SOL     OW 5434   5.997   6.034   0.765
 1512SOL    HW1 5435   5.933   6.106   0.736
 1512SOL    HW2 5436   6.062   6.072   0.830
 1513SOL     OW 5437   3.165   6.882   6.336
 1513SOL    HW1 5438   3.190   6.979   6.330
 1513SOL    HW2 5439   3.070   6.871   6.305
 1514SOL     OW 5440   3.163   2.527   5.659
 1514SOL    HW1 5441   3.229   2.584   5.708
 1514SOL    HW2 5442   3.122   2.581   5.585
 1515SOL     OW 5443   5.218   1.696   2.014
 1515SOL    HW1 5444   5.254   1.683   1.921
 1515SOL    HW2 5445   5.263   1.774   2.056
 1516SOL     OW 5446   6.208   6.935   5.271
 1516SOL    HW1 5447   6.130   6.952   5.210
 1516SOL    HW2 5448   6.175   6.890   5.354
 1517SOL     OW 5449   3.934   6.199   3.675
 1517SOL    HW1 5450   3.944   6.103   3.701
 1517SOL    HW2 5451   4.007   6.253   3.716
 1518SOL     OW 5452   0.772   2.912   0.197
 1518SOL    HW1 5453   0.860   2.959   0.190
 1518SOL    HW2 5454   0.786   2.814   0.189
 1519SOL     OW 5455   7.022   4.548   6.511
 1519SOL    HW1 5456   0.016   4.550   6.413
 1519SOL    HW2 5457   0.079   4.575   6.561
 1520SOL     OW 5458   0.456   5.719   2.490
 1520SOL    HW1 5459   0.533   5.779   2.470
 1520SOL    HW2 5460   0.456   5.696   2.588
 1521SOL     OW 5461   2.016   5.052   5.956
 1521SOL    HW1 5462   1.968   4.990   6.019
 1521SOL    HW2 5463   2.114   5.033   5.960
 1522SOL     OW 5464   4.987   6.150   3.950
 1522SOL    HW1 5465   5.044   6.171   3.870
 1522SOL    HW2 5466   4.954   6.056   3.944
 1523SOL     OW 5467   3.965   6.484   0.429
 1523SOL    HW1 5468   3.960   6.391   0.393
 1523SOL    HW2 5469   3.986   6.547   0.355
 1524SOL     OW 5470   2.111   1.918   2.758
 1524SOL    HW1 5471   2.052   1.991   2.723
 1524SOL    HW2 5472   2.158   1.874   2.682
 1525SOL     OW 5473   5.345   2.649   6.744
 1525SOL    HW1 5474   5.381   2.718   6.681
 1525SOL    HW2 5475   5.327   2.564   6.694
 1526SOL     OW 5476   0.850   1.166   0.026
 1526SOL    HW1 5477   0.861   1.265   0.015
 1526SOL    HW2 5478   0.901   1.135   0.106
 1527SOL     OW 5479   3.829   0.996   4.019
 1527SOL    HW1 5480   3.840   0.924   3.950
 1527SOL    HW2 5481   3.732   1.002   4.045
 1528SOL     OW 5482   4.181   3.828   1.478
 1528SOL    HW1 5483   4.248   3.813   1.406
 1528SOL    HW2 5484   4.191   3.758   1.548
 1529SOL     OW 5485   4.874   1.279   5.823
 1529SOL    HW1 5486   4.842   1.220   5.749
 1529SOL    HW2 5487   4.865   1.231   5.911
 1530SOL     OW 5488   3.381   6.040   1.314
 1530SOL    HW1 5489   3.419   6.095   1.240
 1530SOL    HW2 5490   3.435   5.956   1.324
 1531SOL     OW 5491   3.898   6.654   3.786
 1531SOL    HW1 5492   3.865   6.725   3.849
 1531SOL    HW2 5493   3.974   6.605   3.829
 1532SOL     OW 5494   2.792   5.811   6.309
 1532SOL    HW1 5495   2.695   5.815   6.330
 1532SOL    HW2 5496   2.805   5.818   6.210
 1533SOL     OW 5497   6.146   5.067   1.478
 1533SOL    HW1 5498   6.175   5.162   1.469
 1533SOL    HW2 5499   6.093   5.041   1.397
 1534SOL     OW 5500   3.529   5.686   6.093
 1534SOL    HW1 5501   3.441   5.706   6.048
 1534SOL    HW2 5502   3.512   5.653   6.186
 1535SOL     OW 5503   6.141   6.070   4.332
 1535SOL    HW1 5504   6.234   6.091   4.304
 1535SOL    HW2 5505   6.102   6.147   4.381
 1536SOL     OW 5506   4.618   3.565   6.358
 1536SOL    HW1 5507   4.707   3.526   6.380
 1536SOL    HW2 5508   4.574   3.511   6.286
 1537SOL     OW 5509   3.357   5.185   3.430
 1537SOL    HW1 5510   3.456   5.177   3.422
 1537SOL    HW2 5511   3.313   5.100   3.402
 1538SOL     OW 5512   3.150   1.693   6.831
 1538SOL    HW1 5513   3.208   1.766   6.868
 1538SOL    HW2 5514   3.168   1.608   6.881
 1539SOL     OW 5515   5.853   3.433   0.682
 1539SOL    HW1 5516   5.811   3.342   0.678
 1539SOL    HW2 5517   5.788   3.501   0.651
 1540SOL     OW 5518   3.538   6.683   4.757
 1540SOL    HW1 5519   3.580   6.619   4.821
 1540SOL    HW2 5520   3.438   6.672   4.758
 1541SOL     OW 5521   3.452   3.136   4.847
 1541SOL    HW1 5522   3.419   3.047   4.814
 1541SOL    HW2 5523   3.531   3.164   4.793
 1542SOL     OW 5524   6.998   0.348   2.771
 1542SOL    HW1 5525   0.031   0.350   2.853
 1542SOL    HW2 5526   6.936   0.426   2.772
 1543SOL     OW 5527   2.567   4.691   0.124
 1543SOL    HW1 5528   2.599   4.718   0.215
 1543SOL    HW2 5529   2.638   4.713   0.057
 1544SOL     OW 5530   3.671   3.496   4.494
 1544SOL    HW1 5531   3.704   3.444   4.415
 1544SOL    HW2 5532   3.575   3.474   4.511
 1545SOL     OW 5533   6.043   6.476   2.362
 1545SOL    HW1 5534   6.056   6.451   2.266
 1545SOL    HW2 5535   5.950   6.512   2.374
 1546SOL     OW 5536   5.493   6.660   5.793
 1546SOL    HW1 5537   5.578   6.711   5.791
 1546SOL    HW2 5538   5.476   6.627   5.886
 1547SOL     OW 5539   1.867   3.407   6.815
 1547SOL    HW1 5540   1.808   3.463   6.875
 1547SOL    HW2 5541   1.960   3.407   6.851
 1548SOL     OW 5542   6.541   2.210   6.404
 1548SOL    HW1 5543   6.557   2.296   6.355
 1548SOL    HW2 5544   6.556   2.224   6.501
 1549SOL     OW 5545   4.638   0.445   4.990
 1549SOL    HW1 5546   4.697   0.392   5.051
 1549SOL    HW2 5547   4.665   0.430   4.895
 1550SOL     OW 5548   3.884   2.949   3.402
 1550SOL    HW1 5549   3.839   2.996   3.326
 1550SOL    HW2 5550   3.935   2.870   3.367
 1551SOL     OW 5551   6.499   4.596   5.993
 1551SOL    HW1 5552   6.454   4.512   6.024
 1551SOL    HW2 5553   6.575   4.618   6.054
 1552SOL     OW 5554   1.587   4.147   1.784
 1552SOL    HW1 5555   1.553   4.191   1.867
 1552SOL    HW2 5556   1.545   4.190   1.704
 1553SOL     OW 5557   1.146   1.493   5.967
 1553SOL    HW1 5558   1.205   1.559   6.015
 1553SOL    HW2 5559   1.188   1.468   5.880
 1554SOL     OW 5560   2.938   1.304   4.012
 1554SOL    HW1 5561   2.973   1.377   3.955
 1554SOL    HW2 5562   2.846   1.326   4.043
 1555SOL     OW 5563   6.470   3.861   6.456
 1555SOL    HW1 5564   6.474   3.799   6.378
 1555SOL    HW2 5565   6.560   3.866   6.499
 1556SOL     OW 5566   2.433   0.934   5.976
 1556SOL    HW1 5567   2.511   0.977   6.022
 1556SOL    HW2 5568   2.440   0.950   5.877
 1557SOL     OW 5569   0.333   2.823   6.688
 1557SOL    HW1 5570   0.289   2.819   6.598
 1557SOL    HW2 5571   0.431   2.838   6.677
 1558SOL     OW 5572   0.091   6.960   4.919
 1558SOL    HW1 5573   0.165   6.965   4.986
 1558SOL    HW2 5574   0.131   6.952   4.827
 1559SOL     OW 5575   1.337   1.965   6.349
 1559SOL    HW1 5576   1.263   2.033   6.342
 1559SOL    HW2 5577   1.380   1.971   6.439
 1560SOL     OW 5578   6.984   0.644   6.917
 1560SOL    HW1 5579   0.019   0.720   6.889
 1560SOL    HW2 5580   6.926   0.617   6.840
 1561SOL     OW 5581   5.788   5.965   2.909
 1561SOL    HW1 5582   5.770   5.869   2.886
 1561SOL    HW2 5583   5.775   6.022   2.828
 1562SOL     OW 5584   5.436   1.236   3.709
 1562SOL    HW1 5585   5.354   1.292   3.713
 1562SOL    HW2 5586   5.483   1.252   3.622
 1563SOL     OW 5587   4.130   0.207   5.080
 1563SOL    HW1 5588   4.067   0.260   5.135
 1563SOL    HW2 5589   4.208   0.264   5.054
 1564SOL     OW 5590   1.725   1.917   2.552
 1564SOL    HW1 5591   1.756   1.831   2.511
 1564SOL    HW2 5592   1.650   1.955   2.496
 1565SOL     OW 5593   5.315   4.097   2.113
 1565SOL    HW1 5594   5.399   4.050   2.138
 1565SOL    HW2 5595   5.332   4.195   2.104
 1566SOL     OW 5596   5.826   4.423   3.517
 1566SOL    HW1 5597   5.882   4.369   3.454
 1566SOL    HW2 5598   5.820   4.375   3.605
 1567SOL     OW 5599   6.673   5.637   5.697
 1567SOL    HW1 5600   6.741   5.566   5.677
 1567SOL    HW2 5601   6.594   5.595   5.741
 1568SOL     OW 5602   0.424   6.933   0.927
 1568SOL    HW1 5603   0.477   7.013   0.899
 1568SOL    HW2 5604   0.476   6.880   0.994
 1569SOL     OW 5605   3.654   6.049   4.948
 1569SOL    HW1 5606   3.583   6.038   4.879
 1569SOL    HW2 5607   3.648   5.974   5.014
 1570SOL     OW 5608   3.854   2.057   1.596
 1570SOL    HW1 5609   3.825   2.153   1.607
 1570SOL    HW2 5610   3.852   2.033   1.499
 1571SOL     OW 5611   6.425   4.488   1.515
 1571SOL    HW1 5612   6.495   4.560   1.518
 1571SOL    HW2 5613   6.334   4.529   1.508
 1572SOL     OW 5614   1.800   6.154   2.301
 1572SOL    HW1 5615   1.775   6.179   2.395
 1572SOL    HW2 5616   1.719   6.123   2.252
 1573SOL     OW 5617   3.936   0.358   1.431
 1573SOL    HW1 5618   3.839   0.352   1.454
 1573SOL    HW2 5619   3.948   0.339   1.333
 1574SOL     OW 5620   6.125   2.529   2.099
 1574SOL    HW1 5621   6.099   2.458   2.165
 1574SOL    HW2 5622   6.042   2.571   2.062
 1575SOL     OW 5623   2.419   2.956   0.589
 1575SOL    HW1 5624   2.342   2.930   0.647
 1575SOL    HW2 5625   2.477   3.021   0.638
 1576SOL     OW 5626   6.860   6.021   4.105
 1576SOL    HW1 5627   6.957   6.027   4.083
 1576SOL    HW2 5628   6.825   5.932   4.076
 1577SOL     OW 5629   1.901   0.697   0.339
 1577SOL    HW1 5630   1.973   0.766   0.349
 1577SOL    HW2 5631   1.893   0.644   0.424
 1578SOL     OW 5632   5.415   5.268   5.078
 1578SOL    HW1 5633   5.394   5.302   4.986
 1578SOL    HW2 5634   5.395   5.170   5.083
 1579SOL     OW 5635   0.832   0.078   3.778
 1579SOL    HW1 5636   0.882   0.118   3.855
 1579SOL    HW2 5637   0.799   0.151   3.718
 1580SOL     OW 5638   3.204   3.999   5.481
 1580SOL    HW1 5639   3.166   3.934   5.415
 1580SOL    HW2 5640   3.281   3.956   5.529
 1581SOL     OW 5641   6.905   3.662   4.269
 1581SOL    HW1 5642   6.911   3.746   4.322
 1581SOL    HW2 5643   6.824   3.610   4.296
 1582SOL     OW 5644   6.029   5.279   4.084
 1582SOL    HW1 5645   6.053   5.317   4.174
 1582SOL    HW2 5646   5.938   5.239   4.088
 1583SOL     OW 5647   1.764   2.492   3.087
 1583SOL    HW1 5648   1.853   2.480   3.131
 1583SOL    HW2 5649   1.776   2.498   2.988
 1584SOL     OW 5650   2.550   0.412   6.884
 1584SOL    HW1 5651   2.580   0.465   6.805
 1584SOL    HW2 5652   2.625   0.404   6.950
 1585SOL     OW 5653   5.550   2.062   5.440
 1585SOL    HW1 5654   5.552   2.095   5.534
 1585SOL    HW2 5655   5.581   2.134   5.378
 1586SOL     OW 5656   3.758   4.033   2.819
 1586SOL    HW1 5657   3.740   4.089   2.738
 1586SOL    HW2 5658   3.693   4.056   2.891
 1587SOL     OW 5659   2.551   6.012   6.861
 1587SOL    HW1 5660   2.615   6.051   6.795
 1587SOL    HW2 5661   2.492   6.085   6.898
 1588SOL     OW 5662   5.803   3.819   2.120
 1588SOL    HW1 5663   5.790   3.795   2.216
 1588SOL    HW2 5664   5.877   3.886   2.112
 1589SOL     OW 5665   5.537   3.902   3.743
 1589SOL    HW1 5666   5.506   3.991   3.712
 1589SOL    HW2 5667   5.475   3.868   3.813
 1590SOL     OW 5668   2.075   0.388   5.691
 1590SOL    HW1 5669   2.007   0.392   5.618
 1590SOL    HW2 5670   2.100   0.481   5.719
 1591SOL     OW 5671   0.491   4.650   1.672
 1591SOL    HW1 5672   0.563   4.588   1.704
 1591SOL    HW2 5673   0.532   4.722   1.617
 1592SOL     OW 5674   3.258   3.273   2.529
 1592SOL    HW1 5675   3.205   3.195   2.565
 1592SOL    HW2 5676   3.338   3.287   2.587
 1593SOL     OW 5677   0.914   5.372   5.358
 1593SOL    HW1 5678   0.861   5.302   5.406
 1593SOL    HW2 5679   0.880   5.380   5.264
 1594SOL     OW 5680   6.791   5.428   3.398
 1594SOL    HW1 5681   6.818   5.337   3.431
 1594SOL    HW2 5682   6.693   5.440   3.409
 1595SOL     OW 5683   0.052   4.565   5.819
 1595SOL    HW1 5684   0.133   4.516   5.851
 1595SOL    HW2 5685   7.007   4.565   5.891
 1596SOL     OW 5686   2.695   5.115   6.803
 1596SOL    HW1 5687   2.773   5.054   6.818
 1596SOL    HW2 5688   2.658   5.143   6.892
 1597SOL     OW 5689   2.557   0.352   1.153
 1597SOL    HW1 5690   2.478   0.414   1.154
 1597SOL    HW2 5691   2.540   0.275   1.215
 1598SOL     OW 5692   0.330   5.379   1.463
 1598SOL    HW1 5693   0.346   5.281   1.460
 1598SOL    HW2 5694   0.233   5.398   1.452
 1599SOL     OW 5695   3.369   5.267   6.947
 1599SOL    HW1 5696   3.424   5.212   7.010
 1599SOL    HW2 5697   3.272   5.248   6.963
 1600SOL     OW 5698   3.964   1.181   4.627
 1600SOL    HW1 5699   4.011   1.250   4.681
 1600SOL    HW2 5700   3.895   1.135   4.683
 1601SOL     OW 5701   1.053   5.195   4.342
 1601SOL    HW1 5702   1.122   5.134   4.380
 1601SOL    HW2 5703   0.966   5.146   4.336
 1602SOL     OW 5704   1.441   4.615   3.546
 1602SOL    HW1 5705   1.434   4.671   3.629
 1602SOL    HW2 5706   1.537   4.610   3.517
 1603SOL     OW 5707   6.906   6.948   1.123
 1603SOL    HW1 5708   6.845   6.895   1.182
 1603SOL    HW2 5709   6.920   0.014   1.162
 1604SOL     OW 5710   0.629   5.404   5.466
 1604SOL    HW1 5711   0.602   5.318   5.509
 1604SOL    HW2 5712   0.594   5.408   5.373
 1605SOL     OW 5713   5.442   6.523   3.063
 1605SOL    HW1 5714   5.414   6.474   3.146
 1605SOL    HW2 5715   5.507   6.595   3.087
 1606SOL     OW 5716   4.830   6.763   6.076
 1606SOL    HW1 5717   4.803   6.798   6.166
 1606SOL    HW2 5718   4.752   6.721   6.031
 1607SOL     OW 5719   4.167   2.352   1.002
 1607SOL    HW1 5720   4.199   2.266   0.961
 1607SOL    HW2 5721   4.070   2.363   0.982
 1608SOL     OW 5722   2.830   0.320   0.923
 1608SOL    HW1 5723   2.910   0.300   0.866
 1608SOL    HW2 5724   2.758   0.254   0.905
 1609SOL     OW 5725   4.959   1.837   5.340
 1609SOL    HW1 5726   4.905   1.755   5.323
 1609SOL    HW2 5727   4.898   1.916   5.345
 1610SOL     OW 5728   5.931   5.648   4.219
 1610SOL    HW1 5729   5.953   5.715   4.290
 1610SOL    HW2 5730   5.860   5.586   4.253
 1611SOL     OW 5731   3.172   3.498   1.174
 1611SOL    HW1 5732   3.123   3.553   1.241
 1611SOL    HW2 5733   3.108   3.434   1.131
 1612SOL     OW 5734   3.584   0.967   4.145
 1612SOL    HW1 5735   3.544   1.000   4.231
 1612SOL    HW2 5736   3.524   0.989   4.069
 1613SOL     OW 5737   1.645   5.922   0.754
 1613SOL    HW1 5738   1.646   5.968   0.665
 1613SOL    HW2 5739   1.701   5.973   0.819
 1614SOL     OW 5740   6.921   2.547   6.801
 1614SOL    HW1 5741   7.011   2.565   6.842
 1614SOL    HW2 5742   6.850   2.553   6.871
 1615SOL     OW 5743   6.692   5.036   6.489
 1615SOL    HW1 5744   6.695   5.135   6.499
 1615SOL    HW2 5745   6.785   4.999   6.499
 1616SOL     OW 5746   2.805   1.574   5.314
 1616SOL    HW1 5747   2.837   1.505   5.379
 1616SOL    HW2 5748   2.706   1.584   5.321
 1617SOL     OW 5749   4.530   0.571   3.971
 1617SOL    HW1 5750   4.436   0.584   4.004
 1617SOL    HW2 5751   4.568   0.488   4.011
 1618SOL     OW 5752   5.648   2.529   0.729
 1618SOL    HW1 5753   5.624   2.433   0.741
 1618SOL    HW2 5754   5.610   2.563   0.643
 1619SOL     OW 5755   1.592   3.200   4.617
 1619SOL    HW1 5756   1.580   3.299   4.613
 1619SOL    HW2 5757   1.540   3.163   4.694
 1620SOL     OW 5758   3.771   5.271   1.408
 1620SOL    HW1 5759   3.700   5.226   1.355
 1620SOL    HW2 5760   3.761   5.246   1.505
 1621SOL     OW 5761   1.356   1.195   1.785
 1621SOL    HW1 5762   1.319   1.104   1.801
 1621SOL    HW2 5763   1.282   1.256   1.755
 1622SOL     OW 5764   2.140   2.104   4.247
 1622SOL    HW1 5765   2.107   2.174   4.311
 1622SOL    HW2 5766   2.133   2.014   4.289
 1623SOL     OW 5767   2.969   2.084   4.827
 1623SOL    HW1 5768   3.006   2.121   4.742
 1623SOL    HW2 5769   3.011   2.131   4.905
 1624SOL     OW 5770   2.275   0.688   0.504
 1624SOL    HW1 5771   2.352   0.703   0.565
 1624SOL    HW2 5772   2.308   0.664   0.413
 1625SOL     OW 5773   6.639   5.557   2.108
 1625SOL    HW1 5774   6.682   5.642   2.139
 1625SOL    HW2 5775   6.563   5.579   2.047
 1626SOL     OW 5776   2.129   2.502   5.968
 1626SOL    HW1 5777   2.186   2.437   5.917
 1626SOL    HW2 5778   2.097   2.459   6.053
 1627SOL     OW 5779   5.164   3.300   3.939
 1627SOL    HW1 5780   5.219   3.296   3.856
 1627SOL    HW2 5781   5.196   3.231   4.004
 1628SOL     OW 5782   3.139   2.979   0.365
 1628SOL    HW1 5783   3.056   3.009   0.412
 1628SOL    HW2 5784   3.214   2.973   0.431
 1629SOL     OW 5785   4.729   2.340   3.704
 1629SOL    HW1 5786   4.760   2.293   3.621
 1629SOL    HW2 5787   4.658   2.406   3.680
 1630SOL     OW 5788   0.056   5.164   4.145
 1630SOL    HW1 5789   7.024   5.243   4.120
 1630SOL    HW2 5790   0.002   5.100   4.199
 1631SOL     OW 5791   0.735   6.868   5.765
 1631SOL    HW1 5792   0.754   6.805   5.690
 1631SOL    HW2 5793   0.696   6.818   5.842
 1632SOL     OW 5794   6.241   0.448   1.882
 1632SOL    HW1 5795   6.206   0.506   1.809
 1632SOL    HW2 5796   6.184   0.458   1.963
 1633SOL     OW 5797   5.481   2.906   3.490
 1633SOL    HW1 5798   5.565   2.866   3.525
 1633SOL    HW2 5799   5.448   2.976   3.554
 1634SOL     OW 5800   3.610   0.716   6.765
 1634SOL    HW1 5801   3.551   0.681   6.837
 1634SOL    HW2 5802   3.559   0.779   6.707
 1635SOL     OW 5803   0.558   5.186   3.864
 1635SOL    HW1 5804   0.651   5.148   3.872
 1635SOL    HW2 5805   0.560   5.284   3.887
 1636SOL     OW 5806   2.127   6.064   1.435
 1636SOL    HW1 5807   2.066   6.093   1.362
 1636SOL    HW2 5808   2.077   6.009   1.501
 1637SOL     OW 5809   0.105   3.054   2.596
 1637SOL    HW1 5810   0.087   3.029   2.692
 1637SOL    HW2 5811   0.080   2.977   2.537
 1638SOL     OW 5812   1.747   2.952   5.007
 1638SOL    HW1 5813   1.837   2.908   5.007
 1638SOL    HW2 5814   1.719   2.971   5.101
 1639SOL     OW 5815   4.898   4.486   2.503
 1639SOL    HW1 5816   4.818   4.503   2.561
 1639SOL    HW2 5817   4.927   4.572   2.461
 1640SOL     OW 5818   6.242   0.456   1.218
 1640SOL    HW1 5819   6.259   0.462   1.316
 1640SOL    HW2 5820   6.328   0.434   1.171
 1641SOL     OW 5821   6.494   2.709   5.321
 1641SOL    HW1 5822   6.440   2.763   5.385
 1641SOL    HW2 5823   6.568   2.664   5.371
 1642SOL     OW 5824   0.915   2.282   1.746
 1642SOL    HW1 5825   0.861   2.366   1.734
 1642SOL    HW2 5826   0.890   2.239   1.832
 1643SOL     OW 5827   4.177   0.673   5.698
 1643SOL    HW1 5828   4.221   0.719   5.775
 1643SOL    HW2 5829   4.112   0.605   5.732
 1644SOL     OW 5830   3.259   1.005   1.164
 1644SOL    HW1 5831   3.213   0.922   1.132
 1644SOL    HW2 5832   3.357   0.987   1.169
 1645SOL     OW 5833   2.021   6.785   6.199
 1645SOL    HW1 5834   1.981   6.700   6.166
 1645SOL    HW2 5835   2.109   6.801   6.154
 1646SOL     OW 5836   1.042   3.671   1.189
 1646SOL    HW1 5837   1.120   3.613   1.164
 1646SOL    HW2 5838   1.058   3.710   1.280
 1647SOL     OW 5839   6.107   2.667   3.684
 1647SOL    HW1 5840   6.188   2.717   3.654
 1647SOL    HW2 5841   6.135   2.591   3.742
 1648SOL     OW 5842   4.277   6.735   2.181
 1648SOL    HW1 5843   4.195   6.753   2.235
 1648SOL    HW2 5844   4.350   6.701   2.240
 1649SOL     OW 5845   3.309   0.726   3.119
 1649SOL    HW1 5846   3.396   0.771   3.140
 1649SOL    HW2 5847   3.268   0.768   3.038
 1650SOL     OW 5848   2.779   6.343   3.575
 1650SOL    HW1 5849   2.776   6.393   3.661
 1650SOL    HW2 5850   2.699   6.283   3.568
 1651SOL     OW 5851   1.495   6.836   0.863
 1651SOL    HW1 5852   1.448   6.914   0.906
 1651SOL    HW2 5853   1.582   6.821   0.910
 1652SOL     OW 5854   2.769   2.915   1.710
 1652SOL    HW1 5855   2.868   2.927   1.719
 1652SOL    HW2 5856   2.750   2.839   1.648
 1653SOL     OW 5857   1.130   5.217   0.524
 1653SOL    HW1 5858   1.169   5.244   0.613
 1653SOL    HW2 5859   1.033   5.195   0.536
 1654SOL     OW 5860   0.063   2.754   3.265
 1654SOL    HW1 5861   7.011   2.814   3.290
 1654SOL    HW2 5862   0.093   2.702   3.345
 1655SOL     OW 5863   4.820   4.869   5.860
 1655SOL    HW1 5864   4.878   4.934   5.811
 1655SOL    HW2 5865   4.793   4.795   5.799
 1656SOL     OW 5866   0.847   4.118   3.166
 1656SOL    HW1 5867   0.815   4.088   3.256
 1656SOL    HW2 5868   0.935   4.075   3.146
 1657SOL     OW 5869   1.055   0.035   6.089
 1657SOL    HW1 5870   1.124   0.107   6.083
 1657SOL    HW2 5871   0.974   0.063   6.037
 1658SOL     OW 5872   6.135   6.319   2.834
 1658SOL    HW1 5873   6.185   6.284   2.754
 1658SOL    HW2 5874   6.114   6.243   2.895
 1659SOL     OW 5875   4.337   2.188   5.682
 1659SOL    HW1 5876   4.345   2.105   5.736
 1659SOL    HW2 5877   4.379   2.264   5.732
 1660SOL     OW 5878   1.750   5.624   3.277
 1660SOL    HW1 5879   1.778   5.540   3.322
 1660SOL    HW2 5880   1.678   5.605   3.210
 1661SOL     OW 5881   2.654   0.220   2.087
 1661SOL    HW1 5882   2.719   0.188   2.157
 1661SOL    HW2 5883   2.567   0.173   2.100
 1662SOL     OW 5884   0.711   0.287   3.695
 1662SOL    HW1 5885   0.727   0.381   3.665
 1662SOL    HW2 5886   0.613   0.269   3.698
 1663SOL     OW 5887   3.015   0.169   3.373
 1663SOL    HW1 5888   3.027   0.155   3.471
 1663SOL    HW2 5889   3.008   0.080   3.327
 1664SOL     OW 5890   2.118   5.968   4.699
 1664SOL    HW1 5891   2.211   5.999   4.714
 1664SOL    HW2 5892   2.088   5.996   4.608
 1665SOL     OW 5893   0.547   6.517   5.327
 1665SOL    HW1 5894   0.467   6.574   5.345
 1665SOL    HW2 5895   0.630   6.567   5.350
 1666SOL     OW 5896   5.898   2.915   6.228
 1666SOL    HW1 5897   5.862   2.834   6.181
 1666SOL    HW2 5898   5.964   2.887   6.297
 1667SOL     OW 5899   6.598   0.722   6.333
 1667SOL    HW1 5900   6.556   0.666   6.262
 1667SOL    HW2 5901   6.695   0.699   6.342
 1668SOL     OW 5902   3.398   1.043   4.943
 1668SOL    HW1 5903   3.349   1.123   4.910
 1668SOL    HW2 5904   3.413   1.051   5.042
 1669SOL     OW 5905   5.947   6.745   6.603
 1669SOL    HW1 5906   5.967   6.750   6.505
 1669SOL    HW2 5907   5.986   6.824   6.649
 1670SOL     OW 5908   5.450   4.300   5.727
 1670SOL    HW1 5909   5.442   4.247   5.642
 1670SOL    HW2 5910   5.395   4.383   5.720
 1671SOL     OW 5911   5.338   4.353   0.111
 1671SOL    HW1 5912   5.281   4.301   0.174
 1671SOL    HW2 5913   5.316   4.450   0.118
 1672SOL     OW 5914   2.100   5.566   2.648
 1672SOL    HW1 5915   2.020   5.560   2.589
 1672SOL    HW2 5916   2.171   5.621   2.604
 1673SOL     OW 5917   6.524   1.780   4.220
 1673SOL    HW1 5918   6.479   1.822   4.141
 1673SOL    HW2 5919   6.489   1.687   4.233
 1674SOL     OW 5920   0.966   4.929   6.287
 1674SOL    HW1 5921   0.931   4.953   6.196
 1674SOL    HW2 5922   1.063   4.909   6.281
 1675SOL     OW 5923   4.737   2.525   6.660
 1675SOL    HW1 5924   4.641   2.497   6.651
 1675SOL    HW2 5925   4.775   2.488   6.744
 1676SOL     OW 5926   2.034   0.945   3.380
 1676SOL    HW1 5927   2.113   1.000   3.406
 1676SOL    HW2 5928   2.051   0.849   3.404
 1677SOL     OW 5929   6.363   1.053   5.569
 1677SOL    HW1 5930   6.319   1.100   5.646
 1677SOL    HW2 5931   6.343   1.103   5.485
 1678SOL     OW 5932   5.738   6.744   1.386
 1678SOL    HW1 5933   5.702   6.815   1.326
 1678SOL    HW2 5934   5.688   6.745   1.473
 1679SOL     OW 5935   7.010   3.653   0.312
 1679SOL    HW1 5936   6.978   3.691   0.226
 1679SOL    HW2 5937   0.082   3.627   0.303
 1680SOL     OW 5938   1.068   1.931   4.799
 1680SOL    HW1 5939   1.107   1.931   4.707
 1680SOL    HW2 5940   1.129   1.980   4.861
 1681SOL     OW 5941   5.971   5.375   1.435
 1681SOL    HW1 5942   5.968   5.472   1.413
 1681SOL    HW2 5943   6.066   5.344   1.441
 1682SOL     OW 5944   6.550   3.433   5.291
 1682SOL    HW1 5945   6.475   3.385   5.338
 1682SOL    HW2 5946   6.582   3.508   5.348
 1683SOL     OW 5947   5.685   5.521   0.355
 1683SOL    HW1 5948   5.689   5.447   0.421
 1683SOL    HW2 5949   5.593   5.525   0.315
 1684SOL     OW 5950   0.591   5.900   4.776
 1684SOL    HW1 5951   0.639   5.831   4.831
 1684SOL    HW2 5952   0.617   5.891   4.680
 1685SOL     OW 5953   1.354   1.810   6.886
 1685SOL    HW1 5954   1.305   1.886   6.928
 1685SOL    HW2 5955   1.328   1.725   6.932
 1686SOL     OW 5956   1.674   5.989   6.655
 1686SOL    HW1 5957   1.612   5.947   6.721
 1686SOL    HW2 5958   1.760   5.939   6.654
 1687SOL     OW 5959   1.432   0.606   1.565
 1687SOL    HW1 5960   1.519   0.647   1.537
 1687SOL    HW2 5961   1.430   0.510   1.535
 1688SOL     OW 5962   0.641   1.632   3.266
 1688SOL    HW1 5963   0.680   1.691   3.337
 1688SOL    HW2 5964   0.666   1.667   3.176
 1689SOL     OW 5965   2.784   1.485   2.258
 1689SOL    HW1 5966   2.747   1.406   2.208
 1689SOL    HW2 5967   2.876   1.463   2.291
 1690SOL     OW 5968   0.703   2.203   1.107
 1690SOL    HW1 5969   0.626   2.267   1.111
 1690SOL    HW2 5970   0.762   2.226   1.030
 1691SOL     OW 5971   4.760   5.205   2.943
 1691SOL    HW1 5972   4.701   5.134   2.904
 1691SOL    HW2 5973   4.740   5.214   3.041
 1692SOL     OW 5974   1.492   1.009   4.248
 1692SOL    HW1 5975   1.512   1.103   4.221
 1692SOL    HW2 5976   1.492   0.950   4.167
 1693SOL     OW 5977   2.559   2.316   3.508
 1693SOL    HW1 5978   2.504   2.233   3.522
 1693SOL    HW2 5979   2.655   2.295   3.523
 1694SOL     OW 5980   4.650   6.226   5.958
 1694SOL    HW1 5981   4.562   6.259   5.994
 1694SOL    HW2 5982   4.655   6.246   5.860
 1695SOL     OW 5983   2.378   2.009   5.886
 1695SOL    HW1 5984   2.477   2.006   5.896
 1695SOL    HW2 5985   2.352   1.974   5.796
 1696SOL     OW 5986   3.336   5.547   0.725
 1696SOL    HW1 5987   3.435   5.536   0.711
 1696SOL    HW2 5988   3.319   5.636   0.766
 1697SOL     OW 5989   1.028   1.540   2.082
 1697SOL    HW1 5990   0.935   1.561   2.052
 1697SOL    HW2 5991   1.038   1.441   2.093
 1698SOL     OW 5992   5.000   1.995   0.696
 1698SOL    HW1 5993   5.021   2.079   0.746
 1698SOL    HW2 5994   5.045   1.998   0.606
 1699SOL     OW 5995   2.404   3.844   0.857
 1699SOL    HW1 5996   2.469   3.843   0.781
 1699SOL    HW2 5997   2.452   3.858   0.943
 1700SOL     OW 5998   6.526   3.078   4.311
 1700SOL    HW1 5999   6.555   3.085   4.406
 1700SOL    HW2 6000   6.445   3.020   4.305
 1701SOL     OW 6001   5.528   3.534   4.455
 1701SOL    HW1 6002   5.619   3.573   4.467
 1701SOL    HW2 6003   5.480   3.582   4.382
 1702SOL     OW 6004   4.515   2.752   1.138
 1702SOL    HW1 6005   4.539   2.849   1.130
 1702SOL    HW2 6006   4.415   2.743   1.139
 1703SOL     OW 6007   1.965   4.093   0.339
 1703SOL    HW1 6008   1.991   4.188   0.357
 1703SOL    HW2 6009   1.884   4.091   0.281
 1704SOL     OW 6010   1.033   1.269   2.001
 1704SOL    HW1 6011   1.094   1.196   2.032
 1704SOL    HW2 6012   0.938   1.239   2.012
 1705SOL     OW 6013   3.809   3.400   1.879
 1705SOL    HW1 6014   3.875   3.472   1.898
 1705SOL    HW2 6015   3.825   3.364   1.787
 1706SOL     OW 6016   3.058   0.919   6.840
 1706SOL    HW1 6017   3.151   0.954   6.828
 1706SOL    HW2 6018   2.999   0.960   6.771
 1707SOL     OW 6019   6.093   1.333   3.007
 1707SOL    HW1 6020   6.135   1.254   2.961
 1707SOL    HW2 6021   6.160   1.378   3.065
 1708SOL     OW 6022   0.267   4.664   2.244
 1708SOL    HW1 6023   0.337   4.662   2.315
 1708SOL    HW2 6024   0.303   4.627   2.159
 1709SOL     OW 6025   3.601   5.798   3.640
 1709SOL    HW1 6026   3.612   5.760   3.548
 1709SOL    HW2 6027   3.529   5.748   3.689
 1710SOL     OW 6028   6.958   5.936   3.825
 1710SOL    HW1 6029   6.866   5.963   3.853
 1710SOL    HW2 6030   6.953   5.858   3.762
 1711SOL     OW 6031   1.462   4.588   5.605
 1711SOL    HW1 6032   1.448   4.687   5.606
 1711SOL    HW2 6033   1.554   4.567   5.638
 1712SOL     OW 6034   1.369   4.936   0.981
 1712SOL    HW1 6035   1.289   4.942   0.921
 1712SOL    HW2 6036   1.344   4.969   1.072
 1713SOL     OW 6037   1.806   3.261   0.509
 1713SOL    HW1 6038   1.743   3.225   0.441
 1713SOL    HW2 6039   1.760   3.265   0.598
 1714SOL     OW 6040   3.726   1.399   0.455
 1714SOL    HW1 6041   3.788   1.388   0.377
 1714SOL    HW2 6042   3.727   1.315   0.510
 1715SOL     OW 6043   0.366   3.440   3.625
 1715SOL    HW1 6044   0.331   3.360   3.577
 1715SOL    HW2 6045   0.433   3.412   3.694
 1716SOL     OW 6046   0.538   6.618   0.116
 1716SOL    HW1 6047   0.454   6.666   0.093
 1716SOL    HW2 6048   0.617   6.676   0.093
 1717SOL     OW 6049   3.361   0.272   0.347
 1717SOL    HW1 6050   3.390   0.198   0.409
 1717SOL    HW2 6051   3.304   0.337   0.398
 1718SOL     OW 6052   0.880   4.712   5.185
 1718SOL    HW1 6053   0.903   4.782   5.253
 1718SOL    HW2 6054   0.782   4.716   5.165
 1719SOL     OW 6055   2.240   3.290   1.511
 1719SOL    HW1 6056   2.268   3.263   1.604
 1719SOL    HW2 6057   2.143   3.271   1.499
 1720SOL     OW 6058   6.589   1.601   1.467
 1720SOL    HW1 6059   6.529   1.522   1.480
 1720SOL    HW2 6060   6.659   1.578   1.400
 1721SOL     OW 6061   1.939   6.254   3.768
 1721SOL    HW1 6062   1.847   6.284   3.743
 1721SOL    HW2 6063   1.953   6.160   3.738
 1722SOL     OW 6064   5.548   6.899   2.086
 1722SOL    HW1 6065   5.622   6.933   2.029
 1722SOL    HW2 6066   5.461   6.913   2.040
 1723SOL     OW 6067   6.209   1.210   2.043
 1723SOL    HW1 6068   6.223   1.247   1.951
 1723SOL    HW2 6069   6.168   1.280   2.101
 1724SOL     OW 6070   4.877   0.634   0.086
 1724SOL    HW1 6071   4.956   0.677   0.042
 1724SOL    HW2 6072   4.907   0.588   0.170
 1725SOL     OW 6073   4.173   4.772   1.613
 1725SOL    HW1 6074   4.253   4.720   1.583
 1725SOL    HW2 6075   4.120   4.800   1.533
 1726SOL     OW 6076   0.436   4.948   4.892
 1726SOL    HW1 6077   0.340   4.937   4.867
 1726SOL    HW2 6078   0.447   4.934   4.991
 1727SOL     OW 6079   3.452   3.619   5.217
 1727SOL    HW1 6080   3.435   3.647   5.311
 1727SOL    HW2 6081   3.365   3.593   5.174
 1728SOL     OW 6082   4.762   4.284   3.133
 1728SOL    HW1 6083   4.762   4.377   3.095
 1728SOL    HW2 6084   4.782   4.218   3.061
 1729SOL     OW 6085   1.848   3.299   2.900
 1729SOL    HW1 6086   1.779   3.291   2.827
 1729SOL    HW2 6087   1.939   3.297   2.860
 1730SOL     OW 6088   5.768   2.191   4.985
 1730SOL    HW1 6089   5.685   2.200   5.040
 1730SOL    HW2 6090   5.746   2.149   4.897
 1731SOL     OW 6091   1.311   5.053   0.091
 1731SOL    HW1 6092   1.364   5.076   0.172
 1731SOL    HW2 6093   1.219   5.091   0.100
 1732SOL     OW 6094   0.370   4.494   0.429
 1732SOL    HW1 6095   0.310   4.529   0.358
 1732SOL    HW2 6096   0.437   4.564   0.454
 1733SOL     OW 6097   1.395   4.037   0.622
 1733SOL    HW1 6098   1.388   4.053   0.720
 1733SOL    HW2 6099   1.304   4.019   0.585
 1734SOL     OW 6100   5.046   3.495   0.890
 1734SOL    HW1 6101   4.980   3.492   0.965
 1734SOL    HW2 6102   4.998   3.485   0.803
 1735SOL     OW 6103   5.530   5.365   1.801
 1735SOL    HW1 6104   5.584   5.324   1.874
 1735SOL    HW2 6105   5.469   5.435   1.840
 1736SOL     OW 6106   3.189   3.619   0.444
 1736SOL    HW1 6107   3.141   3.616   0.356
 1736SOL    HW2 6108   3.160   3.541   0.500
 1737SOL     OW 6109   1.301   6.365   3.800
 1737SOL    HW1 6110   1.273   6.379   3.705
 1737SOL    HW2 6111   1.376   6.299   3.804
 1738SOL     OW 6112   1.199   2.595   1.941
 1738SOL    HW1 6113   1.186   2.498   1.920
 1738SOL    HW2 6114   1.274   2.631   1.887
 1739SOL     OW 6115   4.087   1.722   5.620
 1739SOL    HW1 6116   4.085   1.822   5.629
 1739SOL    HW2 6117   4.018   1.694   5.552
 1740SOL     OW 6118   0.937   1.107   6.019
 1740SOL    HW1 6119   0.960   1.146   5.930
 1740SOL    HW2 6120   0.954   1.174   6.091
 1741SOL     OW 6121   1.843   0.552   2.675
 1741SOL    HW1 6122   1.758   0.532   2.627
 1741SOL    HW2 6123   1.857   0.484   2.747
 1742SOL     OW 6124   5.871   0.542   4.549
 1742SOL    HW1 6125   5.843   0.496   4.464
 1742SOL    HW2 6126   5.805   0.520   4.621
 1743SOL     OW 6127   4.782   1.084   0.928
 1743SOL    HW1 6128   4.815   1.159   0.871
 1743SOL    HW2 6129   4.693   1.108   0.967
 1744SOL     OW 6130   2.867   0.824   1.448
 1744SOL    HW1 6131   2.873   0.842   1.350
 1744SOL    HW2 6132   2.906   0.733   1.467
 1745SOL     OW 6133   6.987   2.232   4.263
 1745SOL    HW1 6134   6.903   2.281   4.287
 1745SOL    HW2 6135   0.007   2.278   4.186
 1746SOL     OW 6136   3.145   0.522   5.536
 1746SOL    HW1 6137   3.193   0.508   5.449
 1746SOL    HW2 6138   3.202   0.493   5.612
 1747SOL     OW 6139   4.066   0.537   0.942
 1747SOL    HW1 6140   4.101   0.444   0.928
 1747SOL    HW2 6141   3.966   0.534   0.943
 1748SOL     OW 6142   5.633   1.991   1.843
 1748SOL    HW1 6143   5.535   1.997   1.823
 1748SOL    HW2 6144   5.672   2.082   1.844
 1749SOL     OW 6145   4.483   6.974   6.290
 1749SOL    HW1 6146   4.487   6.954   6.192
 1749SOL    HW2 6147   4.490   0.048   6.305
 1750SOL     OW 6148   5.054   0.767   3.582
 1750SOL    HW1 6149   4.985   0.782   3.511
 1750SOL    HW2 6150   5.135   0.724   3.541
 1751SOL     OW 6151   2.045   5.825   3.845
 1751SOL    HW1 6152   2.012   5.730   3.848
 1751SOL    HW2 6153   2.144   5.825   3.836
 1752SOL     OW 6154   6.255   2.342   0.350
 1752SOL    HW1 6155   6.164   2.318   0.316
 1752SOL    HW2 6156   6.246   2.387   0.439
 1753SOL     OW 6157   2.498   0.500   2.338
 1753SOL    HW1 6158   2.514   0.415   2.388
 1753SOL    HW2 6159   2.586   0.537   2.306
 1754SOL     OW 6160   3.817   2.953   0.919
 1754SOL    HW1 6161   3.876   2.881   0.955
 1754SOL    HW2 6162   3.754   2.984   0.990
 1755SOL     OW 6163   5.226   3.693   0.790
 1755SOL    HW1 6164   5.315   3.647   0.783
 1755SOL    HW2 6165   5.156   3.626   0.813
 1756SOL     OW 6166   6.169   5.498   4.288
 1756SOL    HW1 6167   6.095   5.564   4.276
 1756SOL    HW2 6168   6.254   5.537   4.253
 1757SOL     OW 6169   3.033   6.506   4.186
 1757SOL    HW1 6170   3.042   6.597   4.146
 1757SOL    HW2 6171   2.981   6.447   4.125
 1758SOL     OW 6172   2.483   1.018   3.585
 1758SOL    HW1 6173   2.583   1.018   3.584
 1758SOL    HW2 6174   2.450   1.047   3.675
 1759SOL     OW 6175   0.252   5.518   6.053
 1759SOL    HW1 6176   0.210   5.454   5.989
 1759SOL    HW2 6177   0.328   5.565   6.008
 1760SOL     OW 6178   5.397   0.589   2.627
 1760SOL    HW1 6179   5.425   0.650   2.701
 1760SOL    HW2 6180   5.336   0.518   2.663
 1761SOL     OW 6181   6.509   2.729   1.153
 1761SOL    HW1 6182   6.582   2.669   1.187
 1761SOL    HW2 6183   6.424   2.677   1.146
 1762SOL     OW 6184   6.004   2.197   6.437
 1762SOL    HW1 6185   5.974   2.108   6.473
 1762SOL    HW2 6186   5.967   2.270   6.494
 1763SOL     OW 6187   2.116   3.875   3.773
 1763SOL    HW1 6188   2.132   3.827   3.859
 1763SOL    HW2 6189   2.074   3.813   3.707
 1764SOL     OW 6190   6.539   2.827   3.910
 1764SOL    HW1 6191   6.515   2.735   3.939
 1764SOL    HW2 6192   6.601   2.868   3.976
 1765SOL     OW 6193   3.058   2.555   6.337
 1765SOL    HW1 6194   3.103   2.467   6.352
 1765SOL    HW2 6195   3.030   2.594   6.425
 1766SOL     OW 6196   5.433   3.327   5.102
 1766SOL    HW1 6197   5.491   3.299   5.178
 1766SOL    HW2 6198   5.487   3.331   5.018
 1767SOL     OW 6199   5.712   3.463   2.326
 1767SOL    HW1 6200   5.747   3.422   2.241
 1767SOL    HW2 6201   5.763   3.547   2.346
 1768SOL     OW 6202   5.691   6.349   4.114
 1768SOL    HW1 6203   5.745   6.433   4.114
 1768SOL    HW2 6204   5.634   6.346   4.196
 1769SOL     OW 6205   5.241   1.432   3.172
 1769SOL    HW1 6206   5.301   1.416   3.250
 1769SOL    HW2 6207   5.147   1.415   3.198
 1770SOL     OW 6208   2.592   5.487   4.958
 1770SOL    HW1 6209   2.533   5.432   5.017
 1770SOL    HW2 6210   2.651   5.427   4.904
 1771SOL     OW 6211   4.650   5.878   6.351
 1771SOL    HW1 6212   4.726   5.942   6.365
 1771SOL    HW2 6213   4.674   5.789   6.390
 1772SOL     OW 6214   3.077   6.722   2.585
 1772SOL    HW1 6215   3.045   6.816   2.571
 1772SOL    HW2 6216   3.005   6.658   2.558
 1773SOL     OW 6217   0.427   5.269   0.054
 1773SOL    HW1 6218   0.381   5.323   7.008
 1773SOL    HW2 6219   0.389   5.293   0.144
 1774SOL     OW 6220   3.362   5.353   1.871
 1774SOL    HW1 6221   3.444   5.304   1.900
 1774SOL    HW2 6222   3.282   5.293   1.879
 1775SOL     OW 6223   0.574   4.995   1.788
 1775SOL    HW1 6224   0.554   4.955   1.877
 1775SOL    HW2 6225   0.656   5.051   1.794
 1776SOL     OW 6226   2.553   5.748   5.076
 1776SOL    HW1 6227   2.603   5.668   5.041
 1776SOL    HW2 6228   2.552   5.744   5.176
 1777SOL     OW 6229   3.925   5.976   0.550
 1777SOL    HW1 6230   4.010   5.929   0.523
 1777SOL    HW2 6231   3.889   5.933   0.633
 1778SOL     OW 6232   5.518   3.497   5.682
 1778SOL    HW1 6233   5.496   3.593   5.700
 1778SOL    HW2 6234   5.604   3.473   5.727
 1779SOL     OW 6235   3.161   6.683   5.020
 1779SOL    HW1 6236   3.217   6.614   5.066
 1779SOL    HW2 6237   3.133   6.753   5.086
 1780SOL     OW 6238   3.439   3.152   6.611
 1780SOL    HW1 6239   3.531   3.189   6.617
 1780SOL    HW2 6240   3.385   3.206   6.546
 1781SOL     OW 6241   3.659   5.423   3.207
 1781SOL    HW1 6242   3.742   5.410   3.153
 1781SOL    HW2 6243   3.677   5.488   3.281
 1782SOL     OW 6244   3.731   1.766   3.929
 1782SOL    HW1 6245   3.769   1.702   3.996
 1782SOL    HW2 6246   3.803   1.796   3.866
 1783SOL     OW 6247   1.400   5.548   0.633
 1783SOL    HW1 6248   1.478   5.612   0.634
 1783SOL    HW2 6249   1.386   5.517   0.539
 1784SOL     OW 6250   3.611   6.523   5.166
 1784SOL    HW1 6251   3.600   6.622   5.165
 1784SOL    HW2 6252   3.653   6.494   5.252
 1785SOL     OW 6253   6.532   4.142   2.643
 1785SOL    HW1 6254   6.535   4.208   2.718
 1785SOL    HW2 6255   6.498   4.054   2.677
 1786SOL     OW 6256   3.082   2.549   1.309
 1786SOL    HW1 6257   3.009   2.587   1.252
 1786SOL    HW2 6258   3.060   2.562   1.405
 1787SOL     OW 6259   3.692   0.489   6.096
 1787SOL    HW1 6260   3.691   0.389   6.097
 1787SOL    HW2 6261   3.701   0.524   6.190
 1788SOL     OW 6262   1.881   4.987   5.170
 1788SOL    HW1 6263   1.881   4.909   5.108
 1788SOL    HW2 6264   1.955   5.050   5.145
 1789SOL     OW 6265   6.385   1.427   0.138
 1789SOL    HW1 6266   6.478   1.457   0.162
 1789SOL    HW2 6267   6.390   1.353   0.071
 1790SOL     OW 6268   3.926   6.670   3.508
 1790SOL    HW1 6269   3.839   6.681   3.460
 1790SOL    HW2 6270   3.910   6.676   3.607
 1791SOL     OW 6271   0.139   6.557   2.761
 1791SOL    HW1 6272   0.160   6.605   2.676
 1791SOL    HW2 6273   0.198   6.477   2.771
 1792SOL     OW 6274   1.158   3.167   4.873
 1792SOL    HW1 6275   1.084   3.174   4.807
 1792SOL    HW2 6276   1.154   3.078   4.919
 1793SOL     OW 6277   0.384   0.338   3.892
 1793SOL    HW1 6278   0.346   0.312   3.803
 1793SOL    HW2 6279   0.326   0.408   3.934
 1794SOL     OW 6280   4.218   5.637   6.032
 1794SOL    HW1 6281   4.228   5.539   6.018
 1794SOL    HW2 6282   4.303   5.684   6.007
 1795SOL     OW 6283   0.898   2.787   0.777
 1795SOL    HW1 6284   0.845   2.859   0.732
 1795SOL    HW2 6285   0.838   2.709   0.797
 1796SOL     OW 6286   3.487   0.750   6.181
 1796SOL    HW1 6287   3.456   0.843   6.203
 1796SOL    HW2 6288   3.488   0.739   6.081
 1797SOL     OW 6289   1.086   0.020   1.138
 1797SOL    HW1 6290   0.991   0.004   1.168
 1797SOL    HW2 6291   1.126   0.093   1.194
 1798SOL     OW 6292   5.059   2.450   2.878
 1798SOL    HW1 6293   5.115   2.511   2.933
 1798SOL    HW2 6294   4.967   2.445   2.917
 1799SOL     OW 6295   1.643   1.980   0.005
 1799SOL    HW1 6296   1.664   1.899   6.974
 1799SOL    HW2 6297   1.546   2.002   7.022
 1800SOL     OW 6298   4.162   5.002   1.762
 1800SOL    HW1 6299   4.156   4.921   1.704
 1800SOL    HW2 6300   4.228   5.066   1.722
 1801SOL     OW 6301   6.575   6.719   0.951
 1801SOL    HW1 6302   6.603   6.785   0.881
 1801SOL    HW2 6303   6.544   6.768   1.033
 1802SOL     OW 6304   5.364   5.727   4.063
 1802SOL    HW1 6305   5.444   5.670   4.084
 1802SOL    HW2 6306   5.395   5.817   4.031
 1803SOL     OW 6307   6.809   5.479   1.116
 1803SOL    HW1 6308   6.872   5.416   1.070
 1803SOL    HW2 6309   6.858   5.528   1.188
 1804SOL     OW 6310   3.152   2.946   4.833
 1804SOL    HW1 6311   3.101   2.863   4.810
 1804SOL    HW2 6312   3.250   2.930   4.819
 1805SOL     OW 6313   4.599   3.196   6.802
 1805SOL    HW1 6314   4.586   3.226   6.707
 1805SOL    HW2 6315   4.611   3.096   6.804
 1806SOL     OW 6316   0.183   6.383   1.724
 1806SOL    HW1 6317   0.091   6.419   1.741
 1806SOL    HW2 6318   0.218   6.341   1.808
 1807SOL     OW 6319   6.048   1.199   5.406
 1807SOL    HW1 6320   6.146   1.187   5.388
 1807SOL    HW2 6321   6.022   1.293   5.384
 1808SOL     OW 6322   1.724   5.137   4.115
 1808SOL    HW1 6323   1.733   5.175   4.207
 1808SOL    HW2 6324   1.715   5.037   4.120
 1809SOL     OW 6325   3.662   1.133   6.510
 1809SOL    HW1 6326   3.575   1.182   6.503
 1809SOL    HW2 6327   3.737   1.199   6.518
 1810SOL     OW 6328   3.189   6.206   2.787
 1810SOL    HW1 6329   3.167   6.268   2.862
 1810SOL    HW2 6330   3.192   6.257   2.701
 1811SOL     OW 6331   5.760   5.061   3.606
 1811SOL    HW1 6332   5.721   5.052   3.515
 1811SOL    HW2 6333   5.800   5.152   3.616
 1812SOL     OW 6334   4.123   5.320   6.274
 1812SOL    HW1 6335   4.207   5.300   6.323
 1812SOL    HW2 6336   4.144   5.352   6.182
 1813SOL     OW 6337   5.986   4.675   5.981
 1813SOL    HW1 6338   6.084   4.687   5.994
 1813SOL    HW2 6339   5.960   4.580   6.000
 1814SOL     OW 6340   4.721   6.716   1.870
 1814SOL    HW1 6341   4.710   6.773   1.789
 1814SOL    HW2 6342   4.650   6.740   1.937
 1815SOL     OW 6343   0.474   0.490   3.481
 1815SOL    HW1 6344   0.571   0.478   3.464
 1815SOL    HW2 6345   0.459   0.571   3.539
 1816SOL     OW 6346   0.714   4.342   0.153
 1816SOL    HW1 6347   0.732   4.431   0.196
 1816SOL    HW2 6348   0.800   4.300   0.126
 1817SOL     OW 6349   2.242   6.014   2.048
 1817SOL    HW1 6350   2.166   6.077   2.064
 1817SOL    HW2 6351   2.270   6.019   1.953
 1818SOL     OW 6352   2.305   1.080   3.121
 1818SOL    HW1 6353   2.312   0.994   3.070
 1818SOL    HW2 6354   2.396   1.117   3.137
 1819SOL     OW 6355   1.768   4.747   2.110
 1819SOL    HW1 6356   1.758   4.790   2.020
 1819SOL    HW2 6357   1.807   4.656   2.100
 1820SOL     OW 6358   4.607   0.175   2.693
 1820SOL    HW1 6359   4.538   0.222   2.638
 1820SOL    HW2 6360   4.676   0.240   2.723
 1821SOL     OW 6361   2.949   2.174   3.072
 1821SOL    HW1 6362   2.925   2.081   3.045
 1821SOL    HW2 6363   3.029   2.204   3.020
 1822SOL     OW 6364   3.425   3.270   1.746
 1822SOL    HW1 6365   3.373   3.190   1.776
 1822SOL    HW2 6366   3.512   3.241   1.705
 1823SOL     OW 6367   3.738   6.767   2.497
 1823SOL    HW1 6368   3.725   6.760   2.398
 1823SOL    HW2 6369   3.671   6.709   2.543
 1824SOL     OW 6370   4.965   2.690   1.173
 1824SOL    HW1 6371   4.990   2.601   1.135
 1824SOL    HW2 6372   5.000   2.762   1.113
 1825SOL     OW 6373   0.973   0.825   1.720
 1825SOL    HW1 6374   1.063   0.822   1.677
 1825SOL    HW2 6375   0.917   0.750   1.685
 1826SOL     OW 6376   3.542   6.291   6.682
 1826SOL    HW1 6377   3.544   6.246   6.593
 1826SOL    HW2 6378   3.612   6.362   6.685
 1827SOL     OW 6379   6.706   6.185   1.509
 1827SOL    HW1 6380   6.625   6.225   1.551
 1827SOL    HW2 6381   6.715   6.089   1.537
 1828SOL     OW 6382   1.511   2.286   6.717
 1828SOL    HW1 6383   1.429   2.228   6.715
 1828SOL    HW2 6384   1.547   2.289   6.810
 1829SOL     OW 6385   5.503   5.047   1.984
 1829SOL    HW1 6386   5.548   5.124   2.030
 1829SOL    HW2 6387   5.499   5.065   1.885
 1830SOL     OW 6388   5.098   6.449   3.926
 1830SOL    HW1 6389   5.033   6.478   3.856
 1830SOL    HW2 6390   5.178   6.508   3.924
 1831SOL     OW 6391   5.028   0.003   2.870
 1831SOL    HW1 6392   5.103   0.048   2.821
 1831SOL    HW2 6393   5.037   0.020   2.968
 1832SOL     OW 6394   4.754   2.963   0.848
 1832SOL    HW1 6395   4.751   3.020   0.931
 1832SOL    HW2 6396   4.807   2.880   0.866
 1833SOL     OW 6397   5.784   1.902   5.526
 1833SOL    HW1 6398   5.804   1.998   5.512
 1833SOL    HW2 6399   5.731   1.866   5.449
 1834SOL     OW 6400   2.920   3.389   0.506
 1834SOL    HW1 6401   2.838   3.400   0.450
 1834SOL    HW2 6402   2.897   3.338   0.589
 1835SOL     OW 6403   1.620   4.688   6.999
 1835SOL    HW1 6404   1.607   4.744   0.057
 1835SOL    HW2 6405   1.567   4.728   6.924
 1836SOL     OW 6406   0.428   6.406   0.958
 1836SOL    HW1 6407   0.470   6.315   0.954
 1836SOL    HW2 6408   0.472   6.459   1.030
 1837SOL     OW 6409   0.987   2.470   4.813
 1837SOL    HW1 6410   0.948   2.507   4.898
 1837SOL    HW2 6411   1.038   2.542   4.766
 1838SOL     OW 6412   6.583   2.309   4.028
 1838SOL    HW1 6413   6.566   2.267   3.939
 1838SOL    HW2 6414   6.652   2.256   4.077
 1839SOL     OW 6415   0.122   2.349   5.928
 1839SOL    HW1 6416   0.064   2.338   5.847
 1839SOL    HW2 6417   0.167   2.262   5.948
 1840SOL     OW 6418   1.655   5.227   1.191
 1840SOL    HW1 6419   1.592   5.221   1.114
 1840SOL    HW2 6420   1.746   5.255   1.158
 1841SOL     OW 6421   1.570   2.462   3.746
 1841SOL    HW1 6422   1.557   2.549   3.795
 1841SOL    HW2 6423   1.645   2.411   3.788
 1842SOL     OW 6424   0.855   4.559   0.317
 1842SOL    HW1 6425   0.858   4.611   0.402
 1842SOL    HW2 6426   0.913   4.478   0.326
 1843SOL     OW 6427   2.961   1.727   4.520
 1843SOL    HW1 6428   2.880   1.705   4.466
 1843SOL    HW2 6429   2.933   1.776   4.603
 1844SOL     OW 6430   5.172   3.061   3.635
 1844SOL    HW1 6431   5.081   3.023   3.655
 1844SOL    HW2 6432   5.174   3.092   3.540
 1845SOL     OW 6433   4.145   0.647   0.044
 1845SOL    HW1 6434   4.123   0.614   0.136
 1845SOL    HW2 6435   4.064   0.688   0.002
 1846SOL     OW 6436   3.502   1.152   5.606
 1846SOL    HW1 6437   3.421   1.198   5.643
 1846SOL    HW2 6438   3.579   1.164   5.668
 1847SOL     OW 6439   0.570   0.114   0.848
 1847SOL    HW1 6440   0.665   0.097   0.821
 1847SOL    HW2 6441   0.554   0.213   0.853
 1848SOL     OW 6442   2.750   6.714   2.257
 1848SOL    HW1 6443   2.691   6.722   2.177
 1848SOL    HW2 6444   2.832   6.769   2.243
 1849SOL     OW 6445   2.620   1.738   6.676
 1849SOL    HW1 6446   2.608   1.829   6.716
 1849SOL    HW2 6447   2.717   1.715   6.673
 1850SOL     OW 6448   5.733   2.187   2.140
 1850SOL    HW1 6449   5.715   2.243   2.222
 1850SOL    HW2 6450   5.684   2.100   2.148
 1851SOL     OW 6451   6.838   2.362   2.658
 1851SOL    HW1 6452   6.807   2.434   2.719
 1851SOL    HW2 6453   6.936   2.375   2.639
 1852SOL     OW 6454   5.167   2.792   0.490
 1852SOL    HW1 6455   5.213   2.777   0.577
 1852SOL    HW2 6456   5.140   2.704   0.451
 1853SOL     OW 6457   1.419   4.832   0.618
 1853SOL    HW1 6458   1.384   4.895   0.549
 1853SOL    HW2 6459   1.505   4.867   0.655
 1854SOL     OW 6460   2.482   5.681   4.658
 1854SOL    HW1 6461   2.434   5.702   4.742
 1854SOL    HW2 6462   2.547   5.755   4.637
 1855SOL     OW 6463   4.931   4.961   1.743
 1855SOL    HW1 6464   4.897   5.037   1.799
 1855SOL    HW2 6465   5.014   4.924   1.783
 1856SOL     OW 6466   4.943   2.330   5.395
 1856SOL    HW1 6467   4.988   2.419   5.401
 1856SOL    HW2 6468   4.894   2.311   5.480
 1857SOL     OW 6469   4.742   1.032   3.207
 1857SOL    HW1 6470   4.650   0.997   3.189
 1857SOL    HW2 6471   4.754   1.119   3.160
 1858SOL     OW 6472   4.932   3.493   3.453
 1858SOL    HW1 6473   4.885   3.563   3.507
 1858SOL    HW2 6474   4.909   3.402   3.490
 1859SOL     OW 6475   5.001   1.662   2.992
 1859SOL    HW1 6476   5.011   1.623   2.900
 1859SOL    HW2 6477   4.970   1.756   2.984
 1860SOL     OW 6478   5.174   1.302   4.667
 1860SOL    HW1 6479   5.247   1.237   4.646
 1860SOL    HW2 6480   5.170   1.318   4.765
 1861SOL     OW 6481   5.765   6.520   2.391
 1861SOL    HW1 6482   5.774   6.616   2.420
 1861SOL    HW2 6483   5.709   6.470   2.457
 1862SOL     OW 6484   2.180   1.528   0.158
 1862SOL    HW1 6485   2.133   1.527   0.246
 1862SOL    HW2 6486   2.127   1.581   0.092
 1863SOL     OW 6487   3.054   2.954   1.702
 1863SOL    HW1 6488   3.126   2.957   1.633
 1863SOL    HW2 6489   3.076   3.016   1.778
 1864SOL     OW 6490   1.486   6.439   4.063
 1864SOL    HW1 6491   1.448   6.512   4.119
 1864SOL    HW2 6492   1.441   6.439   3.973
 1865SOL     OW 6493   4.445   2.259   6.526
 1865SOL    HW1 6494   4.407   2.350   6.506
 1865SOL    HW2 6495   4.449   2.245   6.625
 1866SOL     OW 6496   4.475   5.506   2.910
 1866SOL    HW1 6497   4.380   5.530   2.931
 1866SOL    HW2 6498   4.477   5.421   2.857
 1867SOL     OW 6499   1.046   4.060   6.769
 1867SOL    HW1 6500   0.955   4.067   6.810
 1867SOL    HW2 6501   1.039   4.075   6.670
 1868SOL     OW 6502   5.624   3.926   5.065
 1868SOL    HW1 6503   5.658   3.868   5.139
 1868SOL    HW2 6504   5.527   3.947   5.081
 1869SOL     OW 6505   6.310   1.170   5.335
 1869SOL    HW1 6506   6.348   1.262   5.343
 1869SOL    HW2 6507   6.319   1.138   5.241
 1870SOL     OW 6508   1.631   5.423   4.320
 1870SOL    HW1 6509   1.699   5.470   4.264
 1870SOL    HW2 6510   1.661   5.330   4.339
 1871SOL     OW 6511   1.415   0.302   0.979
 1871SOL    HW1 6512   1.342   0.367   0.959
 1871SOL    HW2 6513   1.481   0.301   0.904
 1872SOL     OW 6514   2.388   4.560   6.997
 1872SOL    HW1 6515   2.464   4.610   0.013
 1872SOL    HW2 6516   2.381   4.470   0.015
 1873SOL     OW 6517   4.276   1.489   0.018
 1873SOL    HW1 6518   4.204   1.519   6.981
 1873SOL    HW2 6519   4.345   1.439   6.991
 1874SOL     OW 6520   1.167   2.382   2.709
 1874SOL    HW1 6521   1.213   2.434   2.780
 1874SOL    HW2 6522   1.104   2.442   2.658
 1875SOL     OW 6523   0.511   6.722   0.471
 1875SOL    HW1 6524   0.492   6.739   0.374
 1875SOL    HW2 6525   0.604   6.688   0.481
 1876SOL     OW 6526   2.687   6.997   4.258
 1876SOL    HW1 6527   2.599   6.996   4.211
 1876SOL    HW2 6528   2.760   6.986   4.191
 1877SOL     OW 6529   0.910   0.109   3.348
 1877SOL    HW1 6530   0.900   0.052   3.266
 1877SOL    HW2 6531   0.915   0.050   3.429
 1878SOL     OW 6532   6.682   2.330   5.448
 1878SOL    HW1 6533   6.622   2.355   5.372
 1878SOL    HW2 6534   6.773   2.307   5.413
 1879SOL     OW 6535   1.184   4.393   5.000
 1879SOL    HW1 6536   1.160   4.336   4.921
 1879SOL    HW2 6537   1.149   4.349   5.083
 1880SOL     OW 6538   6.061   0.363   5.797
 1880SOL    HW1 6539   6.070   0.372   5.896
 1880SOL    HW2 6540   6.072   0.453   5.754
 1881SOL     OW 6541   6.829   2.218   0.307
 1881SOL    HW1 6542   6.783   2.142   0.353
 1881SOL    HW2 6543   6.766   2.296   0.301
 1882SOL     OW 6544   0.640   5.059   6.185
 1882SOL    HW1 6545   0.578   4.997   6.137
 1882SOL    HW2 6546   0.682   5.012   6.262
 1883SOL     OW 6547   0.108   1.847   3.938
 1883SOL    HW1 6548   0.028   1.906   3.951
 1883SOL    HW2 6549   0.191   1.902   3.936
 1884SOL     OW 6550   0.232   2.661   1.301
 1884SOL    HW1 6551   0.267   2.662   1.207
 1884SOL    HW2 6552   0.278   2.731   1.354
 1885SOL     OW 6553   1.960   1.798   4.562
 1885SOL    HW1 6554   2.024   1.789   4.485
 1885SOL    HW2 6555   2.007   1.771   4.647
 1886SOL     OW 6556   1.185   6.628   3.070
 1886SOL    HW1 6557   1.151   6.543   3.031
 1886SOL    HW2 6558   1.254   6.608   3.140
 1887SOL     OW 6559   1.923   5.922   6.594
 1887SOL    HW1 6560   1.912   5.920   6.495
 1887SOL    HW2 6561   2.001   5.865   6.620
 1888SOL     OW 6562   2.857   0.981   1.697
 1888SOL    HW1 6563   2.884   1.078   1.697
 1888SOL    HW2 6564   2.865   0.945   1.604
 1889SOL     OW 6565   0.390   3.193   3.358
 1889SOL    HW1 6566   0.414   3.103   3.396
 1889SOL    HW2 6567   0.456   3.219   3.288
 1890SOL     OW 6568   0.407   5.828   3.476
 1890SOL    HW1 6569   0.336   5.823   3.546
 1890SOL    HW2 6570   0.377   5.779   3.394
 1891SOL     OW 6571   3.418   3.310   3.043
 1891SOL    HW1 6572   3.324   3.344   3.038
 1891SOL    HW2 6573   3.421   3.214   3.018
 1892SOL     OW 6574   0.556   0.869   2.658
 1892SOL    HW1 6575   0.640   0.894   2.707
 1892SOL    HW2 6576   0.576   0.796   2.593
 1893SOL     OW 6577   3.769   2.934   4.244
 1893SOL    HW1 6578   3.734   2.921   4.151
 1893SOL    HW2 6579   3.780   2.845   4.288
 1894SOL     OW 6580   2.950   3.414   4.046
 1894SOL    HW1 6581   2.902   3.479   4.105
 1894SOL    HW2 6582   2.946   3.323   4.088
 1895SOL     OW 6583   2.115   5.733   6.613
 1895SOL    HW1 6584   2.070   5.650   6.646
 1895SOL    HW2 6585   2.187   5.760   6.677
 1896SOL     OW 6586   5.174   2.554   0.856
 1896SOL    HW1 6587   5.237   2.598   0.792
 1896SOL    HW2 6588   5.193   2.586   0.949
 1897SOL     OW 6589   2.044   4.924   4.421
 1897SOL    HW1 6590   2.015   4.903   4.514
 1897SOL    HW2 6591   2.127   4.979   4.423
 1898SOL     OW 6592   1.454   6.184   3.429
 1898SOL    HW1 6593   1.412   6.100   3.463
 1898SOL    HW2 6594   1.529   6.162   3.367
 1899SOL     OW 6595   0.072   0.599   2.238
 1899SOL    HW1 6596   0.009   0.530   2.203
 1899SOL    HW2 6597   0.058   0.610   2.337
 1900SOL     OW 6598   2.589   0.031   0.106
 1900SOL    HW1 6599   2.551   7.000   0.031
 1900SOL    HW2 6600   2.514   0.064   0.163
 1901SOL     OW 6601   2.938   3.574   1.349
 1901SOL    HW1 6602   2.994   3.534   1.421
 1901SOL    HW2 6603   2.869   3.634   1.389
 1902SOL     OW 6604   1.172   6.707   4.328
 1902SOL    HW1 6605   1.113   6.739   4.402
 1902SOL    HW2 6606   1.117   6.695   4.245
 1903SOL     OW 6607   0.558   2.426   4.226
 1903SOL    HW1 6608   0.552   2.473   4.314
 1903SOL    HW2 6609   0.467   2.397   4.198
 1904SOL     OW 6610   5.390   5.621   2.248
 1904SOL    HW1 6611   5.468   5.680   2.269
 1904SOL    HW2 6612   5.313   5.676   2.217
 1905SOL     OW 6613   6.788   0.755   4.098
 1905SOL    HW1 6614   6.831   0.809   4.025
 1905SOL    HW2 6615   6.830   0.777   4.185
 1906SOL     OW 6616   1.739   6.894   5.832
 1906SOL    HW1 6617   1.710   6.838   5.910
 1906SOL    HW2 6618   1.817   6.850   5.787
 1907SOL     OW 6619   5.886   2.512   6.928
 1907SOL    HW1 6620   5.961   2.572   6.902
 1907SOL    HW2 6621   5.866   2.525   0.001
 1908SOL     OW 6622   3.159   1.240   1.120
 1908SOL    HW1 6623   3.211   1.156   1.108
 1908SOL    HW2 6624   3.176   1.301   1.043
 1909SOL     OW 6625   6.561   4.311   5.050
 1909SOL    HW1 6626   6.472   4.290   5.091
 1909SOL    HW2 6627   6.611   4.373   5.110
 1910SOL     OW 6628   6.988   6.344   5.614
 1910SOL    HW1 6629   7.020   6.250   5.604
 1910SOL    HW2 6630   6.907   6.358   5.557
 1911SOL     OW 6631   0.022   5.035   3.816
 1911SOL    HW1 6632   0.090   4.967   3.789
 1911SOL    HW2 6633   0.066   5.124   3.824
 1912SOL     OW 6634   2.721   5.050   2.197
 1912SOL    HW1 6635   2.811   5.076   2.233
 1912SOL    HW2 6636   2.721   4.952   2.177
 1913SOL     OW 6637   3.482   4.502   6.140
 1913SOL    HW1 6638   3.481   4.484   6.041
 1913SOL    HW2 6639   3.568   4.547   6.165
 1914SOL     OW 6640   2.315   4.965   6.220
 1914SOL    HW1 6641   2.244   4.905   6.256
 1914SOL    HW2 6642   2.333   5.039   6.286
 1915SOL     OW 6643   4.279   2.341   5.426
 1915SOL    HW1 6644   4.265   2.428   5.474
 1915SOL    HW2 6645   4.280   2.266   5.492
 1916SOL     OW 6646   4.122   0.845   2.202
 1916SOL    HW1 6647   4.181   0.917   2.237
 1916SOL    HW2 6648   4.134   0.837   2.103
 1917SOL     OW 6649   2.206   3.975   1.411
 1917SOL    HW1 6650   2.209   4.012   1.318
 1917SOL    HW2 6651   2.116   3.993   1.451
 1918SOL     OW 6652   5.537   2.904   3.885
 1918SOL    HW1 6653   5.504   2.947   3.802
 1918SOL    HW2 6654   5.459   2.875   3.941
 1919SOL     OW 6655   0.125   2.426   0.734
 1919SOL    HW1 6656   0.203   2.367   0.753
 1919SOL    HW2 6657   0.067   2.382   0.665
 1920SOL     OW 6658   4.936   2.678   0.788
 1920SOL    HW1 6659   5.019   2.666   0.842
 1920SOL    HW2 6660   4.856   2.663   0.846
 1921SOL     OW 6661   1.778   2.611   6.744
 1921SOL    HW1 6662   1.730   2.636   6.828
 1921SOL    HW2 6663   1.849   2.678   6.725
 1922SOL     OW 6664   3.559   3.362   2.304
 1922SOL    HW1 6665   3.565   3.263   2.301
 1922SOL    HW2 6666   3.604   3.396   2.387
 1923SOL     OW 6667   3.872   0.411   5.017
 1923SOL    HW1 6668   3.936   0.465   4.962
 1923SOL    HW2 6669   3.780   0.420   4.981
 1924SOL     OW 6670   4.467   0.570   0.017
 1924SOL    HW1 6671   4.374   0.605   0.002
 1924SOL    HW2 6672   4.530   0.647   0.024
 1925SOL     OW 6673   1.593   4.382   0.719
 1925SOL    HW1 6674   1.627   4.288   0.707
 1925SOL    HW2 6675   1.660   4.435   0.771
 1926SOL     OW 6676   3.408   0.100   2.279
 1926SOL    HW1 6677   3.416   0.019   2.338
 1926SOL    HW2 6678   3.494   0.151   2.281
 1927SOL     OW 6679   2.281   5.215   1.571
 1927SOL    HW1 6680   2.308   5.121   1.549
 1927SOL    HW2 6681   2.320   5.278   1.505
 1928SOL     OW 6682   4.943   4.457   3.824
 1928SOL    HW1 6683   4.966   4.381   3.763
 1928SOL    HW2 6684   4.879   4.518   3.779
 1929SOL     OW 6685   3.424   6.912   3.050
 1929SOL    HW1 6686   3.378   6.895   3.137
 1929SOL    HW2 6687   3.379   6.859   2.978
 1930SOL     OW 6688   4.257   2.942   6.945
 1930SOL    HW1 6689   4.323   2.902   6.881
 1930SOL    HW2 6690   4.264   2.895   0.008
 1931SOL     OW 6691   6.993   1.791   4.664
 1931SOL    HW1 6692   0.014   1.742   4.738
 1931SOL    HW2 6693   6.894   1.777   4.670
 1932SOL     OW 6694   4.221   2.175   2.056
 1932SOL    HW1 6695   4.286   2.251   2.057
 1932SOL    HW2 6696   4.137   2.203   2.011
 1933SOL     OW 6697   1.161   1.161   1.250
 1933SOL    HW1 6698   1.111   1.091   1.301
 1933SOL    HW2 6699   1.239   1.120   1.204
 1934SOL     OW 6700   0.257   0.739   6.950
 1934SOL    HW1 6701   0.264   0.839   6.957
 1934SOL    HW2 6702   0.209   0.704   0.006
 1935SOL     OW 6703   6.441   5.057   4.207
 1935SOL    HW1 6704   6.397   5.125   4.266
 1935SOL    HW2 6705   6.520   5.018   4.254
 1936SOL     OW 6706   4.792   2.636   5.482
 1936SOL    HW1 6707   4.725   2.562   5.480
 1936SOL    HW2 6708   4.763   2.709   5.420
 1937SOL     OW 6709   5.925   4.916   6.552
 1937SOL    HW1 6710   5.898   4.842   6.489
 1937SOL    HW2 6711   5.850   4.933   6.615
 1938SOL     OW 6712   0.047   3.208   6.361
 1938SOL    HW1 6713   0.086   3.163   6.441
 1938SOL    HW2 6714   0.051   3.307   6.374
 1939SOL     OW 6715   1.165   0.682   4.954
 1939SOL    HW1 6716   1.204   0.712   5.041
 1939SOL    HW2 6717   1.098   0.750   4.922
 1940SOL     OW 6718   6.807   4.974   0.585
 1940SOL    HW1 6719   6.844   4.883   0.600
 1940SOL    HW2 6720   6.847   5.038   0.652
 1941SOL     OW 6721   5.393   1.694   4.328
 1941SOL    HW1 6722   5.351   1.778   4.363
 1941SOL    HW2 6723   5.358   1.674   4.237
 1942SOL     OW 6724   6.401   3.915   2.734
 1942SOL    HW1 6725   6.317   3.965   2.714
 1942SOL    HW2 6726   6.392   3.869   2.822
 1943SOL     OW 6727   1.085   2.117   2.757
 1943SOL    HW1 6728   1.156   2.175   2.715
 1943SOL    HW2 6729   1.013   2.175   2.794
 1944SOL     OW 6730   0.178   2.591   3.444
 1944SOL    HW1 6731   0.123   2.571   3.526
 1944SOL    HW2 6732   0.274   2.573   3.463
 1945SOL     OW 6733   4.811   1.477   1.752
 1945SOL    HW1 6734   4.811   1.454   1.849
 1945SOL    HW2 6735   4.744   1.549   1.735
 1946SOL     OW 6736   6.597   5.158   0.923
 1946SOL    HW1 6737   6.639   5.243   0.892
 1946SOL    HW2 6738   6.572   5.167   1.020
 1947SOL     OW 6739   6.557   4.725   3.669
 1947SOL    HW1 6740   6.497   4.783   3.725
 1947SOL    HW2 6741   6.553   4.631   3.703
 1948SOL     OW 6742   5.103   3.541   3.223
 1948SOL    HW1 6743   5.077   3.518   3.316
 1948SOL    HW2 6744   5.198   3.575   3.222
 1949SOL     OW 6745   3.145   5.134   6.991
 1949SOL    HW1 6746   3.073   5.195   6.959
 1949SOL    HW2 6747   3.118   5.094   0.055
 1950SOL     OW 6748   3.235   3.589   3.275
 1950SOL    HW1 6749   3.325   3.633   3.269
 1950SOL    HW2 6750   3.219   3.557   3.368
 1951SOL     OW 6751   5.896   4.892   5.384
 1951SOL    HW1 6752   5.886   4.912   5.481
 1951SOL    HW2 6753   5.807   4.865   5.346
 1952SOL     OW 6754   6.114   5.468   0.657
 1952SOL    HW1 6755   6.082   5.558   0.626
 1952SOL    HW2 6756   6.201   5.478   0.704
 1953SOL     OW 6757   0.796   1.421   6.958
 1953SOL    HW1 6758   0.804   1.420   6.858
 1953SOL    HW2 6759   0.867   1.479   6.997
 1954SOL     OW 6760   4.204   7.008   2.391
 1954SOL    HW1 6761   4.211   0.052   2.318
 1954SOL    HW2 6762   4.263   0.011   2.467
 1955SOL     OW 6763   0.147   2.116   3.798
 1955SOL    HW1 6764   0.137   2.083   3.704
 1955SOL    HW2 6765   0.062   2.161   3.826
 1956SOL     OW 6766   5.698   0.487   1.996
 1956SOL    HW1 6767   5.648   0.519   2.076
 1956SOL    HW2 6768   5.699   0.387   1.996
 1957SOL     OW 6769   5.737   2.151   4.702
 1957SOL    HW1 6770   5.817   2.105   4.663
 1957SOL    HW2 6771   5.657   2.091   4.695
 1958SOL     OW 6772   4.239   2.074   0.565
 1958SOL    HW1 6773   4.198   1.999   0.617
 1958SOL    HW2 6774   4.212   2.067   0.469
 1959SOL     OW 6775   0.845   1.516   5.488
 1959SOL    HW1 6776   0.817   1.549   5.398
 1959SOL    HW2 6777   0.793   1.433   5.510
 1960SOL     OW 6778   5.773   4.192   4.027
 1960SOL    HW1 6779   5.749   4.141   3.944
 1960SOL    HW2 6780   5.842   4.261   4.005
 1961SOL     OW 6781   0.540   3.537   3.892
 1961SOL    HW1 6782   0.603   3.614   3.898
 1961SOL    HW2 6783   0.446   3.572   3.890
 1962SOL     OW 6784   0.934   0.705   2.912
 1962SOL    HW1 6785   1.006   0.721   2.845
 1962SOL    HW2 6786   0.969   0.645   2.984
 1963SOL     OW 6787   0.331   2.601   0.694
 1963SOL    HW1 6788   0.241   2.560   0.711
 1963SOL    HW2 6789   0.343   2.681   0.754
 1964SOL     OW 6790   5.820   3.644   0.955
 1964SOL    HW1 6791   5.783   3.715   1.015
 1964SOL    HW2 6792   5.884   3.587   1.007
 1965SOL     OW 6793   6.758   4.055   3.605
 1965SOL    HW1 6794   6.764   4.140   3.659
 1965SOL    HW2 6795   6.718   3.983   3.662
 1966SOL     OW 6796   1.271   4.744   7.021
 1966SOL    HW1 6797   1.298   4.834   0.033
 1966SOL    HW2 6798   1.274   4.677   0.071
 1967SOL     OW 6799   6.309   2.980   3.864
 1967SOL    HW1 6800   6.331   3.058   3.923
 1967SOL    HW2 6801   6.390   2.922   3.855
 1968SOL     OW 6802   2.706   1.318   4.807
 1968SOL    HW1 6803   2.744   1.323   4.899
 1968SOL    HW2 6804   2.730   1.400   4.756
 1969SOL     OW 6805   1.906   6.342   0.602
 1969SOL    HW1 6806   1.891   6.272   0.671
 1969SOL    HW2 6807   1.882   6.306   0.512
 1970SOL     OW 6808   5.658   5.525   4.826
 1970SOL    HW1 6809   5.574   5.570   4.858
 1970SOL    HW2 6810   5.636   5.462   4.752
 1971SOL     OW 6811   1.734   5.409   5.174
 1971SOL    HW1 6812   1.790   5.354   5.236
 1971SOL    HW2 6813   1.715   5.498   5.216
 1972SOL     OW 6814   5.914   2.818   2.371
 1972SOL    HW1 6815   5.921   2.822   2.471
 1972SOL    HW2 6816   5.910   2.723   2.341
 1973SOL     OW 6817   2.294   2.841   0.819
 1973SOL    HW1 6818   2.257   2.769   0.878
 1973SOL    HW2 6819   2.394   2.843   0.828
 1974SOL     OW 6820   2.350   6.113   4.854
 1974SOL    HW1 6821   2.431   6.063   4.885
 1974SOL    HW2 6822   2.376   6.176   4.781
 1975SOL     OW 6823   2.125   2.522   3.390
 1975SOL    HW1 6824   2.143   2.580   3.469
 1975SOL    HW2 6825   2.204   2.463   3.373
 1976SOL     OW 6826   0.537   0.352   5.672
 1976SOL    HW1 6827   0.625   0.344   5.625
 1976SOL    HW2 6828   0.534   0.287   5.747
 1977SOL     OW 6829   1.961   4.651   5.887
 1977SOL    HW1 6830   1.999   4.587   5.955
 1977SOL    HW2 6831   1.914   4.599   5.816
 1978SOL     OW 6832   3.072   6.957   1.586
 1978SOL    HW1 6833   3.031   7.020   1.519
 1978SOL    HW2 6834   3.071   6.864   1.549
 1979SOL     OW 6835   6.243   4.718   6.072
 1979SOL    HW1 6836   6.263   4.689   6.166
 1979SOL    HW2 6837   6.329   4.728   6.021
 1980SOL     OW 6838   3.768   1.221   1.306
 1980SOL    HW1 6839   3.806   1.178   1.224
 1980SOL    HW2 6840   3.741   1.315   1.284
 1981SOL     OW 6841   3.340   2.042   3.051
 1981SOL    HW1 6842   3.333   2.087   3.140
 1981SOL    HW2 6843   3.297   2.099   2.982
 1982SOL     OW 6844   0.970   3.062   5.280
 1982SOL    HW1 6845   0.956   2.983   5.220
 1982SOL    HW2 6846   0.969   3.031   5.375
 1983SOL     OW 6847   0.314   0.723   2.293
 1983SOL    HW1 6848   0.363   0.709   2.379
 1983SOL    HW2 6849   0.232   0.664   2.291
 1984SOL     OW 6850   4.587   3.008   5.800
 1984SOL    HW1 6851   4.520   2.942   5.765
 1984SOL    HW2 6852   4.582   3.092   5.747
 1985SOL     OW 6853   6.443   2.923   2.888
 1985SOL    HW1 6854   6.525   2.963   2.847
 1985SOL    HW2 6855   6.372   2.914   2.818
 1986SOL     OW 6856   3.823   2.998   2.071
 1986SOL    HW1 6857   3.886   2.921   2.078
 1986SOL    HW2 6858   3.869   3.082   2.099
 1987SOL     OW 6859   2.731   1.683   0.726
 1987SOL    HW1 6860   2.670   1.739   0.782
 1987SOL    HW2 6861   2.704   1.587   0.731
 1988SOL     OW 6862   0.322   2.341   1.758
 1988SOL    HW1 6863   0.280   2.302   1.676
 1988SOL    HW2 6864   0.297   2.286   1.837
 1989SOL     OW 6865   3.072   4.853   4.387
 1989SOL    HW1 6866   3.019   4.791   4.445
 1989SOL    HW2 6867   3.016   4.883   4.311
 1990SOL     OW 6868   4.504   0.425   0.259
 1990SOL    HW1 6869   4.414   0.389   0.284
 1990SOL    HW2 6870   4.497   0.472   0.171
 1991SOL     OW 6871   2.591   5.427   1.031
 1991SOL    HW1 6872   2.635   5.338   1.015
 1991SOL    HW2 6873   2.660   5.499   1.028
 1992SOL     OW 6874   0.624   6.450   2.159
 1992SOL    HW1 6875   0.702   6.512   2.171
 1992SOL    HW2 6876   0.654   6.369   2.109
 1993SOL     OW 6877   2.292   2.403   3.022
 1993SOL    HW1 6878   2.277   2.415   2.924
 1993SOL    HW2 6879   2.363   2.466   3.053
 1994SOL     OW 6880   3.343   2.914   1.299
 1994SOL    HW1 6881   3.402   2.867   1.234
 1994SOL    HW2 6882   3.247   2.902   1.272
 1995SOL     OW 6883   5.295   2.127   4.279
 1995SOL    HW1 6884   5.226   2.172   4.336
 1995SOL    HW2 6885   5.353   2.196   4.236
 1996SOL     OW 6886   4.290   0.923   1.395
 1996SOL    HW1 6887   4.208   0.929   1.452
 1996SOL    HW2 6888   4.361   0.873   1.445
 1997SOL     OW 6889   3.946   0.510   4.051
 1997SOL    HW1 6890   3.889   0.588   4.075
 1997SOL    HW2 6891   3.967   0.458   4.134
 1998SOL     OW 6892   2.009   3.573   1.472
 1998SOL    HW1 6893   1.926   3.563   1.416
 1998SOL    HW2 6894   1.994   3.644   1.541
 1999SOL     OW 6895   1.114   7.020   0.770
 1999SOL    HW1 6896   1.046   0.014   0.842
 1999SOL    HW2 6897   1.201   6.995   0.813
 2000SOL     OW 6898   4.300   4.468   5.973
 2000SOL    HW1 6899   4.202   4.476   5.954
 2000SOL    HW2 6900   4.318   4.496   6.067
 2001SOL     OW 6901   1.839   1.729   1.110
 2001SOL    HW1 6902   1.898   1.651   1.128
 2001SOL    HW2 6903   1.875   1.810   1.157
 2002SOL     OW 6904   7.005   5.351   0.170
 2002SOL    HW1 6905   0.052   5.420   0.181
 2002SOL    HW2 6906   6.918   5.388   0.202
 2003SOL     OW 6907   6.305   5.002   2.865
 2003SOL    HW1 6908   6.375   4.949   2.914
 2003SOL    HW2 6909   6.232   4.941   2.835
 2004SOL     OW 6910   4.079   7.019   3.205
 2004SOL    HW1 6911   4.078   6.974   3.295
 2004SOL    HW2 6912   4.087   6.950   3.133
 2005SOL     OW 6913   1.346   6.024   6.821
 2005SOL    HW1 6914   1.293   5.947   6.857
 2005SOL    HW2 6915   1.378   6.081   6.897
 2006SOL     OW 6916   5.558   6.044   2.166
 2006SOL    HW1 6917   5.519   5.959   2.129
 2006SOL    HW2 6918   5.609   6.024   2.249
 2007SOL     OW 6919   5.154   4.660   6.856
 2007SOL    HW1 6920   5.201   4.746   6.876
 2007SOL    HW2 6921   5.055   4.673   6.864
 2008SOL     OW 6922   2.002   3.146   3.389
 2008SOL    HW1 6923   1.981   3.050   3.409
 2008SOL    HW2 6924   2.055   3.152   3.305
 2009SOL     OW 6925   6.423   0.087   2.917
 2009SOL    HW1 6926   6.437   0.134   2.830
 2009SOL    HW2 6927   6.475   0.002   2.917
 2010SOL     OW 6928   0.021   2.194   1.641
 2010SOL    HW1 6929   0.007   2.128   1.567
 2010SOL    HW2 6930   0.097   2.255   1.618
 2011SOL     OW 6931   1.158   0.038   5.101
 2011SOL    HW1 6932   1.092   0.058   5.174
 2011SOL    HW2 6933   1.176   0.121   5.049
 2012SOL     OW 6934   1.143   2.924   1.743
 2012SOL    HW1 6935   1.232   2.940   1.702
 2012SOL    HW2 6936   1.116   3.004   1.797
 2013SOL     OW 6937   0.544   3.124   1.871
 2013SOL    HW1 6938   0.509   3.045   1.822
 2013SOL    HW2 6939   0.614   3.095   1.936
 2014SOL     OW 6940   3.959   0.786   4.657
 2014SOL    HW1 6941   4.035   0.850   4.649
 2014SOL    HW2 6942   3.987   0.696   4.623
 2015SOL     OW 6943   4.196   0.055   1.565
 2015SOL    HW1 6944   4.175   0.068   1.662
 2015SOL    HW2 6945   4.230   0.141   1.526
 2016SOL     OW 6946   1.790   0.762   4.655
 2016SOL    HW1 6947   1.860   0.706   4.698
 2016SOL    HW2 6948   1.829   0.849   4.626
 2017SOL     OW 6949   4.203   6.503   3.753
 2017SOL    HW1 6950   4.128   6.492   3.818
 2017SOL    HW2 6951   4.170   6.481   3.661
 2018SOL     OW 6952   0.800   0.606   4.508
 2018SOL    HW1 6953   0.752   0.524   4.475
 2018SOL    HW2 6954   0.807   0.672   4.433
 2019SOL     OW 6955   5.241   5.199   6.152
 2019SOL    HW1 6956   5.157   5.209   6.099
 2019SOL    HW2 6957   5.273   5.104   6.147
 2020SOL     OW 6958   2.012   6.395   0.183
 2020SOL    HW1 6959   2.098   6.357   0.148
 2020SOL    HW2 6960   2.032   6.462   0.255
 2021SOL     OW 6961   7.006   6.250   4.527
 2021SOL    HW1 6962   6.980   6.277   4.620
 2021SOL    HW2 6963   0.057   6.185   4.531
 2022SOL     OW 6964   1.914   3.582   4.397
 2022SOL    HW1 6965   1.935   3.526   4.477
 2022SOL    HW2 6966   1.916   3.679   4.423
 2023SOL     OW 6967   6.800   6.790   6.895
 2023SOL    HW1 6968   6.785   6.889   6.903
 2023SOL    HW2 6969   6.786   6.747   6.984
 2024SOL     OW 6970   0.603   5.854   3.807
 2024SOL    HW1 6971   0.612   5.772   3.751
 2024SOL    HW2 6972   0.685   5.911   3.797
 2025SOL     OW 6973   1.452   6.206   4.494
 2025SOL    HW1 6974   1.499   6.138   4.549
 2025SOL    HW2 6975   1.497   6.214   4.405
 2026SOL     OW 6976   0.229   0.313   6.083
 2026SOL    HW1 6977   0.314   0.335   6.131
 2026SOL    HW2 6978   0.182   0.398   6.059
 2027SOL     OW 6979   6.721   6.090   1.955
 2027SOL    HW1 6980   6.821   6.098   1.951
 2027SOL    HW2 6981   6.680   6.174   1.920
 2028SOL     OW 6982   3.101   5.575   4.848
 2028SOL    HW1 6983   3.188   5.555   4.892
 2028SOL    HW2 6984   3.030   5.514   4.885
 2029SOL     OW 6985   6.308   3.049   6.329
 2029SOL    HW1 6986   6.328   3.143   6.300
 2029SOL    HW2 6987   6.246   3.050   6.407
 2030SOL     OW 6988   2.068   6.866   2.059
 2030SOL    HW1 6989   1.980   6.871   2.013
 2030SOL    HW2 6990   2.128   6.803   2.010
 2031SOL     OW 6991   0.485   5.943   4.295
 2031SOL    HW1 6992   0.471   5.933   4.197
 2031SOL    HW2 6993   0.546   6.021   4.313
 2032SOL     OW 6994   2.510   2.526   5.786
 2032SOL    HW1 6995   2.491   2.489   5.877
 2032SOL    HW2 6996   2.518   2.451   5.720
 2033SOL     OW 6997   2.583   1.945   0.588
 2033SOL    HW1 6998   2.677   1.978   0.594
 2033SOL    HW2 6999   2.531   2.005   0.528
 2034SOL     OW 7000   0.528   4.196   4.907
 2034SOL    HW1 7001   0.431   4.172   4.903
 2034SOL    HW2 7002   0.572   4.146   4.982
 2035SOL     OW 7003   5.034   6.977   3.160
 2035SOL    HW1 7004   4.971   6.942   3.230
 2035SOL    HW2 7005   5.091   0.025   3.200
 2036SOL     OW 7006   0.463   4.925   6.930
 2036SOL    HW1 7007   0.377   4.897   6.972
 2036SOL    HW2 7008   0.449   5.007   6.875
 2037SOL     OW 7009   1.064   2.259   6.993
 2037SOL    HW1 7010   0.972   2.230   6.966
 2037SOL    HW2 7011   1.094   2.333   6.933
 2038SOL     OW 7012   1.173   1.115   6.369
 2038SOL    HW1 7013   1.133   1.047   6.308
 2038SOL    HW2 7014   1.186   1.201   6.319
 2039SOL     OW 7015   5.090   6.458   3.550
 2039SOL    HW1 7016   5.041   6.494   3.630
 2039SOL    HW2 7017   5.099   6.530   3.481
 2040SOL     OW 7018   2.263   2.277   0.232
 2040SOL    HW1 7019   2.302   2.364   0.201
 2040SOL    HW2 7020   2.336   2.211   0.248
 2041SOL     OW 7021   2.795   0.848   6.281
 2041SOL    HW1 7022   2.789   0.805   6.191
 2041SOL    HW2 7023   2.882   0.896   6.289
 2042SOL     OW 7024   5.983   0.920   5.755
 2042SOL    HW1 7025   6.064   0.889   5.707
 2042SOL    HW2 7026   5.954   1.009   5.719
 2043SOL     OW 7027   0.474   4.099   1.334
 2043SOL    HW1 7028   0.374   4.095   1.322
 2043SOL    HW2 7029   0.507   4.008   1.359
 2044SOL     OW 7030   4.145   0.662   1.677
 2044SOL    HW1 7031   4.222   0.615   1.634
 2044SOL    HW2 7032   4.061   0.611   1.661
 2045SOL     OW 7033   1.234   6.501   4.588
 2045SOL    HW1 7034   1.263   6.483   4.682
 2045SOL    HW2 7035   1.308   6.545   4.537
 2046SOL     OW 7036   0.816   2.567   5.004
 2046SOL    HW1 7037   0.814   2.663   5.033
 2046SOL    HW2 7038   0.770   2.511   5.073
 2047SOL     OW 7039   0.071   0.810   0.565
 2047SOL    HW1 7040   0.157   0.778   0.605
 2047SOL    HW2 7041   0.072   0.792   0.467
 2048SOL     OW 7042   1.242   2.093   3.941
 2048SOL    HW1 7043   1.334   2.132   3.949
 2048SOL    HW2 7044   1.235   2.040   3.856
 2049SOL     OW 7045   4.619   2.246   4.523
 2049SOL    HW1 7046   4.651   2.175   4.460
 2049SOL    HW2 7047   4.520   2.255   4.515
 2050SOL     OW 7048   0.745   1.310   3.974
 2050SOL    HW1 7049   0.674   1.367   4.016
 2050SOL    HW2 7050   0.828   1.365   3.962
 2051SOL     OW 7051   2.551   6.533   0.273
 2051SOL    HW1 7052   2.600   6.485   0.346
 2051SOL    HW2 7053   2.594   6.622   0.258
 2052SOL     OW 7054   0.929   4.135   0.161
 2052SOL    HW1 7055   1.015   4.086   0.166
 2052SOL    HW2 7056   0.865   4.098   0.229
 2053SOL     OW 7057   6.587   5.212   3.174
 2053SOL    HW1 7058   6.606   5.303   3.139
 2053SOL    HW2 7059   6.492   5.187   3.154
 2054SOL     OW 7060   2.917   3.715   3.041
 2054SOL    HW1 7061   2.918   3.752   2.948
 2054SOL    HW2 7062   2.956   3.783   3.104
 2055SOL     OW 7063   3.886   2.340   5.381
 2055SOL    HW1 7064   3.913   2.430   5.345
 2055SOL    HW2 7065   3.815   2.352   5.450
 2056SOL     OW 7066   3.369   4.738   1.178
 2056SOL    HW1 7067   3.387   4.641   1.192
 2056SOL    HW2 7068   3.272   4.757   1.192
 2057SOL     OW 7069   5.261   3.114   4.113
 2057SOL    HW1 7070   5.201   3.071   4.180
 2057SOL    HW2 7071   5.352   3.125   4.151
 2058SOL     OW 7072   6.649   6.872   3.494
 2058SOL    HW1 7073   6.728   6.916   3.450
 2058SOL    HW2 7074   6.647   6.898   3.591
 2059SOL     OW 7075   1.692   1.272   5.540
 2059SOL    HW1 7076   1.759   1.201   5.521
 2059SOL    HW2 7077   1.623   1.237   5.604
 2060SOL     OW 7078   1.829   2.962   6.818
 2060SOL    HW1 7079   1.922   2.992   6.838
 2060SOL    HW2 7080   1.785   2.932   6.903
 2061SOL     OW 7081   1.647   2.714   2.826
 2061SOL    HW1 7082   1.661   2.813   2.835
 2061SOL    HW2 7083   1.722   2.674   2.774
 2062SOL     OW 7084   0.191   4.964   4.804
 2062SOL    HW1 7085   0.194   4.930   4.710
 2062SOL    HW2 7086   0.130   4.906   4.858
 2063SOL     OW 7087   1.006   1.711   4.363
 2063SOL    HW1 7088   0.916   1.724   4.321
 2063SOL    HW2 7089   1.078   1.727   4.295
 2064SOL     OW 7090   1.009   3.347   3.967
 2064SOL    HW1 7091   0.954   3.327   3.887
 2064SOL    HW2 7092   1.098   3.301   3.959
 2065SOL     OW 7093   4.340   3.416   5.946
 2065SOL    HW1 7094   4.353   3.318   5.960
 2065SOL    HW2 7095   4.256   3.431   5.892
 2066SOL     OW 7096   1.141   3.263   5.649
 2066SOL    HW1 7097   1.101   3.354   5.636
 2066SOL    HW2 7098   1.229   3.273   5.696
 2067SOL     OW 7099   6.334   4.901   1.594
 2067SOL    HW1 7100   6.281   4.979   1.561
 2067SOL    HW2 7101   6.418   4.933   1.637
 2068SOL     OW 7102   4.346   0.715   4.827
 2068SOL    HW1 7103   4.280   0.790   4.829
 2068SOL    HW2 7104   4.306   0.634   4.871
 2069SOL     OW 7105   0.047   0.935   3.484
 2069SOL    HW1 7106   0.069   1.032   3.481
 2069SOL    HW2 7107   6.998   0.915   3.419
 2070SOL     OW 7108   1.282   5.034   1.481
 2070SOL    HW1 7109   1.272   5.127   1.517
 2070SOL    HW2 7110   1.206   4.977   1.513
 2071SOL     OW 7111   0.526   2.005   5.965
 2071SOL    HW1 7112   0.486   1.977   6.053
 2071SOL    HW2 7113   0.480   1.956   5.891
 2072SOL     OW 7114   5.085   4.391   5.439
 2072SOL    HW1 7115   5.068   4.327   5.364
 2072SOL    HW2 7116   5.002   4.402   5.493
 2073SOL     OW 7117   3.275   5.532   0.077
 2073SOL    HW1 7118   3.369   5.502   0.091
 2073SOL    HW2 7119   3.225   5.525   0.164
 2074SOL     OW 7120   1.798   4.774   6.106
 2074SOL    HW1 7121   1.867   4.749   6.038
 2074SOL    HW2 7122   1.755   4.691   6.142
 2075SOL     OW 7123   5.988   2.991   1.356
 2075SOL    HW1 7124   6.013   2.940   1.273
 2075SOL    HW2 7125   5.961   3.084   1.331
 2076SOL     OW 7126   6.234   6.978   4.475
 2076SOL    HW1 7127   6.284   0.013   4.411
 2076SOL    HW2 7128   6.208   6.893   4.428
 2077SOL     OW 7129   6.240   4.663   0.873
 2077SOL    HW1 7130   6.154   4.667   0.821
 2077SOL    HW2 7131   6.283   4.753   0.872
 2078SOL     OW 7132   0.612   3.378   5.661
 2078SOL    HW1 7133   0.697   3.424   5.687
 2078SOL    HW2 7134   0.615   3.357   5.563
 2079SOL     OW 7135   5.183   0.791   2.615
 2079SOL    HW1 7136   5.155   0.741   2.697
 2079SOL    HW2 7137   5.276   0.827   2.627
 2080SOL     OW 7138   2.535   3.206   6.240
 2080SOL    HW1 7139   2.512   3.132   6.177
 2080SOL    HW2 7140   2.468   3.279   6.233
 2081SOL     OW 7141   5.751   6.072   1.903
 2081SOL    HW1 7142   5.664   6.034   1.870
 2081SOL    HW2 7143   5.734   6.161   1.946
 2082SOL     OW 7144   6.561   6.067   4.186
 2082SOL    HW1 7145   6.628   6.134   4.154
 2082SOL    HW2 7146   6.607   6.000   4.244
 2083SOL     OW 7147   0.030   6.784   4.170
 2083SOL    HW1 7148   0.113   6.739   4.136
 2083SOL    HW2 7149   0.056   6.855   4.236
 2084SOL     OW 7150   6.590   2.116   0.442
 2084SOL    HW1 7151   6.558   2.194   0.496
 2084SOL    HW2 7152   6.528   2.101   0.366
 2085SOL     OW 7153   6.490   5.983   0.515
 2085SOL    HW1 7154   6.416   5.948   0.573
 2085SOL    HW2 7155   6.576   5.939   0.541
 2086SOL     OW 7156   4.677   0.996   6.993
 2086SOL    HW1 7157   4.595   1.041   6.955
 2086SOL    HW2 7158   4.706   1.046   0.051
 2087SOL     OW 7159   4.020   1.588   6.979
 2087SOL    HW1 7160   4.024   1.660   0.024
 2087SOL    HW2 7161   3.960   1.616   6.904
 2088SOL     OW 7162   0.828   5.155   5.489
 2088SOL    HW1 7163   0.742   5.163   5.538
 2088SOL    HW2 7164   0.903   5.150   5.555
 2089SOL     OW 7165   2.367   3.268   6.541
 2089SOL    HW1 7166   2.324   3.251   6.453
 2089SOL    HW2 7167   2.466   3.276   6.528
 2090SOL     OW 7168   5.366   3.089   5.763
 2090SOL    HW1 7169   5.388   3.021   5.833
 2090SOL    HW2 7170   5.270   3.116   5.772
 2091SOL     OW 7171   5.187   6.108   1.082
 2091SOL    HW1 7172   5.112   6.071   1.136
 2091SOL    HW2 7173   5.218   6.194   1.122
 2092SOL     OW 7174   3.605   3.589   1.681
 2092SOL    HW1 7175   3.657   3.672   1.701
 2092SOL    HW2 7176   3.601   3.531   1.763
 2093SOL     OW 7177   4.303   1.244   1.528
 2093SOL    HW1 7178   4.209   1.212   1.522
 2093SOL    HW2 7179   4.353   1.190   1.596
 2094SOL     OW 7180   5.885   1.982   6.534
 2094SOL    HW1 7181   5.823   1.995   6.457
 2094SOL    HW2 7182   5.906   1.885   6.544
 2095SOL     OW 7183   5.280   5.519   3.733
 2095SOL    HW1 7184   5.342   5.597   3.737
 2095SOL    HW2 7185   5.203   5.534   3.795
 2096SOL     OW 7186   3.876   6.707   1.374
 2096SOL    HW1 7187   3.939   6.780   1.399
 2096SOL    HW2 7188   3.820   6.682   1.453
 2097SOL     OW 7189   0.727   5.667   6.238
 2097SOL    HW1 7190   0.708   5.577   6.197
 2097SOL    HW2 7191   0.811   5.704   6.198
 2098SOL     OW 7192   3.053   6.261   3.526
 2098SOL    HW1 7193   3.083   6.259   3.621
 2098SOL    HW2 7194   2.961   6.300   3.522
 2099SOL     OW 7195   4.484   2.188   6.246
 2099SOL    HW1 7196   4.515   2.278   6.216
 2099SOL    HW2 7197   4.454   2.194   6.342
 2100SOL     OW 7198   5.249   6.950   1.377
 2100SOL    HW1 7199   5.277   6.891   1.452
 2100SOL    HW2 7200   5.295   6.923   1.293
 2101SOL     OW 7201   1.023   0.569   3.137
 2101SOL    HW1 7202   1.001   0.481   3.180
 2101SOL    HW2 7203   1.120   0.590   3.152
 2102SOL     OW 7204   3.631   2.188   1.349
 2102SOL    HW1 7205   3.601   2.252   1.421
 2102SOL    HW2 7206   3.731   2.187   1.347
 2103SOL     OW 7207   2.173   6.456   0.702
 2103SOL    HW1 7208   2.233   6.515   0.648
 2103SOL    HW2 7209   2.093   6.431   0.647
 2104SOL     OW 7210   1.875   4.045   3.632
 2104SOL    HW1 7211   1.833   3.954   3.636
 2104SOL    HW2 7212   1.973   4.035   3.613
 2105SOL     OW 7213   5.562   6.939   4.992
 2105SOL    HW1 7214   5.598   6.962   4.902
 2105SOL    HW2 7215   5.473   6.895   4.983
 2106SOL     OW 7216   4.251   3.352   1.381
 2106SOL    HW1 7217   4.260   3.310   1.291
 2106SOL    HW2 7218   4.342   3.365   1.421
 2107SOL     OW 7219   5.021   5.062   4.936
 2107SOL    HW1 7220   5.007   4.967   4.963
 2107SOL    HW2 7221   5.036   5.118   5.017
 2108SOL     OW 7222   4.958   0.274   4.695
 2108SOL    HW1 7223   5.040   0.310   4.650
 2108SOL    HW2 7224   4.891   0.347   4.705
 2109SOL     OW 7225   3.271   6.370   1.970
 2109SOL    HW1 7226   3.322   6.380   2.055
 2109SOL    HW2 7227   3.256   6.273   1.951
 2110SOL     OW 7228   3.447   6.139   0.185
 2110SOL    HW1 7229   3.492   6.186   0.109
 2110SOL    HW2 7230   3.376   6.198   0.224
 2111SOL     OW 7231   0.962   2.293   5.663
 2111SOL    HW1 7232   0.929   2.253   5.748
 2111SOL    HW2 7233   1.056   2.262   5.645
 2112SOL     OW 7234   1.531   0.205   0.135
 2112SOL    HW1 7235   1.476   0.229   0.216
 2112SOL    HW2 7236   1.513   0.109   0.112
 2113SOL     OW 7237   6.472   1.359   4.578
 2113SOL    HW1 7238   6.459   1.281   4.517
 2113SOL    HW2 7239   6.566   1.394   4.568
 2114SOL     OW 7240   2.446   1.302   6.023
 2114SOL    HW1 7241   2.394   1.330   6.104
 2114SOL    HW2 7242   2.403   1.221   5.983
 2115SOL     OW 7243   6.234   6.108   3.652
 2115SOL    HW1 7244   6.152   6.081   3.702
 2115SOL    HW2 7245   6.227   6.077   3.557
 2116SOL     OW 7246   2.030   1.680   6.966
 2116SOL    HW1 7247   2.041   1.768   7.014
 2116SOL    HW2 7248   2.101   1.671   6.897
 2117SOL     OW 7249   6.737   1.497   2.478
 2117SOL    HW1 7250   6.826   1.529   2.511
 2117SOL    HW2 7251   6.671   1.498   2.554
 2118SOL     OW 7252   6.848   2.100   2.585
 2118SOL    HW1 7253   6.874   2.194   2.607
 2118SOL    HW2 7254   6.864   2.042   2.664
 2119SOL     OW 7255   0.956   2.142   0.655
 2119SOL    HW1 7256   0.914   2.154   0.745
 2119SOL    HW2 7257   1.051   2.173   0.658
 2120SOL     OW 7258   5.367   1.828   0.536
 2120SOL    HW1 7259   5.337   1.923   0.533
 2120SOL    HW2 7260   5.415   1.806   0.450
 2121SOL     OW 7261   1.885   0.032   0.800
 2121SOL    HW1 7262   1.834   7.010   0.727
 2121SOL    HW2 7263   1.975   0.058   0.766
 2122SOL     OW 7264   6.463   0.367   4.625
 2122SOL    HW1 7265   6.492   0.463   4.618
 2122SOL    HW2 7266   6.434   0.348   4.719
 2123SOL     OW 7267   1.326   5.382   2.911
 2123SOL    HW1 7268   1.243   5.401   2.859
 2123SOL    HW2 7269   1.406   5.393   2.851
 2124SOL     OW 7270   4.333   3.803   7.007
 2124SOL    HW1 7271   4.384   3.746   0.047
 2124SOL    HW2 7272   4.392   3.827   6.930
 2125SOL     OW 7273   1.545   5.896   4.248
 2125SOL    HW1 7274   1.608   5.917   4.323
 2125SOL    HW2 7275   1.452   5.917   4.276
 2126SOL     OW 7276   2.671   3.830   6.560
 2126SOL    HW1 7277   2.639   3.823   6.465
 2126SOL    HW2 7278   2.610   3.891   6.611
 2127SOL     OW 7279   0.992   3.151   4.346
 2127SOL    HW1 7280   0.960   3.225   4.286
 2127SOL    HW2 7281   0.975   3.176   4.441
 2128SOL     OW 7282   5.168   3.068   1.961
 2128SOL    HW1 7283   5.110   3.139   1.920
 2128SOL    HW2 7284   5.110   3.000   2.006
 2129SOL     OW 7285   5.283   4.855   4.353
 2129SOL    HW1 7286   5.207   4.876   4.291
 2129SOL    HW2 7287   5.251   4.793   4.425
 2130SOL     OW 7288   2.479   1.338   1.101
 2130SOL    HW1 7289   2.518   1.284   1.027
 2130SOL    HW2 7290   2.450   1.278   1.175
 2131SOL     OW 7291   5.473   0.424   5.820
 2131SOL    HW1 7292   5.490   0.519   5.794
 2131SOL    HW2 7293   5.511   0.407   5.910
 2132SOL     OW 7294   2.602   2.612   6.985
 2132SOL    HW1 7295   2.680   2.569   0.005
 2132SOL    HW2 7296   2.635   2.678   6.917
 2133SOL     OW 7297   3.367   2.153   1.279
 2133SOL    HW1 7298   3.457   2.131   1.317
 2133SOL    HW2 7299   3.299   2.087   1.313
 2134SOL     OW 7300   2.230   6.226   5.241
 2134SOL    HW1 7301   2.183   6.277   5.313
 2134SOL    HW2 7302   2.246   6.286   5.162
 2135SOL     OW 7303   0.883   6.041   3.348
 2135SOL    HW1 7304   0.795   6.068   3.387
 2135SOL    HW2 7305   0.871   6.019   3.252
 2136SOL     OW 7306   1.641   4.908   3.574
 2136SOL    HW1 7307   1.668   4.974   3.644
 2136SOL    HW2 7308   1.655   4.815   3.609
 2137SOL     OW 7309   1.133   1.553   4.896
 2137SOL    HW1 7310   1.232   1.562   4.906
 2137SOL    HW2 7311   1.088   1.580   4.981
 2138SOL     OW 7312   0.986   2.563   5.720
 2138SOL    HW1 7313   0.992   2.470   5.683
 2138SOL    HW2 7314   1.004   2.629   5.646
 2139SOL     OW 7315   2.698   0.022   4.701
 2139SOL    HW1 7316   2.765   0.012   4.627
 2139SOL    HW2 7317   2.664   0.116   4.701
 2140SOL     OW 7318   1.650   5.907   3.413
 2140SOL    HW1 7319   1.746   5.881   3.400
 2140SOL    HW2 7320   1.600   5.831   3.454
 2141SOL     OW 7321   0.066   1.641   6.991
 2141SOL    HW1 7322   0.132   1.659   6.919
 2141SOL    HW2 7323   0.051   1.724   0.020
 2142SOL     OW 7324   2.820   1.408   3.642
 2142SOL    HW1 7325   2.890   1.477   3.625
 2142SOL    HW2 7326   2.863   1.326   3.681
 2143SOL     OW 7327   4.249   6.505   0.139
 2143SOL    HW1 7328   4.252   6.448   0.056
 2143SOL    HW2 7329   4.329   6.564   0.141
 2144SOL     OW 7330   0.480   0.947   2.222
 2144SOL    HW1 7331   0.435   1.034   2.243
 2144SOL    HW2 7332   0.414   0.873   2.232
 2145SOL     OW 7333   3.836   5.619   2.597
 2145SOL    HW1 7334   3.805   5.713   2.610
 2145SOL    HW2 7335   3.762   5.565   2.558
 2146SOL     OW 7336   3.251   2.405   0.644
 2146SOL    HW1 7337   3.325   2.351   0.684
 2146SOL    HW2 7338   3.217   2.359   0.562
 2147SOL     OW 7339   0.434   0.717   5.372
 2147SOL    HW1 7340   0.396   0.632   5.409
 2147SOL    HW2 7341   0.505   0.751   5.433
 2148SOL     OW 7342   5.332   3.420   3.444
 2148SOL    HW1 7343   5.394   3.341   3.448
 2148SOL    HW2 7344   5.350   3.471   3.359
 2149SOL     OW 7345   3.004   0.502   2.892
 2149SOL    HW1 7346   3.055   0.417   2.881
 2149SOL    HW2 7347   3.008   0.554   2.807
 2150SOL     OW 7348   3.701   1.453   2.467
 2150SOL    HW1 7349   3.662   1.542   2.487
 2150SOL    HW2 7350   3.631   1.382   2.481
 2151SOL     OW 7351   3.337   3.260   5.571
 2151SOL    HW1 7352   3.256   3.319   5.573
 2151SOL    HW2 7353   3.314   3.174   5.525
 2152SOL     OW 7354   5.979   6.145   2.058
 2152SOL    HW1 7355   5.908   6.106   1.999
 2152SOL    HW2 7356   6.067   6.141   2.012
 2153SOL     OW 7357   4.896   2.388   2.576
 2153SOL    HW1 7358   4.834   2.460   2.605
 2153SOL    HW2 7359   4.907   2.322   2.651
 2154SOL     OW 7360   4.003   6.227   5.282
 2154SOL    HW1 7361   4.024   6.140   5.238
 2154SOL    HW2 7362   3.910   6.225   5.317
 2155SOL     OW 7363   5.648   4.052   6.566
 2155SOL    HW1 7364   5.720   3.985   6.552
 2155SOL    HW2 7365   5.596   4.028   6.648
 2156SOL     OW 7366   0.729   1.130   1.346
 2156SOL    HW1 7367   0.655   1.131   1.279
 2156SOL    HW2 7368   0.815   1.108   1.300
 2157SOL     OW 7369   6.349   1.203   4.375
 2157SOL    HW1 7370   6.308   1.275   4.320
 2157SOL    HW2 7371   6.319   1.114   4.340
 2158SOL     OW 7372   4.705   6.446   2.913
 2158SOL    HW1 7373   4.803   6.432   2.924
 2158SOL    HW2 7374   4.658   6.357   2.919
 2159SOL     OW 7375   2.126   6.887   5.083
 2159SOL    HW1 7376   2.217   6.846   5.087
 2159SOL    HW2 7377   2.125   6.972   5.135
 2160SOL     OW 7378   2.863   2.992   0.977
 2160SOL    HW1 7379   2.863   3.066   1.045
 2160SOL    HW2 7380   2.957   2.966   0.956
 2161SOL     OW 7381   5.158   2.449   4.016
 2161SOL    HW1 7382   5.210   2.460   3.932
 2161SOL    HW2 7383   5.063   2.427   3.993
 2162SOL     OW 7384   1.938   1.311   0.721
 2162SOL    HW1 7385   1.890   1.399   0.721
 2162SOL    HW2 7386   2.033   1.326   0.696
 2163SOL     OW 7387   2.657   1.585   1.124
 2163SOL    HW1 7388   2.613   1.512   1.073
 2163SOL    HW2 7389   2.596   1.617   1.196
 2164SOL     OW 7390   0.410   0.583   1.566
 2164SOL    HW1 7391   0.441   0.545   1.653
 2164SOL    HW2 7392   0.489   0.616   1.515
 2165SOL     OW 7393   3.120   0.283   1.143
 2165SOL    HW1 7394   3.111   0.232   1.058
 2165SOL    HW2 7395   3.155   0.222   1.214
 2166SOL     OW 7396   6.363   2.804   6.390
 2166SOL    HW1 7397   6.454   2.803   6.432
 2166SOL    HW2 7398   6.343   2.896   6.357
 2167SOL     OW 7399   2.965   0.507   2.092
 2167SOL    HW1 7400   3.031   0.436   2.067
 2167SOL    HW2 7401   2.988   0.592   2.044
 2168SOL     OW 7402   5.665   5.965   5.050
 2168SOL    HW1 7403   5.605   5.884   5.047
 2168SOL    HW2 7404   5.614   6.044   5.016
 2169SOL     OW 7405   6.393   1.395   5.596
 2169SOL    HW1 7406   6.325   1.468   5.593
 2169SOL    HW2 7407   6.431   1.381   5.505
 2170SOL     OW 7408   5.518   4.667   4.292
 2170SOL    HW1 7409   5.605   4.651   4.246
 2170SOL    HW2 7410   5.506   4.765   4.307
 2171SOL     OW 7411   6.668   3.057   0.219
 2171SOL    HW1 7412   6.613   3.031   0.299
 2171SOL    HW2 7413   6.765   3.047   0.242
 2172SOL     OW 7414   2.719   0.642   1.122
 2172SOL    HW1 7415   2.787   0.570   1.135
 2172SOL    HW2 7416   2.752   0.708   1.055
 2173SOL     OW 7417   4.967   2.099   4.847
 2173SOL    HW1 7418   4.879   2.056   4.827
 2173SOL    HW2 7419   5.039   2.029   4.845
 2174SOL     OW 7420   1.196   5.194   4.793
 2174SOL    HW1 7421   1.161   5.227   4.705
 2174SOL    HW2 7422   1.195   5.268   4.860
 2175SOL     OW 7423   1.489   6.119   5.931
 2175SOL    HW1 7424   1.521   6.150   5.842
 2175SOL    HW2 7425   1.527   6.178   6.003
 2176SOL     OW 7426   1.853   2.689   2.376
 2176SOL    HW1 7427   1.769   2.687   2.431
 2176SOL    HW2 7428   1.850   2.616   2.308
 2177SOL     OW 7429   0.067   1.207   2.356
 2177SOL    HW1 7430   0.063   1.181   2.453
 2177SOL    HW2 7431   0.005   1.284   2.340
 2178SOL     OW 7432   7.005   5.670   0.951
 2178SOL    HW1 7433   6.951   5.600   0.904
 2178SOL    HW2 7434   0.077   5.661   0.926
 2179SOL     OW 7435   1.206   4.025   3.859
 2179SOL    HW1 7436   1.300   3.997   3.845
 2179SOL    HW2 7437   1.199   4.080   3.943
 2180SOL     OW 7438   3.921   2.909   1.610
 2180SOL    HW1 7439   3.925   2.924   1.511
 2180SOL    HW2 7440   4.007   2.937   1.652
 2181SOL     OW 7441   4.031   6.631   0.911
 2181SOL    HW1 7442   4.048   6.669   0.820
 2181SOL    HW2 7443   3.972   6.551   0.903
 2182SOL     OW 7444   5.415   2.095   0.446
 2182SOL    HW1 7445   5.440   2.163   0.378
 2182SOL    HW2 7446   5.329   2.122   0.490
 2183SOL     OW 7447   2.823   2.545   0.121
 2183SOL    HW1 7448   2.836   2.560   0.219
 2183SOL    HW2 7449   2.866   2.619   0.069
 2184SOL     OW 7450   4.308   3.110   5.919
 2184SOL    HW1 7451   4.383   3.063   5.874
 2184SOL    HW2 7452   4.235   3.045   5.939
 2185SOL     OW 7453   0.375   6.790   1.717
 2185SOL    HW1 7454   0.278   6.768   1.710
 2185SOL    HW2 7455   0.419   6.726   1.780
 2186SOL     OW 7456   0.268   4.690   2.853
 2186SOL    HW1 7457   0.190   4.643   2.895
 2186SOL    HW2 7458   0.317   4.628   2.793
 2187SOL     OW 7459   6.469   1.504   6.529
 2187SOL    HW1 7460   6.377   1.472   6.553
 2187SOL    HW2 7461   6.492   1.584   6.585
 2188SOL     OW 7462   4.750   1.251   3.485
 2188SOL    HW1 7463   4.751   1.152   3.500
 2188SOL    HW2 7464   4.656   1.284   3.486
 2189SOL     OW 7465   3.037   0.561   6.651
 2189SOL    HW1 7466   2.958   0.564   6.589
 2189SOL    HW2 7467   3.006   0.574   6.745
 2190SOL     OW 7468   5.085   2.249   0.940
 2190SOL    HW1 7469   5.027   2.221   1.017
 2190SOL    HW2 7470   5.181   2.230   0.962
 2191SOL     OW 7471   2.923   1.817   0.072
 2191SOL    HW1 7472   3.000   1.781   0.123
 2191SOL    HW2 7473   2.850   1.844   0.135
 2192SOL     OW 7474   3.975   5.559   2.845
 2192SOL    HW1 7475   3.983   5.459   2.839
 2192SOL    HW2 7476   3.911   5.591   2.775
 2193SOL     OW 7477   6.786   6.057   5.296
 2193SOL    HW1 7478   6.777   5.957   5.298
 2193SOL    HW2 7479   6.881   6.082   5.315
 2194SOL     OW 7480   2.965   0.134   1.406
 2194SOL    HW1 7481   2.901   0.165   1.477
 2194SOL    HW2 7482   2.918   0.128   1.319
 2195SOL     OW 7483   1.296   5.178   2.632
 2195SOL    HW1 7484   1.381   5.146   2.590
 2195SOL    HW2 7485   1.240   5.100   2.659
 2196SOL     OW 7486   4.400   2.789   6.769
 2196SOL    HW1 7487   4.480   2.825   6.817
 2196SOL    HW2 7488   4.419   2.696   6.737
 2197SOL     OW 7489   4.786   4.225   6.820
 2197SOL    HW1 7490   4.694   4.187   6.822
 2197SOL    HW2 7491   4.804   4.263   6.730
 2198SOL     OW 7492   6.003   4.344   0.300
 2198SOL    HW1 7493   5.918   4.344   0.247
 2198SOL    HW2 7494   5.986   4.303   0.390
 2199SOL     OW 7495   3.991   0.594   2.448
 2199SOL    HW1 7496   4.002   0.495   2.438
 2199SOL    HW2 7497   3.986   0.617   2.545
 2200SOL     OW 7498   2.163   6.645   3.882
 2200SOL    HW1 7499   2.172   6.737   3.844
 2200SOL    HW2 7500   2.069   6.631   3.913
 2201SOL     OW 7501   4.776   4.185   3.389
 2201SOL    HW1 7502   4.709   4.244   3.436
 2201SOL    HW2 7503   4.761   4.190   3.291
 2202SOL     OW 7504   5.155   6.330   4.159
 2202SOL    HW1 7505   5.146   6.388   4.077
 2202SOL    HW2 7506   5.077   6.268   4.165
 2203SOL     OW 7507   3.335   1.781   2.929
 2203SOL    HW1 7508   3.294   1.869   2.952
 2203SOL    HW2 7509   3.352   1.777   2.830
 2204SOL     OW 7510   2.363   3.093   1.096
 2204SOL    HW1 7511   2.353   3.000   1.132
 2204SOL    HW2 7512   2.418   3.148   1.159
 2205SOL     OW 7513   2.641   0.819   1.814
 2205SOL    HW1 7514   2.621   0.727   1.782
 2205SOL    HW2 7515   2.717   0.858   1.763
 2206SOL     OW 7516   2.178   3.252   0.318
 2206SOL    HW1 7517   2.261   3.251   0.263
 2206SOL    HW2 7518   2.102   3.290   0.264
 2207SOL     OW 7519   0.289   4.438   4.590
 2207SOL    HW1 7520   0.241   4.494   4.657
 2207SOL    HW2 7521   0.387   4.442   4.608
 2208SOL     OW 7522   6.877   4.705   2.377
 2208SOL    HW1 7523   6.934   4.752   2.309
 2208SOL    HW2 7524   6.914   4.720   2.468
 2209SOL     OW 7525   1.300   6.997   1.598
 2209SOL    HW1 7526   1.235   6.947   1.656
 2209SOL    HW2 7527   1.383   6.942   1.586
 2210SOL     OW 7528   2.043   5.303   3.636
 2210SOL    HW1 7529   2.118   5.239   3.652
 2210SOL    HW2 7530   1.990   5.274   3.556
 2211SOL     OW 7531   6.835   1.623   5.675
 2211SOL    HW1 7532   6.845   1.697   5.742
 2211SOL    HW2 7533   6.882   1.541   5.707
 2212SOL     OW 7534   2.440   0.038   6.336
 2212SOL    HW1 7535   2.446   0.060   6.239
 2212SOL    HW2 7536   2.479   6.972   6.352
 2213SOL     OW 7537   3.828   0.966   3.129
 2213SOL    HW1 7538   3.858   1.055   3.163
 2213SOL    HW2 7539   3.834   0.899   3.203
 2214SOL     OW 7540   4.328   6.804   5.433
 2214SOL    HW1 7541   4.277   6.719   5.427
 2214SOL    HW2 7542   4.404   6.794   5.498
 2215SOL     OW 7543   5.920   2.565   5.629
 2215SOL    HW1 7544   5.856   2.587   5.702
 2215SOL    HW2 7545   5.870   2.532   5.549
 2216SOL     OW 7546   2.909   0.675   2.320
 2216SOL    HW1 7547   2.814   0.706   2.317
 2216SOL    HW2 7548   2.921   0.599   2.257
 2217SOL     OW 7549   4.191   0.808   1.940
 2217SOL    HW1 7550   4.172   0.726   1.886
 2217SOL    HW2 7551   4.257   0.865   1.891
 2218SOL     OW 7552   1.461   0.059   3.158
 2218SOL    HW1 7553   1.367   0.089   3.174
 2218SOL    HW2 7554   1.476   6.996   3.203
 2219SOL     OW 7555   1.462   2.335   2.675
 2219SOL    HW1 7556   1.363   2.347   2.681
 2219SOL    HW2 7557   1.506   2.376   2.755
 2220SOL     OW 7558   0.322   0.059   1.845
 2220SOL    HW1 7559   0.350   7.014   1.778
 2220SOL    HW2 7560   0.398   0.123   1.859
 2221SOL     OW 7561   1.408   1.624   6.682
 2221SOL    HW1 7562   1.388   1.672   6.767
 2221SOL    HW2 7563   1.472   1.678   6.627
 2222SOL     OW 7564   6.405   6.119   2.978
 2222SOL    HW1 7565   6.433   6.073   2.894
 2222SOL    HW2 7566   6.306   6.115   2.986
 2223SOL     OW 7567   6.218   5.703   1.695
 2223SOL    HW1 7568   6.214   5.793   1.739
 2223SOL    HW2 7569   6.126   5.664   1.692
 2224SOL     OW 7570   1.049   4.747   2.040
 2224SOL    HW1 7571   1.129   4.746   1.980
 2224SOL    HW2 7572   0.974   4.696   1.996
 2225SOL     OW 7573   0.026   4.667   1.031
 2225SOL    HW1 7574   6.955   4.649   1.005
 2225SOL    HW2 7575   0.045   4.622   1.118
 2226SOL     OW 7576   4.018   4.023   1.805
 2226SOL    HW1 7577   4.077   4.103   1.816
 2226SOL    HW2 7578   4.028   3.963   1.884
 2227SOL     OW 7579   0.832   2.845   4.371
 2227SOL    HW1 7580   0.828   2.891   4.459
 2227SOL    HW2 7581   0.906   2.777   4.373
 2228SOL     OW 7582   3.236   4.948   4.575
 2228SOL    HW1 7583   3.187   4.903   4.501
 2228SOL    HW2 7584   3.170   4.987   4.640
 2229SOL     OW 7585   5.662   6.862   3.551
 2229SOL    HW1 7586   5.758   6.876   3.527
 2229SOL    HW2 7587   5.607   6.856   3.467
 2230SOL     OW 7588   2.577   5.466   1.620
 2230SOL    HW1 7589   2.559   5.432   1.713
 2230SOL    HW2 7590   2.622   5.395   1.566
 2231SOL     OW 7591   2.525   6.095   0.955
 2231SOL    HW1 7592   2.503   6.002   0.984
 2231SOL    HW2 7593   2.481   6.113   0.867
 2232SOL     OW 7594   5.426   3.065   3.682
 2232SOL    HW1 7595   5.326   3.061   3.675
 2232SOL    HW2 7596   5.454   3.154   3.716
 2233SOL     OW 7597   2.313   2.030   6.261
 2233SOL    HW1 7598   2.411   2.007   6.260
 2233SOL    HW2 7599   2.259   1.946   6.251
 2234SOL     OW 7600   3.368   2.582   1.319
 2234SOL    HW1 7601   3.272   2.556   1.309
 2234SOL    HW2 7602   3.388   2.603   1.415
 2235SOL     OW 7603   2.340   1.918   1.069
 2235SOL    HW1 7604   2.400   1.853   1.023
 2235SOL    HW2 7605   2.288   1.872   1.140
 2236SOL     OW 7606   0.796   4.566   5.941
 2236SOL    HW1 7607   0.724   4.607   5.886
 2236SOL    HW2 7608   0.818   4.475   5.905
 2237SOL     OW 7609   6.374   3.174   4.074
 2237SOL    HW1 7610   6.437   3.122   4.132
 2237SOL    HW2 7611   6.330   3.246   4.128
 2238SOL     OW 7612   6.440   6.070   1.343
 2238SOL    HW1 7613   6.417   6.064   1.440
 2238SOL    HW2 7614   6.458   6.165   1.319
 2239SOL     OW 7615   5.580   5.761   2.371
 2239SOL    HW1 7616   5.503   5.726   2.424
 2239SOL    HW2 7617   5.593   5.858   2.390
 2240SOL     OW 7618   5.512   3.917   2.107
 2240SOL    HW1 7619   5.468   3.929   2.018
 2240SOL    HW2 7620   5.611   3.923   2.097
 2241SOL     OW 7621   1.004   6.785   2.445
 2241SOL    HW1 7622   0.998   6.743   2.536
 2241SOL    HW2 7623   1.095   6.768   2.407
 2242SOL     OW 7624   3.773   2.165   2.649
 2242SOL    HW1 7625   3.706   2.205   2.711
 2242SOL    HW2 7626   3.727   2.124   2.571
 2243SOL     OW 7627   2.503   6.584   5.191
 2243SOL    HW1 7628   2.441   6.662   5.198
 2243SOL    HW2 7629   2.507   6.536   5.279
 2244SOL     OW 7630   3.613   0.879   4.941
 2244SOL    HW1 7631   3.527   0.930   4.930
 2244SOL    HW2 7632   3.598   0.784   4.913
 2245SOL     OW 7633   0.262   2.161   1.952
 2245SOL    HW1 7634   0.195   2.090   1.930
 2245SOL    HW2 7635   0.343   2.120   1.993
 2246SOL     OW 7636   1.735   4.596   4.910
 2246SOL    HW1 7637   1.801   4.641   4.971
 2246SOL    HW2 7638   1.642   4.608   4.947
 2247SOL     OW 7639   2.047   1.588   4.838
 2247SOL    HW1 7640   1.958   1.633   4.836
 2247SOL    HW2 7641   2.115   1.651   4.876
 2248SOL     OW 7642   4.375   3.981   5.645
 2248SOL    HW1 7643   4.370   3.997   5.743
 2248SOL    HW2 7644   4.332   3.893   5.623
 2249SOL     OW 7645   3.543   5.021   4.948
 2249SOL    HW1 7646   3.544   4.935   4.999
 2249SOL    HW2 7647   3.528   5.002   4.851
 2250SOL     OW 7648   4.941   4.817   1.161
 2250SOL    HW1 7649   5.026   4.775   1.129
 2250SOL    HW2 7650   4.894   4.860   1.084
 2251SOL     OW 7651   0.622   0.197   6.253
 2251SOL    HW1 7652   0.690   0.246   6.198
 2251SOL    HW2 7653   0.593   0.114   6.203
 2252SOL     OW 7654   3.879   0.878   6.070
 2252SOL    HW1 7655   3.830   0.906   6.153
 2252SOL    HW2 7656   3.817   0.826   6.011
 2253SOL     OW 7657   1.418   2.770   6.125
 2253SOL    HW1 7658   1.330   2.818   6.128
 2253SOL    HW2 7659   1.489   2.832   6.093
 2254SOL     OW 7660   1.728   4.133   5.958
 2254SOL    HW1 7661   1.644   4.184   5.979
 2254SOL    HW2 7662   1.719   4.089   5.869
 2255SOL     OW 7663   5.235   3.200   0.384
 2255SOL    HW1 7664   5.252   3.151   0.470
 2255SOL    HW2 7665   5.191   3.288   0.403
 2256SOL     OW 7666   3.132   4.878   2.126
 2256SOL    HW1 7667   3.190   4.844   2.052
 2256SOL    HW2 7668   3.183   4.877   2.212
 2257SOL     OW 7669   2.092   3.558   4.193
 2257SOL    HW1 7670   2.034   3.546   4.274
 2257SOL    HW2 7671   2.108   3.468   4.151
 2258SOL     OW 7672   1.608   4.764   5.325
 2258SOL    HW1 7673   1.528   4.751   5.267
 2258SOL    HW2 7674   1.667   4.835   5.286
 2259SOL     OW 7675   6.363   3.402   6.479
 2259SOL    HW1 7676   6.416   3.339   6.537
 2259SOL    HW2 7677   6.371   3.373   6.384
 2260SOL     OW 7678   4.367   3.716   1.311
 2260SOL    HW1 7679   4.375   3.627   1.355
 2260SOL    HW2 7680   4.378   3.706   1.212
 2261SOL     OW 7681   2.975   6.521   4.875
 2261SOL    HW1 7682   3.029   6.595   4.917
 2261SOL    HW2 7683   3.035   6.461   4.823
 2262SOL     OW 7684   3.315   1.720   3.631
 2262SOL    HW1 7685   3.380   1.653   3.594
 2262SOL    HW2 7686   3.343   1.745   3.724
 2263SOL     OW 7687   0.491   3.631   5.575
 2263SOL    HW1 7688   0.537   3.563   5.631
 2263SOL    HW2 7689   0.483   3.596   5.481
 2264SOL     OW 7690   3.093   3.862   3.220
 2264SOL    HW1 7691   3.040   3.796   3.274
 2264SOL    HW2 7692   3.186   3.868   3.255
 2265SOL     OW 7693   0.827   6.899   3.161
 2265SOL    HW1 7694   0.761   6.901   3.087
 2265SOL    HW2 7695   0.793   6.840   3.235
 2266SOL     OW 7696   6.637   0.440   6.805
 2266SOL    HW1 7697   6.537   0.436   6.796
 2266SOL    HW2 7698   6.678   0.359   6.763
 2267SOL     OW 7699   6.060   2.034   5.471
 2267SOL    HW1 7700   6.004   2.001   5.395
 2267SOL    HW2 7701   6.015   2.112   5.514
 2268SOL     OW 7702   6.580   5.074   0.111
 2268SOL    HW1 7703   6.540   5.054   0.200
 2268SOL    HW2 7704   6.679   5.064   0.117
 2269SOL     OW 7705   0.348   6.112   2.874
 2269SOL    HW1 7706   0.306   6.151   2.793
 2269SOL    HW2 7707   0.448   6.121   2.868
 2270SOL     OW 7708   3.791   3.214   2.671
 2270SOL    HW1 7709   3.812   3.131   2.620
 2270SOL    HW2 7710   3.852   3.222   2.750
 2271SOL     OW 7711   0.592   4.142   2.548
 2271SOL    HW1 7712   0.570   4.058   2.598
 2271SOL    HW2 7713   0.635   4.208   2.610
 2272SOL     OW 7714   5.534   2.150   5.699
 2272SOL    HW1 7715   5.625   2.131   5.735
 2272SOL    HW2 7716   5.472   2.076   5.723
 2273SOL     OW 7717   0.719   0.570   3.701
 2273SOL    HW1 7718   0.714   0.667   3.676
 2273SOL    HW2 7719   0.665   0.554   3.783
 2274SOL     OW 7720   0.711   4.004   2.853
 2274SOL    HW1 7721   0.783   4.013   2.784
 2274SOL    HW2 7722   0.738   3.936   2.921
 2275SOL     OW 7723   4.670   6.327   3.646
 2275SOL    HW1 7724   4.742   6.324   3.577
 2275SOL    HW2 7725   4.581   6.321   3.601
 2276SOL     OW 7726   3.392   5.901   2.019
 2276SOL    HW1 7727   3.451   5.951   1.956
 2276SOL    HW2 7728   3.435   5.897   2.109
 2277SOL     OW 7729   3.354   3.673   1.028
 2277SOL    HW1 7730   3.288   3.614   1.073
 2277SOL    HW2 7731   3.366   3.644   0.933
 2278SOL     OW 7732   4.956   6.407   1.064
 2278SOL    HW1 7733   5.017   6.413   1.143
 2278SOL    HW2 7734   5.007   6.377   0.984
 2279SOL     OW 7735   5.856   3.979   5.435
 2279SOL    HW1 7736   5.771   3.982   5.487
 2279SOL    HW2 7737   5.846   3.916   5.358
 2280SOL     OW 7738   5.651   6.694   6.236
 2280SOL    HW1 7739   5.720   6.654   6.176
 2280SOL    HW2 7740   5.679   6.683   6.332
 2281SOL     OW 7741   3.284   2.032   0.485
 2281SOL    HW1 7742   3.323   1.959   0.541
 2281SOL    HW2 7743   3.358   2.091   0.451
 2282SOL     OW 7744   4.562   5.743   1.980
 2282SOL    HW1 7745   4.570   5.785   1.889
 2282SOL    HW2 7746   4.466   5.720   1.998
 2283SOL     OW 7747   6.875   4.350   1.950
 2283SOL    HW1 7748   6.966   4.331   1.912
 2283SOL    HW2 7749   6.869   4.446   1.975
 2284SOL     OW 7750   2.717   2.244   2.133
 2284SOL    HW1 7751   2.663   2.172   2.090
 2284SOL    HW2 7752   2.799   2.261   2.078
 2285SOL     OW 7753   1.806   3.981   6.748
 2285SOL    HW1 7754   1.776   3.910   6.812
 2285SOL    HW2 7755   1.758   3.969   6.661
 2286SOL     OW 7756   6.041   6.688   4.566
 2286SOL    HW1 7757   6.120   6.639   4.603
 2286SOL    HW2 7758   5.966   6.686   4.634
 2287SOL     OW 7759   2.016   2.249   0.777
 2287SOL    HW1 7760   2.080   2.188   0.823
 2287SOL    HW2 7761   2.041   2.257   0.680
 2288SOL     OW 7762   1.460   5.711   4.613
 2288SOL    HW1 7763   1.379   5.761   4.642
 2288SOL    HW2 7764   1.533   5.722   4.681
 2289SOL     OW 7765   4.634   1.172   0.234
 2289SOL    HW1 7766   4.549   1.222   0.247
 2289SOL    HW2 7767   4.710   1.237   0.228
 2290SOL     OW 7768   3.163   3.549   3.550
 2290SOL    HW1 7769   3.241   3.529   3.610
 2290SOL    HW2 7770   3.106   3.619   3.593
 2291SOL     OW 7771   1.321   2.336   6.229
 2291SOL    HW1 7772   1.415   2.333   6.263
 2291SOL    HW2 7773   1.309   2.268   6.157
 2292SOL     OW 7774   4.979   1.420   2.661
 2292SOL    HW1 7775   4.998   1.517   2.674
 2292SOL    HW2 7776   5.066   1.370   2.655
 2293SOL     OW 7777   0.794   0.657   0.005
 2293SOL    HW1 7778   0.716   0.656   0.068
 2293SOL    HW2 7779   0.790   0.740   6.973
 2294SOL     OW 7780   0.032   0.798   5.865
 2294SOL    HW1 7781   0.062   0.752   5.781
 2294SOL    HW2 7782   0.103   0.862   5.894
 2295SOL     OW 7783   5.706   5.345   1.336
 2295SOL    HW1 7784   5.718   5.407   1.258
 2295SOL    HW2 7785   5.795   5.323   1.375
 2296SOL     OW 7786   3.969   5.248   4.369
 2296SOL    HW1 7787   3.915   5.205   4.297
 2296SOL    HW2 7788   3.993   5.179   4.437
 2297SOL     OW 7789   5.345   3.882   5.367
 2297SOL    HW1 7790   5.284   3.851   5.440
 2297SOL    HW2 7791   5.292   3.898   5.284
 2298SOL     OW 7792   2.882   3.686   4.834
 2298SOL    HW1 7793   2.801   3.736   4.868
 2298SOL    HW2 7794   2.877   3.591   4.864
 2299SOL     OW 7795   5.694   3.084   4.018
 2299SOL    HW1 7796   5.794   3.081   4.018
 2299SOL    HW2 7797   5.658   3.007   3.965
 2300SOL     OW 7798   5.067   6.966   1.901
 2300SOL    HW1 7799   4.980   6.944   1.945
 2300SOL    HW2 7800   5.051   0.009   1.828
 2301SOL     OW 7801   4.077   3.160   4.823
 2301SOL    HW1 7802   4.088   3.212   4.738
 2301SOL    HW2 7803   4.167   3.143   4.863
 2302SOL     OW 7804   6.352   3.062   6.005
 2302SOL    HW1 7805   6.421   3.104   6.064
 2302SOL    HW2 7806   6.308   2.986   6.053
 2303SOL     OW 7807   3.250   2.354   6.908
 2303SOL    HW1 7808   3.250   2.441   6.959
 2303SOL    HW2 7809   3.285   2.282   6.968
 2304SOL     OW 7810   6.692   6.321   2.729
 2304SOL    HW1 7811   6.694   6.232   2.775
 2304SOL    HW2 7812   6.767   6.377   2.762
 2305SOL     OW 7813   2.383   6.830   5.184
 2305SOL    HW1 7814   2.429   6.891   5.249
 2305SOL    HW2 7815   2.390   6.869   5.092
 2306SOL     OW 7816   1.848   5.091   4.834
 2306SOL    HW1 7817   1.933   5.134   4.806
 2306SOL    HW2 7818   1.788   5.079   4.755
 2307SOL     OW 7819   6.120   3.463   4.963
 2307SOL    HW1 7820   6.074   3.419   5.040
 2307SOL    HW2 7821   6.078   3.551   4.944
 2308SOL     OW 7822   0.872   5.691   2.528
 2308SOL    HW1 7823   0.963   5.690   2.571
 2308SOL    HW2 7824   0.803   5.705   2.599
 2309SOL     OW 7825   1.995   0.593   4.688
 2309SOL    HW1 7826   1.949   0.543   4.762
 2309SOL    HW2 7827   2.094   0.588   4.702
 2310SOL     OW 7828   4.637   6.682   1.278
 2310SOL    HW1 7829   4.559   6.683   1.215
 2310SOL    HW2 7830   4.603   6.689   1.372
 2311SOL     OW 7831   2.172   5.098   0.972
 2311SOL    HW1 7832   2.264   5.135   0.978
 2311SOL    HW2 7833   2.121   5.148   0.901
 2312SOL     OW 7834   3.364   4.646   1.660
 2312SOL    HW1 7835   3.284   4.644   1.719
 2312SOL    HW2 7836   3.447   4.643   1.715
 2313SOL     OW 7837   4.744   4.945   1.494
 2313SOL    HW1 7838   4.702   5.025   1.449
 2313SOL    HW2 7839   4.820   4.975   1.551
 2314SOL     OW 7840   2.674   4.768   4.226
 2314SOL    HW1 7841   2.670   4.684   4.172
 2314SOL    HW2 7842   2.663   4.746   4.323
 2315SOL     OW 7843   4.620   2.688   6.346
 2315SOL    HW1 7844   4.605   2.768   6.288
 2315SOL    HW2 7845   4.531   2.645   6.366
 2316SOL     OW 7846   5.158   3.635   2.230
 2316SOL    HW1 7847   5.171   3.538   2.211
 2316SOL    HW2 7848   5.217   3.663   2.306
 2317SOL     OW 7849   0.254   5.837   2.915
 2317SOL    HW1 7850   0.233   5.801   3.006
 2317SOL    HW2 7851   0.291   5.930   2.923
 2318SOL     OW 7852   0.075   1.041   4.189
 2318SOL    HW1 7853   0.116   0.951   4.204
 2318SOL    HW2 7854   0.075   1.061   4.091
 2319SOL     OW 7855   1.566   5.070   2.151
 2319SOL    HW1 7856   1.592   5.020   2.234
 2319SOL    HW2 7857   1.514   5.010   2.091
 2320SOL     OW 7858   6.408   4.774   4.973
 2320SOL    HW1 7859   6.394   4.848   5.039
 2320SOL    HW2 7860   6.396   4.686   5.018
 2321SOL     OW 7861   3.465   4.952   4.708
 2321SOL    HW1 7862   3.534   4.924   4.642
 2321SOL    HW2 7863   3.375   4.953   4.664
 2322SOL     OW 7864   2.858   0.431   4.840
 2322SOL    HW1 7865   2.914   0.467   4.766
 2322SOL    HW2 7866   2.791   0.367   4.803
 2323SOL     OW 7867   5.099   3.617   2.621
 2323SOL    HW1 7868   5.082   3.552   2.547
 2323SOL    HW2 7869   5.184   3.593   2.668
 2324SOL     OW 7870   0.513   4.598   3.470
 2324SOL    HW1 7871   0.458   4.611   3.387
 2324SOL    HW2 7872   0.598   4.649   3.462
 2325SOL     OW 7873   0.375   2.520   0.455
 2325SOL    HW1 7874   0.467   2.548   0.424
 2325SOL    HW2 7875   0.361   2.553   0.548
 2326SOL     OW 7876   0.634   3.967   0.738
 2326SOL    HW1 7877   0.597   3.933   0.824
 2326SOL    HW2 7878   0.576   3.939   0.662
 2327SOL     OW 7879   5.542   1.955   3.662
 2327SOL    HW1 7880   5.457   2.006   3.647
 2327SOL    HW2 7881   5.619   2.019   3.667
 2328SOL     OW 7882   6.477   6.326   3.446
 2328SOL    HW1 7883   6.560   6.366   3.408
 2328SOL    HW2 7884   6.425   6.281   3.373
 2329SOL     OW 7885   6.746   5.438   3.092
 2329SOL    HW1 7886   6.787   5.406   3.177
 2329SOL    HW2 7887   6.766   5.535   3.080
 2330SOL     OW 7888   0.448   3.762   1.660
 2330SOL    HW1 7889   0.422   3.696   1.731
 2330SOL    HW2 7890   0.368   3.816   1.634
 2331SOL     OW 7891   1.056   4.211   5.816
 2331SOL    HW1 7892   0.977   4.272   5.803
 2331SOL    HW2 7893   1.140   4.261   5.799
 2332SOL     OW 7894   5.254   2.166   5.117
 2332SOL    HW1 7895   5.200   2.246   5.092
 2332SOL    HW2 7896   5.226   2.134   5.208
 2333SOL     OW 7897   2.871   4.748   3.589
 2333SOL    HW1 7898   2.851   4.723   3.684
 2333SOL    HW2 7899   2.820   4.830   3.564
 2334SOL     OW 7900   2.813   7.015   6.986
 2334SOL    HW1 7901   2.723   0.017   7.021
 2334SOL    HW2 7902   2.837   0.048   6.908
 2335SOL     OW 7903   4.673   5.413   4.630
 2335SOL    HW1 7904   4.764   5.387   4.597
 2335SOL    HW2 7905   4.633   5.336   4.680
 2336SOL     OW 7906   4.021   2.822   5.689
 2336SOL    HW1 7907   3.946   2.795   5.750
 2336SOL    HW2 7908   4.098   2.853   5.744
 2337SOL     OW 7909   6.250   0.356   4.445
 2337SOL    HW1 7910   6.235   0.440   4.394
 2337SOL    HW2 7911   6.329   0.367   4.505
 2338SOL     OW 7912   1.150   0.406   6.490
 2338SOL    HW1 7913   1.230   0.350   6.464
 2338SOL    HW2 7914   1.149   0.418   6.589
 2339SOL     OW 7915   4.114   4.692   6.531
 2339SOL    HW1 7916   4.142   4.783   6.499
 2339SOL    HW2 7917   4.100   4.694   6.630
 2340SOL     OW 7918   3.723   4.922   3.948
 2340SOL    HW1 7919   3.660   4.983   3.997
 2340SOL    HW2 7920   3.718   4.941   3.850
 2341SOL     OW 7921   5.606   4.600   6.158
 2341SOL    HW1 7922   5.676   4.666   6.129
 2341SOL    HW2 7923   5.519   4.623   6.114
 2342SOL     OW 7924   0.078   0.056   5.497
 2342SOL    HW1 7925   0.162   0.014   5.531
 2342SOL    HW2 7926   0.054   0.017   5.408
 2343SOL     OW 7927   0.957   0.303   0.826
 2343SOL    HW1 7928   0.977   0.293   0.728
 2343SOL    HW2 7929   1.037   0.342   0.872
 2344SOL     OW 7930   3.136   1.524   3.303
 2344SOL    HW1 7931   3.155   1.552   3.208
 2344SOL    HW2 7932   3.071   1.588   3.344
 2345SOL     OW 7933   1.296   1.730   3.016
 2345SOL    HW1 7934   1.376   1.698   3.067
 2345SOL    HW2 7935   1.264   1.817   3.056
 2346SOL     OW 7936   4.879   3.174   5.490
 2346SOL    HW1 7937   4.875   3.222   5.402
 2346SOL    HW2 7938   4.834   3.229   5.560
 2347SOL     OW 7939   1.253   3.594   0.996
 2347SOL    HW1 7940   1.267   3.653   0.917
 2347SOL    HW2 7941   1.341   3.569   1.036
 2348SOL     OW 7942   2.475   6.394   1.612
 2348SOL    HW1 7943   2.406   6.437   1.670
 2348SOL    HW2 7944   2.433   6.368   1.525
 2349SOL     OW 7945   4.528   4.218   6.244
 2349SOL    HW1 7946   4.595   4.284   6.208
 2349SOL    HW2 7947   4.575   4.133   6.266
 2350SOL     OW 7948   2.272   5.709   5.451
 2350SOL    HW1 7949   2.259   5.690   5.549
 2350SOL    HW2 7950   2.199   5.666   5.399
 2351SOL     OW 7951   2.428   5.214   3.082
 2351SOL    HW1 7952   2.387   5.176   3.000
 2351SOL    HW2 7953   2.358   5.225   3.153
 2352SOL     OW 7954   5.755   4.331   1.131
 2352SOL    HW1 7955   5.747   4.411   1.191
 2352SOL    HW2 7956   5.811   4.261   1.176
 2353SOL     OW 7957   2.354   3.944   6.475
 2353SOL    HW1 7958   2.286   4.010   6.507
 2353SOL    HW2 7959   2.316   3.851   6.482
 2354SOL     OW 7960   3.974   2.257   1.909
 2354SOL    HW1 7961   3.968   2.160   1.883
 2354SOL    HW2 7962   3.882   2.297   1.910
 2355SOL     OW 7963   6.861   1.623   1.718
 2355SOL    HW1 7964   6.896   1.615   1.625
 2355SOL    HW2 7965   6.763   1.643   1.715
 2356SOL     OW 7966   2.985   5.054   3.694
 2356SOL    HW1 7967   2.961   5.040   3.598
 2356SOL    HW2 7968   2.978   5.151   3.716
 2357SOL     OW 7969   0.120   4.317   1.129
 2357SOL    HW1 7970   0.100   4.281   1.038
 2357SOL    HW2 7971   0.035   4.323   1.181
 2358SOL     OW 7972   3.591   1.327   5.122
 2358SOL    HW1 7973   3.607   1.338   5.220
 2358SOL    HW2 7974   3.549   1.411   5.086
 2359SOL     OW 7975   2.538   1.320   5.715
 2359SOL    HW1 7976   2.634   1.336   5.733
 2359SOL    HW2 7977   2.483   1.388   5.762
 2360SOL     OW 7978   3.123   4.982   0.193
 2360SOL    HW1 7979   3.028   5.012   0.205
 2360SOL    HW2 7980   3.163   4.962   0.282
 2361SOL     OW 7981   3.586   5.849   0.936
 2361SOL    HW1 7982   3.564   5.913   0.862
 2361SOL    HW2 7983   3.557   5.757   0.909
 2362SOL     OW 7984   3.412   5.010   3.634
 2362SOL    HW1 7985   3.366   4.982   3.718
 2362SOL    HW2 7986   3.379   5.100   3.606
 2363SOL     OW 7987   1.697   3.496   0.009
 2363SOL    HW1 7988   1.649   3.408   0.015
 2363SOL    HW2 7989   1.699   3.538   0.100
 2364SOL     OW 7990   3.743   1.823   2.601
 2364SOL    HW1 7991   3.727   1.800   2.697
 2364SOL    HW2 7992   3.670   1.784   2.544
 2365SOL     OW 7993   5.045   4.563   2.816
 2365SOL    HW1 7994   5.004   4.652   2.835
 2365SOL    HW2 7995   5.117   4.573   2.747
 2366SOL     OW 7996   3.080   5.213   5.424
 2366SOL    HW1 7997   3.123   5.135   5.380
 2366SOL    HW2 7998   3.137   5.294   5.413
 2367SOL     OW 7999   6.006   5.028   5.623
 2367SOL    HW1 8000   6.071   5.103   5.635
 2367SOL    HW2 8001   6.014   4.964   5.699
 2368SOL     OW 8002   5.638   0.180   5.395
 2368SOL    HW1 8003   5.662   0.107   5.331
 2368SOL    HW2 8004   5.544   0.209   5.380
 2369SOL     OW 8005   3.789   2.074   4.168
 2369SOL    HW1 8006   3.851   2.118   4.103
 2369SOL    HW2 8007   3.839   2.053   4.252
 2370SOL     OW 8008   5.104   2.164   2.010
 2370SOL    HW1 8009   5.049   2.246   1.994
 2370SOL    HW2 8010   5.090   2.099   1.935
 2371SOL     OW 8011   1.048   6.228   1.894
 2371SOL    HW1 8012   1.103   6.288   1.952
 2371SOL    HW2 8013   1.043   6.267   1.802
 2372SOL     OW 8014   6.652   6.476   0.142
 2372SOL    HW1 8015   6.727   6.540   0.158
 2372SOL    HW2 8016   6.571   6.526   0.112
 2373SOL     OW 8017   6.158   4.320   5.985
 2373SOL    HW1 8018   6.162   4.220   5.976
 2373SOL    HW2 8019   6.077   4.345   6.038
 2374SOL     OW 8020   6.198   6.917   2.459
 2374SOL    HW1 8021   6.252   6.999   2.442
 2374SOL    HW2 8022   6.103   6.943   2.477
 2375SOL     OW 8023   1.948   0.483   4.437
 2375SOL    HW1 8024   1.856   0.444   4.447
 2375SOL    HW2 8025   1.974   0.530   4.522
 2376SOL     OW 8026   5.123   2.522   2.616
 2376SOL    HW1 8027   5.040   2.509   2.562
 2376SOL    HW2 8028   5.113   2.478   2.705
 2377SOL     OW 8029   4.797   3.741   5.748
 2377SOL    HW1 8030   4.894   3.719   5.761
 2377SOL    HW2 8031   4.745   3.709   5.827
 2378SOL     OW 8032   0.632   1.594   0.240
 2378SOL    HW1 8033   0.543   1.597   0.284
 2378SOL    HW2 8034   0.629   1.531   0.162
 2379SOL     OW 8035   0.062   5.619   2.460
 2379SOL    HW1 8036   0.125   5.585   2.391
 2379SOL    HW2 8037   0.010   5.696   2.423
 2380SOL     OW 8038   4.821   5.281   6.802
 2380SOL    HW1 8039   4.898   5.239   6.753
 2380SOL    HW2 8040   4.857   5.342   6.873
 2381SOL     OW 8041   2.228   4.119   3.736
 2381SOL    HW1 8042   2.199   4.033   3.780
 2381SOL    HW2 8043   2.263   4.182   3.806
 2382SOL     OW 8044   6.725   4.874   3.289
 2382SOL    HW1 8045   6.713   4.945   3.220
 2382SOL    HW2 8046   6.712   4.913   3.380
 2383SOL     OW 8047   5.223   4.288   6.030
 2383SOL    HW1 8048   5.151   4.259   6.093
 2383SOL    HW2 8049   5.257   4.209   5.979
 2384SOL     OW 8050   6.886   1.553   2.990
 2384SOL    HW1 8051   6.813   1.615   3.019
 2384SOL    HW2 8052   6.929   1.511   3.070
 2385SOL     OW 8053   0.226   1.415   0.599
 2385SOL    HW1 8054   0.221   1.502   0.648
 2385SOL    HW2 8055   0.237   1.340   0.665
 2386SOL     OW 8056   5.801   6.376   4.942
 2386SOL    HW1 8057   5.788   6.355   5.039
 2386SOL    HW2 8058   5.720   6.424   4.907
 2387SOL     OW 8059   1.231   1.575   4.024
 2387SOL    HW1 8060   1.274   1.566   4.114
 2387SOL    HW2 8061   1.273   1.651   3.975
 2388SOL     OW 8062   0.243   2.973   5.113
 2388SOL    HW1 8063   0.310   2.964   5.187
 2388SOL    HW2 8064   0.158   3.010   5.149
 2389SOL     OW 8065   4.070   5.182   3.190
 2389SOL    HW1 8066   4.125   5.223   3.263
 2389SOL    HW2 8067   4.127   5.165   3.110
 2390SOL     OW 8068   4.839   2.725   5.948
 2390SOL    HW1 8069   4.758   2.765   5.990
 2390SOL    HW2 8070   4.919   2.780   5.969
 2391SOL     OW 8071   3.422   4.817   6.563
 2391SOL    HW1 8072   3.458   4.885   6.627
 2391SOL    HW2 8073   3.495   4.753   6.538
 2392SOL     OW 8074   4.238   4.498   5.569
 2392SOL    HW1 8075   4.233   4.405   5.606
 2392SOL    HW2 8076   4.182   4.559   5.625
 2393SOL     OW 8077   4.701   4.425   0.689
 2393SOL    HW1 8078   4.604   4.418   0.712
 2393SOL    HW2 8079   4.755   4.415   0.773
 2394SOL     OW 8080   0.443   1.765   3.510
 2394SOL    HW1 8081   0.409   1.675   3.484
 2394SOL    HW2 8082   0.542   1.762   3.522
 2395SOL     OW 8083   1.220   3.155   4.002
 2395SOL    HW1 8084   1.169   3.098   4.067
 2395SOL    HW2 8085   1.259   3.097   3.931
 2396SOL     OW 8086   0.717   0.273   6.481
 2396SOL    HW1 8087   0.698   0.223   6.397
 2396SOL    HW2 8088   0.807   0.315   6.475
 2397SOL     OW 8089   0.525   3.706   5.109
 2397SOL    HW1 8090   0.512   3.770   5.184
 2397SOL    HW2 8091   0.621   3.708   5.081
 2398SOL     OW 8092   4.114   6.953   3.699
 2398SOL    HW1 8093   4.031   6.906   3.730
 2398SOL    HW2 8094   4.097   0.027   3.696
 2399SOL     OW 8095   3.285   2.108   3.313
 2399SOL    HW1 8096   3.274   2.019   3.356
 2399SOL    HW2 8097   3.371   2.149   3.342
 2400SOL     OW 8098   1.654   3.946   0.578
 2400SOL    HW1 8099   1.655   3.890   0.495
 2400SOL    HW2 8100   1.561   3.975   0.598
 2401SOL     OW 8101   2.005   6.670   6.728
 2401SOL    HW1 8102   1.936   6.729   6.771
 2401SOL    HW2 8103   1.994   6.577   6.763
 2402SOL     OW 8104   0.733   4.198   2.101
 2402SOL    HW1 8105   0.636   4.176   2.108
 2402SOL    HW2 8106   0.779   4.177   2.187
 2403SOL     OW 8107   3.324   3.805   4.623
 2403SOL    HW1 8108   3.304   3.725   4.681
 2403SOL    HW2 8109   3.255   3.876   4.640
 2404SOL     OW 8110   5.927   1.701   0.974
 2404SOL    HW1 8111   5.836   1.661   0.967
 2404SOL    HW2 8112   5.992   1.630   1.003
 2405SOL     OW 8113   1.319   3.265   0.750
 2405SOL    HW1 8114   1.347   3.208   0.827
 2405SOL    HW2 8115   1.226   3.241   0.722
 2406SOL     OW 8116   2.860   5.815   4.511
 2406SOL    HW1 8117   2.773   5.838   4.556
 2406SOL    HW2 8118   2.875   5.877   4.434
 2407SOL     OW 8119   2.857   0.957   3.191
 2407SOL    HW1 8120   2.857   1.042   3.140
 2407SOL    HW2 8121   2.801   0.889   3.144
 2408SOL     OW 8122   2.903   6.437   5.702
 2408SOL    HW1 8123   2.997   6.454   5.732
 2408SOL    HW2 8124   2.900   6.354   5.646
 2409SOL     OW 8125   0.910   3.352   0.199
 2409SOL    HW1 8126   0.835   3.302   0.242
 2409SOL    HW2 8127   0.963   3.399   0.269
 2410SOL     OW 8128   0.008   2.701   4.380
 2410SOL    HW1 8129   6.939   2.672   4.397
 2410SOL    HW2 8130   0.063   2.622   4.353
 2411SOL     OW 8131   3.442   2.159   6.443
 2411SOL    HW1 8132   3.359   2.214   6.436
 2411SOL    HW2 8133   3.510   2.192   6.377
 2412SOL     OW 8134   3.249   1.491   5.434
 2412SOL    HW1 8135   3.214   1.419   5.373
 2412SOL    HW2 8136   3.177   1.559   5.449
 2413SOL     OW 8137   0.300   2.996   6.895
 2413SOL    HW1 8138   0.283   2.961   6.804
 2413SOL    HW2 8139   0.352   2.929   6.948
 2414SOL     OW 8140   6.617   1.295   5.136
 2414SOL    HW1 8141   6.600   1.236   5.057
 2414SOL    HW2 8142   6.631   1.238   5.217
 2415SOL     OW 8143   2.671   5.056   6.537
 2415SOL    HW1 8144   2.756   5.063   6.486
 2415SOL    HW2 8145   2.687   5.079   6.633
 2416SOL     OW 8146   0.060   2.431   2.925
 2416SOL    HW1 8147   0.079   2.382   2.840
 2416SOL    HW2 8148   0.139   2.427   2.986
 2417SOL     OW 8149   2.723   2.724   1.496
 2417SOL    HW1 8150   2.801   2.662   1.501
 2417SOL    HW2 8151   2.639   2.674   1.518
 2418SOL     OW 8152   4.997   3.952   6.522
 2418SOL    HW1 8153   5.046   3.963   6.608
 2418SOL    HW2 8154   5.004   3.858   6.490
 2419SOL     OW 8155   2.980   0.679   3.669
 2419SOL    HW1 8156   2.950   0.702   3.577
 2419SOL    HW2 8157   2.900   0.652   3.724
 2420SOL     OW 8158   1.378   4.184   2.510
 2420SOL    HW1 8159   1.434   4.116   2.556
 2420SOL    HW2 8160   1.291   4.195   2.559
 2421SOL     OW 8161   3.189   6.597   3.691
 2421SOL    HW1 8162   3.273   6.575   3.641
 2421SOL    HW2 8163   3.120   6.631   3.627
 2422SOL     OW 8164   4.100   4.708   1.135
 2422SOL    HW1 8165   4.093   4.796   1.088
 2422SOL    HW2 8166   4.197   4.686   1.151
 2423SOL     OW 8167   2.456   5.658   3.036
 2423SOL    HW1 8168   2.448   5.667   3.135
 2423SOL    HW2 8169   2.381   5.709   2.992
 2424SOL     OW 8170   5.065   6.946   6.439
 2424SOL    HW1 8171   5.122   6.940   6.357
 2424SOL    HW2 8172   5.057   6.856   6.481
 2425SOL     OW 8173   4.932   5.655   4.650
 2425SOL    HW1 8174   4.975   5.570   4.621
 2425SOL    HW2 8175   4.837   5.637   4.675
 2426SOL     OW 8176   2.147   2.484   4.943
 2426SOL    HW1 8177   2.111   2.391   4.953
 2426SOL    HW2 8178   2.140   2.532   5.030
 2427SOL     OW 8179   5.373   0.750   0.606
 2427SOL    HW1 8180   5.350   0.705   0.519
 2427SOL    HW2 8181   5.309   0.721   0.677
 2428SOL     OW 8182   1.454   1.164   2.671
 2428SOL    HW1 8183   1.531   1.221   2.700
 2428SOL    HW2 8184   1.441   1.172   2.573
 2429SOL     OW 8185   5.805   5.165   1.820
 2429SOL    HW1 8186   5.866   5.093   1.787
 2429SOL    HW2 8187   5.815   5.173   1.919
 2430SOL     OW 8188   6.444   0.829   6.573
 2430SOL    HW1 8189   6.416   0.923   6.552
 2430SOL    HW2 8190   6.505   0.795   6.501
 2431SOL     OW 8191   0.408   3.431   1.746
 2431SOL    HW1 8192   0.489   3.399   1.698
 2431SOL    HW2 8193   0.431   3.453   1.841
 2432SOL     OW 8194   2.119   5.187   1.944
 2432SOL    HW1 8195   2.144   5.277   1.907
 2432SOL    HW2 8196   2.055   5.142   1.881
 2433SOL     OW 8197   0.069   4.002   5.117
 2433SOL    HW1 8198   0.065   3.941   5.038
 2433SOL    HW2 8199   0.014   3.965   5.191
 2434SOL     OW 8200   4.027   0.656   2.735
 2434SOL    HW1 8201   4.022   0.755   2.747
 2434SOL    HW2 8202   3.942   0.614   2.769
 2435SOL     OW 8203   5.962   6.771   6.939
 2435SOL    HW1 8204   5.973   6.822   6.853
 2435SOL    HW2 8205   6.030   6.698   6.944
 2436SOL     OW 8206   0.767   2.570   0.881
 2436SOL    HW1 8207   0.748   2.595   0.976
 2436SOL    HW2 8208   0.702   2.500   0.851
 2437SOL     OW 8209   7.021   3.809   2.173
 2437SOL    HW1 8210   0.031   3.901   2.192
 2437SOL    HW2 8211   6.975   3.809   2.084
 2438SOL     OW 8212   3.994   1.920   4.825
 2438SOL    HW1 8213   4.023   1.945   4.918
 2438SOL    HW2 8214   3.936   1.992   4.788
 2439SOL     OW 8215   1.792   5.695   1.447
 2439SOL    HW1 8216   1.852   5.651   1.513
 2439SOL    HW2 8217   1.844   5.724   1.367
 2440SOL     OW 8218   6.608   1.231   5.698
 2440SOL    HW1 8219   6.543   1.296   5.658
 2440SOL    HW2 8220   6.649   1.271   5.780
 2441SOL     OW 8221   6.191   0.453   0.462
 2441SOL    HW1 8222   6.203   0.523   0.532
 2441SOL    HW2 8223   6.121   0.483   0.397
 2442SOL     OW 8224   5.512   2.982   1.257
 2442SOL    HW1 8225   5.446   2.966   1.331
 2442SOL    HW2 8226   5.467   2.966   1.169
 2443SOL     OW 8227   0.852   3.049   1.658
 2443SOL    HW1 8228   0.822   3.140   1.688
 2443SOL    HW2 8229   0.924   3.016   1.720
 2444SOL     OW 8230   3.291   5.758   2.317
 2444SOL    HW1 8231   3.229   5.739   2.241
 2444SOL    HW2 8232   3.311   5.856   2.320
 2445SOL     OW 8233   0.770   2.211   1.509
 2445SOL    HW1 8234   0.832   2.241   1.582
 2445SOL    HW2 8235   0.679   2.247   1.525
 2446SOL     OW 8236   1.007   5.535   2.074
 2446SOL    HW1 8237   1.094   5.531   2.024
 2446SOL    HW2 8238   1.025   5.551   2.171
 2447SOL     OW 8239   2.301   0.121   0.212
 2447SOL    HW1 8240   2.339   0.081   0.295
 2447SOL    HW2 8241   2.257   0.209   0.234
 2448SOL     OW 8242   5.350   1.067   4.664
 2448SOL    HW1 8243   5.417   1.080   4.591
 2448SOL    HW2 8244   5.284   0.997   4.638
 2449SOL     OW 8245   0.985   4.244   1.737
 2449SOL    HW1 8246   0.979   4.285   1.828
 2449SOL    HW2 8247   1.040   4.160   1.742
 2450SOL     OW 8248   1.024   6.637   5.161
 2450SOL    HW1 8249   1.104   6.649   5.103
 2450SOL    HW2 8250   1.048   6.582   5.241
 2451SOL     OW 8251   1.226   6.396   5.089
 2451SOL    HW1 8252   1.249   6.449   5.171
 2451SOL    HW2 8253   1.255   6.301   5.101
 2452SOL     OW 8254   2.478   1.934   3.020
 2452SOL    HW1 8255   2.510   2.021   3.058
 2452SOL    HW2 8256   2.379   1.927   3.032
 2453SOL     OW 8257   1.194   1.157   5.507
 2453SOL    HW1 8258   1.222   1.105   5.427
 2453SOL    HW2 8259   1.098   1.183   5.499
 2454SOL     OW 8260   3.612   5.637   0.651
 2454SOL    HW1 8261   3.572   5.710   0.596
 2454SOL    HW2 8262   3.701   5.666   0.685
 2455SOL     OW 8263   3.908   2.341   0.380
 2455SOL    HW1 8264   3.933   2.344   0.477
 2455SOL    HW2 8265   3.929   2.430   0.338
 2456SOL     OW 8266   0.574   3.021   5.709
 2456SOL    HW1 8267   0.618   2.949   5.762
 2456SOL    HW2 8268   0.524   3.081   5.771
 2457SOL     OW 8269   4.470   1.976   5.013
 2457SOL    HW1 8270   4.436   1.991   5.106
 2457SOL    HW2 8271   4.570   1.973   5.014
 2458SOL     OW 8272   0.791   0.599   2.687
 2458SOL    HW1 8273   0.720   0.528   2.688
 2458SOL    HW2 8274   0.812   0.625   2.782
 2459SOL     OW 8275   1.904   0.090   0.054
 2459SOL    HW1 8276   1.919   0.082   6.980
 2459SOL    HW2 8277   1.893   0.186   0.079
 2460SOL     OW 8278   0.991   1.304   4.943
 2460SOL    HW1 8279   0.971   1.376   4.876
 2460SOL    HW2 8280   1.016   1.347   5.030
 2461SOL     OW 8281   4.540   0.725   3.748
 2461SOL    HW1 8282   4.631   0.705   3.714
 2461SOL    HW2 8283   4.523   0.675   3.833
 2462SOL     OW 8284   0.219   4.626   0.205
 2462SOL    HW1 8285   0.239   4.553   0.140
 2462SOL    HW2 8286   0.250   4.713   0.167
 2463SOL     OW 8287   6.682   0.747   0.319
 2463SOL    HW1 8288   6.653   0.838   0.289
 2463SOL    HW2 8289   6.613   0.680   0.294
 2464SOL     OW 8290   0.969   2.364   4.178
 2464SOL    HW1 8291   0.941   2.460   4.178
 2464SOL    HW2 8292   0.912   2.313   4.242
 2465SOL     OW 8293   0.152   6.662   6.210
 2465SOL    HW1 8294   0.062   6.705   6.207
 2465SOL    HW2 8295   0.162   6.612   6.297
 2466SOL     OW 8296   0.749   2.057   1.921
 2466SOL    HW1 8297   0.726   1.974   1.971
 2466SOL    HW2 8298   0.787   2.124   1.984
 2467SOL     OW 8299   5.922   2.626   5.280
 2467SOL    HW1 8300   5.962   2.634   5.189
 2467SOL    HW2 8301   5.931   2.713   5.328
 2468SOL     OW 8302   3.543   6.775   5.154
 2468SOL    HW1 8303   3.527   6.842   5.082
 2468SOL    HW2 8304   3.474   6.785   5.226
 2469SOL     OW 8305   3.518   1.626   5.452
 2469SOL    HW1 8306   3.576   1.621   5.370
 2469SOL    HW2 8307   3.437   1.570   5.439
 2470SOL     OW 8308   2.752   4.845   6.190
 2470SOL    HW1 8309   2.768   4.937   6.154
 2470SOL    HW2 8310   2.713   4.787   6.118
 2471SOL     OW 8311   2.562   5.363   1.896
 2471SOL    HW1 8312   2.576   5.433   1.966
 2471SOL    HW2 8313   2.592   5.274   1.931
 2472SOL     OW 8314   5.082   1.781   3.410
 2472SOL    HW1 8315   5.166   1.809   3.364
 2472SOL    HW2 8316   5.030   1.862   3.437
 2473SOL     OW 8317   0.504   3.935   3.870
 2473SOL    HW1 8318   0.475   4.006   3.934
 2473SOL    HW2 8319   0.450   3.852   3.886
 2474SOL     OW 8320   1.081   5.858   1.616
 2474SOL    HW1 8321   1.143   5.898   1.683
 2474SOL    HW2 8322   1.098   5.900   1.526
 2475SOL     OW 8323   4.772   0.831   0.706
 2475SOL    HW1 8324   4.840   0.868   0.769
 2475SOL    HW2 8325   4.735   0.905   0.650
 2476SOL     OW 8326   5.294   1.073   0.567
 2476SOL    HW1 8327   5.281   1.107   0.474
 2476SOL    HW2 8328   5.331   0.980   0.563
 2477SOL     OW 8329   3.950   0.201   3.089
 2477SOL    HW1 8330   3.900   0.251   3.160
 2477SOL    HW2 8331   4.011   0.134   3.132
 2478SOL     OW 8332   4.625   6.949   4.691
 2478SOL    HW1 8333   4.716   6.988   4.674
 2478SOL    HW2 8334   4.629   6.893   4.774
 2479SOL     OW 8335   5.527   3.095   0.117
 2479SOL    HW1 8336   5.487   3.004   0.130
 2479SOL    HW2 8337   5.455   3.164   0.118
 2480SOL     OW 8338   3.287   2.321   1.747
 2480SOL    HW1 8339   3.279   2.407   1.698
 2480SOL    HW2 8340   3.197   2.279   1.756
 2481SOL     OW 8341   3.404   0.659   1.104
 2481SOL    HW1 8342   3.309   0.689   1.104
 2481SOL    HW2 8343   3.417   0.591   1.176
 2482SOL     OW 8344   6.054   3.460   6.444
 2482SOL    HW1 8345   6.041   3.396   6.369
 2482SOL    HW2 8346   6.151   3.462   6.470
 2483SOL     OW 8347   1.369   2.593   0.141
 2483SOL    HW1 8348   1.393   2.578   0.045
 2483SOL    HW2 8349   1.433   2.658   0.181
 2484SOL     OW 8350   5.499   0.809   1.112
 2484SOL    HW1 8351   5.432   0.835   1.042
 2484SOL    HW2 8352   5.451   0.780   1.195
 2485SOL     OW 8353   6.865   2.309   6.262
 2485SOL    HW1 8354   6.898   2.264   6.345
 2485SOL    HW2 8355   6.805   2.247   6.212
 2486SOL     OW 8356   6.387   5.183   4.983
 2486SOL    HW1 8357   6.291   5.172   4.956
 2486SOL    HW2 8358   6.419   5.098   5.026
 2487SOL     OW 8359   5.115   5.991   6.367
 2487SOL    HW1 8360   5.206   5.971   6.331
 2487SOL    HW2 8361   5.123   6.033   6.458
 2488SOL     OW 8362   6.370   3.997   0.860
 2488SOL    HW1 8363   6.452   4.009   0.805
 2488SOL    HW2 8364   6.290   3.988   0.800
 2489SOL     OW 8365   6.952   6.343   4.778
 2489SOL    HW1 8366   6.860   6.354   4.817
 2489SOL    HW2 8367   7.000   6.271   4.828
 2490SOL     OW 8368   2.616   5.962   2.615
 2490SOL    HW1 8369   2.596   5.961   2.517
 2490SOL    HW2 8370   2.544   5.912   2.664
 2491SOL     OW 8371   3.612   4.508   1.471
 2491SOL    HW1 8372   3.655   4.508   1.381
 2491SOL    HW2 8373   3.538   4.441   1.472
 2492SOL     OW 8374   6.970   4.647   1.841
 2492SOL    HW1 8375   6.917   4.692   1.913
 2492SOL    HW2 8376   0.029   4.608   1.880
 2493SOL     OW 8377   6.441   6.627   1.368
 2493SOL    HW1 8378   6.504   6.652   1.294
 2493SOL    HW2 8379   6.352   6.671   1.352
 2494SOL     OW 8380   6.478   3.744   2.476
 2494SOL    HW1 8381   6.503   3.830   2.430
 2494SOL    HW2 8382   6.395   3.759   2.530
 2495SOL     OW 8383   6.689   4.606   3.206
 2495SOL    HW1 8384   6.731   4.695   3.224
 2495SOL    HW2 8385   6.752   4.533   3.234
 2496SOL     OW 8386   6.273   4.971   6.237
 2496SOL    HW1 8387   6.316   5.024   6.310
 2496SOL    HW2 8388   6.289   4.874   6.254
 2497SOL     OW 8389   0.579   0.455   2.237
 2497SOL    HW1 8390   0.628   0.502   2.164
 2497SOL    HW2 8391   0.614   0.361   2.246
 2498SOL     OW 8392   1.894   3.830   6.077
 2498SOL    HW1 8393   1.797   3.828   6.055
 2498SOL    HW2 8394   1.948   3.838   5.993
 2499SOL     OW 8395   6.436   3.851   1.860
 2499SOL    HW1 8396   6.515   3.817   1.912
 2499SOL    HW2 8397   6.440   3.951   1.856
 2500SOL     OW 8398   3.678   3.945   6.845
 2500SOL    HW1 8399   3.698   4.023   6.905
 2500SOL    HW2 8400   3.634   3.873   6.899
 2501SOL     OW 8401   5.705   5.560   0.065
 2501SOL    HW1 8402   5.634   5.628   0.050
 2501SOL    HW2 8403   5.710   5.538   0.163
 2502SOL     OW 8404   2.889   5.193   4.328
 2502SOL    HW1 8405   2.811   5.180   4.267
 2502SOL    HW2 8406   2.958   5.250   4.281
 2503SOL     OW 8407   2.199   6.410   6.146
 2503SOL    HW1 8408   2.141   6.487   6.120
 2503SOL    HW2 8409   2.293   6.429   6.118
 2504SOL     OW 8410   3.434   6.298   3.303
 2504SOL    HW1 8411   3.429   6.213   3.355
 2504SOL    HW2 8412   3.527   6.310   3.268
 2505SOL     OW 8413   0.405   5.417   3.468
 2505SOL    HW1 8414   0.407   5.517   3.465
 2505SOL    HW2 8415   0.318   5.386   3.507
 2506SOL     OW 8416   5.057   5.577   6.153
 2506SOL    HW1 8417   5.093   5.553   6.063
 2506SOL    HW2 8418   5.024   5.672   6.152
 2507SOL     OW 8419   6.808   3.370   0.596
 2507SOL    HW1 8420   6.847   3.378   0.688
 2507SOL    HW2 8421   6.709   3.359   0.602
 2508SOL     OW 8422   4.628   2.146   3.876
 2508SOL    HW1 8423   4.658   2.173   3.967
 2508SOL    HW2 8424   4.669   2.207   3.808
 2509SOL     OW 8425   0.071   4.344   5.318
 2509SOL    HW1 8426   0.074   4.444   5.320
 2509SOL    HW2 8427   7.002   4.314   5.302
 2510SOL     OW 8428   3.281   4.154   1.826
 2510SOL    HW1 8429   3.355   4.117   1.882
 2510SOL    HW2 8430   3.247   4.084   1.763
 2511SOL     OW 8431   2.228   0.320   4.955
 2511SOL    HW1 8432   2.304   0.311   5.019
 2511SOL    HW2 8433   2.244   0.261   4.876
 2512SOL     OW 8434   3.499   5.259   4.418
 2512SOL    HW1 8435   3.466   5.298   4.503
 2512SOL    HW2 8436   3.586   5.213   4.434
 2513SOL     OW 8437   2.178   5.901   5.965
 2513SOL    HW1 8438   2.241   5.974   5.990
 2513SOL    HW2 8439   2.102   5.898   6.029
 2514SOL     OW 8440   1.351   2.878   3.000
 2514SOL    HW1 8441   1.315   2.811   3.065
 2514SOL    HW2 8442   1.284   2.951   2.986
 2515SOL     OW 8443   1.334   1.605   1.506
 2515SOL    HW1 8444   1.391   1.527   1.533
 2515SOL    HW2 8445   1.290   1.585   1.419
 2516SOL     OW 8446   5.752   1.791   3.877
 2516SOL    HW1 8447   5.684   1.756   3.814
 2516SOL    HW2 8448   5.731   1.887   3.899
 2517SOL     OW 8449   1.421   1.569   4.268
 2517SOL    HW1 8450   1.355   1.637   4.299
 2517SOL    HW2 8451   1.463   1.524   4.347
 2518SOL     OW 8452   2.724   4.420   1.207
 2518SOL    HW1 8453   2.653   4.489   1.197
 2518SOL    HW2 8454   2.693   4.349   1.270
 2519SOL     OW 8455   1.122   1.018   0.474
 2519SOL    HW1 8456   1.087   1.036   0.566
 2519SOL    HW2 8457   1.202   0.958   0.480
 2520SOL     OW 8458   2.945   2.484   0.644
 2520SOL    HW1 8459   3.033   2.438   0.651
 2520SOL    HW2 8460   2.960   2.582   0.627
 2521SOL     OW 8461   4.914   1.223   5.374
 2521SOL    HW1 8462   4.894   1.135   5.331
 2521SOL    HW2 8463   5.011   1.226   5.397
 2522SOL     OW 8464   0.531   2.267   6.053
 2522SOL    HW1 8465   0.609   2.258   6.114
 2522SOL    HW2 8466   0.515   2.179   6.007
 2523SOL     OW 8467   2.097   4.991   6.951
 2523SOL    HW1 8468   2.125   4.900   6.980
 2523SOL    HW2 8469   2.141   5.013   6.863
 2524SOL     OW 8470   1.387   6.817   3.953
 2524SOL    HW1 8471   1.350   6.910   3.954
 2524SOL    HW2 8472   1.313   6.751   3.961
 2525SOL     OW 8473   6.676   2.039   4.091
 2525SOL    HW1 8474   6.662   2.042   4.191
 2525SOL    HW2 8475   6.613   1.972   4.052
 2526SOL     OW 8476   0.914   6.422   1.128
 2526SOL    HW1 8477   0.989   6.454   1.070
 2526SOL    HW2 8478   0.856   6.500   1.152
 2527SOL     OW 8479   4.877   4.710   6.577
 2527SOL    HW1 8480   4.804   4.774   6.557
 2527SOL    HW2 8481   4.859   4.665   6.664
 2528SOL     OW 8482   4.690   5.052   6.807
 2528SOL    HW1 8483   4.722   5.147   6.800
 2528SOL    HW2 8484   4.743   5.004   6.877
 2529SOL     OW 8485   0.461   6.654   6.598
 2529SOL    HW1 8486   0.441   6.752   6.595
 2529SOL    HW2 8487   0.398   6.610   6.662
 2530SOL     OW 8488   1.873   5.674   5.917
 2530SOL    HW1 8489   1.912   5.699   6.006
 2530SOL    HW2 8490   1.930   5.712   5.844
 2531SOL     OW 8491   6.060   5.400   5.945
 2531SOL    HW1 8492   5.997   5.415   6.022
 2531SOL    HW2 8493   6.113   5.316   5.961
 2532SOL     OW 8494   6.360   6.552   0.842
 2532SOL    HW1 8495   6.440   6.603   0.872
 2532SOL    HW2 8496   6.383   6.501   0.759
 2533SOL     OW 8497   4.850   0.846   3.392
 2533SOL    HW1 8498   4.854   0.918   3.323
 2533SOL    HW2 8499   4.860   0.757   3.347
 2534SOL     OW 8500   4.691   1.900   2.653
 2534SOL    HW1 8501   4.595   1.874   2.659
 2534SOL    HW2 8502   4.723   1.934   2.741
 2535SOL     OW 8503   3.663   2.980   5.997
 2535SOL    HW1 8504   3.627   3.022   6.080
 2535SOL    HW2 8505   3.599   2.996   5.922
 2536SOL     OW 8506   1.600   0.317   6.824
 2536SOL    HW1 8507   1.601   0.230   6.873
 2536SOL    HW2 8508   1.685   0.367   6.842
 2537SOL     OW 8509   4.296   0.863   6.889
 2537SOL    HW1 8510   4.266   0.857   6.985
 2537SOL    HW2 8511   4.272   0.952   6.852
 2538SOL     OW 8512   0.032   3.502   3.804
 2538SOL    HW1 8513   0.089   3.552   3.739
 2538SOL    HW2 8514   0.086   3.430   3.848
 2539SOL     OW 8515   4.817   1.618   5.302
 2539SOL    HW1 8516   4.777   1.589   5.389
 2539SOL    HW2 8517   4.747   1.612   5.230
 2540SOL     OW 8518   3.492   1.614   2.370
 2540SOL    HW1 8519   3.456   1.546   2.305
 2540SOL    HW2 8520   3.489   1.704   2.329
 2541SOL     OW 8521   3.416   6.371   5.062
 2541SOL    HW1 8522   3.468   6.439   5.113
 2541SOL    HW2 8523   3.319   6.379   5.084
 2542SOL     OW 8524   1.233   4.887   6.270
 2542SOL    HW1 8525   1.300   4.870   6.198
 2542SOL    HW2 8526   1.280   4.914   6.354
 2543SOL     OW 8527   1.864   1.362   4.056
 2543SOL    HW1 8528   1.815   1.284   4.016
 2543SOL    HW2 8529   1.832   1.376   4.150
 2544SOL     OW 8530   0.819   5.273   0.156
 2544SOL    HW1 8531   0.775   5.320   0.233
 2544SOL    HW2 8532   0.778   5.304   0.070
 2545SOL     OW 8533   2.248   6.339   2.852
 2545SOL    HW1 8534   2.231   6.393   2.769
 2545SOL    HW2 8535   2.166   6.289   2.876
 2546SOL     OW 8536   5.831   2.014   0.951
 2546SOL    HW1 8537   5.908   2.061   0.908
 2546SOL    HW2 8538   5.851   1.916   0.958
 2547SOL     OW 8539   0.192   3.535   5.095
 2547SOL    HW1 8540   0.155   3.621   5.059
 2547SOL    HW2 8541   0.116   3.475   5.121
 2548SOL     OW 8542   0.415   5.947   4.040
 2548SOL    HW1 8543   0.433   6.045   4.052
 2548SOL    HW2 8544   0.463   5.914   3.959
 2549SOL     OW 8545   0.635   1.483   0.692
 2549SOL    HW1 8546   0.651   1.385   0.692
 2549SOL    HW2 8547   0.696   1.527   0.627
 2550SOL     OW 8548   5.658   6.290   0.922
 2550SOL    HW1 8549   5.723   6.366   0.932
 2550SOL    HW2 8550   5.704   6.215   0.875
 2551SOL     OW 8551   1.398   4.058   6.583
 2551SOL    HW1 8552   1.374   3.991   6.653
 2551SOL    HW2 8553   1.377   4.020   6.493
 2552SOL     OW 8554   2.373   5.707   3.295
 2552SOL    HW1 8555   2.412   5.619   3.323
 2552SOL    HW2 8556   2.352   5.761   3.377
 2553SOL     OW 8557   4.194   3.525   6.954
 2553SOL    HW1 8558   4.205   3.572   6.867
 2553SOL    HW2 8559   4.284   3.511   6.996
 2554SOL     OW 8560   1.575   1.288   0.307
 2554SOL    HW1 8561   1.595   1.194   0.280
 2554SOL    HW2 8562   1.476   1.300   0.313
 2555SOL     OW 8563   6.202   2.455   6.652
 2555SOL    HW1 8564   6.142   2.493   6.582
 2555SOL    HW2 8565   6.199   2.513   6.733
 2556SOL     OW 8566   3.228   6.108   0.557
 2556SOL    HW1 8567   3.251   6.011   0.543
 2556SOL    HW2 8568   3.213   6.124   0.654
 2557SOL     OW 8569   1.856   4.170   6.937
 2557SOL    HW1 8570   1.952   4.197   6.945
 2557SOL    HW2 8571   1.845   4.106   6.861
 2558SOL     OW 8572   4.571   0.921   5.815
 2558SOL    HW1 8573   4.604   0.835   5.777
 2558SOL    HW2 8574   4.523   0.973   5.744
 2559SOL     OW 8575   0.174   4.669   4.742
 2559SOL    HW1 8576   0.251   4.719   4.704
 2559SOL    HW2 8577   0.107   4.648   4.670
 2560SOL     OW 8578   5.981   1.916   6.263
 2560SOL    HW1 8579   6.066   1.949   6.304
 2560SOL    HW2 8580   5.994   1.904   6.165
 2561SOL     OW 8581   2.936   5.383   4.942
 2561SOL    HW1 8582   2.864   5.360   4.878
 2561SOL    HW2 8583   2.919   5.338   5.030
 2562SOL     OW 8584   1.690   3.864   0.299
 2562SOL    HW1 8585   1.592   3.845   0.291
 2562SOL    HW2 8586   1.713   3.944   0.244
 2563SOL     OW 8587   2.955   1.190   6.939
 2563SOL    HW1 8588   2.956   1.090   6.939
 2563SOL    HW2 8589   2.993   1.224   6.853
 2564SOL     OW 8590   1.577   5.605   1.746
 2564SOL    HW1 8591   1.653   5.576   1.687
 2564SOL    HW2 8592   1.491   5.597   1.695
 2565SOL     OW 8593   1.273   0.855   1.331
 2565SOL    HW1 8594   1.185   0.853   1.286
 2565SOL    HW2 8595   1.260   0.866   1.430
 2566SOL     OW 8596   1.642   6.325   6.965
 2566SOL    HW1 8597   1.601   6.387   6.899
 2566SOL    HW2 8598   1.674   6.376   0.020
 2567SOL     OW 8599   1.401   6.178   0.006
 2567SOL    HW1 8600   1.492   6.216   7.013
 2567SOL    HW2 8601   1.344   6.248   0.048
 2568SOL     OW 8602   4.711   2.596   0.215
 2568SOL    HW1 8603   4.635   2.543   0.253
 2568SOL    HW2 8604   4.784   2.534   0.188
 2569SOL     OW 8605   3.130   0.462   3.559
 2569SOL    HW1 8606   3.061   0.528   3.588
 2569SOL    HW2 8607   3.157   0.482   3.464
 2570SOL     OW 8608   5.307   1.713   6.297
 2570SOL    HW1 8609   5.249   1.758   6.230
 2570SOL    HW2 8610   5.252   1.684   6.375
 2571SOL     OW 8611   1.158   4.599   4.307
 2571SOL    HW1 8612   1.252   4.566   4.291
 2571SOL    HW2 8613   1.094   4.541   4.257
 2572SOL     OW 8614   2.143   4.716   2.852
 2572SOL    HW1 8615   2.184   4.774   2.782
 2572SOL    HW2 8616   2.044   4.717   2.843
 2573SOL     OW 8617   0.714   0.514   1.282
 2573SOL    HW1 8618   0.681   0.563   1.363
 2573SOL    HW2 8619   0.672   0.554   1.200
 2574SOL     OW 8620   6.736   3.405   6.609
 2574SOL    HW1 8621   6.673   3.434   6.681
 2574SOL    HW2 8622   6.829   3.406   6.645
 2575SOL     OW 8623   6.908   5.644   6.003
 2575SOL    HW1 8624   6.937   5.566   6.059
 2575SOL    HW2 8625   6.969   5.654   5.925
 2576SOL     OW 8626   4.787   6.303   4.040
 2576SOL    HW1 8627   4.867   6.249   4.014
 2576SOL    HW2 8628   4.711   6.283   3.978
 2577SOL     OW 8629   2.666   4.757   2.481
 2577SOL    HW1 8630   2.697   4.767   2.387
 2577SOL    HW2 8631   2.725   4.812   2.541
 2578SOL     OW 8632   4.151   1.940   3.643
 2578SOL    HW1 8633   4.093   1.932   3.562
 2578SOL    HW2 8634   4.103   1.904   3.723
 2579SOL     OW 8635   0.986   6.261   3.542
 2579SOL    HW1 8636   0.894   6.240   3.510
 2579SOL    HW2 8637   0.980   6.308   3.630
 2580SOL     OW 8638   2.260   2.899   6.846
 2580SOL    HW1 8639   2.327   2.956   6.798
 2580SOL    HW2 8640   2.193   2.958   6.891
 2581SOL     OW 8641   3.084   6.942   5.179
 2581SOL    HW1 8642   3.026   7.012   5.136
 2581SOL    HW2 8643   3.067   6.942   5.278
 2582SOL     OW 8644   0.626   3.324   1.415
 2582SOL    HW1 8645   0.557   3.375   1.364
 2582SOL    HW2 8646   0.711   3.320   1.362
 2583SOL     OW 8647   6.010   0.065   1.095
 2583SOL    HW1 8648   6.004   0.110   1.006
 2583SOL    HW2 8649   5.938   0.100   1.155
 2584SOL     OW 8650   4.322   4.857   5.190
 2584SOL    HW1 8651   4.390   4.902   5.248
 2584SOL    HW2 8652   4.321   4.900   5.100
 2585SOL     OW 8653   3.157   5.090   6.684
 2585SOL    HW1 8654   3.171   5.150   6.763
 2585SOL    HW2 8655   3.124   5.001   6.716
 2586SOL     OW 8656   2.235   0.581   4.766
 2586SOL    HW1 8657   2.252   0.483   4.753
 2586SOL    HW2 8658   2.291   0.613   4.843
 2587SOL     OW 8659   6.459   1.261   3.550
 2587SOL    HW1 8660   6.401   1.212   3.614
 2587SOL    HW2 8661   6.547   1.215   3.542
 2588SOL     OW 8662   4.584   0.671   5.469
 2588SOL    HW1 8663   4.617   0.730   5.395
 2588SOL    HW2 8664   4.626   0.581   5.461
 2589SOL     OW 8665   1.747   6.765   0.029
 2589SOL    HW1 8666   1.792   6.831   0.089
 2589SOL    HW2 8667   1.763   6.790   6.958
 2590SOL     OW 8668   2.954   5.455   0.679
 2590SOL    HW1 8669   2.865   5.490   0.648
 2590SOL    HW2 8670   2.956   5.453   0.779
 2591SOL     OW 8671   6.053   5.626   3.790
 2591SOL    HW1 8672   5.964   5.607   3.750
 2591SOL    HW2 8673   6.041   5.679   3.874
 2592SOL     OW 8674   2.323   4.704   0.288
 2592SOL    HW1 8675   2.401   4.689   0.227
 2592SOL    HW2 8676   2.271   4.620   0.297
 2593SOL     OW 8677   2.846   3.676   0.570
 2593SOL    HW1 8678   2.760   3.728   0.571
 2593SOL    HW2 8679   2.829   3.583   0.538
 2594SOL     OW 8680   1.654   3.946   4.526
 2594SOL    HW1 8681   1.624   3.869   4.471
 2594SOL    HW2 8682   1.574   3.999   4.557
 2595SOL     OW 8683   1.809   1.123   3.462
 2595SOL    HW1 8684   1.863   1.207   3.464
 2595SOL    HW2 8685   1.866   1.048   3.427
 2596SOL     OW 8686   1.252   2.062   7.017
 2596SOL    HW1 8687   1.181   2.131   7.004
 2596SOL    HW2 8688   1.310   2.087   0.069
 2597SOL     OW 8689   6.788   5.849   6.196
 2597SOL    HW1 8690   6.822   5.941   6.173
 2597SOL    HW2 8691   6.801   5.789   6.117
 2598SOL     OW 8692   5.502   2.804   2.245
 2598SOL    HW1 8693   5.429   2.824   2.180
 2598SOL    HW2 8694   5.547   2.718   2.219
 2599SOL     OW 8695   3.208   6.094   1.900
 2599SOL    HW1 8696   3.172   6.082   1.807
 2599SOL    HW2 8697   3.295   6.045   1.908
 2600SOL     OW 8698   6.065   3.937   4.482
 2600SOL    HW1 8699   6.120   3.908   4.404
 2600SOL    HW2 8700   6.031   4.030   4.466
 2601SOL     OW 8701   0.133   1.846   3.138
 2601SOL    HW1 8702   0.034   1.842   3.129
 2601SOL    HW2 8703   0.166   1.765   3.185
 2602SOL     OW 8704   1.786   4.884   3.957
 2602SOL    HW1 8705   1.833   4.856   4.041
 2602SOL    HW2 8706   1.840   4.955   3.911
 2603SOL     OW 8707   2.840   0.236   2.759
 2603SOL    HW1 8708   2.823   0.140   2.736
 2603SOL    HW2 8709   2.831   0.292   2.677
 2604SOL     OW 8710   4.564   2.400   2.820
 2604SOL    HW1 8711   4.480   2.381   2.769
 2604SOL    HW2 8712   4.609   2.314   2.843
 2605SOL     OW 8713   1.477   3.774   1.890
 2605SOL    HW1 8714   1.560   3.723   1.913
 2605SOL    HW2 8715   1.401   3.711   1.876
 2606SOL     OW 8716   4.484   3.494   1.439
 2606SOL    HW1 8717   4.465   3.501   1.537
 2606SOL    HW2 8718   4.582   3.509   1.424
 2607SOL     OW 8719   2.685   2.037   1.322
 2607SOL    HW1 8720   2.770   2.024   1.271
 2607SOL    HW2 8721   2.619   2.086   1.265
 2608SOL     OW 8722   2.573   5.416   5.379
 2608SOL    HW1 8723   2.658   5.365   5.366
 2608SOL    HW2 8724   2.527   5.384   5.462
 2609SOL     OW 8725   0.255   1.629   0.786
 2609SOL    HW1 8726   0.240   1.727   0.781
 2609SOL    HW2 8727   0.352   1.610   0.798
 2610SOL     OW 8728   1.152   4.612   4.587
 2610SOL    HW1 8729   1.168   4.595   4.489
 2610SOL    HW2 8730   1.080   4.552   4.620
 2611SOL     OW 8731   5.454   6.966   6.547
 2611SOL    HW1 8732   5.425   6.940   6.454
 2611SOL    HW2 8733   5.478   0.038   6.548
 2612SOL     OW 8734   6.345   7.005   5.937
 2612SOL    HW1 8735   6.337   0.076   5.965
 2612SOL    HW2 8736   6.367   7.000   5.840
 2613SOL     OW 8737   0.968   5.875   6.969
 2613SOL    HW1 8738   1.040   5.861   6.901
 2613SOL    HW2 8739   1.004   5.930   0.020
 2614SOL     OW 8740   6.767   1.155   6.316
 2614SOL    HW1 8741   6.683   1.104   6.334
 2614SOL    HW2 8742   6.844   1.091   6.313
 2615SOL     OW 8743   0.767   3.212   0.408
 2615SOL    HW1 8744   0.737   3.215   0.503
 2615SOL    HW2 8745   0.784   3.117   0.382
 2616SOL     OW 8746   1.620   0.494   5.469
 2616SOL    HW1 8747   1.634   0.572   5.408
 2616SOL    HW2 8748   1.532   0.450   5.448
 2617SOL     OW 8749   5.691   0.302   1.502
 2617SOL    HW1 8750   5.771   0.334   1.555
 2617SOL    HW2 8751   5.609   0.347   1.536
 2618SOL     OW 8752   1.046   6.423   6.683
 2618SOL    HW1 8753   0.949   6.429   6.658
 2618SOL    HW2 8754   1.099   6.394   6.603
 2619SOL     OW 8755   4.942   0.948   2.109
 2619SOL    HW1 8756   4.936   1.038   2.068
 2619SOL    HW2 8757   5.031   0.938   2.155
 2620SOL     OW 8758   6.204   1.067   0.989
 2620SOL    HW1 8759   6.153   1.145   0.954
 2620SOL    HW2 8760   6.198   1.066   1.089
 2621SOL     OW 8761   1.483   6.380   1.729
 2621SOL    HW1 8762   1.544   6.360   1.652
 2621SOL    HW2 8763   1.480   6.301   1.790
 2622SOL     OW 8764   3.599   3.276   6.419
 2622SOL    HW1 8765   3.655   3.274   6.337
 2622SOL    HW2 8766   3.656   3.257   6.499
 2623SOL     OW 8767   0.898   6.575   3.537
 2623SOL    HW1 8768   0.974   6.603   3.597
 2623SOL    HW2 8769   0.914   6.481   3.506
 2624SOL     OW 8770   0.364   1.653   5.201
 2624SOL    HW1 8771   0.393   1.688   5.111
 2624SOL    HW2 8772   0.407   1.707   5.273
 2625SOL     OW 8773   2.261   5.185   6.412
 2625SOL    HW1 8774   2.334   5.241   6.451
 2625SOL    HW2 8775   2.199   5.155   6.484
 2626SOL     OW 8776   6.719   5.558   6.898
 2626SOL    HW1 8777   6.705   5.466   6.936
 2626SOL    HW2 8778   6.806   5.595   6.932
 2627SOL     OW 8779   1.775   0.101   5.686
 2627SOL    HW1 8780   1.761   0.040   5.764
 2627SOL    HW2 8781   1.766   0.049   5.601
 2628SOL     OW 8782   0.397   4.583   2.519
 2628SOL    HW1 8783   0.447   4.505   2.482
 2628SOL    HW2 8784   0.452   4.628   2.589
 2629SOL     OW 8785   3.326   3.659   2.655
 2629SOL    HW1 8786   3.345   3.646   2.558
 2629SOL    HW2 8787   3.259   3.591   2.685
 2630SOL     OW 8788   4.004   0.791   3.561
 2630SOL    HW1 8789   4.089   0.754   3.598
 2630SOL    HW2 8790   3.970   0.863   3.622
 2631SOL     OW 8791   6.371   0.323   6.729
 2631SOL    HW1 8792   6.357   0.408   6.678
 2631SOL    HW2 8793   6.318   0.326   6.814
 2632SOL     OW 8794   5.172   4.620   2.304
 2632SOL    HW1 8795   5.114   4.580   2.233
 2632SOL    HW2 8796   5.176   4.720   2.292
 2633SOL     OW 8797   0.305   3.339   6.226
 2633SOL    HW1 8798   0.341   3.253   6.260
 2633SOL    HW2 8799   0.235   3.373   6.289
 2634SOL     OW 8800   0.809   0.697   6.025
 2634SOL    HW1 8801   0.757   0.782   6.028
 2634SOL    HW2 8802   0.747   0.621   6.002
 2635SOL     OW 8803   5.358   5.261   3.243
 2635SOL    HW1 8804   5.433   5.284   3.182
 2635SOL    HW2 8805   5.360   5.320   3.323
 2636SOL     OW 8806   3.745   5.841   5.103
 2636SOL    HW1 8807   3.797   5.836   5.017
 2636SOL    HW2 8808   3.805   5.871   5.176
 2637SOL     OW 8809   1.083   1.428   3.630
 2637SOL    HW1 8810   1.045   1.342   3.596
 2637SOL    HW2 8811   1.048   1.447   3.721
 2638SOL     OW 8812   0.656   6.148   4.393
 2638SOL    HW1 8813   0.730   6.130   4.329
 2638SOL    HW2 8814   0.602   6.226   4.360
 2639SOL     OW 8815   4.026   4.825   5.124
 2639SOL    HW1 8816   3.980   4.853   5.040
 2639SOL    HW2 8817   4.030   4.903   5.187
 2640SOL     OW 8818   1.969   0.000   3.425
 2640SOL    HW1 8819   2.008   0.088   3.396
 2640SOL    HW2 8820   2.029   6.950   3.395
 2641SOL     OW 8821   6.086   2.640   6.818
 2641SOL    HW1 8822   6.064   2.717   6.758
 2641SOL    HW2 8823   6.123   2.674   6.904
 2642SOL     OW 8824   5.897   1.183   3.860
 2642SOL    HW1 8825   5.863   1.111   3.799
 2642SOL    HW2 8826   5.831   1.259   3.860
 2643SOL     OW 8827   2.159   4.726   3.739
 2643SOL    HW1 8828   2.219   4.743   3.817
 2643SOL    HW2 8829   2.211   4.738   3.654
 2644SOL     OW 8830   5.111   5.279   4.406
 2644SOL    HW1 8831   5.087   5.188   4.374
 2644SOL    HW2 8832   5.208   5.297   4.391
 2645SOL     OW 8833   4.742   5.573   3.685
 2645SOL    HW1 8834   4.794   5.559   3.601
 2645SOL    HW2 8835   4.681   5.652   3.673
 2646SOL     OW 8836   0.715   2.672   6.161
 2646SOL    HW1 8837   0.728   2.769   6.142
 2646SOL    HW2 8838   0.759   2.649   6.248
 2647SOL     OW 8839   5.509   0.589   1.801
 2647SOL    HW1 8840   5.538   0.684   1.788
 2647SOL    HW2 8841   5.574   0.542   1.862
 2648SOL     OW 8842   0.945   0.007   6.847
 2648SOL    HW1 8843   0.847   0.023   6.854
 2648SOL    HW2 8844   0.970   7.018   6.751
 2649SOL     OW 8845   4.789   2.097   2.260
 2649SOL    HW1 8846   4.696   2.088   2.225
 2649SOL    HW2 8847   4.816   2.193   2.259
 2650SOL     OW 8848   2.638   5.978   4.264
 2650SOL    HW1 8849   2.635   5.892   4.316
 2650SOL    HW2 8850   2.733   6.007   4.252
 2651SOL     OW 8851   4.169   2.200   4.327
 2651SOL    HW1 8852   4.098   2.224   4.262
 2651SOL    HW2 8853   4.187   2.102   4.323
 2652SOL     OW 8854   5.005   4.082   5.325
 2652SOL    HW1 8855   5.047   4.021   5.258
 2652SOL    HW2 8856   4.916   4.113   5.290
 2653SOL     OW 8857   2.544   5.457   0.407
 2653SOL    HW1 8858   2.462   5.425   0.455
 2653SOL    HW2 8859   2.518   5.521   0.335
 2654SOL     OW 8860   6.550   1.028   7.007
 2654SOL    HW1 8861   6.493   0.946   6.997
 2654SOL    HW2 8862   6.515   1.099   6.946
 2655SOL     OW 8863   4.868   6.327   2.626
 2655SOL    HW1 8864   4.829   6.395   2.564
 2655SOL    HW2 8865   4.953   6.362   2.666
 2656SOL     OW 8866   4.064   6.482   3.183
 2656SOL    HW1 8867   4.155   6.485   3.143
 2656SOL    HW2 8868   4.018   6.569   3.167
 2657SOL     OW 8869   0.780   3.970   0.330
 2657SOL    HW1 8870   0.688   3.998   0.356
 2657SOL    HW2 8871   0.776   3.884   0.280
 2658SOL     OW 8872   3.582   5.116   0.443
 2658SOL    HW1 8873   3.489   5.130   0.408
 2658SOL    HW2 8874   3.639   5.194   0.416
 2659SOL     OW 8875   0.281   1.968   5.011
 2659SOL    HW1 8876   0.227   2.022   5.075
 2659SOL    HW2 8877   0.284   2.013   4.922
 2660SOL     OW 8878   0.481   1.847   1.917
 2660SOL    HW1 8879   0.494   1.901   1.834
 2660SOL    HW2 8880   0.561   1.859   1.976
 2661SOL     OW 8881   1.421   1.267   0.992
 2661SOL    HW1 8882   1.351   1.334   1.017
 2661SOL    HW2 8883   1.400   1.179   1.036
 2662SOL     OW 8884   2.910   1.218   2.056
 2662SOL    HW1 8885   2.936   1.314   2.044
 2662SOL    HW2 8886   2.817   1.204   2.025
 2663SOL     OW 8887   3.875   6.875   0.318
 2663SOL    HW1 8888   3.853   6.851   0.223
 2663SOL    HW2 8889   3.843   6.803   0.379
 2664SOL     OW 8890   4.732   3.740   5.475
 2664SOL    HW1 8891   4.780   3.751   5.562
 2664SOL    HW2 8892   4.674   3.820   5.458
 2665SOL     OW 8893   2.077   3.690   4.781
 2665SOL    HW1 8894   2.101   3.707   4.876
 2665SOL    HW2 8895   2.111   3.600   4.754
 2666SOL     OW 8896   2.120   3.901   2.034
 2666SOL    HW1 8897   2.023   3.882   2.049
 2666SOL    HW2 8898   2.161   3.934   2.120
 2667SOL     OW 8899   0.161   2.992   4.741
 2667SOL    HW1 8900   0.227   2.947   4.802
 2667SOL    HW2 8901   0.140   3.083   4.775
 2668SOL     OW 8902   6.091   0.664   3.528
 2668SOL    HW1 8903   6.174   0.609   3.519
 2668SOL    HW2 8904   6.011   0.603   3.530
 2669SOL     OW 8905   2.521   0.767   0.123
 2669SOL    HW1 8906   2.513   0.708   0.204
 2669SOL    HW2 8907   2.458   0.735   0.053
 2670SOL     OW 8908   0.674   0.144   6.830
 2670SOL    HW1 8909   0.721   0.229   6.855
 2670SOL    HW2 8910   0.646   0.095   6.913
 2671SOL     OW 8911   5.562   4.622   5.825
 2671SOL    HW1 8912   5.620   4.542   5.841
 2671SOL    HW2 8913   5.480   4.616   5.882
 2672SOL     OW 8914   3.370   1.478   2.162
 2672SOL    HW1 8915   3.402   1.492   2.068
 2672SOL    HW2 8916   3.356   1.380   2.179
 2673SOL     OW 8917   3.388   0.433   2.690
 2673SOL    HW1 8918   3.324   0.405   2.761
 2673SOL    HW2 8919   3.371   0.380   2.607
 2674SOL     OW 8920   0.008   5.433   2.846
 2674SOL    HW1 8921   6.973   5.512   2.832
 2674SOL    HW2 8922   0.083   5.435   2.780
 2675SOL     OW 8923   5.316   1.030   4.289
 2675SOL    HW1 8924   5.315   0.935   4.257
 2675SOL    HW2 8925   5.382   1.039   4.363
 2676SOL     OW 8926   4.041   3.873   3.609
 2676SOL    HW1 8927   4.121   3.930   3.627
 2676SOL    HW2 8928   3.983   3.916   3.540
 2677SOL     OW 8929   2.425   5.163   1.036
 2677SOL    HW1 8930   2.484   5.243   1.046
 2677SOL    HW2 8931   2.436   5.104   1.117
 2678SOL     OW 8932   4.271   1.853   3.062
 2678SOL    HW1 8933   4.261   1.864   3.161
 2678SOL    HW2 8934   4.343   1.786   3.043
 2679SOL     OW 8935   2.099   3.341   2.718
 2679SOL    HW1 8936   2.106   3.245   2.747
 2679SOL    HW2 8937   2.096   3.345   2.618
 2680SOL     OW 8938   5.986   1.733   0.040
 2680SOL    HW1 8939   6.040   1.700   0.118
 2680SOL    HW2 8940   5.976   1.833   0.047
 2681SOL     OW 8941   1.852   2.139   4.142
 2681SOL    HW1 8942   1.855   2.212   4.074
 2681SOL    HW2 8943   1.901   2.169   4.224
 2682SOL     OW 8944   3.949   3.952   1.552
 2682SOL    HW1 8945   3.977   3.981   1.644
 2682SOL    HW2 8946   4.027   3.909   1.506
 2683SOL     OW 8947   2.268   4.236   1.983
 2683SOL    HW1 8948   2.311   4.229   2.073
 2683SOL    HW2 8949   2.256   4.144   1.944
 2684SOL     OW 8950   6.788   6.766   4.164
 2684SOL    HW1 8951   6.886   6.765   4.143
 2684SOL    HW2 8952   6.774   6.795   4.259
 2685SOL     OW 8953   0.954   5.776   6.109
 2685SOL    HW1 8954   1.035   5.719   6.116
 2685SOL    HW2 8955   0.934   5.794   6.012
 2686SOL     OW 8956   0.736   1.224   5.615
 2686SOL    HW1 8957   0.645   1.248   5.651
 2686SOL    HW2 8958   0.731   1.136   5.569
 2687SOL     OW 8959   3.985   1.881   1.330
 2687SOL    HW1 8960   4.026   1.870   1.421
 2687SOL    HW2 8961   3.919   1.809   1.314
 2688SOL     OW 8962   4.115   2.596   6.263
 2688SOL    HW1 8963   4.113   2.666   6.334
 2688SOL    HW2 8964   4.056   2.625   6.187
 2689SOL     OW 8965   1.555   4.031   3.172
 2689SOL    HW1 8966   1.501   4.077   3.243
 2689SOL    HW2 8967   1.641   4.080   3.160
 2690SOL     OW 8968   4.524   1.507   5.940
 2690SOL    HW1 8969   4.430   1.520   5.971
 2690SOL    HW2 8970   4.587   1.539   6.011
 2691SOL     OW 8971   6.686   3.730   5.196
 2691SOL    HW1 8972   6.596   3.757   5.161
 2691SOL    HW2 8973   6.673   3.670   5.275
 2692SOL     OW 8974   2.471   6.324   2.084
 2692SOL    HW1 8975   2.507   6.364   2.168
 2692SOL    HW2 8976   2.535   6.254   2.051
 2693SOL     OW 8977   1.264   6.194   3.195
 2693SOL    HW1 8978   1.292   6.172   3.289
 2693SOL    HW2 8979   1.200   6.125   3.162
 2694SOL     OW 8980   2.645   0.479   2.857
 2694SOL    HW1 8981   2.725   0.423   2.838
 2694SOL    HW2 8982   2.670   0.575   2.857
 2695SOL     OW 8983   0.047   5.485   3.731
 2695SOL    HW1 8984   0.118   5.443   3.788
 2695SOL    HW2 8985   6.983   5.447   3.756
 2696SOL     OW 8986   5.445   4.920   5.729
 2696SOL    HW1 8987   5.394   4.875   5.656
 2696SOL    HW2 8988   5.537   4.880   5.735
 2697SOL     OW 8989   4.358   2.503   6.421
 2697SOL    HW1 8990   4.286   2.525   6.487
 2697SOL    HW2 8991   4.327   2.527   6.329
 2698SOL     OW 8992   1.429   5.208   5.843
 2698SOL    HW1 8993   1.383   5.295   5.827
 2698SOL    HW2 8994   1.409   5.176   5.936
 2699SOL     OW 8995   2.863   6.233   2.230
 2699SOL    HW1 8996   2.859   6.146   2.279
 2699SOL    HW2 8997   2.785   6.290   2.256
 2700SOL     OW 8998   3.978   1.969   1.819
 2700SOL    HW1 8999   4.068   1.936   1.845
 2700SOL    HW2 9000   3.959   1.941   1.725
 2701SOL     OW 9001   5.295   3.097   5.196
 2701SOL    HW1 9002   5.262   3.132   5.283
 2701SOL    HW2 9003   5.338   3.171   5.144
 2702SOL     OW 9004   2.843   0.924   4.902
 2702SOL    HW1 9005   2.854   0.976   4.817
 2702SOL    HW2 9006   2.921   0.861   4.913
 2703SOL     OW 9007   2.505   6.920   2.611
 2703SOL    HW1 9008   2.543   6.961   2.527
 2703SOL    HW2 9009   2.410   6.892   2.594
 2704SOL     OW 9010   5.493   0.436   3.583
 2704SOL    HW1 9011   5.499   0.489   3.498
 2704SOL    HW2 9012   5.583   0.430   3.626
 2705SOL     OW 9013   0.644   0.685   5.562
 2705SOL    HW1 9014   0.589   0.682   5.645
 2705SOL    HW2 9015   0.739   0.706   5.585
 2706SOL     OW 9016   6.817   3.922   3.354
 2706SOL    HW1 9017   6.818   3.983   3.433
 2706SOL    HW2 9018   6.811   3.827   3.384
 2707SOL     OW 9019   4.470   1.240   2.778
 2707SOL    HW1 9020   4.437   1.206   2.690
 2707SOL    HW2 9021   4.570   1.246   2.776
 2708SOL     OW 9022   5.501   3.630   6.193
 2708SOL    HW1 9023   5.508   3.655   6.289
 2708SOL    HW2 9024   5.533   3.706   6.136
 2709SOL     OW 9025   5.270   1.534   5.598
 2709SOL    HW1 9026   5.246   1.449   5.552
 2709SOL    HW2 9027   5.203   1.605   5.575
 2710SOL     OW 9028   0.289   2.356   4.605
 2710SOL    HW1 9029   0.198   2.386   4.633
 2710SOL    HW2 9030   0.281   2.287   4.533
 2711SOL     OW 9031   3.690   1.205   1.952
 2711SOL    HW1 9032   3.621   1.220   2.023
 2711SOL    HW2 9033   3.645   1.197   1.863
 2712SOL     OW 9034   3.905   6.113   2.331
 2712SOL    HW1 9035   3.890   6.033   2.274
 2712SOL    HW2 9036   3.959   6.088   2.411
 2713SOL     OW 9037   3.651   4.724   5.479
 2713SOL    HW1 9038   3.553   4.705   5.491
 2713SOL    HW2 9039   3.703   4.641   5.499
 2714SOL     OW 9040   3.171   4.697   6.488
 2714SOL    HW1 9041   3.228   4.630   6.442
 2714SOL    HW2 9042   3.213   4.787   6.484
 2715SOL     OW 9043   4.526   1.107   6.627
 2715SOL    HW1 9044   4.434   1.092   6.590
 2715SOL    HW2 9045   4.576   1.168   6.566
 2716SOL     OW 9046   3.821   1.699   3.096
 2716SOL    HW1 9047   3.865   1.788   3.084
 2716SOL    HW2 9048   3.742   1.708   3.155
 2717SOL     OW 9049   0.546   1.628   2.355
 2717SOL    HW1 9050   0.532   1.701   2.288
 2717SOL    HW2 9051   0.458   1.601   2.394
 2718SOL     OW 9052   0.433   0.700   5.992
 2718SOL    HW1 9053   0.438   0.624   6.057
 2718SOL    HW2 9054   0.390   0.669   5.908
 2719SOL     OW 9055   1.574   4.787   2.823
 2719SOL    HW1 9056   1.568   4.774   2.922
 2719SOL    HW2 9057   1.617   4.875   2.804
 2720SOL     OW 9058   2.179   6.213   6.351
 2720SOL    HW1 9059   2.224   6.269   6.281
 2720SOL    HW2 9060   2.090   6.252   6.373
 2721SOL     OW 9061   2.926   6.436   1.637
 2721SOL    HW1 9062   2.838   6.418   1.680
 2721SOL    HW2 9063   2.988   6.478   1.704
 2722SOL     OW 9064   3.921   5.881   6.717
 2722SOL    HW1 9065   3.891   5.853   6.809
 2722SOL    HW2 9066   3.881   5.820   6.649
 2723SOL     OW 9067   3.188   6.078   6.734
 2723SOL    HW1 9068   3.166   6.108   6.641
 2723SOL    HW2 9069   3.244   5.995   6.730
 2724SOL     OW 9070   0.582   6.528   1.135
 2724SOL    HW1 9071   0.536   6.496   1.218
 2724SOL    HW2 9072   0.679   6.542   1.154
 2725SOL     OW 9073   5.885   4.120   4.698
 2725SOL    HW1 9074   5.898   4.112   4.599
 2725SOL    HW2 9075   5.967   4.160   4.739
 2726SOL     OW 9076   6.081   1.777   2.276
 2726SOL    HW1 9077   6.105   1.872   2.297
 2726SOL    HW2 9078   6.156   1.717   2.303
 2727SOL     OW 9079   1.473   5.420   3.499
 2727SOL    HW1 9080   1.449   5.410   3.595
 2727SOL    HW2 9081   1.408   5.369   3.443
 2728SOL     OW 9082   4.619   5.615   5.620
 2728SOL    HW1 9083   4.588   5.540   5.679
 2728SOL    HW2 9084   4.561   5.621   5.540
 2729SOL     OW 9085   5.486   0.248   6.456
 2729SOL    HW1 9086   5.496   0.252   6.356
 2729SOL    HW2 9087   5.576   0.236   6.498
 2730SOL     OW 9088   1.475   5.862   2.097
 2730SOL    HW1 9089   1.387   5.875   2.142
 2730SOL    HW2 9090   1.485   5.766   2.072
 2731SOL     OW 9091   3.028   3.912   4.213
 2731SOL    HW1 9092   2.961   3.837   4.212
 2731SOL    HW2 9093   3.046   3.938   4.308
 2732SOL     OW 9094   5.555   0.561   2.216
 2732SOL    HW1 9095   5.593   0.572   2.308
 2732SOL    HW2 9096   5.457   0.580   2.218
 2733SOL     OW 9097   1.499   6.518   6.822
 2733SOL    HW1 9098   1.437   6.496   6.898
 2733SOL    HW2 9099   1.463   6.479   6.737
 2734SOL     OW 9100   3.379   6.294   2.417
 2734SOL    HW1 9101   3.456   6.306   2.480
 2734SOL    HW2 9102   3.297   6.337   2.456
 2735SOL     OW 9103   0.458   1.541   1.649
 2735SOL    HW1 9104   0.442   1.606   1.574
 2735SOL    HW2 9105   0.381   1.477   1.654
 2736SOL     OW 9106   4.822   4.501   2.979
 2736SOL    HW1 9107   4.874   4.574   3.024
 2736SOL    HW2 9108   4.883   4.445   2.924
 2737SOL     OW 9109   2.876   0.620   5.246
 2737SOL    HW1 9110   2.828   0.691   5.297
 2737SOL    HW2 9111   2.959   0.659   5.206
 2738SOL     OW 9112   5.140   5.921   1.523
 2738SOL    HW1 9113   5.165   5.825   1.535
 2738SOL    HW2 9114   5.210   5.979   1.564
 2739SOL     OW 9115   6.636   5.507   1.516
 2739SOL    HW1 9116   6.724   5.539   1.479
 2739SOL    HW2 9117   6.563   5.569   1.485
 2740SOL     OW 9118   0.112   6.110   3.513
 2740SOL    HW1 9119   0.104   6.028   3.456
 2740SOL    HW2 9120   0.177   6.094   3.587
 2741SOL     OW 9121   1.757   0.567   5.992
 2741SOL    HW1 9122   1.711   0.478   5.991
 2741SOL    HW2 9123   1.711   0.627   6.057
 2742SOL     OW 9124   2.976   5.408   1.700
 2742SOL    HW1 9125   2.906   5.467   1.740
 2742SOL    HW2 9126   2.955   5.394   1.603
 2743SOL     OW 9127   5.528   1.992   2.207
 2743SOL    HW1 9128   5.522   2.083   2.246
 2743SOL    HW2 9129   5.437   1.961   2.180
 2744SOL     OW 9130   3.344   3.919   2.264
 2744SOL    HW1 9131   3.280   3.953   2.195
 2744SOL    HW2 9132   3.408   3.855   2.222
 2745SOL     OW 9133   0.757   6.590   0.541
 2745SOL    HW1 9134   0.804   6.671   0.577
 2745SOL    HW2 9135   0.775   6.512   0.601
 2746SOL     OW 9136   1.159   1.133   3.828
 2746SOL    HW1 9137   1.137   1.100   3.736
 2746SOL    HW2 9138   1.242   1.189   3.825
 2747SOL     OW 9139   3.839   4.680   0.863
 2747SOL    HW1 9140   3.910   4.726   0.810
 2747SOL    HW2 9141   3.880   4.624   0.934
 2748SOL     OW 9142   4.404   0.230   0.795
 2748SOL    HW1 9143   4.478   0.163   0.794
 2748SOL    HW2 9144   4.443   0.322   0.801
 2749SOL     OW 9145   3.522   2.176   0.482
 2749SOL    HW1 9146   3.562   2.157   0.571
 2749SOL    HW2 9147   3.543   2.271   0.456
 2750SOL     OW 9148   3.162   5.736   2.066
 2750SOL    HW1 9149   3.151   5.684   1.982
 2750SOL    HW2 9150   3.206   5.824   2.045
 2751SOL     OW 9151   5.689   4.896   1.085
 2751SOL    HW1 9152   5.727   4.930   0.999
 2751SOL    HW2 9153   5.685   4.970   1.152
 2752SOL     OW 9154   3.691   5.310   6.836
 2752SOL    HW1 9155   3.755   5.273   6.903
 2752SOL    HW2 9156   3.622   5.241   6.815
 2753SOL     OW 9157   6.043   5.335   5.375
 2753SOL    HW1 9158   6.003   5.427   5.378
 2753SOL    HW2 9159   6.142   5.342   5.365
 2754SOL     OW 9160   1.452   6.611   6.166
 2754SOL    HW1 9161   1.445   6.570   6.257
 2754SOL    HW2 9162   1.361   6.642   6.137
 2755SOL     OW 9163   3.286   0.474   2.285
 2755SOL    HW1 9164   3.255   0.562   2.248
 2755SOL    HW2 9165   3.323   0.488   2.377
 2756SOL     OW 9166   5.192   6.048   0.238
 2756SOL    HW1 9167   5.162   6.002   0.322
 2756SOL    HW2 9168   5.211   5.979   0.168
 2757SOL     OW 9169   0.401   5.101   1.446
 2757SOL    HW1 9170   0.498   5.077   1.437
 2757SOL    HW2 9171   0.352   5.069   1.365
 2758SOL     OW 9172   4.332   0.541   6.336
 2758SOL    HW1 9173   4.314   0.552   6.238
 2758SOL    HW2 9174   4.400   0.468   6.349
 2759SOL     OW 9175   5.083   5.880   4.760
 2759SOL    HW1 9176   5.034   5.800   4.725
 2759SOL    HW2 9177   5.050   5.962   4.714
 2760SOL     OW 9178   2.320   5.702   3.800
 2760SOL    HW1 9179   2.412   5.666   3.811
 2760SOL    HW2 9180   2.259   5.631   3.766
 2761SOL     OW 9181   2.161   5.477   3.284
 2761SOL    HW1 9182   2.224   5.404   3.310
 2761SOL    HW2 9183   2.128   5.461   3.191
 2762SOL     OW 9184   1.445   6.976   5.131
 2762SOL    HW1 9185   1.480   0.044   5.139
 2762SOL    HW2 9186   1.346   6.979   5.114
 2763SOL     OW 9187   5.055   1.937   1.869
 2763SOL    HW1 9188   5.108   1.889   1.939
 2763SOL    HW2 9189   4.959   1.909   1.875
 2764SOL     OW 9190   6.537   1.066   1.849
 2764SOL    HW1 9191   6.450   1.019   1.835
 2764SOL    HW2 9192   6.544   1.096   1.944
 2765SOL     OW 9193   4.971   1.650   2.105
 2765SOL    HW1 9194   5.065   1.661   2.071
 2765SOL    HW2 9195   4.936   1.561   2.077
 2766SOL     OW 9196   6.053   0.589   2.859
 2766SOL    HW1 9197   6.093   0.593   2.768
 2766SOL    HW2 9198   5.992   0.667   2.873
 2767SOL     OW 9199   6.051   4.351   5.745
 2767SOL    HW1 9200   6.101   4.352   5.831
 2767SOL    HW2 9201   6.113   4.327   5.670
 2768SOL     OW 9202   6.332   1.246   6.970
 2768SOL    HW1 9203   6.250   1.304   6.970
 2768SOL    HW2 9204   6.390   1.270   6.892
 2769SOL     OW 9205   1.393   4.253   1.586
 2769SOL    HW1 9206   1.440   4.290   1.506
 2769SOL    HW2 9207   1.297   4.239   1.565
 2770SOL     OW 9208   6.559   5.559   1.000
 2770SOL    HW1 9209   6.626   5.495   1.037
 2770SOL    HW2 9210   6.467   5.531   1.027
 2771SOL     OW 9211   4.930   1.035   1.756
 2771SOL    HW1 9212   4.837   1.071   1.766
 2771SOL    HW2 9213   4.928   0.935   1.754
 2772SOL     OW 9214   3.376   2.717   6.070
 2772SOL    HW1 9215   3.335   2.759   5.989
 2772SOL    HW2 9216   3.349   2.768   6.151
 2773SOL     OW 9217   3.516   4.169   6.553
 2773SOL    HW1 9218   3.558   4.082   6.577
 2773SOL    HW2 9219   3.506   4.174   6.453
 2774SOL     OW 9220   5.760   3.710   2.758
 2774SOL    HW1 9221   5.840   3.669   2.714
 2774SOL    HW2 9222   5.678   3.657   2.735
 2775SOL     OW 9223   0.109   6.144   2.038
 2775SOL    HW1 9224   0.043   6.107   1.971
 2775SOL    HW2 9225   0.096   6.243   2.046
 2776SOL     OW 9226   2.994   5.980   5.858
 2776SOL    HW1 9227   3.041   5.895   5.836
 2776SOL    HW2 9228   3.039   6.056   5.810
 2777SOL     OW 9229   3.673   1.768   2.867
 2777SOL    HW1 9230   3.731   1.744   2.945
 2777SOL    HW2 9231   3.578   1.776   2.898
 2778SOL     OW 9232   2.380   1.494   5.149
 2778SOL    HW1 9233   2.289   1.479   5.187
 2778SOL    HW2 9234   2.390   1.590   5.122
 2779SOL     OW 9235   6.017   0.858   0.056
 2779SOL    HW1 9236   6.090   0.872   0.123
 2779SOL    HW2 9237   5.944   0.803   0.097
 2780SOL     OW 9238   5.110   5.300   0.023
 2780SOL    HW1 9239   5.037   5.365   0.041
 2780SOL    HW2 9240   5.161   5.282   0.108
 2781SOL     OW 9241   4.580   4.538   0.185
 2781SOL    HW1 9242   4.526   4.486   0.252
 2781SOL    HW2 9243   4.523   4.558   0.105
 2782SOL     OW 9244   2.965   2.196   6.550
 2782SOL    HW1 9245   2.937   2.289   6.524
 2782SOL    HW2 9246   3.035   2.202   6.621
 2783SOL     OW 9247   0.284   4.353   5.134
 2783SOL    HW1 9248   0.354   4.318   5.196
 2783SOL    HW2 9249   0.194   4.343   5.176
 2784SOL     OW 9250   2.065   2.121   2.146
 2784SOL    HW1 9251   2.152   2.169   2.158
 2784SOL    HW2 9252   2.025   2.146   2.058
 2785SOL     OW 9253   6.216   1.121   1.284
 2785SOL    HW1 9254   6.182   1.212   1.307
 2785SOL    HW2 9255   6.310   1.111   1.317
 2786SOL     OW 9256   3.964   0.347   1.150
 2786SOL    HW1 9257   3.997   0.289   1.076
 2786SOL    HW2 9258   3.872   0.379   1.129
 2787SOL     OW 9259   2.179   2.239   5.249
 2787SOL    HW1 9260   2.218   2.331   5.262
 2787SOL    HW2 9261   2.250   2.178   5.214
 2788SOL     OW 9262   1.247   3.730   0.725
 2788SOL    HW1 9263   1.158   3.774   0.738
 2788SOL    HW2 9264   1.319   3.800   0.724
 2789SOL     OW 9265   6.822   1.799   4.203
 2789SOL    HW1 9266   6.723   1.796   4.189
 2789SOL    HW2 9267   6.867   1.731   4.145
 2790SOL     OW 9268   3.890   5.673   3.301
 2790SOL    HW1 9269   3.930   5.594   3.254
 2790SOL    HW2 9270   3.950   5.753   3.290
 2791SOL     OW 9271   1.856   2.809   3.702
 2791SOL    HW1 9272   1.779   2.865   3.673
 2791SOL    HW2 9273   1.832   2.712   3.692
 2792SOL     OW 9274   1.187   2.323   5.352
 2792SOL    HW1 9275   1.203   2.271   5.436
 2792SOL    HW2 9276   1.147   2.263   5.283
 2793SOL     OW 9277   5.215   1.263   3.406
 2793SOL    HW1 9278   5.131   1.213   3.426
 2793SOL    HW2 9279   5.229   1.334   3.475
 2794SOL     OW 9280   1.044   0.827   1.203
 2794SOL    HW1 9281   1.067   0.877   1.120
 2794SOL    HW2 9282   0.946   0.809   1.205
 2795SOL     OW 9283   2.268   4.007   1.831
 2795SOL    HW1 9284   2.334   3.942   1.792
 2795SOL    HW2 9285   2.216   3.961   1.904
 2796SOL     OW 9286   4.910   4.282   2.708
 2796SOL    HW1 9287   4.911   4.236   2.619
 2796SOL    HW2 9288   4.890   4.379   2.696
 2797SOL     OW 9289   4.494   4.568   4.790
 2797SOL    HW1 9290   4.567   4.636   4.793
 2797SOL    HW2 9291   4.435   4.579   4.870
 2798SOL     OW 9292   1.474   3.894   4.110
 2798SOL    HW1 9293   1.400   3.892   4.177
 2798SOL    HW2 9294   1.446   3.844   4.028
 2799SOL     OW 9295   6.558   5.010   5.922
 2799SOL    HW1 9296   6.495   4.940   5.889
 2799SOL    HW2 9297   6.551   5.016   6.022
 2800SOL     OW 9298   2.848   3.388   6.706
 2800SOL    HW1 9299   2.787   3.439   6.767
 2800SOL    HW2 9300   2.942   3.418   6.720
 2801SOL     OW 9301   4.788   5.583   2.657
 2801SOL    HW1 9302   4.801   5.566   2.560
 2801SOL    HW2 9303   4.692   5.606   2.674
 2802SOL     OW 9304   5.192   1.057   6.026
 2802SOL    HW1 9305   5.163   1.071   6.121
 2802SOL    HW2 9306   5.198   0.959   6.007
 2803SOL     OW 9307   2.130   5.813   6.340
 2803SOL    HW1 9308   2.205   5.879   6.335
 2803SOL    HW2 9309   2.119   5.783   6.435
 2804SOL     OW 9310   0.301   4.140   2.766
 2804SOL    HW1 9311   0.316   4.235   2.791
 2804SOL    HW2 9312   0.214   4.132   2.717
 2805SOL     OW 9313   5.577   3.932   0.090
 2805SOL    HW1 9314   5.581   4.019   0.139
 2805SOL    HW2 9315   5.670   3.902   0.068
 2806SOL     OW 9316   6.699   5.981   3.454
 2806SOL    HW1 9317   6.679   6.021   3.544
 2806SOL    HW2 9318   6.690   6.052   3.384
 2807SOL     OW 9319   4.305   4.968   3.631
 2807SOL    HW1 9320   4.215   5.002   3.605
 2807SOL    HW2 9321   4.298   4.872   3.657
 2808SOL     OW 9322   4.861   0.032   4.055
 2808SOL    HW1 9323   4.821   0.008   3.966
 2808SOL    HW2 9324   4.872   6.974   4.110
 2809SOL     OW 9325   5.297   3.144   0.645
 2809SOL    HW1 9326   5.369   3.081   0.672
 2809SOL    HW2 9327   5.328   3.238   0.657
 2810SOL     OW 9328   1.627   0.199   5.258
 2810SOL    HW1 9329   1.649   0.270   5.191
 2810SOL    HW2 9330   1.550   0.229   5.314
 2811SOL     OW 9331   0.145   0.742   3.658
 2811SOL    HW1 9332   0.236   0.706   3.638
 2811SOL    HW2 9333   0.128   0.821   3.599
 2812SOL     OW 9334   4.988   3.823   2.493
 2812SOL    HW1 9335   5.055   3.882   2.449
 2812SOL    HW2 9336   5.035   3.749   2.540
 2813SOL     OW 9337   6.073   1.322   6.164
 2813SOL    HW1 9338   6.132   1.337   6.085
 2813SOL    HW2 9339   6.078   1.400   6.226
 2814SOL     OW 9340   5.210   3.920   5.121
 2814SOL    HW1 9341   5.272   3.983   5.074
 2814SOL    HW2 9342   5.159   3.867   5.054
 2815SOL     OW 9343   0.350   0.898   5.621
 2815SOL    HW1 9344   0.401   0.933   5.699
 2815SOL    HW2 9345   0.344   0.798   5.627
 2816SOL     OW 9346   5.704   0.100   3.106
 2816SOL    HW1 9347   5.659   0.160   3.171
 2816SOL    HW2 9348   5.752   0.027   3.155
 2817SOL     OW 9349   1.173   2.252   1.233
 2817SOL    HW1 9350   1.240   2.279   1.303
 2817SOL    HW2 9351   1.082   2.278   1.263
 2818SOL     OW 9352   0.035   4.684   5.361
 2818SOL    HW1 9353   0.100   4.757   5.384
 2818SOL    HW2 9354   0.033   4.672   5.261
 2819SOL     OW 9355   6.877   2.714   0.335
 2819SOL    HW1 9356   6.792   2.690   0.381
 2819SOL    HW2 9357   6.954   2.700   0.397
 2820SOL     OW 9358   6.542   3.082   4.577
 2820SOL    HW1 9359   6.606   3.005   4.568
 2820SOL    HW2 9360   6.591   3.161   4.613
 2821SOL     OW 9361   1.525   3.394   4.172
 2821SOL    HW1 9362   1.427   3.412   4.175
 2821SOL    HW2 9363   1.547   3.319   4.234
 2822SOL     OW 9364   3.701   1.694   0.068
 2822SOL    HW1 9365   3.723   1.743   0.153
 2822SOL    HW2 9366   3.659   1.756   0.003
 2823SOL     OW 9367   1.528   6.572   3.434
 2823SOL    HW1 9368   1.499   6.579   3.530
 2823SOL    HW2 9369   1.625   6.596   3.427
 2824SOL     OW 9370   3.154   1.569   4.657
 2824SOL    HW1 9371   3.221   1.641   4.671
 2824SOL    HW2 9372   3.070   1.608   4.619
 2825SOL     OW 9373   6.316   5.786   0.837
 2825SOL    HW1 9374   6.319   5.844   0.756
 2825SOL    HW2 9375   6.229   5.800   0.885
 2826SOL     OW 9376   4.691   2.031   4.349
 2826SOL    HW1 9377   4.622   1.959   4.355
 2826SOL    HW2 9378   4.777   1.992   4.315
 2827SOL     OW 9379   5.986   0.531   5.459
 2827SOL    HW1 9380   5.948   0.592   5.529
 2827SOL    HW2 9381   5.933   0.446   5.456
 2828SOL     OW 9382   3.785   1.465   5.647
 2828SOL    HW1 9383   3.753   1.446   5.555
 2828SOL    HW2 9384   3.810   1.562   5.655
 2829SOL     OW 9385   2.010   6.372   6.838
 2829SOL    HW1 9386   1.981   6.276   6.837
 2829SOL    HW2 9387   2.104   6.377   6.871
 2830SOL     OW 9388   3.558   3.482   6.896
 2830SOL    HW1 9389   3.531   3.386   6.905
 2830SOL    HW2 9390   3.634   3.501   6.958
 2831SOL     OW 9391   5.996   5.839   4.422
 2831SOL    HW1 9392   6.071   5.903   4.407
 2831SOL    HW2 9393   6.014   5.785   4.504
 2832SOL     OW 9394   0.334   1.103   1.860
 2832SOL    HW1 9395   0.286   1.023   1.896
 2832SOL    HW2 9396   0.303   1.121   1.767
 2833SOL     OW 9397   6.105   2.859   1.605
 2833SOL    HW1 9398   6.110   2.906   1.517
 2833SOL    HW2 9399   6.017   2.878   1.648
 2834SOL     OW 9400   3.581   0.962   5.460
 2834SOL    HW1 9401   3.527   0.880   5.479
 2834SOL    HW2 9402   3.532   1.042   5.494
 2835SOL     OW 9403   0.824   6.262   2.310
 2835SOL    HW1 9404   0.884   6.259   2.231
 2835SOL    HW2 9405   0.787   6.354   2.322
 2836SOL     OW 9406   6.785   0.968   0.992
 2836SOL    HW1 9407   6.800   1.035   0.920
 2836SOL    HW2 9408   6.793   0.875   0.954
 2837SOL     OW 9409   5.928   3.045   3.674
 2837SOL    HW1 9410   5.958   3.045   3.578
 2837SOL    HW2 9411   6.002   3.011   3.732
 2838SOL     OW 9412   2.990   5.007   2.957
 2838SOL    HW1 9413   3.075   5.049   2.989
 2838SOL    HW2 9414   2.956   4.943   3.025
 2839SOL     OW 9415   4.909   1.897   0.435
 2839SOL    HW1 9416   4.939   1.802   0.449
 2839SOL    HW2 9417   4.865   1.930   0.518
 2840SOL     OW 9418   6.897   1.930   5.614
 2840SOL    HW1 9419   6.834   1.911   5.689
 2840SOL    HW2 9420   6.846   1.968   5.536
 2841SOL     OW 9421   0.853   5.904   1.467
 2841SOL    HW1 9422   0.916   5.882   1.542
 2841SOL    HW2 9423   0.822   5.999   1.476
 2842SOL     OW 9424   6.520   3.213   3.357
 2842SOL    HW1 9425   6.426   3.237   3.382
 2842SOL    HW2 9426   6.519   3.143   3.286
 2843SOL     OW 9427   4.121   1.705   5.075
 2843SOL    HW1 9428   4.148   1.635   5.140
 2843SOL    HW2 9429   4.200   1.728   5.017
 2844SOL     OW 9430   6.681   3.889   6.050
 2844SOL    HW1 9431   6.586   3.915   6.033
 2844SOL    HW2 9432   6.742   3.952   6.003
 2845SOL     OW 9433   6.408   3.950   5.563
 2845SOL    HW1 9434   6.349   3.966   5.642
 2845SOL    HW2 9435   6.478   4.021   5.558
 2846SOL     OW 9436   4.784   1.905   6.382
 2846SOL    HW1 9437   4.772   1.949   6.293
 2846SOL    HW2 9438   4.808   1.809   6.368
 2847SOL     OW 9439   5.293   4.611   4.142
 2847SOL    HW1 9440   5.356   4.648   4.210
 2847SOL    HW2 9441   5.232   4.683   4.111
 2848SOL     OW 9442   0.862   5.443   4.439
 2848SOL    HW1 9443   0.886   5.348   4.417
 2848SOL    HW2 9444   0.920   5.476   4.513
 2849SOL     OW 9445   2.475   2.777   1.262
 2849SOL    HW1 9446   2.459   2.767   1.360
 2849SOL    HW2 9447   2.523   2.862   1.244
 2850SOL     OW 9448   3.976   0.975   0.102
 2850SOL    HW1 9449   4.067   0.959   0.140
 2850SOL    HW2 9450   3.964   1.073   0.084
 2851SOL     OW 9451   1.967   4.524   6.148
 2851SOL    HW1 9452   1.919   4.524   6.236
 2851SOL    HW2 9453   2.051   4.578   6.156
 2852SOL     OW 9454   0.401   3.624   6.286
 2852SOL    HW1 9455   0.347   3.663   6.361
 2852SOL    HW2 9456   0.353   3.545   6.247
 2853SOL     OW 9457   3.038   3.938   1.390
 2853SOL    HW1 9458   2.955   3.882   1.392
 2853SOL    HW2 9459   3.110   3.892   1.442
 2854SOL     OW 9460   2.224   1.702   3.856
 2854SOL    HW1 9461   2.208   1.713   3.954
 2854SOL    HW2 9462   2.144   1.659   3.814
 2855SOL     OW 9463   3.120   0.749   5.174
 2855SOL    HW1 9464   3.180   0.792   5.241
 2855SOL    HW2 9465   3.160   0.757   5.083
 2856SOL     OW 9466   2.547   2.500   4.959
 2856SOL    HW1 9467   2.634   2.459   4.934
 2856SOL    HW2 9468   2.507   2.450   5.036
 2857SOL     OW 9469   3.348   3.283   2.109
 2857SOL    HW1 9470   3.401   3.327   2.181
 2857SOL    HW2 9471   3.279   3.347   2.074
 2858SOL     OW 9472   6.081   3.389   2.789
 2858SOL    HW1 9473   6.158   3.406   2.727
 2858SOL    HW2 9474   6.087   3.295   2.823
 2859SOL     OW 9475   6.194   6.662   0.577
 2859SOL    HW1 9476   6.250   6.736   0.614
 2859SOL    HW2 9477   6.104   6.664   0.620
 2860SOL     OW 9478   3.942   1.048   1.936
 2860SOL    HW1 9479   3.941   1.075   1.840
 2860SOL    HW2 9480   3.888   1.113   1.990
 2861SOL     OW 9481   3.744   6.176   5.288
 2861SOL    HW1 9482   3.654   6.168   5.243
 2861SOL    HW2 9483   3.768   6.089   5.330
 2862SOL     OW 9484   5.559   1.057   4.450
 2862SOL    HW1 9485   5.601   0.968   4.434
 2862SOL    HW2 9486   5.624   1.130   4.427
 2863SOL     OW 9487   6.305   2.048   6.405
 2863SOL    HW1 9488   6.381   2.103   6.371
 2863SOL    HW2 9489   6.247   2.104   6.464
 2864SOL     OW 9490   3.571   1.442   6.823
 2864SOL    HW1 9491   3.625   1.436   6.906
 2864SOL    HW2 9492   3.488   1.387   6.832
 2865SOL     OW 9493   4.659   4.826   4.809
 2865SOL    HW1 9494   4.698   4.914   4.780
 2865SOL    HW2 9495   4.733   4.764   4.835
 2866SOL     OW 9496   0.197   6.503   6.719
 2866SOL    HW1 9497   0.186   6.483   6.816
 2866SOL    HW2 9498   0.107   6.523   6.679
 2867SOL     OW 9499   6.681   4.492   3.768
 2867SOL    HW1 9500   6.744   4.569   3.758
 2867SOL    HW2 9501   6.622   4.507   3.847
 2868SOL     OW 9502   1.725   4.025   5.698
 2868SOL    HW1 9503   1.818   4.060   5.701
 2868SOL    HW2 9504   1.670   4.080   5.636
 2869SOL     OW 9505   6.318   1.356   2.398
 2869SOL    HW1 9506   6.368   1.277   2.433
 2869SOL    HW2 9507   6.305   1.346   2.299
 2870SOL     OW 9508   5.382   1.396   2.471
 2870SOL    HW1 9509   5.469   1.437   2.445
 2870SOL    HW2 9510   5.307   1.443   2.425
 2871SOL     OW 9511   1.807   1.940   6.020
 2871SOL    HW1 9512   1.842   2.029   5.992
 2871SOL    HW2 9513   1.709   1.935   6.001
 2872SOL     OW 9514   2.731   6.874   3.480
 2872SOL    HW1 9515   2.758   6.946   3.545
 2872SOL    HW2 9516   2.721   6.787   3.529
 2873SOL     OW 9517   6.929   5.173   1.458
 2873SOL    HW1 9518   6.955   5.209   1.548
 2873SOL    HW2 9519   6.965   5.234   1.387
 2874SOL     OW 9520   5.474   2.252   2.304
 2874SOL    HW1 9521   5.480   2.313   2.382
 2874SOL    HW2 9522   5.380   2.251   2.270
 2875SOL     OW 9523   3.355   4.905   0.054
 2875SOL    HW1 9524   3.269   4.942   0.090
 2875SOL    HW2 9525   3.359   4.806   0.072
 2876SOL     OW 9526   0.135   1.404   2.055
 2876SOL    HW1 9527   0.209   1.337   2.042
 2876SOL    HW2 9528   0.106   1.439   1.966
 2877SOL     OW 9529   2.947   2.821   5.890
 2877SOL    HW1 9530   2.884   2.782   5.958
 2877SOL    HW2 9531   2.906   2.904   5.852
 2878SOL     OW 9532   2.903   4.595   6.607
 2878SOL    HW1 9533   2.978   4.647   6.566
 2878SOL    HW2 9534   2.883   4.515   6.551
 2879SOL     OW 9535   5.213   4.976   0.119
 2879SOL    HW1 9536   5.239   5.042   0.189
 2879SOL    HW2 9537   5.295   4.937   0.077
 2880SOL     OW 9538   1.177   5.976   1.400
 2880SOL    HW1 9539   1.174   5.921   1.317
 2880SOL    HW2 9540   1.187   6.073   1.376
 2881SOL     OW 9541   0.010   0.041   0.775
 2881SOL    HW1 9542   6.954   7.007   0.759
 2881SOL    HW2 9543   7.009   0.116   0.837
 2882SOL     OW 9544   6.840   2.850   3.325
 2882SOL    HW1 9545   6.828   2.922   3.257
 2882SOL    HW2 9546   6.756   2.796   3.332
 2883SOL     OW 9547   4.012   6.827   2.305
 2883SOL    HW1 9548   4.078   6.901   2.312
 2883SOL    HW2 9549   3.995   6.789   2.396
 2884SOL     OW 9550   1.283   6.072   2.886
 2884SOL    HW1 9551   1.284   6.164   2.847
 2884SOL    HW2 9552   1.375   6.049   2.918
 2885SOL     OW 9553   0.663   2.397   3.127
 2885SOL    HW1 9554   0.647   2.407   3.029
 2885SOL    HW2 9555   0.646   2.302   3.154
 2886SOL     OW 9556   2.214   2.304   5.810
 2886SOL    HW1 9557   2.264   2.233   5.860
 2886SOL    HW2 9558   2.200   2.275   5.716
 2887SOL     OW 9559   1.728   0.707   5.017
 2887SOL    HW1 9560   1.819   0.676   4.987
 2887SOL    HW2 9561   1.682   0.753   4.941
 2888SOL     OW 9562   6.239   5.103   6.970
 2888SOL    HW1 9563   6.208   5.070   0.035
 2888SOL    HW2 9564   6.325   5.059   6.947
 2889SOL     OW 9565   0.107   7.004   1.982
 2889SOL    HW1 9566   0.179   7.022   1.916
 2889SOL    HW2 9567   0.136   6.930   2.043
 2890SOL     OW 9568   4.250   0.311   1.464
 2890SOL    HW1 9569   4.152   0.317   1.443
 2890SOL    HW2 9570   4.300   0.294   1.379
 2891SOL     OW 9571   2.436   5.005   3.893
 2891SOL    HW1 9572   2.428   4.906   3.883
 2891SOL    HW2 9573   2.524   5.035   3.856
 2892SOL     OW 9574   4.783   4.025   5.838
 2892SOL    HW1 9575   4.771   3.931   5.806
 2892SOL    HW2 9576   4.851   4.027   5.912
 2893SOL     OW 9577   2.248   0.151   5.480
 2893SOL    HW1 9578   2.176   0.142   5.548
 2893SOL    HW2 9579   2.334   0.114   5.518
 2894SOL     OW 9580   3.661   3.150   0.221
 2894SOL    HW1 9581   3.693   3.056   0.231
 2894SOL    HW2 9582   3.735   3.214   0.242
 2895SOL     OW 9583   3.530   3.669   6.429
 2895SOL    HW1 9584   3.465   3.648   6.501
 2895SOL    HW2 9585   3.606   3.604   6.432
 2896SOL     OW 9586   2.863   5.054   1.287
 2896SOL    HW1 9587   2.816   4.969   1.308
 2896SOL    HW2 9588   2.943   5.035   1.230
 2897SOL     OW 9589   2.157   6.426   3.695
 2897SOL    HW1 9590   2.093   6.357   3.726
 2897SOL    HW2 9591   2.146   6.509   3.749
 2898SOL     OW 9592   3.003   5.443   2.140
 2898SOL    HW1 9593   2.952   5.378   2.084
 2898SOL    HW2 9594   3.049   5.509   2.080
 2899SOL     OW 9595   0.047   6.736   6.959
 2899SOL    HW1 9596   0.026   6.677   6.881
 2899SOL    HW2 9597   6.988   6.783   6.988
 2900SOL     OW 9598   1.739   5.321   5.561
 2900SOL    HW1 9599   1.646   5.299   5.530
 2900SOL    HW2 9600   1.736   5.350   5.657
 2901SOL     OW 9601   2.896   1.272   1.681
 2901SOL    HW1 9602   2.969   1.340   1.682
 2901SOL    HW2 9603   2.807   1.317   1.693
 2902SOL     OW 9604   5.551   5.966   1.717
 2902SOL    HW1 9605   5.617   5.898   1.684
 2902SOL    HW2 9606   5.549   6.043   1.654
 2903SOL     OW 9607   2.582   2.038   2.016
 2903SOL    HW1 9608   2.538   1.979   2.083
 2903SOL    HW2 9609   2.548   2.016   1.925
 2904SOL     OW 9610   1.800   2.930   4.644
 2904SOL    HW1 9611   1.848   2.845   4.663
 2904SOL    HW2 9612   1.754   2.923   4.555
 2905SOL     OW 9613   1.893   2.639   1.758
 2905SOL    HW1 9614   1.908   2.725   1.807
 2905SOL    HW2 9615   1.953   2.569   1.796
 2906SOL     OW 9616   5.695   5.688   2.094
 2906SOL    HW1 9617   5.792   5.672   2.075
 2906SOL    HW2 9618   5.681   5.701   2.192
 2907SOL     OW 9619   6.255   1.357   4.148
 2907SOL    HW1 9620   6.298   1.301   4.077
 2907SOL    HW2 9621   6.156   1.360   4.133
 2908SOL     OW 9622   3.973   6.369   4.844
 2908SOL    HW1 9623   3.923   6.302   4.899
 2908SOL    HW2 9624   4.067   6.374   4.876
 2909SOL     OW 9625   1.401   5.989   4.922
 2909SOL    HW1 9626   1.410   6.074   4.870
 2909SOL    HW2 9627   1.492   5.949   4.936
 2910SOL     OW 9628   5.791   6.381   6.297
 2910SOL    HW1 9629   5.752   6.443   6.365
 2910SOL    HW2 9630   5.890   6.374   6.310
 2911SOL     OW 9631   1.946   4.186   3.336
 2911SOL    HW1 9632   2.019   4.198   3.268
 2911SOL    HW2 9633   1.974   4.120   3.404
 2912SOL     OW 9634   2.560   5.813   0.626
 2912SOL    HW1 9635   2.529   5.857   0.542
 2912SOL    HW2 9636   2.488   5.818   0.695
 2913SOL     OW 9637   1.509   3.616   3.069
 2913SOL    HW1 9638   1.467   3.663   3.147
 2913SOL    HW2 9639   1.533   3.523   3.096
 2914SOL     OW 9640   5.707   5.584   5.994
 2914SOL    HW1 9641   5.767   5.510   6.023
 2914SOL    HW2 9642   5.616   5.571   6.034
 2915SOL     OW 9643   4.598   1.217   4.221
 2915SOL    HW1 9644   4.631   1.240   4.129
 2915SOL    HW2 9645   4.555   1.127   4.218
 2916SOL     OW 9646   5.435   5.689   4.474
 2916SOL    HW1 9647   5.358   5.723   4.418
 2916SOL    HW2 9648   5.423   5.591   4.490
 2917SOL     OW 9649   4.459   0.340   2.506
 2917SOL    HW1 9650   4.493   0.433   2.493
 2917SOL    HW2 9651   4.373   0.342   2.556
 2918SOL     OW 9652   0.003   4.144   3.416
 2918SOL    HW1 9653   6.947   4.197   3.443
 2918SOL    HW2 9654   0.013   4.065   3.477
 2919SOL     OW 9655   6.389   5.815   0.315
 2919SOL    HW1 9656   6.332   5.868   0.378
 2919SOL    HW2 9657   6.450   5.876   0.265
 2920SOL     OW 9658   4.276   2.195   3.459
 2920SOL    HW1 9659   4.284   2.262   3.385
 2920SOL    HW2 9660   4.189   2.209   3.507
 2921SOL     OW 9661   0.789   7.019   1.995
 2921SOL    HW1 9662   0.861   7.000   2.062
 2921SOL    HW2 9663   0.754   6.933   1.959
 2922SOL     OW 9664   4.397   6.243   5.311
 2922SOL    HW1 9665   4.326   6.215   5.376
 2922SOL    HW2 9666   4.376   6.335   5.277
 2923SOL     OW 9667   6.574   4.692   2.051
 2923SOL    HW1 9668   6.513   4.711   1.974
 2923SOL    HW2 9669   6.528   4.631   2.116
 2924SOL     OW 9670   6.917   0.975   5.352
 2924SOL    HW1 9671   6.998   0.973   5.409
 2924SOL    HW2 9672   6.941   1.011   5.261
 2925SOL     OW 9673   5.440   4.046   1.330
 2925SOL    HW1 9674   5.517   3.992   1.297
 2925SOL    HW2 9675   5.473   4.114   1.397
 2926SOL     OW 9676   0.133   1.332   4.622
 2926SOL    HW1 9677   0.202   1.403   4.629
 2926SOL    HW2 9678   0.120   1.307   4.526
 2927SOL     OW 9679   0.632   2.417   2.850
 2927SOL    HW1 9680   0.575   2.496   2.870
 2927SOL    HW2 9681   0.598   2.370   2.769
 2928SOL     OW 9682   6.486   6.341   0.662
 2928SOL    HW1 9683   6.494   6.287   0.746
 2928SOL    HW2 9684   6.557   6.312   0.597
 2929SOL     OW 9685   0.918   6.529   6.431
 2929SOL    HW1 9686   0.884   6.619   6.458
 2929SOL    HW2 9687   0.842   6.475   6.394
 2930SOL     OW 9688   3.698   6.528   4.915
 2930SOL    HW1 9689   3.783   6.479   4.893
 2930SOL    HW2 9690   3.669   6.504   5.007
 2931SOL     OW 9691   3.973   6.350   5.673
 2931SOL    HW1 9692   3.945   6.444   5.652
 2931SOL    HW2 9693   4.000   6.343   5.768
 2932SOL     OW 9694   1.079   4.884   1.570
 2932SOL    HW1 9695   1.076   4.785   1.558
 2932SOL    HW2 9696   0.989   4.923   1.548
 2933SOL     OW 9697   4.920   1.890   3.141
 2933SOL    HW1 9698   4.953   1.821   3.206
 2933SOL    HW2 9699   4.958   1.979   3.166
 2934SOL     OW 9700   2.545   0.589   0.303
 2934SOL    HW1 9701   2.627   0.571   0.250
 2934SOL    HW2 9702   2.512   0.504   0.344
 2935SOL     OW 9703   6.082   2.614   1.289
 2935SOL    HW1 9704   6.056   2.525   1.329
 2935SOL    HW2 9705   6.018   2.637   1.216
 2936SOL     OW 9706   4.605   5.927   0.492
 2936SOL    HW1 9707   4.524   5.978   0.520
 2936SOL    HW2 9708   4.621   5.939   0.394
 2937SOL     OW 9709   3.210   4.460   0.281
 2937SOL    HW1 9710   3.204   4.534   0.348
 2937SOL    HW2 9711   3.119   4.440   0.245
 2938SOL     OW 9712   4.860   5.628   5.495
 2938SOL    HW1 9713   4.848   5.657   5.400
 2938SOL    HW2 9714   4.770   5.620   5.539
 2939SOL     OW 9715   0.656   6.338   5.912
 2939SOL    HW1 9716   0.664   6.239   5.924
 2939SOL    HW2 9717   0.724   6.371   5.847
 2940SOL     OW 9718   4.535   6.655   5.610
 2940SOL    HW1 9719   4.632   6.643   5.634
 2940SOL    HW2 9720   4.485   6.692   5.689
 2941SOL     OW 9721   2.032   1.743   5.344
 2941SOL    HW1 9722   2.071   1.751   5.435
 2941SOL    HW2 9723   2.017   1.646   5.323
 2942SOL     OW 9724   3.550   6.017   3.787
 2942SOL    HW1 9725   3.612   6.090   3.815
 2942SOL    HW2 9726   3.596   5.958   3.721
 2943SOL     OW 9727   6.041   3.624   3.612
 2943SOL    HW1 9728   6.119   3.603   3.670
 2943SOL    HW2 9729   6.022   3.722   3.614
 2944SOL     OW 9730   4.172   5.657   6.347
 2944SOL    HW1 9731   4.221   5.676   6.262
 2944SOL    HW2 9732   4.080   5.623   6.325
 2945SOL     OW 9733   3.065   3.162   3.211
 2945SOL    HW1 9734   2.969   3.181   3.232
 2945SOL    HW2 9735   3.117   3.247   3.208
 2946SOL     OW 9736   6.627   5.897   6.433
 2946SOL    HW1 9737   6.672   5.959   6.497
 2946SOL    HW2 9738   6.686   5.881   6.355
 2947SOL     OW 9739   6.606   4.688   0.289
 2947SOL    HW1 9740   6.558   4.620   0.234
 2947SOL    HW2 9741   6.678   4.731   0.235
 2948SOL     OW 9742   6.096   4.468   4.843
 2948SOL    HW1 9743   6.012   4.465   4.788
 2948SOL    HW2 9744   6.122   4.564   4.858
 2949SOL     OW 9745   1.497   0.095   0.536
 2949SOL    HW1 9746   1.489   7.020   0.532
 2949SOL    HW2 9747   1.563   0.121   0.607
 2950SOL     OW 9748   4.894   3.509   4.470
 2950SOL    HW1 9749   4.923   3.468   4.557
 2950SOL    HW2 9750   4.928   3.603   4.465
 2951SOL     OW 9751   6.808   1.518   1.284
 2951SOL    HW1 9752   6.859   1.554   1.206
 2951SOL    HW2 9753   6.825   1.420   1.292
 2952SOL     OW 9754   1.758   3.710   2.224
 2952SOL    HW1 9755   1.835   3.756   2.267
 2952SOL    HW2 9756   1.790   3.660   2.144
 2953SOL     OW 9757   4.687   1.194   2.426
 2953SOL    HW1 9758   4.709   1.226   2.518
 2953SOL    HW2 9759   4.672   1.096   2.427
 2954SOL     OW 9760   5.957   6.594   2.046
 2954SOL    HW1 9761   6.028   6.523   2.049
 2954SOL    HW2 9762   6.000   6.684   2.049
 2955SOL     OW 9763   6.985   3.035   0.696
 2955SOL    HW1 9764   0.018   3.030   0.778
 2955SOL    HW2 9765   0.016   3.056   0.616
 2956SOL     OW 9766   6.592   5.774   2.528
 2956SOL    HW1 9767   6.585   5.789   2.627
 2956SOL    HW2 9768   6.666   5.710   2.510
 2957SOL     OW 9769   0.910   3.805   1.567
 2957SOL    HW1 9770   0.886   3.712   1.592
 2957SOL    HW2 9771   0.979   3.804   1.495
 2958SOL     OW 9772   2.371   4.980   5.946
 2958SOL    HW1 9773   2.312   4.907   5.913
 2958SOL    HW2 9774   2.374   4.977   6.046
 2959SOL     OW 9775   3.814   5.413   6.579
 2959SOL    HW1 9776   3.771   5.407   6.669
 2959SOL    HW2 9777   3.773   5.487   6.527
 2960SOL     OW 9778   2.175   1.576   0.446
 2960SOL    HW1 9779   2.155   1.479   0.464
 2960SOL    HW2 9780   2.261   1.601   0.490
 2961SOL     OW 9781   5.958   3.046   4.030
 2961SOL    HW1 9782   5.982   3.131   3.983
 2961SOL    HW2 9783   5.976   2.969   3.970
 2962SOL     OW 9784   4.248   1.002   3.677
 2962SOL    HW1 9785   4.290   1.006   3.767
 2962SOL    HW2 9786   4.252   0.909   3.642
 2963SOL     OW 9787   2.312   2.841   4.397
 2963SOL    HW1 9788   2.372   2.761   4.403
 2963SOL    HW2 9789   2.313   2.890   4.484
 2964SOL     OW 9790   3.595   6.424   0.755
 2964SOL    HW1 9791   3.546   6.509   0.776
 2964SOL    HW2 9792   3.571   6.393   0.663
 2965SOL     OW 9793   0.752   1.960   6.608
 2965SOL    HW1 9794   0.846   1.966   6.577
 2965SOL    HW2 9795   0.713   2.052   6.616
 2966SOL     OW 9796   4.408   4.582   4.184
 2966SOL    HW1 9797   4.481   4.555   4.247
 2966SOL    HW2 9798   4.356   4.657   4.224
 2967SOL     OW 9799   5.694   2.432   3.962
 2967SOL    HW1 9800   5.704   2.485   4.046
 2967SOL    HW2 9801   5.634   2.354   3.979
 2968SOL     OW 9802   0.292   4.106   3.188
 2968SOL    HW1 9803   0.208   4.086   3.138
 2968SOL    HW2 9804   0.362   4.138   3.125
 2969SOL     OW 9805   4.555   1.589   4.959
 2969SOL    HW1 9806   4.567   1.505   5.012
 2969SOL    HW2 9807   4.645   1.628   4.937
 2970SOL     OW 9808   0.833   4.637   6.195
 2970SOL    HW1 9809   0.821   4.598   6.104
 2970SOL    HW2 9810   0.754   4.695   6.217
 2971SOL     OW 9811   5.250   3.130   2.864
 2971SOL    HW1 9812   5.333   3.076   2.878
 2971SOL    HW2 9813   5.258   3.183   2.779
 2972SOL     OW 9814   0.274   3.723   5.710
 2972SOL    HW1 9815   0.243   3.810   5.673
 2972SOL    HW2 9816   0.335   3.678   5.645
 2973SOL     OW 9817   5.313   6.253   4.367
 2973SOL    HW1 9818   5.258   6.296   4.295
 2973SOL    HW2 9819   5.365   6.177   4.328
 2974SOL     OW 9820   0.390   3.664   2.277
 2974SOL    HW1 9821   0.382   3.738   2.344
 2974SOL    HW2 9822   0.298   3.636   2.249
 2975SOL     OW 9823   0.525   1.116   5.181
 2975SOL    HW1 9824   0.600   1.180   5.199
 2975SOL    HW2 9825   0.447   1.166   5.144
 2976SOL     OW 9826   3.676   0.605   2.347
 2976SOL    HW1 9827   3.592   0.608   2.402
 2976SOL    HW2 9828   3.755   0.611   2.408
 2977SOL     OW 9829   3.198   6.039   4.038
 2977SOL    HW1 9830   3.204   6.126   4.086
 2977SOL    HW2 9831   3.110   6.031   3.993
 2978SOL     OW 9832   4.851   5.470   7.021
 2978SOL    HW1 9833   4.877   5.484   0.093
 2978SOL    HW2 9834   4.797   5.548   6.990
 2979SOL     OW 9835   3.548   0.874   3.073
 2979SOL    HW1 9836   3.596   0.934   3.136
 2979SOL    HW2 9837   3.546   0.916   2.982
 2980SOL     OW 9838   0.096   6.452   4.385
 2980SOL    HW1 9839   0.060   6.372   4.433
 2980SOL    HW2 9840   0.134   6.423   4.297
 2981SOL     OW 9841   2.668   0.642   5.694
 2981SOL    HW1 9842   2.728   0.590   5.634
 2981SOL    HW2 9843   2.702   0.638   5.788
 2982SOL     OW 9844   4.684   6.434   2.442
 2982SOL    HW1 9845   4.710   6.410   2.348
 2982SOL    HW2 9846   4.584   6.436   2.448
 2983SOL     OW 9847   6.497   0.786   4.013
 2983SOL    HW1 9848   6.507   0.827   4.104
 2983SOL    HW2 9849   6.563   0.712   4.002
 2984SOL     OW 9850   5.151   5.324   1.750
 2984SOL    HW1 9851   5.159   5.381   1.832
 2984SOL    HW2 9852   5.092   5.371   1.683
 2985SOL     OW 9853   5.861   2.264   2.572
 2985SOL    HW1 9854   5.783   2.206   2.595
 2985SOL    HW2 9855   5.828   2.351   2.536
 2986SOL     OW 9856   2.047   4.017   5.411
 2986SOL    HW1 9857   2.138   4.047   5.438
 2986SOL    HW2 9858   2.038   4.021   5.312
 2987SOL     OW 9859   4.356   2.302   4.505
 2987SOL    HW1 9860   4.326   2.265   4.593
 2987SOL    HW2 9861   4.295   2.271   4.433
 2988SOL     OW 9862   0.672   0.779   2.308
 2988SOL    HW1 9863   0.604   0.839   2.265
 2988SOL    HW2 9864   0.628   0.695   2.339
 2989SOL     OW 9865   6.511   4.837   1.359
 2989SOL    HW1 9866   6.464   4.853   1.445
 2989SOL    HW2 9867   6.591   4.896   1.353
 2990SOL     OW 9868   3.732   0.841   1.339
 2990SOL    HW1 9869   3.708   0.816   1.246
 2990SOL    HW2 9870   3.816   0.792   1.366
 2991SOL     OW 9871   6.548   4.113   0.104
 2991SOL    HW1 9872   6.464   4.158   0.075
 2991SOL    HW2 9873   6.556   4.117   0.203
 2992SOL     OW 9874   4.080   4.527   6.216
 2992SOL    HW1 9875   4.024   4.457   6.259
 2992SOL    HW2 9876   4.176   4.498   6.216
 2993SOL     OW 9877   2.064   5.292   1.368
 2993SOL    HW1 9878   1.986   5.285   1.431
 2993SOL    HW2 9879   2.133   5.223   1.393
 2994SOL     OW 9880   4.539   6.704   0.135
 2994SOL    HW1 9881   4.574   6.640   0.067
 2994SOL    HW2 9882   4.525   6.657   0.222
 2995SOL     OW 9883   2.603   1.618   6.228
 2995SOL    HW1 9884   2.602   1.712   6.261
 2995SOL    HW2 9885   2.696   1.580   6.235
 2996SOL     OW 9886   3.974   5.888   5.569
 2996SOL    HW1 9887   3.972   5.987   5.580
 2996SOL    HW2 9888   4.064   5.859   5.535
 2997SOL     OW 9889   5.429   6.916   0.816
 2997SOL    HW1 9890   5.474   6.877   0.736
 2997SOL    HW2 9891   5.360   6.982   0.786
 2998SOL     OW 9892   6.430   5.804   5.503
 2998SOL    HW1 9893   6.461   5.731   5.443
 2998SOL    HW2 9894   6.353   5.853   5.461
 2999SOL     OW 9895   3.125   0.007   3.008
 2999SOL    HW1 9896   3.125   0.021   2.908
 2999SOL    HW2 9897   3.142   6.935   3.028
 3000SOL     OW 9898   1.076   2.915   5.039
 3000SOL    HW1 9899   1.140   2.964   5.098
 3000SOL    HW2 9900   1.110   2.822   5.023
 3001SOL     OW 9901   4.702   6.986   5.852
 3001SOL    HW1 9902   4.689   6.927   5.932
 3001SOL    HW2 9903   4.612   7.013   5.816
 3002SOL     OW 9904   4.108   0.125   5.646
 3002SOL    HW1 9905   4.176   0.097   5.579
 3002SOL    HW2 9906   4.030   0.167   5.599
 3003SOL     OW 9907   2.328   0.087   6.643
 3003SOL    HW1 9908   2.360   7.018   6.635
 3003SOL    HW2 9909   2.345   0.120   6.736
 3004SOL     OW 9910   6.179   2.861   4.566
 3004SOL    HW1 9911   6.185   2.762   4.557
 3004SOL    HW2 9912   6.227   2.890   4.649
 3005SOL     OW 9913   4.452   2.548   1.320
 3005SOL    HW1 9914   4.515   2.609   1.271
 3005SOL    HW2 9915   4.402   2.600   1.389
 3006SOL     OW 9916   5.881   0.646   1.850
 3006SOL    HW1 9917   5.926   0.726   1.890
 3006SOL    HW2 9918   5.808   0.614   1.911
 3007SOL     OW 9919   6.443   5.159   2.694
 3007SOL    HW1 9920   6.386   5.110   2.760
 3007SOL    HW2 9921   6.453   5.255   2.722
 3008SOL     OW 9922   3.093   6.080   6.094
 3008SOL    HW1 9923   3.059   6.037   6.010
 3008SOL    HW2 9924   3.032   6.153   6.122
 3009SOL     OW 9925   2.057   0.700   3.489
 3009SOL    HW1 9926   1.970   0.651   3.480
 3009SOL    HW2 9927   2.131   0.634   3.504
 3010SOL     OW 9928   3.750   6.421   1.975
 3010SOL    HW1 9929   3.732   6.471   2.060
 3010SOL    HW2 9930   3.842   6.442   1.943
 3011SOL     OW 9931   5.373   0.719   0.027
 3011SOL    HW1 9932   5.434   0.744   0.102
 3011SOL    HW2 9933   5.424   0.717   6.966
 3012SOL     OW 9934   6.972   3.446   2.778
 3012SOL    HW1 9935   6.984   3.370   2.715
 3012SOL    HW2 9936   0.005   3.431   2.859
 3013SOL     OW 9937   6.067   4.917   2.454
 3013SOL    HW1 9938   6.002   4.852   2.415
 3013SOL    HW2 9939   6.073   4.903   2.553
 3014SOL     OW 9940   4.844   0.744   4.856
 3014SOL    HW1 9941   4.765   0.703   4.811
 3014SOL    HW2 9942   4.853   0.840   4.826
 3015SOL     OW 9943   2.830   2.299   0.050
 3015SOL    HW1 9944   2.890   2.255   7.008
 3015SOL    HW2 9945   2.849   2.397   0.053
 3016SOL     OW 9946   4.092   6.441   3.520
 3016SOL    HW1 9947   4.091   6.371   3.449
 3016SOL    HW2 9948   4.039   6.520   3.489
 3017SOL     OW 9949   0.355   5.703   1.117
 3017SOL    HW1 9950   0.344   5.694   1.216
 3017SOL    HW2 9951   0.343   5.613   1.074
 3018SOL     OW 9952   3.884   6.489   0.003
 3018SOL    HW1 9953   3.811   6.433   0.044
 3018SOL    HW2 9954   3.933   6.537   0.076
 3019SOL     OW 9955   4.373   6.823   1.939
 3019SOL    HW1 9956   4.303   6.791   2.004
 3019SOL    HW2 9957   4.395   6.919   1.960
 3020SOL     OW 9958   1.668   2.359   0.592
 3020SOL    HW1 9959   1.678   2.260   0.601
 3020SOL    HW2 9960   1.736   2.405   0.650
 3021SOL     OW 9961   3.010   1.514   6.511
 3021SOL    HW1 9962   2.998   1.600   6.460
 3021SOL    HW2 9963   3.099   1.515   6.556
 3022SOL     OW 9964   4.833   6.907   3.361
 3022SOL    HW1 9965   4.746   6.955   3.352
 3022SOL    HW2 9966   4.817   6.810   3.377
 3023SOL     OW 9967   4.890   6.587   2.044
 3023SOL    HW1 9968   4.937   6.648   2.108
 3023SOL    HW2 9969   4.830   6.641   1.985
 3024SOL     OW 9970   3.159   6.473   6.733
 3024SOL    HW1 9971   3.088   6.495   6.799
 3024SOL    HW2 9972   3.221   6.404   6.771
 3025SOL     OW 9973   2.035   2.399   1.135
 3025SOL    HW1 9974   2.124   2.419   1.177
 3025SOL    HW2 9975   2.049   2.375   1.039
 3026SOL     OW 9976   2.118   4.043   1.133
 3026SOL    HW1 9977   2.136   4.019   1.038
 3026SOL    HW2 9978   2.019   4.047   1.148
 3027SOL     OW 9979   0.842   2.026   3.398
 3027SOL    HW1 9980   0.846   2.063   3.305
 3027SOL    HW2 9981   0.928   2.046   3.445
 3028SOL     OW 9982   1.635   6.764   5.216
 3028SOL    HW1 9983   1.582   6.845   5.193
 3028SOL    HW2 9984   1.603   6.686   5.163
 3029SOL     OW 9985   5.294   6.474   5.390
 3029SOL    HW1 9986   5.318   6.444   5.483
 3029SOL    HW2 9987   5.265   6.395   5.336
 3030SOL     OW 9988   1.469   2.202   4.901
 3030SOL    HW1 9989   1.501   2.217   4.994
 3030SOL    HW2 9990   1.459   2.290   4.854
 3031SOL     OW 9991   0.853   4.872   6.587
 3031SOL    HW1 9992   0.934   4.879   6.529
 3031SOL    HW2 9993   0.870   4.807   6.661
 3032SOL     OW 9994   5.072   0.294   6.046
 3032SOL    HW1 9995   5.113   0.345   5.970
 3032SOL    HW2 9996   5.044   0.204   6.013
 3033SOL     OW 9997   5.826   3.828   6.518
 3033SOL    HW1 9998   5.833   3.733   6.548
 3033SOL    HW2 9999   5.916   3.871   6.520
 3034SOL     OW10000   1.902   6.864   4.520
 3034SOL    HW110001   1.857   6.930   4.460
 3034SOL    HW210002   1.985   6.903   4.559
 3035SOL     OW10003   6.250   0.390   6.990
 3035SOL    HW110004   6.191   0.435   0.033
 3035SOL    HW210005   6.297   0.313   0.009
 3036SOL     OW10006   1.076   4.656   6.376
 3036SOL    HW110007   1.138   4.707   6.317
 3036SOL    HW210008   0.988   4.646   6.331
 3037SOL     OW10009   6.466   6.796   5.776
 3037SOL    HW110010   6.443   6.883   5.732
 3037SOL    HW210011   6.564   6.780   5.771
 3038SOL     OW10012   5.405   0.087   6.005
 3038SOL    HW110013   5.344   0.047   5.936
 3038SOL    HW210014   5.489   0.034   6.010
 3039SOL     OW10015   1.198   4.732   1.211
 3039SOL    HW110016   1.247   4.817   1.228
 3039SOL    HW210017   1.113   4.731   1.264
 3040SOL     OW10018   2.733   3.025   6.680
 3040SOL    HW110019   2.713   3.029   6.582
 3040SOL    HW210020   2.830   3.045   6.695
 3041SOL     OW10021   1.771   2.343   5.530
 3041SOL    HW110022   1.693   2.398   5.560
 3041SOL    HW210023   1.856   2.385   5.561
 3042SOL     OW10024   4.459   0.358   2.214
 3042SOL    HW110025   4.445   0.332   2.310
 3042SOL    HW210026   4.386   0.421   2.186
 3043SOL     OW10027   0.177   5.520   0.207
 3043SOL    HW110028   0.202   5.585   0.135
 3043SOL    HW210029   0.248   5.520   0.277
 3044SOL     OW10030   3.573   4.239   6.208
 3044SOL    HW110031   3.530   4.305   6.147
 3044SOL    HW210032   3.504   4.176   6.243
 3045SOL     OW10033   5.462   2.653   3.017
 3045SOL    HW110034   5.473   2.752   3.012
 3045SOL    HW210035   5.485   2.622   3.109
 3046SOL     OW10036   2.185   2.871   5.485
 3046SOL    HW110037   2.242   2.952   5.477
 3046SOL    HW210038   2.091   2.893   5.461
 3047SOL     OW10039   6.474   4.917   2.325
 3047SOL    HW110040   6.421   4.959   2.252
 3047SOL    HW210041   6.432   4.830   2.350
 3048SOL     OW10042   3.413   2.618   1.670
 3048SOL    HW110043   3.501   2.620   1.717
 3048SOL    HW210044   3.366   2.705   1.684
 3049SOL     OW10045   0.515   0.593   2.463
 3049SOL    HW110046   0.517   0.528   2.539
 3049SOL    HW210047   0.519   0.543   2.377
 3050SOL     OW10048   4.430   6.155   4.174
 3050SOL    HW110049   4.407   6.070   4.222
 3050SOL    HW210050   4.480   6.133   4.090
 3051SOL     OW10051   2.152   4.692   6.139
 3051SOL    HW110052   2.238   4.681   6.188
 3051SOL    HW210053   2.165   4.756   6.063
 3052SOL     OW10054   4.202   6.695   2.687
 3052SOL    HW110055   4.117   6.743   2.664
 3052SOL    HW210056   4.190   6.597   2.671
 3053SOL     OW10057   5.435   6.731   0.212
 3053SOL    HW110058   5.419   6.679   0.128
 3053SOL    HW210059   5.420   6.829   0.194
 3054SOL     OW10060   1.238   3.209   6.400
 3054SOL    HW110061   1.168   3.279   6.413
 3054SOL    HW210062   1.293   3.201   6.484
 3055SOL     OW10063   6.412   6.559   3.226
 3055SOL    HW110064   6.380   6.555   3.320
 3055SOL    HW210065   6.340   6.525   3.165
 3056SOL     OW10066   7.004   0.876   0.830
 3056SOL    HW110067   0.020   0.877   0.738
 3056SOL    HW210068   0.020   0.801   0.883
 3057SOL     OW10069   6.139   5.428   2.799
 3057SOL    HW110070   6.070   5.358   2.814
 3057SOL    HW210071   6.197   5.436   2.881
 3058SOL     OW10072   6.556   5.051   1.643
 3058SOL    HW110073   6.556   5.140   1.689
 3058SOL    HW210074   6.619   4.990   1.689
 3059SOL     OW10075   1.886   3.086   4.439
 3059SOL    HW110076   1.985   3.081   4.440
 3059SOL    HW210077   1.850   3.062   4.529
 3060SOL     OW10078   6.851   6.865   0.719
 3060SOL    HW110079   6.840   6.767   0.704
 3060SOL    HW210080   6.869   6.910   0.632
 3061SOL     OW10081   0.098   0.230   6.395
 3061SOL    HW110082   0.120   0.327   6.391
 3061SOL    HW210083   0.097   0.192   6.302
 3062SOL     OW10084   3.417   6.477   0.028
 3062SOL    HW110085   3.386   6.567   7.021
 3062SOL    HW210086   3.384   6.407   6.989
 3063SOL     OW10087   2.078   4.738   1.495
 3063SOL    HW110088   2.146   4.806   1.521
 3063SOL    HW210089   2.066   4.740   1.395
 3064SOL     OW10090   5.961   3.409   3.435
 3064SOL    HW110091   5.909   3.334   3.474
 3064SOL    HW210092   5.988   3.473   3.507
 3065SOL     OW10093   1.928   0.892   0.016
 3065SOL    HW110094   1.977   0.923   0.098
 3065SOL    HW210095   1.858   0.959   7.017
 3066SOL     OW10096   5.937   4.978   1.626
 3066SOL    HW110097   5.882   4.941   1.551
 3066SOL    HW210098   6.024   5.013   1.589
 3067SOL     OW10099   5.158   0.055   3.997
 3067SOL    HW110100   5.204   0.125   4.052
 3067SOL    HW210101   5.060   0.071   3.996
 3068SOL     OW10102   5.919   4.902   7.022
 3068SOL    HW110103   5.934   4.813   0.041
 3068SOL    HW210104   5.958   4.974   0.055
 3069SOL     OW10105   0.744   6.145   2.572
 3069SOL    HW110106   0.664   6.204   2.577
 3069SOL    HW210107   0.780   6.145   2.479
 3070SOL     OW10108   4.188   1.084   4.198
 3070SOL    HW110109   4.177   1.157   4.130
 3070SOL    HW210110   4.216   1.124   4.285
 3071SOL     OW10111   5.962   6.310   3.509
 3071SOL    HW110112   5.910   6.234   3.471
 3071SOL    HW210113   6.057   6.302   3.482
 3072SOL     OW10114   0.599   0.410   2.699
 3072SOL    HW110115   0.565   0.416   2.793
 3072SOL    HW210116   0.645   0.322   2.686
 3073SOL     OW10117   1.203   3.342   5.163
 3073SOL    HW110118   1.228   3.370   5.255
 3073SOL    HW210119   1.211   3.243   5.155
 3074SOL     OW10120   4.867   3.021   5.811
 3074SOL    HW110121   4.778   3.058   5.783
 3074SOL    HW210122   4.855   2.964   5.892
 3075SOL     OW10123   2.087   5.823   1.597
 3075SOL    HW110124   2.035   5.813   1.682
 3075SOL    HW210125   2.102   5.732   1.557
 3076SOL     OW10126   0.698   0.754   5.017
 3076SOL    HW110127   0.777   0.751   5.078
 3076SOL    HW210128   0.618   0.787   5.068
 3077SOL     OW10129   5.061   5.110   3.826
 3077SOL    HW110130   5.148   5.157   3.816
 3077SOL    HW210131   4.989   5.177   3.846
 3078SOL     OW10132   1.665   3.539   1.684
 3078SOL    HW110133   1.683   3.446   1.713
 3078SOL    HW210134   1.727   3.602   1.731
 3079SOL     OW10135   0.041   2.256   5.676
 3079SOL    HW110136   0.064   2.312   5.597
 3079SOL    HW210137   0.092   2.170   5.672
 3080SOL     OW10138   6.584   5.363   0.753
 3080SOL    HW110139   6.499   5.416   0.756
 3080SOL    HW210140   6.614   5.352   0.659
 3081SOL     OW10141   0.175   5.010   5.627
 3081SOL    HW110142   0.239   5.055   5.565
 3081SOL    HW210143   0.090   5.062   5.630
 3082SOL     OW10144   2.817   0.402   2.540
 3082SOL    HW110145   2.864   0.485   2.570
 3082SOL    HW210146   2.882   0.343   2.492
 3083SOL     OW10147   3.461   0.401   1.727
 3083SOL    HW110148   3.405   0.477   1.693
 3083SOL    HW210149   3.554   0.433   1.745
 3084SOL     OW10150   5.357   5.876   4.737
 3084SOL    HW110151   5.258   5.870   4.742
 3084SOL    HW210152   5.384   5.964   4.698
 3085SOL     OW10153   0.739   5.410   2.236
 3085SOL    HW110154   0.684   5.390   2.317
 3085SOL    HW210155   0.809   5.477   2.259
 3086SOL     OW10156   5.124   1.015   3.812
 3086SOL    HW110157   5.145   1.112   3.822
 3086SOL    HW210158   5.189   0.973   3.749
 3087SOL     OW10159   6.637   3.054   2.739
 3087SOL    HW110160   6.719   3.044   2.682
 3087SOL    HW210161   6.640   3.143   2.785
 3088SOL     OW10162   3.054   4.884   5.861
 3088SOL    HW110163   3.059   4.834   5.774
 3088SOL    HW210164   3.043   4.818   5.936
 3089SOL     OW10165   1.870   2.398   0.245
 3089SOL    HW110166   1.941   2.331   0.267
 3089SOL    HW210167   1.780   2.358   0.262
 3090SOL     OW10168   1.489   1.869   0.838
 3090SOL    HW110169   1.540   1.792   0.801
 3090SOL    HW210170   1.482   1.941   0.769
 3091SOL     OW10171   2.932   6.878   0.160
 3091SOL    HW110172   3.016   6.827   0.142
 3091SOL    HW210173   2.902   6.924   0.077
 3092SOL     OW10174   5.186   6.576   0.642
 3092SOL    HW110175   5.121   6.644   0.675
 3092SOL    HW210176   5.181   6.495   0.699
 3093SOL     OW10177   5.458   6.011   4.339
 3093SOL    HW110178   5.395   5.936   4.321
 3093SOL    HW210179   5.549   5.974   4.359
 3094SOL     OW10180   2.748   6.081   5.608
 3094SOL    HW110181   2.758   5.987   5.576
 3094SOL    HW210182   2.654   6.112   5.590
 3095SOL     OW10183   3.014   4.881   4.987
 3095SOL    HW110184   3.096   4.854   4.935
 3095SOL    HW210185   2.965   4.800   5.016
 3096SOL     OW10186   1.397   0.503   6.261
 3096SOL    HW110187   1.326   0.532   6.326
 3096SOL    HW210188   1.487   0.507   6.305
 3097SOL     OW10189   1.667   3.221   6.950
 3097SOL    HW110190   1.595   3.163   6.912
 3097SOL    HW210191   1.743   3.226   6.885
 3098SOL     OW10192   3.517   2.577   0.849
 3098SOL    HW110193   3.509   2.602   0.752
 3098SOL    HW210194   3.429   2.592   0.894
 3099SOL     OW10195   0.825   5.638   5.348
 3099SOL    HW110196   0.898   5.570   5.346
 3099SOL    HW210197   0.738   5.594   5.326
 3100SOL     OW10198   0.247   6.929   6.890
 3100SOL    HW110199   0.191   6.848   6.910
 3100SOL    HW210200   0.190   7.011   6.895
 3101SOL     OW10201   4.774   7.001   0.906
 3101SOL    HW110202   4.753   6.977   1.001
 3101SOL    HW210203   4.813   0.069   0.903
 3102SOL     OW10204   1.794   4.538   1.353
 3102SOL    HW110205   1.720   4.598   1.382
 3102SOL    HW210206   1.856   4.589   1.293
 3103SOL     OW10207   4.027   3.207   2.092
 3103SOL    HW110208   3.956   3.265   2.051
 3103SOL    HW210209   4.043   3.235   2.186
 3104SOL     OW10210   6.301   5.809   4.019
 3104SOL    HW110211   6.330   5.803   3.923
 3104SOL    HW210212   6.201   5.806   4.023
 3105SOL     OW10213   5.885   6.086   4.069
 3105SOL    HW110214   5.972   6.122   4.036
 3105SOL    HW210215   5.847   6.148   4.138
 3106SOL     OW10216   6.942   2.300   3.889
 3106SOL    HW110217   6.879   2.225   3.909
 3106SOL    HW210218   6.891   2.379   3.857
 3107SOL     OW10219   2.911   0.263   4.342
 3107SOL    HW110220   2.929   0.286   4.246
 3107SOL    HW210221   2.866   0.341   4.387
 3108SOL     OW10222   3.546   0.720   3.356
 3108SOL    HW110223   3.645   0.734   3.366
 3108SOL    HW210224   3.530   0.637   3.303
 3109SOL     OW10225   4.647   5.383   3.461
 3109SOL    HW110226   4.553   5.362   3.489
 3109SOL    HW210227   4.675   5.470   3.501
 3110SOL     OW10228   0.583   2.612   2.641
 3110SOL    HW110229   0.576   2.538   2.574
 3110SOL    HW210230   0.672   2.610   2.685
 3111SOL     OW10231   0.212   4.820   3.456
 3111SOL    HW110232   0.118   4.794   3.436
 3111SOL    HW210233   0.224   4.831   3.555
 3112SOL     OW10234   4.217   3.937   6.435
 3112SOL    HW110235   4.256   4.006   6.373
 3112SOL    HW210236   4.264   3.940   6.523
 3113SOL     OW10237   2.939   6.334   3.987
 3113SOL    HW110238   3.013   6.309   3.925
 3113SOL    HW210239   2.874   6.393   3.939
 3114SOL     OW10240   5.961   5.628   1.344
 3114SOL    HW110241   5.986   5.596   1.253
 3114SOL    HW210242   5.869   5.667   1.342
 3115SOL     OW10243   2.503   3.485   1.351
 3115SOL    HW110244   2.493   3.389   1.324
 3115SOL    HW210245   2.548   3.535   1.277
 3116SOL     OW10246   0.212   1.872   0.219
 3116SOL    HW110247   0.167   1.860   0.307
 3116SOL    HW210248   0.150   1.917   0.155
 3117SOL     OW10249   3.960   3.666   5.391
 3117SOL    HW110250   3.863   3.683   5.375
 3117SOL    HW210251   3.973   3.571   5.419
 3118SOL     OW10252   5.861   4.126   0.468
 3118SOL    HW110253   5.794   4.062   0.430
 3118SOL    HW210254   5.949   4.080   0.478
 3119SOL     OW10255   1.297   4.419   5.424
 3119SOL    HW110256   1.369   4.478   5.460
 3119SOL    HW210257   1.334   4.364   5.349
 3120SOL     OW10258   3.357   5.547   5.313
 3120SOL    HW110259   3.347   5.545   5.412
 3120SOL    HW210260   3.317   5.632   5.277
 3121SOL     OW10261   0.081   6.543   2.292
 3121SOL    HW110262   0.018   6.587   2.356
 3121SOL    HW210263   0.166   6.519   2.339
 3122SOL     OW10264   3.019   5.301   0.476
 3122SOL    HW110265   2.997   5.365   0.550
 3122SOL    HW210266   2.962   5.219   0.486
 3123SOL     OW10267   3.467   6.733   3.841
 3123SOL    HW110268   3.496   6.638   3.836
 3123SOL    HW210269   3.529   6.790   3.786
 3124SOL     OW10270   4.349   0.760   6.478
 3124SOL    HW110271   4.363   0.681   6.418
 3124SOL    HW210272   4.320   0.729   6.568
 3125SOL     OW10273   0.166   2.068   5.932
 3125SOL    HW110274   0.181   2.035   6.025
 3125SOL    HW210275   0.129   1.994   5.875
 3126SOL     OW10276   4.634   5.968   0.227
 3126SOL    HW110277   4.699   6.042   0.206
 3126SOL    HW210278   4.645   5.894   0.161
 3127SOL     OW10279   0.590   1.185   3.700
 3127SOL    HW110280   0.613   1.281   3.682
 3127SOL    HW210281   0.618   1.160   3.792
 3128SOL     OW10282   1.660   1.601   0.743
 3128SOL    HW110283   1.618   1.520   0.701
 3128SOL    HW210284   1.693   1.577   0.834
 3129SOL     OW10285   0.751   3.240   4.819
 3129SOL    HW110286   0.672   3.186   4.792
 3129SOL    HW210287   0.722   3.319   4.873
 3130SOL     OW10288   1.526   5.553   3.149
 3130SOL    HW110289   1.474   5.636   3.131
 3130SOL    HW210290   1.465   5.474   3.153
 3131SOL     OW10291   6.842   3.633   3.354
 3131SOL    HW110292   6.794   3.566   3.411
 3131SOL    HW210293   6.909   3.586   3.297
 3132SOL     OW10294   5.859   6.046   5.882
 3132SOL    HW110295   5.885   6.077   5.974
 3132SOL    HW210296   5.763   6.068   5.865
 3133SOL     OW10297   2.824   1.901   3.275
 3133SOL    HW110298   2.919   1.896   3.242
 3133SOL    HW210299   2.764   1.856   3.209
 3134SOL     OW10300   4.882   3.075   2.249
 3134SOL    HW110301   4.825   3.060   2.330
 3134SOL    HW210302   4.826   3.070   2.167
 3135SOL     OW10303   3.209   1.885   3.441
 3135SOL    HW110304   3.249   1.826   3.511
 3135SOL    HW210305   3.112   1.864   3.431
 3136SOL     OW10306   5.551   6.515   5.271
 3136SOL    HW110307   5.476   6.514   5.338
 3136SOL    HW210308   5.516   6.544   5.182
 3137SOL     OW10309   6.073   2.306   4.215
 3137SOL    HW110310   6.013   2.228   4.234
 3137SOL    HW210311   6.166   2.284   4.244
 3138SOL     OW10312   5.691   1.179   5.115
 3138SOL    HW110313   5.782   1.138   5.116
 3138SOL    HW210314   5.699   1.279   5.108
 3139SOL     OW10315   4.918   6.267   5.603
 3139SOL    HW110316   4.974   6.196   5.559
 3139SOL    HW210317   4.821   6.246   5.592
 3140SOL     OW10318   6.586   6.254   6.787
 3140SOL    HW110319   6.553   6.252   6.693
 3140SOL    HW210320   6.508   6.260   6.850
 3141SOL     OW10321   1.036   5.127   0.134
 3141SOL    HW110322   0.948   5.175   0.137
 3141SOL    HW210323   1.025   5.035   0.172
 3142SOL     OW10324   4.470   6.563   0.405
 3142SOL    HW110325   4.375   6.593   0.416
 3142SOL    HW210326   4.482   6.475   0.450
 3143SOL     OW10327   6.255   1.588   0.679
 3143SOL    HW110328   6.300   1.531   0.610
 3143SOL    HW210329   6.324   1.619   0.745
 3144SOL     OW10330   1.587   3.508   6.191
 3144SOL    HW110331   1.626   3.430   6.241
 3144SOL    HW210332   1.629   3.592   6.223
 3145SOL     OW10333   3.336   6.196   3.695
 3145SOL    HW110334   3.396   6.119   3.716
 3145SOL    HW210335   3.346   6.221   3.599
 3146SOL     OW10336   1.948   0.391   3.741
 3146SOL    HW110337   2.026   0.335   3.770
 3146SOL    HW210338   1.877   0.332   3.702
 3147SOL     OW10339   4.460   4.342   0.339
 3147SOL    HW110340   4.454   4.297   0.428
 3147SOL    HW210341   4.445   4.275   0.266
 3148SOL     OW10342   3.434   5.763   4.573
 3148SOL    HW110343   3.342   5.741   4.605
 3148SOL    HW210344   3.501   5.718   4.632
 3149SOL     OW10345   3.476   6.791   5.501
 3149SOL    HW110346   3.415   6.728   5.454
 3149SOL    HW210347   3.424   6.866   5.541
 3150SOL     OW10348   6.146   0.434   4.761
 3150SOL    HW110349   6.206   0.363   4.797
 3150SOL    HW210350   6.114   0.408   4.670
 3151SOL     OW10351   4.280   0.867   6.173
 3151SOL    HW110352   4.350   0.835   6.237
 3151SOL    HW210353   4.193   0.822   6.194
 3152SOL     OW10354   1.523   5.172   0.962
 3152SOL    HW110355   1.461   5.095   0.974
 3152SOL    HW210356   1.507   5.215   0.873
 3153SOL     OW10357   6.918   4.058   2.299
 3153SOL    HW110358   6.901   3.963   2.322
 3153SOL    HW210359   6.976   4.100   2.369
 3154SOL     OW10360   5.490   2.623   6.279
 3154SOL    HW110361   5.505   2.620   6.180
 3154SOL    HW210362   5.409   2.569   6.302
 3155SOL     OW10363   5.473   5.840   0.594
 3155SOL    HW110364   5.549   5.899   0.623
 3155SOL    HW210365   5.386   5.879   0.626
 3156SOL     OW10366   3.321   3.984   3.449
 3156SOL    HW110367   3.328   3.912   3.519
 3156SOL    HW210368   3.273   4.063   3.487
 3157SOL     OW10369   2.120   3.358   4.480
 3157SOL    HW110370   2.075   3.346   4.392
 3157SOL    HW210371   2.212   3.320   4.476
 3158SOL     OW10372   4.900   6.411   0.426
 3158SOL    HW110373   4.956   6.371   0.499
 3158SOL    HW210374   4.855   6.493   0.460
 3159SOL     OW10375   5.384   4.842   0.485
 3159SOL    HW110376   5.314   4.802   0.545
 3159SOL    HW210377   5.342   4.913   0.428
 3160SOL     OW10378   5.675   4.263   6.953
 3160SOL    HW110379   5.675   4.363   6.965
 3160SOL    HW210380   5.621   4.221   0.001
 3161SOL     OW10381   0.733   2.015   2.877
 3161SOL    HW110382   0.777   2.104   2.864
 3161SOL    HW210383   0.673   1.995   2.799
 3162SOL     OW10384   0.212   5.854   6.265
 3162SOL    HW110385   0.158   5.897   6.338
 3162SOL    HW210386   0.151   5.811   6.199
 3163SOL     OW10387   2.459   4.022   5.759
 3163SOL    HW110388   2.391   4.027   5.832
 3163SOL    HW210389   2.470   4.112   5.717
 3164SOL     OW10390   5.443   5.600   6.059
 3164SOL    HW110391   5.371   5.609   5.991
 3164SOL    HW210392   5.439   5.508   6.100
 3165SOL     OW10393   6.974   2.589   1.495
 3165SOL    HW110394   0.031   2.625   1.450
 3165SOL    HW210395   6.937   2.513   1.441
 3166SOL     OW10396   5.160   2.783   5.808
 3166SOL    HW110397   5.204   2.819   5.726
 3166SOL    HW210398   5.088   2.719   5.782
 3167SOL     OW10399   0.723   4.569   2.225
 3167SOL    HW110400   0.694   4.488   2.276
 3167SOL    HW210401   0.677   4.650   2.260
 3168SOL     OW10402   5.458   3.229   0.933
 3168SOL    HW110403   5.545   3.278   0.942
 3168SOL    HW210404   5.383   3.293   0.948
 3169SOL     OW10405   1.534   1.751   5.501
 3169SOL    HW110406   1.599   1.811   5.547
 3169SOL    HW210407   1.487   1.801   5.428
 3170SOL     OW10408   4.612   0.803   6.413
 3170SOL    HW110409   4.613   0.761   6.322
 3170SOL    HW210410   4.520   0.799   6.450
 3171SOL     OW10411   6.382   6.888   3.384
 3171SOL    HW110412   6.477   6.878   3.416
 3171SOL    HW210413   6.382   6.922   3.291
 3172SOL     OW10414   6.227   6.695   5.712
 3172SOL    HW110415   6.267   6.624   5.653
 3172SOL    HW210416   6.301   6.749   5.753
 3173SOL     OW10417   1.810   1.386   1.252
 3173SOL    HW110418   1.758   1.454   1.200
 3173SOL    HW210419   1.807   1.410   1.350
 3174SOL     OW10420   2.103   3.492   5.835
 3174SOL    HW110421   2.163   3.542   5.773
 3174SOL    HW210422   2.113   3.529   5.927
 3175SOL     OW10423   0.303   6.414   0.723
 3175SOL    HW110424   0.294   6.508   0.688
 3175SOL    HW210425   0.352   6.415   0.810
 3176SOL     OW10426   0.449   5.110   6.552
 3176SOL    HW110427   0.364   5.143   6.592
 3176SOL    HW210428   0.498   5.054   6.618
 3177SOL     OW10429   6.786   0.119   5.255
 3177SOL    HW110430   6.795   0.027   5.293
 3177SOL    HW210431   6.832   0.123   5.166
 3178SOL     OW10432   1.342   3.191   1.590
 3178SOL    HW110433   1.398   3.130   1.646
 3178SOL    HW210434   1.374   3.285   1.601
 3179SOL     OW10435   2.170   1.957   3.002
 3179SOL    HW110436   2.111   1.897   3.056
 3179SOL    HW210437   2.154   1.941   2.904
 3180SOL     OW10438   5.772   1.119   6.036
 3180SOL    HW110439   5.717   1.096   5.956
 3180SOL    HW210440   5.805   1.213   6.029
 3181SOL     OW10441   0.435   1.497   3.029
 3181SOL    HW110442   0.468   1.591   3.017
 3181SOL    HW210443   0.381   1.470   2.949
 3182SOL     OW10444   1.394   4.641   5.175
 3182SOL    HW110445   1.304   4.681   5.192
 3182SOL    HW210446   1.390   4.542   5.191
 3183SOL     OW10447   3.990   3.287   1.381
 3183SOL    HW110448   4.083   3.323   1.382
 3183SOL    HW210449   3.939   3.330   1.307
 3184SOL     OW10450   2.574   1.076   2.982
 3184SOL    HW110451   2.650   1.099   2.920
 3184SOL    HW210452   2.560   1.152   3.045
 3185SOL     OW10453   6.975   6.444   5.888
 3185SOL    HW110454   0.034   6.419   5.936
 3185SOL    HW210455   6.982   6.418   5.792
 3186SOL     OW10456   3.381   0.511   1.378
 3186SOL    HW110457   3.306   0.473   1.433
 3186SOL    HW210458   3.447   0.555   1.439
 3187SOL     OW10459   2.971   4.363   0.188
 3187SOL    HW110460   2.978   4.396   0.094
 3187SOL    HW210461   2.945   4.266   0.188
 3188SOL     OW10462   4.243   6.751   2.936
 3188SOL    HW110463   4.207   6.731   2.844
 3188SOL    HW210464   4.178   6.717   3.004
 3189SOL     OW10465   1.042   0.311   1.934
 3189SOL    HW110466   1.049   0.212   1.946
 3189SOL    HW210467   0.962   0.332   1.877
 3190SOL     OW10468   0.659   6.771   2.049
 3190SOL    HW110469   0.604   6.790   2.130
 3190SOL    HW210470   0.746   6.730   2.077
 3191SOL     OW10471   3.471   0.511   0.788
 3191SOL    HW110472   3.495   0.445   0.717
 3191SOL    HW210473   3.438   0.463   0.869
 3192SOL     OW10474   6.413   2.488   3.015
 3192SOL    HW110475   6.345   2.513   3.084
 3192SOL    HW210476   6.493   2.547   3.025
 3193SOL     OW10477   4.942   3.743   0.287
 3193SOL    HW110478   4.879   3.751   0.210
 3193SOL    HW210479   4.942   3.649   0.320
 3194SOL     OW10480   1.273   3.861   5.723
 3194SOL    HW110481   1.350   3.923   5.710
 3194SOL    HW210482   1.190   3.902   5.684
 3195SOL     OW10483   0.374   3.805   3.086
 3195SOL    HW110484   0.455   3.771   3.039
 3195SOL    HW210485   0.402   3.848   3.172
 3196SOL     OW10486   0.340   7.011   5.590
 3196SOL    HW110487   0.373   6.917   5.600
 3196SOL    HW210488   0.297   0.016   5.675
 3197SOL     OW10489   1.218   4.183   4.071
 3197SOL    HW110490   1.212   4.282   4.060
 3197SOL    HW210491   1.302   4.160   4.120
 3198SOL     OW10492   6.987   1.418   0.033
 3198SOL    HW110493   0.019   1.495   0.004
 3198SOL    HW210494   6.932   1.444   0.112
 3199SOL     OW10495   3.551   2.078   2.824
 3199SOL    HW110496   3.586   2.091   2.917
 3199SOL    HW210497   3.455   2.105   2.821
 3200SOL     OW10498   6.769   2.287   0.865
 3200SOL    HW110499   6.800   2.367   0.815
 3200SOL    HW210500   6.837   2.262   0.934
 3201SOL     OW10501   4.641   4.267   2.800
 3201SOL    HW110502   4.730   4.251   2.844
 3201SOL    HW210503   4.575   4.199   2.832
 3202SOL     OW10504   2.047   5.713   1.280
 3202SOL    HW110505   2.089   5.637   1.328
 3202SOL    HW210506   2.038   5.691   1.183
 3203SOL     OW10507   6.509   0.351   1.962
 3203SOL    HW110508   6.425   0.389   1.923
 3203SOL    HW210509   6.504   0.353   2.062
 3204SOL     OW10510   5.971   5.884   1.877
 3204SOL    HW110511   6.021   5.916   1.796
 3204SOL    HW210512   5.885   5.934   1.886
 3205SOL     OW10513   1.513   3.884   2.923
 3205SOL    HW110514   1.491   3.790   2.948
 3205SOL    HW210515   1.502   3.943   3.003
 3206SOL     OW10516   1.780   0.041   0.292
 3206SOL    HW110517   1.826   0.051   0.203
 3206SOL    HW210518   1.681   0.037   0.278
 3207SOL     OW10519   0.672   1.056   3.939
 3207SOL    HW110520   0.734   0.981   3.963
 3207SOL    HW210521   0.717   1.143   3.959
 3208SOL     OW10522   6.325   0.282   5.697
 3208SOL    HW110523   6.388   0.360   5.686
 3208SOL    HW210524   6.260   0.302   5.769
 3209SOL     OW10525   2.646   0.553   3.349
 3209SOL    HW110526   2.702   0.487   3.299
 3209SOL    HW210527   2.655   0.536   3.448
 3210SOL     OW10528   6.957   4.805   3.441
 3210SOL    HW110529   6.863   4.827   3.465
 3210SOL    HW210530   6.973   4.828   3.345
 3211SOL     OW10531   1.162   4.292   2.216
 3211SOL    HW110532   1.119   4.372   2.258
 3211SOL    HW210533   1.257   4.286   2.245
 3212SOL     OW10534   4.966   2.615   5.710
 3212SOL    HW110535   4.926   2.628   5.620
 3212SOL    HW210536   4.904   2.650   5.780
 3213SOL     OW10537   5.301   5.971   1.790
 3213SOL    HW110538   5.299   6.070   1.801
 3213SOL    HW210539   5.395   5.942   1.773
 3214SOL     OW10540   4.033   4.846   5.978
 3214SOL    HW110541   4.099   4.836   6.053
 3214SOL    HW210542   4.044   4.770   5.914
 3215SOL     OW10543   5.846   1.656   0.401
 3215SOL    HW110544   5.889   1.682   0.487
 3215SOL    HW210545   5.915   1.648   0.329
 3216SOL     OW10546   5.560   6.988   4.713
 3216SOL    HW110547   5.618   6.923   4.665
 3216SOL    HW210548   5.484   7.014   4.654
 3217SOL     OW10549   6.863   4.076   0.969
 3217SOL    HW110550   6.932   4.049   1.036
 3217SOL    HW210551   6.840   3.998   0.911
 3218SOL     OW10552   3.034   1.031   1.905
 3218SOL    HW110553   2.965   1.003   1.838
 3218SOL    HW210554   2.993   1.095   1.970
 3219SOL     OW10555   6.727   6.991   3.961
 3219SOL    HW110556   6.763   6.908   4.004
 3219SOL    HW210557   6.684   0.024   4.031
 3220SOL     OW10558   5.970   3.061   5.183
 3220SOL    HW110559   5.989   3.144   5.237
 3220SOL    HW210560   5.878   3.068   5.143
 3221SOL     OW10561   3.579   6.937   2.653
 3221SOL    HW110562   3.636   6.900   2.579
 3221SOL    HW210563   3.606   0.007   2.670
 3222SOL     OW10564   6.130   2.768   2.996
 3222SOL    HW110565   6.045   2.773   3.048
 3222SOL    HW210566   6.110   2.745   2.901
 3223SOL     OW10567   2.377   4.841   4.662
 3223SOL    HW110568   2.392   4.743   4.649
 3223SOL    HW210569   2.461   4.891   4.640
 3224SOL     OW10570   3.909   5.553   1.068
 3224SOL    HW110571   3.916   5.526   1.164
 3224SOL    HW210572   3.936   5.649   1.058
 3225SOL     OW10573   2.098   2.738   1.310
 3225SOL    HW110574   2.160   2.662   1.291
 3225SOL    HW210575   2.033   2.748   1.235
 3226SOL     OW10576   0.188   0.728   4.435
 3226SOL    HW110577   0.203   0.640   4.482
 3226SOL    HW210578   0.212   0.719   4.339
 3227SOL     OW10579   2.488   1.226   5.425
 3227SOL    HW110580   2.530   1.285   5.356
 3227SOL    HW210581   2.521   1.253   5.516
 3228SOL     OW10582   4.966   3.034   4.837
 3228SOL    HW110583   5.010   3.014   4.925
 3228SOL    HW210584   5.021   3.101   4.787
 3229SOL     OW10585   3.739   2.111   4.983
 3229SOL    HW110586   3.829   2.085   5.017
 3229SOL    HW210587   3.741   2.114   4.883
 3230SOL     OW10588   1.375   0.556   4.095
 3230SOL    HW110589   1.306   0.496   4.054
 3230SOL    HW210590   1.333   0.644   4.119
 3231SOL     OW10591   5.573   5.561   0.724
 3231SOL    HW110592   5.524   5.631   0.672
 3231SOL    HW210593   5.589   5.481   0.666
 3232SOL     OW10594   2.220   4.343   3.591
 3232SOL    HW110595   2.303   4.397   3.584
 3232SOL    HW210596   2.238   4.260   3.644
 3233SOL     OW10597   1.474   4.492   1.166
 3233SOL    HW110598   1.383   4.533   1.157
 3233SOL    HW210599   1.513   4.518   1.254
 3234SOL     OW10600   6.301   1.880   4.591
 3234SOL    HW110601   6.355   1.798   4.575
 3234SOL    HW210602   6.218   1.856   4.642
 3235SOL     OW10603   5.648   0.653   3.085
 3235SOL    HW110604   5.727   0.694   3.040
 3235SOL    HW210605   5.610   0.582   3.026
 3236SOL     OW10606   0.462   2.781   2.100
 3236SOL    HW110607   0.464   2.753   2.196
 3236SOL    HW210608   0.465   2.700   2.041
 3237SOL     OW10609   3.420   6.452   4.290
 3237SOL    HW110610   3.396   6.549   4.294
 3237SOL    HW210611   3.512   6.441   4.250
 3238SOL     OW10612   6.158   6.647   6.745
 3238SOL    HW110613   6.199   6.559   6.723
 3238SOL    HW210614   6.080   6.665   6.685
 3239SOL     OW10615   0.419   6.510   5.859
 3239SOL    HW110616   0.341   6.451   5.838
 3239SOL    HW210617   0.492   6.456   5.901
 3240SOL     OW10618   0.585   1.320   4.845
 3240SOL    HW110619   0.497   1.295   4.805
 3240SOL    HW210620   0.635   1.238   4.872
 3241SOL     OW10621   4.923   1.021   5.167
 3241SOL    HW110622   4.851   0.951   5.163
 3241SOL    HW210623   5.011   0.978   5.185
 3242SOL     OW10624   3.107   6.499   0.366
 3242SOL    HW110625   3.205   6.505   0.383
 3242SOL    HW210626   3.057   6.519   0.451
 3243SOL     OW10627   3.530   5.465   0.110
 3243SOL    HW110628   3.540   5.388   0.173
 3243SOL    HW210629   3.570   5.442   0.021
 3244SOL     OW10630   1.811   6.254   5.705
 3244SOL    HW110631   1.729   6.196   5.699
 3244SOL    HW210632   1.849   6.267   5.614
 3245SOL     OW10633   2.981   1.977   6.096
 3245SOL    HW110634   3.076   1.957   6.121
 3245SOL    HW210635   2.978   2.061   6.042
 3246SOL     OW10636   5.462   6.671   4.054
 3246SOL    HW110637   5.536   6.732   4.026
 3246SOL    HW210638   5.427   6.623   3.973
 3247SOL     OW10639   6.685   1.779   4.761
 3247SOL    HW110640   6.636   1.789   4.674
 3247SOL    HW210641   6.684   1.683   4.789
 3248SOL     OW10642   5.397   3.915   2.652
 3248SOL    HW110643   5.414   4.006   2.689
 3248SOL    HW210644   5.327   3.869   2.707
 3249SOL     OW10645   2.881   4.333   5.380
 3249SOL    HW110646   2.914   4.401   5.315
 3249SOL    HW210647   2.880   4.243   5.336
 3250SOL     OW10648   4.453   6.247   1.734
 3250SOL    HW110649   4.494   6.239   1.643
 3250SOL    HW210650   4.381   6.316   1.733
 3251SOL     OW10651   3.301   1.310   3.681
 3251SOL    HW110652   3.210   1.349   3.694
 3251SOL    HW210653   3.347   1.304   3.770
 3252SOL     OW10654   3.156   2.190   3.599
 3252SOL    HW110655   3.144   2.236   3.511
 3252SOL    HW210656   3.077   2.210   3.657
 3253SOL     OW10657   4.497   3.732   1.068
 3253SOL    HW110658   4.579   3.788   1.051
 3253SOL    HW210659   4.524   3.636   1.075
 3254SOL     OW10660   4.874   4.840   2.658
 3254SOL    HW110661   4.791   4.849   2.603
 3254SOL    HW210662   4.949   4.891   2.615
 3255SOL     OW10663   3.921   4.511   1.075
 3255SOL    HW110664   3.855   4.478   1.142
 3255SOL    HW210665   3.982   4.578   1.118
 3256SOL     OW10666   6.104   6.596   6.163
 3256SOL    HW110667   6.181   6.547   6.202
 3256SOL    HW210668   6.133   6.688   6.136
 3257SOL     OW10669   2.252   2.134   0.906
 3257SOL    HW110670   2.270   2.048   0.858
 3257SOL    HW210671   2.261   2.119   1.004
 3258SOL     OW10672   5.945   0.076   1.473
 3258SOL    HW110673   5.980   0.004   1.412
 3258SOL    HW210674   5.901   0.147   1.418
 3259SOL     OW10675   6.120   6.367   3.177
 3259SOL    HW110676   6.119   6.285   3.234
 3259SOL    HW210677   6.052   6.358   3.104
 3260SOL     OW10678   1.486   3.371   0.406
 3260SOL    HW110679   1.393   3.404   0.418
 3260SOL    HW210680   1.546   3.446   0.381
 3261SOL     OW10681   4.531   0.060   3.617
 3261SOL    HW110682   4.557   0.146   3.661
 3261SOL    HW210683   4.539   7.010   3.684
 3262SOL     OW10684   3.893   1.418   4.448
 3262SOL    HW110685   3.800   1.382   4.443
 3262SOL    HW210686   3.951   1.353   4.496
 3263SOL     OW10687   3.103   5.674   2.549
 3263SOL    HW110688   3.050   5.680   2.634
 3263SOL    HW210689   3.155   5.759   2.537
 3264SOL     OW10690   4.722   4.627   5.711
 3264SOL    HW110691   4.651   4.673   5.656
 3264SOL    HW210692   4.691   4.620   5.806
 3265SOL     OW10693   5.057   0.804   6.703
 3265SOL    HW110694   4.974   0.800   6.648
 3265SOL    HW210695   5.131   0.757   6.654
 3266SOL     OW10696   0.382   1.983   6.813
 3266SOL    HW110697   0.295   1.943   6.841
 3266SOL    HW210698   0.457   1.932   6.857
 3267SOL     OW10699   4.672   2.440   1.061
 3267SOL    HW110700   4.653   2.383   1.141
 3267SOL    HW210701   4.771   2.455   1.053
 3268SOL     OW10702   1.398   4.921   6.503
 3268SOL    HW110703   1.480   4.864   6.510
 3268SOL    HW210704   1.338   4.902   6.581
 3269SOL     OW10705   4.636   3.809   0.782
 3269SOL    HW110706   4.719   3.852   0.818
 3269SOL    HW210707   4.628   3.716   0.820
 3270SOL     OW10708   0.255   5.613   4.365
 3270SOL    HW110709   0.278   5.632   4.461
 3270SOL    HW210710   0.206   5.527   4.359
 3271SOL     OW10711   5.295   1.107   1.958
 3271SOL    HW110712   5.345   1.103   1.872
 3271SOL    HW210713   5.244   1.193   1.964
 3272SOL     OW10714   5.036   0.240   0.345
 3272SOL    HW110715   5.077   0.328   0.371
 3272SOL    HW210716   4.943   0.256   0.311
 3273SOL     OW10717   0.506   0.024   3.394
 3273SOL    HW110718   0.551   0.047   3.308
 3273SOL    HW210719   0.407   0.039   3.384
 3274SOL     OW10720   3.738   1.948   6.528
 3274SOL    HW110721   3.775   1.856   6.547
 3274SOL    HW210722   3.641   1.949   6.551
 3275SOL     OW10723   4.158   0.956   0.358
 3275SOL    HW110724   4.094   1.020   0.400
 3275SOL    HW210725   4.239   0.947   0.417
 3276SOL     OW10726   2.002   6.593   0.404
 3276SOL    HW110727   2.099   6.612   0.388
 3276SOL    HW210728   1.959   6.670   0.450
 3277SOL     OW10729   0.049   6.094   5.543
 3277SOL    HW110730   0.047   6.060   5.449
 3277SOL    HW210731   0.142   6.086   5.580
 3278SOL     OW10732   1.335   0.834   0.212
 3278SOL    HW110733   1.332   0.862   0.308
 3278SOL    HW210734   1.367   0.740   0.205
 3279SOL     OW10735   2.164   6.357   1.168
 3279SOL    HW110736   2.150   6.432   1.103
 3279SOL    HW210737   2.093   6.288   1.154
 3280SOL     OW10738   2.190   5.578   5.149
 3280SOL    HW110739   2.121   5.530   5.094
 3280SOL    HW210740   2.145   5.628   5.223
 3281SOL     OW10741   2.311   6.227   0.433
 3281SOL    HW110742   2.374   6.226   0.356
 3281SOL    HW210743   2.303   6.320   0.469
 3282SOL     OW10744   2.247   6.183   2.424
 3282SOL    HW110745   2.164   6.229   2.455
 3282SOL    HW210746   2.240   6.166   2.326
 3283SOL     OW10747   1.877   0.402   4.036
 3283SOL    HW110748   1.924   0.420   3.950
 3283SOL    HW210749   1.896   0.308   4.066
 3284SOL     OW10750   1.007   4.017   6.012
 3284SOL    HW110751   1.008   4.068   6.098
 3284SOL    HW210752   1.041   4.076   5.938
 3285SOL     OW10753   0.196   2.115   4.788
 3285SOL    HW110754   0.290   2.128   4.754
 3285SOL    HW210755   0.140   2.075   4.716
 3286SOL     OW10756   4.138   4.976   5.522
 3286SOL    HW110757   4.116   4.954   5.617
 3286SOL    HW210758   4.194   5.059   5.519
 3287SOL     OW10759   0.334   4.440   1.678
 3287SOL    HW110760   0.241   4.451   1.644
 3287SOL    HW210761   0.381   4.528   1.677
 3288SOL     OW10762   1.745   6.269   6.680
 3288SOL    HW110763   1.703   6.184   6.711
 3288SOL    HW210764   1.819   6.295   6.743
 3289SOL     OW10765   1.141   4.936   4.754
 3289SOL    HW110766   1.167   5.032   4.748
 3289SOL    HW210767   1.213   4.880   4.712
 3290SOL     OW10768   6.950   4.606   3.020
 3290SOL    HW110769   6.900   4.538   3.075
 3290SOL    HW210770   6.989   4.675   3.081
 3291SOL     OW10771   2.145   0.003   1.693
 3291SOL    HW110772   2.161   6.949   1.634
 3291SOL    HW210773   2.049   0.006   1.720
 3292SOL     OW10774   0.380   5.334   5.186
 3292SOL    HW110775   0.320   5.324   5.107
 3292SOL    HW210776   0.340   5.399   5.250
 3293SOL     OW10777   6.423   0.445   2.853
 3293SOL    HW110778   6.383   0.370   2.801
 3293SOL    HW210779   6.360   0.471   2.927
 3294SOL     OW10780   0.710   0.473   0.871
 3294SOL    HW110781   0.788   0.413   0.887
 3294SOL    HW210782   0.625   0.423   0.887
 3295SOL     OW10783   1.703   2.053   6.309
 3295SOL    HW110784   1.659   1.996   6.240
 3295SOL    HW210785   1.802   2.057   6.291
 3296SOL     OW10786   0.864   6.594   1.879
 3296SOL    HW110787   0.802   6.514   1.881
 3296SOL    HW210788   0.957   6.564   1.900
 3297SOL     OW10789   2.901   1.603   5.994
 3297SOL    HW110790   2.832   1.664   5.956
 3297SOL    HW210791   2.992   1.635   5.967
 3298SOL     OW10792   6.386   3.809   3.018
 3298SOL    HW110793   6.340   3.720   3.009
 3298SOL    HW210794   6.483   3.793   3.035
 3299SOL     OW10795   0.860   1.029   5.180
 3299SOL    HW110796   0.842   1.048   5.083
 3299SOL    HW210797   0.938   0.967   5.188
 3300SOL     OW10798   6.934   0.160   5.014
 3300SOL    HW110799   7.002   0.098   4.974
 3300SOL    HW210800   6.944   0.251   4.974
 3301SOL     OW10801   0.148   3.504   2.490
 3301SOL    HW110802   0.148   3.557   2.575
 3301SOL    HW210803   0.150   3.565   2.412
 3302SOL     OW10804   1.153   5.332   4.559
 3302SOL    HW110805   1.142   5.302   4.465
 3302SOL    HW210806   1.140   5.431   4.564
 3303SOL     OW10807   3.178   4.008   3.736
 3303SOL    HW110808   3.158   3.942   3.808
 3303SOL    HW210809   3.093   4.052   3.706
 3304SOL     OW10810   1.656   0.754   3.679
 3304SOL    HW110811   1.718   0.688   3.637
 3304SOL    HW210812   1.709   0.820   3.733
 3305SOL     OW10813   0.990   2.097   0.973
 3305SOL    HW110814   1.090   2.092   0.971
 3305SOL    HW210815   0.957   2.068   1.062
 3306SOL     OW10816   0.797   3.262   2.302
 3306SOL    HW110817   0.816   3.345   2.250
 3306SOL    HW210818   0.703   3.264   2.337
 3307SOL     OW10819   0.785   6.371   0.683
 3307SOL    HW110820   0.742   6.286   0.712
 3307SOL    HW210821   0.884   6.361   0.684
 3308SOL     OW10822   5.958   6.660   0.738
 3308SOL    HW110823   5.900   6.595   0.688
 3308SOL    HW210824   5.919   6.752   0.731
 3309SOL     OW10825   1.510   5.588   2.026
 3309SOL    HW110826   1.538   5.514   2.088
 3309SOL    HW210827   1.524   5.560   1.931
 3310SOL     OW10828   1.487   6.293   2.469
 3310SOL    HW110829   1.514   6.201   2.499
 3310SOL    HW210830   1.558   6.359   2.498
 3311SOL     OW10831   3.790   6.649   1.079
 3311SOL    HW110832   3.831   6.652   0.988
 3311SOL    HW210833   3.855   6.681   1.147
 3312SOL     OW10834   1.902   3.448   6.546
 3312SOL    HW110835   1.878   3.408   6.635
 3312SOL    HW210836   1.825   3.438   6.483
 3313SOL     OW10837   6.450   6.180   5.331
 3313SOL    HW110838   6.476   6.089   5.361
 3313SOL    HW210839   6.380   6.174   5.260
 3314SOL     OW10840   0.165   3.449   7.022
 3314SOL    HW110841   0.097   3.378   0.015
 3314SOL    HW210842   0.256   3.407   7.018
 3315SOL     OW10843   6.237   3.582   2.955
 3315SOL    HW110844   6.171   3.557   3.025
 3315SOL    HW210845   6.189   3.602   2.869
 3316SOL     OW10846   4.639   1.411   0.539
 3316SOL    HW110847   4.548   1.424   0.499
 3316SOL    HW210848   4.630   1.360   0.625
 3317SOL     OW10849   4.172   2.887   1.735
 3317SOL    HW110850   4.269   2.895   1.712
 3317SOL    HW210851   4.144   2.792   1.727
 3318SOL     OW10852   2.598   4.970   4.976
 3318SOL    HW110853   2.621   4.906   4.903
 3318SOL    HW210854   2.511   5.014   4.956
 3319SOL     OW10855   6.982   5.805   6.638
 3319SOL    HW110856   6.962   5.819   6.735
 3319SOL    HW210857   0.054   5.782   6.627
 3320SOL     OW10858   0.916   1.116   6.415
 3320SOL    HW110859   0.987   1.184   6.396
 3320SOL    HW210860   0.929   1.036   6.357
 3321SOL     OW10861   3.841   3.746   4.243
 3321SOL    HW110862   3.779   3.750   4.321
 3321SOL    HW210863   3.845   3.836   4.199
 3322SOL     OW10864   4.337   2.895   1.366
 3322SOL    HW110865   4.314   2.974   1.423
 3322SOL    HW210866   4.307   2.912   1.272
 3323SOL     OW10867   2.749   4.718   6.957
 3323SOL    HW110868   2.798   4.805   6.952
 3323SOL    HW210869   2.709   4.697   6.867
 3324SOL     OW10870   6.304   3.074   1.428
 3324SOL    HW110871   6.304   3.112   1.521
 3324SOL    HW210872   6.230   3.007   1.421
 3325SOL     OW10873   1.076   3.471   6.359
 3325SOL    HW110874   1.070   3.427   6.269
 3325SOL    HW210875   1.098   3.568   6.347
 3326SOL     OW10876   6.637   1.048   1.579
 3326SOL    HW110877   6.723   1.000   1.561
 3326SOL    HW210878   6.624   1.058   1.677
 3327SOL     OW10879   3.877   5.949   1.576
 3327SOL    HW110880   3.799   6.012   1.582
 3327SOL    HW210881   3.882   5.894   1.659
 3328SOL     OW10882   4.967   0.341   3.606
 3328SOL    HW110883   5.020   0.389   3.537
 3328SOL    HW210884   5.013   0.254   3.628
 3329SOL     OW10885   5.565   0.662   6.201
 3329SOL    HW110886   5.543   0.715   6.120
 3329SOL    HW210887   5.487   0.662   6.263
 3330SOL     OW10888   6.897   6.247   3.414
 3330SOL    HW110889   6.965   6.178   3.439
 3330SOL    HW210890   6.943   6.333   3.390
 3331SOL     OW10891   1.614   3.457   2.703
 3331SOL    HW110892   1.565   3.499   2.779
 3331SOL    HW210893   1.679   3.523   2.665
 3332SOL     OW10894   3.233   4.879   0.420
 3332SOL    HW110895   3.299   4.847   0.352
 3332SOL    HW210896   3.204   4.802   0.478
 3333SOL     OW10897   2.409   3.280   1.739
 3333SOL    HW110898   2.371   3.365   1.777
 3333SOL    HW210899   2.484   3.302   1.676
 3334SOL     OW10900   2.052   2.401   1.736
 3334SOL    HW110901   2.046   2.337   1.812
 3334SOL    HW210902   2.019   2.357   1.653
 3335SOL     OW10903   3.853   4.142   4.936
 3335SOL    HW110904   3.880   4.221   4.881
 3335SOL    HW210905   3.863   4.058   4.881
 3336SOL     OW10906   4.528   5.765   5.108
 3336SOL    HW110907   4.591   5.688   5.119
 3336SOL    HW210908   4.563   5.827   5.037
 3337SOL     OW10909   3.710   2.895   2.600
 3337SOL    HW110910   3.650   2.918   2.523
 3337SOL    HW210911   3.805   2.894   2.569
 3338SOL     OW10912   2.836   3.440   1.146
 3338SOL    HW110913   2.849   3.342   1.156
 3338SOL    HW210914   2.868   3.487   1.229
 3339SOL     OW10915   1.880   0.441   6.576
 3339SOL    HW110916   1.843   0.431   6.668
 3339SOL    HW210917   1.936   0.361   6.554
 3340SOL     OW10918   3.930   1.173   5.451
 3340SOL    HW110919   3.945   1.075   5.434
 3340SOL    HW210920   3.966   1.196   5.542
 3341SOL     OW10921   1.265   4.626   1.891
 3341SOL    HW110922   1.325   4.590   1.962
 3341SOL    HW210923   1.274   4.570   1.809
 3342SOL     OW10924   6.422   0.869   2.689
 3342SOL    HW110925   6.474   0.797   2.644
 3342SOL    HW210926   6.478   0.952   2.693
 3343SOL     OW10927   4.445   5.645   0.217
 3343SOL    HW110928   4.353   5.674   0.243
 3343SOL    HW210929   4.471   5.689   0.130
 3344SOL     OW10930   1.073   3.585   2.042
 3344SOL    HW110931   1.141   3.522   2.080
 3344SOL    HW210932   1.007   3.608   2.113
 3345SOL     OW10933   5.741   5.458   1.085
 3345SOL    HW110934   5.758   5.555   1.066
 3345SOL    HW210935   5.672   5.423   1.022
 3346SOL     OW10936   2.027   0.636   6.933
 3346SOL    HW110937   2.007   0.715   6.992
 3346SOL    HW210938   2.083   0.666   6.856
 3347SOL     OW10939   0.516   3.883   5.603
 3347SOL    HW110940   0.503   3.785   5.589
 3347SOL    HW210941   0.439   3.920   5.655
 3348SOL     OW10942   3.736   4.266   5.897
 3348SOL    HW110943   3.786   4.353   5.903
 3348SOL    HW210944   3.756   4.210   5.977
 3349SOL     OW10945   2.302   5.702   2.506
 3349SOL    HW110946   2.399   5.695   2.483
 3349SOL    HW210947   2.247   5.696   2.422
 3350SOL     OW10948   1.680   5.013   4.631
 3350SOL    HW110949   1.612   5.083   4.650
 3350SOL    HW210950   1.637   4.937   4.583
 3351SOL     OW10951   5.501   0.979   2.083
 3351SOL    HW110952   5.490   0.954   2.180
 3351SOL    HW210953   5.429   1.044   2.057
 3352SOL     OW10954   5.744   1.721   6.958
 3352SOL    HW110955   5.825   1.742   7.013
 3352SOL    HW210956   5.727   1.622   6.961
 3353SOL     OW10957   3.789   0.334   0.132
 3353SOL    HW110958   3.692   0.308   0.135
 3353SOL    HW210959   3.800   0.415   0.074
 3354SOL     OW10960   2.819   4.050   6.831
 3354SOL    HW110961   2.893   4.101   6.786
 3354SOL    HW210962   2.734   4.062   6.780
 3355SOL     OW10963   1.193   0.280   4.947
 3355SOL    HW110964   1.252   0.244   4.874
 3355SOL    HW210965   1.134   0.351   4.910
 3356SOL     OW10966   2.172   0.514   6.512
 3356SOL    HW110967   2.207   0.420   6.520
 3356SOL    HW210968   2.072   0.513   6.511
 3357SOL     OW10969   3.095   3.041   2.889
 3357SOL    HW110970   3.093   2.966   2.956
 3357SOL    HW210971   3.178   3.096   2.904
 3358SOL     OW10972   6.900   1.181   2.036
 3358SOL    HW110973   6.960   1.243   2.087
 3358SOL    HW210974   6.955   1.117   1.983
 3359SOL     OW10975   0.960   6.275   5.059
 3359SOL    HW110976   0.890   6.347   5.063
 3359SOL    HW210977   1.050   6.316   5.076
 3360SOL     OW10978   2.057   5.014   4.000
 3360SOL    HW110979   2.035   4.926   4.044
 3360SOL    HW210980   2.011   5.019   3.911
 3361SOL     OW10981   6.744   6.854   5.576
 3361SOL    HW110982   6.677   6.910   5.528
 3361SOL    HW210983   6.743   6.876   5.674
 3362SOL     OW10984   3.820   0.370   3.848
 3362SOL    HW110985   3.877   0.422   3.912
 3362SOL    HW210986   3.731   0.353   3.888
 3363SOL     OW10987   5.553   4.179   0.187
 3363SOL    HW110988   5.460   4.211   0.203
 3363SOL    HW210989   5.618   4.251   0.212
 3364SOL     OW10990   1.582   3.512   2.353
 3364SOL    HW110991   1.527   3.574   2.410
 3364SOL    HW210992   1.640   3.566   2.293
 3365SOL     OW10993   1.011   3.519   3.245
 3365SOL    HW110994   0.994   3.617   3.235
 3365SOL    HW210995   1.002   3.475   3.155
 3366SOL     OW10996   5.800   3.356   4.696
 3366SOL    HW110997   5.870   3.290   4.666
 3366SOL    HW210998   5.787   3.425   4.626
 3367SOL     OW10999   3.381   3.063   3.526
 3367SOL    HW111000   3.405   3.157   3.551
 3367SOL    HW211001   3.283   3.048   3.540
 3368SOL     OW11002   2.940   0.865   2.780
 3368SOL    HW111003   3.027   0.874   2.828
 3368SOL    HW211004   2.906   0.956   2.757
 3369SOL     OW11005   4.715   2.682   0.932
 3369SOL    HW111006   4.665   2.618   0.991
 3369SOL    HW211007   4.650   2.746   0.891
 3370SOL     OW11008   0.155   5.426   2.618
 3370SOL    HW111009   0.136   5.334   2.584
 3370SOL    HW211010   0.125   5.493   2.550
 3371SOL     OW11011   1.986   3.107   1.711
 3371SOL    HW111012   2.037   3.178   1.759
 3371SOL    HW211013   2.038   3.075   1.632
 3372SOL     OW11014   6.046   3.614   3.206
 3372SOL    HW111015   5.981   3.598   3.131
 3372SOL    HW211016   6.008   3.579   3.291
 3373SOL     OW11017   0.099   4.268   1.800
 3373SOL    HW111018   0.040   4.212   1.742
 3373SOL    HW211019   0.193   4.263   1.766
 3374SOL     OW11020   0.734   6.221   3.938
 3374SOL    HW111021   0.782   6.148   3.889
 3374SOL    HW211022   0.780   6.308   3.921
 3375SOL     OW11023   0.500   5.644   6.051
 3375SOL    HW111024   0.519   5.645   6.149
 3375SOL    HW211025   0.499   5.738   6.017
 3376SOL     OW11026   3.538   3.006   4.391
 3376SOL    HW111027   3.571   3.071   4.460
 3376SOL    HW211028   3.615   2.977   4.334
 3377SOL     OW11029   0.130   5.347   4.359
 3377SOL    HW111030   0.144   5.282   4.285
 3377SOL    HW211031   0.155   5.305   4.446
 3378SOL     OW11032   1.657   6.113   1.172
 3378SOL    HW111033   1.621   6.123   1.079
 3378SOL    HW211034   1.654   6.017   1.198
 3379SOL     OW11035   6.335   3.757   4.484
 3379SOL    HW111036   6.299   3.819   4.553
 3379SOL    HW211037   6.325   3.798   4.393
 3380SOL     OW11038   2.405   4.740   0.737
 3380SOL    HW111039   2.490   4.765   0.784
 3380SOL    HW211040   2.423   4.665   0.674
 3381SOL     OW11041   2.534   3.733   5.826
 3381SOL    HW111042   2.529   3.649   5.774
 3381SOL    HW211043   2.450   3.786   5.814
 3382SOL     OW11044   6.763   4.047   6.983
 3382SOL    HW111045   6.843   4.080   0.009
 3382SOL    HW211046   6.680   4.082   0.003
 3383SOL     OW11047   4.276   5.564   6.995
 3383SOL    HW111048   4.231   5.611   0.046
 3383SOL    HW211049   4.218   5.489   6.963
 3384SOL     OW11050   2.737   3.068   6.417
 3384SOL    HW111051   2.835   3.088   6.420
 3384SOL    HW211052   2.686   3.153   6.414
 3385SOL     OW11053   6.343   2.235   4.221
 3385SOL    HW111054   6.427   2.237   4.166
 3385SOL    HW211055   6.345   2.158   4.284
 3386SOL     OW11056   0.117   6.017   4.615
 3386SOL    HW111057   0.046   5.964   4.663
 3386SOL    HW211058   0.143   5.970   4.531
 3387SOL     OW11059   5.867   0.772   2.973
 3387SOL    HW111060   5.951   0.808   3.014
 3387SOL    HW211061   5.792   0.836   2.987
 3388SOL     OW11062   6.684   4.266   1.030
 3388SOL    HW111063   6.757   4.200   1.043
 3388SOL    HW211064   6.595   4.222   1.047
 3389SOL     OW11065   5.663   5.699   6.571
 3389SOL    HW111066   5.672   5.612   6.523
 3389SOL    HW211067   5.713   5.770   6.522
 3390SOL     OW11068   2.948   5.309   6.925
 3390SOL    HW111069   2.950   5.349   6.834
 3390SOL    HW211070   2.898   5.370   6.987
 3391SOL     OW11071   4.889   4.067   4.911
 3391SOL    HW111072   4.894   3.970   4.936
 3391SOL    HW211073   4.819   4.080   4.841
 3392SOL     OW11074   4.429   6.647   6.309
 3392SOL    HW111075   4.333   6.676   6.303
 3392SOL    HW211076   4.486   6.710   6.257
 3393SOL     OW11077   3.524   5.859   0.536
 3393SOL    HW111078   3.558   5.941   0.490
 3393SOL    HW211079   3.425   5.850   0.522
 3394SOL     OW11080   3.089   5.341   1.315
 3394SOL    HW111081   3.055   5.251   1.289
 3394SOL    HW211082   3.182   5.333   1.349
 3395SOL     OW11083   1.871   6.991   2.886
 3395SOL    HW111084   1.804   6.918   2.904
 3395SOL    HW211085   1.895   0.011   2.972
 3396SOL     OW11086   4.564   0.059   4.177
 3396SOL    HW111087   4.613   7.020   4.118
 3396SOL    HW211088   4.555   0.019   4.268
 3397SOL     OW11089   2.545   5.527   6.751
 3397SOL    HW111090   2.628   5.583   6.747
 3397SOL    HW211091   2.556   5.447   6.691
 3398SOL     OW11092   0.084   1.858   5.766
 3398SOL    HW111093   0.130   1.771   5.750
 3398SOL    HW211094   0.024   1.879   5.689
 3399SOL     OW11095   6.634   6.123   2.207
 3399SOL    HW111096   6.688   6.105   2.124
 3399SOL    HW211097   6.584   6.041   2.233
 3400SOL     OW11098   3.845   3.149   5.674
 3400SOL    HW111099   3.889   3.185   5.757
 3400SOL    HW211100   3.756   3.191   5.663
 3401SOL     OW11101   0.112   3.684   4.107
 3401SOL    HW111102   0.033   3.630   4.136
 3401SOL    HW211103   0.120   3.766   4.165
 3402SOL     OW11104   6.422   3.629   0.968
 3402SOL    HW111105   6.343   3.574   0.941
 3402SOL    HW211106   6.487   3.633   0.893
 3403SOL     OW11107   5.139   0.066   6.692
 3403SOL    HW111108   5.098   0.035   6.606
 3403SOL    HW211109   5.154   7.012   6.752
 3404SOL     OW11110   4.990   5.424   3.746
 3404SOL    HW111111   5.087   5.404   3.728
 3404SOL    HW211112   4.963   5.505   3.695
 3405SOL     OW11113   4.290   5.996   6.957
 3405SOL    HW111114   4.354   6.073   6.963
 3405SOL    HW211115   4.340   5.913   6.930
 3406SOL     OW11116   3.082   5.539   1.122
 3406SOL    HW111117   3.102   5.462   1.183
 3406SOL    HW211118   3.098   5.625   1.169
 3407SOL     OW11119   1.283   3.920   6.794
 3407SOL    HW111120   1.187   3.949   6.787
 3407SOL    HW211121   1.316   3.937   6.887
 3408SOL     OW11122   4.603   0.002   3.355
 3408SOL    HW111123   4.526   6.985   3.307
 3408SOL    HW211124   4.580   0.012   3.452
 3409SOL     OW11125   4.035   1.273   7.021
 3409SOL    HW111126   4.053   1.361   6.976
 3409SOL    HW211127   4.121   1.227   0.016
 3410SOL     OW11128   6.484   0.587   3.140
 3410SOL    HW111129   6.503   0.516   3.208
 3410SOL    HW211130   6.402   0.562   3.088
 3411SOL     OW11131   6.218   3.151   5.550
 3411SOL    HW111132   6.275   3.085   5.501
 3411SOL    HW211133   6.257   3.242   5.540
 3412SOL     OW11134   5.594   3.519   2.660
 3412SOL    HW111135   5.663   3.447   2.654
 3412SOL    HW211136   5.541   3.522   2.575
 3413SOL     OW11137   6.515   1.723   0.638
 3413SOL    HW111138   6.490   1.649   0.575
 3413SOL    HW211139   6.451   1.799   0.626
 3414SOL     OW11140   3.553   3.455   1.922
 3414SOL    HW111141   3.481   3.392   1.894
 3414SOL    HW211142   3.642   3.409   1.917
 3415SOL     OW11143   2.211   1.722   5.699
 3415SOL    HW111144   2.152   1.761   5.771
 3415SOL    HW211145   2.257   1.641   5.735
 3416SOL     OW11146   6.307   6.898   6.839
 3416SOL    HW111147   6.392   6.950   6.824
 3416SOL    HW211148   6.324   6.801   6.824
 3417SOL     OW11149   6.554   6.881   2.918
 3417SOL    HW111150   6.546   6.862   2.820
 3417SOL    HW211151   6.649   6.905   2.940
 3418SOL     OW11152   3.980   5.515   0.260
 3418SOL    HW111153   4.042   5.588   0.232
 3418SOL    HW211154   3.891   5.553   0.285
 3419SOL     OW11155   2.498   4.681   5.052
 3419SOL    HW111156   2.474   4.776   5.069
 3419SOL    HW211157   2.545   4.674   4.964
 3420SOL     OW11158   4.408   1.427   2.385
 3420SOL    HW111159   4.506   1.444   2.396
 3420SOL    HW211160   4.357   1.512   2.399
 3421SOL     OW11161   0.199   1.859   5.395
 3421SOL    HW111162   0.228   1.843   5.300
 3421SOL    HW211163   0.107   1.821   5.407
 3422SOL     OW11164   3.064   6.607   0.897
 3422SOL    HW111165   2.966   6.618   0.906
 3422SOL    HW211166   3.099   6.553   0.973
 3423SOL     OW11167   2.666   4.458   5.514
 3423SOL    HW111168   2.622   4.487   5.429
 3423SOL    HW211169   2.735   4.388   5.493
 3424SOL     OW11170   5.260   0.633   2.372
 3424SOL    HW111171   5.237   0.728   2.351
 3424SOL    HW211172   5.312   0.630   2.458
 3425SOL     OW11173   6.497   3.451   6.034
 3425SOL    HW111174   6.579   3.506   6.045
 3425SOL    HW211175   6.475   3.442   5.936
 3426SOL     OW11176   6.083   4.251   0.047
 3426SOL    HW111177   6.076   4.284   0.142
 3426SOL    HW211178   6.179   4.241   0.023
 3427SOL     OW11179   1.784   1.929   0.241
 3427SOL    HW111180   1.773   1.942   0.142
 3427SOL    HW211181   1.875   1.891   0.260
 3428SOL     OW11182   4.987   6.851   5.141
 3428SOL    HW111183   5.068   6.908   5.129
 3428SOL    HW211184   5.012   6.755   5.133
 3429SOL     OW11185   4.465   6.800   1.048
 3429SOL    HW111186   4.519   6.879   1.020
 3429SOL    HW211187   4.421   6.759   0.968
 3430SOL     OW11188   2.657   4.073   6.188
 3430SOL    HW111189   2.591   4.122   6.245
 3430SOL    HW211190   2.633   4.085   6.091
 3431SOL     OW11191   0.748   4.513   2.509
 3431SOL    HW111192   0.831   4.472   2.470
 3431SOL    HW211193   0.669   4.457   2.486
 3432SOL     OW11194   0.546   4.666   0.472
 3432SOL    HW111195   0.612   4.596   0.499
 3432SOL    HW211196   0.562   4.692   0.377
 3433SOL     OW11197   1.722   0.602   0.162
 3433SOL    HW111198   1.805   0.626   0.211
 3433SOL    HW211199   1.724   0.642   0.070
 3434SOL     OW11200   3.687   2.622   1.790
 3434SOL    HW111201   3.777   2.659   1.767
 3434SOL    HW211202   3.695   2.524   1.807
 3435SOL     OW11203   1.810   2.536   1.053
 3435SOL    HW111204   1.720   2.504   1.084
 3435SOL    HW211205   1.881   2.484   1.100
 3436SOL     OW11206   3.519   6.965   6.420
 3436SOL    HW111207   3.533   6.866   6.422
 3436SOL    HW211208   3.424   6.985   6.396
 3437SOL     OW11209   1.518   6.951   0.138
 3437SOL    HW111210   1.496   6.901   0.222
 3437SOL    HW211211   1.534   6.886   0.064
 3438SOL     OW11212   2.424   4.083   0.617
 3438SOL    HW111213   2.330   4.097   0.587
 3438SOL    HW211214   2.439   4.133   0.703
 3439SOL     OW11215   2.940   6.090   0.119
 3439SOL    HW111216   2.870   6.024   0.148
 3439SOL    HW211217   3.022   6.077   0.175
 3440SOL     OW11218   3.388   3.633   5.481
 3440SOL    HW111219   3.352   3.550   5.524
 3440SOL    HW211220   3.364   3.712   5.537
 3441SOL     OW11221   6.521   4.862   4.746
 3441SOL    HW111222   6.453   4.871   4.673
 3441SOL    HW211223   6.486   4.800   4.816
 3442SOL     OW11224   1.778   3.077   1.091
 3442SOL    HW111225   1.854   3.012   1.092
 3442SOL    HW211226   1.692   3.028   1.076
 3443SOL     OW11227   0.657   5.893   2.490
 3443SOL    HW111228   0.740   5.863   2.442
 3443SOL    HW211229   0.677   5.978   2.539
 3444SOL     OW11230   6.675   3.576   5.788
 3444SOL    HW111231   6.725   3.643   5.733
 3444SOL    HW211232   6.672   3.607   5.883
 3445SOL     OW11233   6.290   4.275   4.446
 3445SOL    HW111234   6.371   4.216   4.437
 3445SOL    HW211235   6.278   4.327   4.362
 3446SOL     OW11236   4.763   1.439   0.968
 3446SOL    HW111237   4.707   1.517   0.940
 3446SOL    HW211238   4.828   1.417   0.895
 3447SOL     OW11239   5.848   1.109   6.527
 3447SOL    HW111240   5.882   1.109   6.433
 3447SOL    HW211241   5.923   1.087   6.589
 3448SOL     OW11242   0.862   4.480   4.966
 3448SOL    HW111243   0.882   4.574   4.995
 3448SOL    HW211244   0.764   4.463   4.974
 3449SOL     OW11245   0.422   4.187   5.494
 3449SOL    HW111246   0.432   4.277   5.451
 3449SOL    HW211247   0.347   4.137   5.449
 3450SOL     OW11248   2.418   0.070   2.134
 3450SOL    HW111249   2.364   0.081   2.218
 3450SOL    HW211250   2.356   0.058   2.056
 3451SOL     OW11251   1.785   2.123   0.823
 3451SOL    HW111252   1.721   2.107   0.748
 3451SOL    HW211253   1.870   2.161   0.787
 3452SOL     OW11254   4.263   1.278   5.519
 3452SOL    HW111255   4.323   1.201   5.538
 3452SOL    HW211256   4.180   1.271   5.575
 3453SOL     OW11257   4.085   6.530   6.596
 3453SOL    HW111258   4.177   6.491   6.586
 3453SOL    HW211259   4.043   6.494   6.679
 3454SOL     OW11260   0.014   3.092   2.156
 3454SOL    HW111261   7.021   3.188   2.178
 3454SOL    HW211262   0.085   3.085   2.087
 3455SOL     OW11263   0.479   3.870   6.244
 3455SOL    HW111264   0.434   3.782   6.261
 3455SOL    HW211265   0.498   3.878   6.146
 3456SOL     OW11266   4.844   5.641   3.931
 3456SOL    HW111267   4.835   5.624   3.833
 3456SOL    HW211268   4.926   5.595   3.966
 3457SOL     OW11269   3.777   4.577   6.781
 3457SOL    HW111270   3.732   4.614   6.863
 3457SOL    HW211271   3.727   4.497   6.749
 3458SOL     OW11272   4.047   1.627   2.250
 3458SOL    HW111273   4.016   1.561   2.319
 3458SOL    HW211274   3.986   1.706   2.249
 3459SOL     OW11275   5.314   5.916   2.095
 3459SOL    HW111276   5.236   5.900   2.155
 3459SOL    HW211277   5.292   5.988   2.029
 3460SOL     OW11278   3.794   1.678   4.779
 3460SOL    HW111279   3.826   1.662   4.872
 3460SOL    HW211280   3.783   1.776   4.764
 3461SOL     OW11281   4.746   5.314   4.136
 3461SOL    HW111282   4.747   5.318   4.036
 3461SOL    HW211283   4.669   5.369   4.171
 3462SOL     OW11284   0.766   3.923   6.282
 3462SOL    HW111285   0.803   3.921   6.375
 3462SOL    HW211286   0.671   3.893   6.282
 3463SOL     OW11287   5.319   3.626   0.427
 3463SOL    HW111288   5.360   3.640   0.337
 3463SOL    HW211289   5.259   3.704   0.449
 3464SOL     OW11290   0.154   4.447   4.198
 3464SOL    HW111291   0.134   4.456   4.100
 3464SOL    HW211292   0.204   4.527   4.230
 3465SOL     OW11293   0.764   2.202   2.583
 3465SOL    HW111294   0.828   2.195   2.660
 3465SOL    HW211295   0.695   2.130   2.591
 3466SOL     OW11296   0.036   3.392   4.373
 3466SOL    HW111297   0.017   3.487   4.347
 3466SOL    HW211298   6.981   3.353   4.419
 3467SOL     OW11299   1.916   2.153   5.364
 3467SOL    HW111300   1.872   2.211   5.432
 3467SOL    HW211301   1.995   2.201   5.325
 3468SOL     OW11302   4.377   6.433   2.072
 3468SOL    HW111303   4.378   6.520   2.024
 3468SOL    HW211304   4.461   6.383   2.052
 3469SOL     OW11305   5.344   3.970   1.078
 3469SOL    HW111306   5.424   3.920   1.044
 3469SOL    HW211307   5.367   4.012   1.166
 3470SOL     OW11308   0.040   5.325   1.270
 3470SOL    HW111309   0.116   5.276   1.227
 3470SOL    HW211310   0.030   5.415   1.229
 3471SOL     OW11311   4.144   6.934   4.623
 3471SOL    HW111312   4.236   6.969   4.638
 3471SOL    HW211313   4.122   6.940   4.526
 3472SOL     OW11314   4.552   1.217   4.831
 3472SOL    HW111315   4.566   1.131   4.880
 3472SOL    HW211316   4.641   1.256   4.805
 3473SOL     OW11317   3.965   0.114   3.876
 3473SOL    HW111318   3.929   0.202   3.843
 3473SOL    HW211319   4.022   0.130   3.957
 3474SOL     OW11320   4.863   4.534   1.133
 3474SOL    HW111321   4.868   4.485   1.046
 3474SOL    HW211322   4.919   4.617   1.128
 3475SOL     OW11323   1.682   5.971   4.988
 3475SOL    HW111324   1.729   6.059   4.997
 3475SOL    HW211325   1.749   5.897   4.990
 3476SOL     OW11326   4.347   1.762   4.925
 3476SOL    HW111327   4.398   1.838   4.966
 3476SOL    HW211328   4.404   1.680   4.927
 3477SOL     OW11329   4.356   5.633   1.478
 3477SOL    HW111330   4.260   5.653   1.494
 3477SOL    HW211331   4.370   5.614   1.380
 3478SOL     OW11332   4.097   4.125   0.255
 3478SOL    HW111333   4.043   4.163   0.180
 3478SOL    HW211334   4.176   4.076   0.218
 3479SOL     OW11335   1.490   0.337   1.508
 3479SOL    HW111336   1.489   0.322   1.409
 3479SOL    HW211337   1.504   0.249   1.554
 3480SOL     OW11338   0.908   6.927   4.154
 3480SOL    HW111339   0.913   6.830   4.180
 3480SOL    HW211340   0.974   6.979   4.207
 3481SOL     OW11341   1.761   6.104   0.103
 3481SOL    HW111342   1.828   6.031   0.089
 3481SOL    HW211343   1.741   6.149   0.016
 3482SOL     OW11344   0.933   2.352   2.352
 3482SOL    HW111345   0.945   2.437   2.300
 3482SOL    HW211346   0.840   2.346   2.386
 3483SOL     OW11347   3.670   1.656   0.576
 3483SOL    HW111348   3.670   1.572   0.522
 3483SOL    HW211349   3.758   1.666   0.623
 3484SOL     OW11350   4.119   3.427   3.575
 3484SOL    HW111351   4.064   3.415   3.492
 3484SOL    HW211352   4.135   3.337   3.617
 3485SOL     OW11353   6.476   1.802   4.940
 3485SOL    HW111354   6.557   1.793   4.881
 3485SOL    HW211355   6.433   1.890   4.923
 3486SOL     OW11356   4.853   0.534   2.610
 3486SOL    HW111357   4.888   0.628   2.617
 3486SOL    HW211358   4.844   0.496   2.702
 3487SOL     OW11359   0.578   0.861   0.645
 3487SOL    HW111360   0.601   0.785   0.584
 3487SOL    HW211361   0.593   0.948   0.597
 3488SOL     OW11362   6.561   3.566   4.002
 3488SOL    HW111363   6.564   3.466   3.993
 3488SOL    HW211364   6.641   3.606   3.957
 3489SOL     OW11365   2.302   5.348   0.470
 3489SOL    HW111366   2.310   5.266   0.528
 3489SOL    HW211367   2.251   5.418   0.520
 3490SOL     OW11368   4.282   3.236   1.153
 3490SOL    HW111369   4.192   3.223   1.110
 3490SOL    HW211370   4.351   3.185   1.102
 3491SOL     OW11371   0.295   3.284   5.618
 3491SOL    HW111372   0.234   3.359   5.590
 3491SOL    HW211373   0.382   3.291   5.568
 3492SOL     OW11374   5.897   4.498   6.842
 3492SOL    HW111375   5.986   4.524   6.804
 3492SOL    HW211376   5.872   4.408   6.808
 3493SOL     OW11377   6.976   4.954   1.664
 3493SOL    HW111378   6.944   5.048   1.673
 3493SOL    HW211379   6.903   4.891   1.689
 3494SOL     OW11380   2.761   6.714   0.946
 3494SOL    HW111381   2.684   6.727   0.883
 3494SOL    HW211382   2.727   6.692   1.037
 3495SOL     OW11383   5.845   3.820   0.073
 3495SOL    HW111384   5.901   3.885   0.124
 3495SOL    HW211385   5.875   3.817   7.002
 3496SOL     OW11386   0.838   4.748   0.695
 3496SOL    HW111387   0.832   4.745   0.795
 3496SOL    HW211388   0.779   4.677   0.656
 3497SOL     OW11389   4.403   6.375   4.619
 3497SOL    HW111390   4.364   6.284   4.604
 3497SOL    HW211391   4.367   6.412   4.705
 3498SOL     OW11392   1.196   1.858   0.789
 3498SOL    HW111393   1.170   1.865   0.693
 3498SOL    HW211394   1.286   1.899   0.803
 3499SOL     OW11395   0.091   4.155   4.334
 3499SOL    HW111396   0.185   4.159   4.368
 3499SOL    HW211397   0.084   4.208   4.250
 3500SOL     OW11398   6.127   3.461   0.617
 3500SOL    HW111399   6.029   3.443   0.627
 3500SOL    HW211400   6.161   3.507   0.699
 3501SOL     OW11401   0.903   3.809   3.038
 3501SOL    HW111402   0.968   3.789   2.965
 3501SOL    HW211403   0.948   3.862   3.109
 3502SOL     OW11404   0.878   5.212   2.036
 3502SOL    HW111405   0.851   5.302   2.072
 3502SOL    HW211406   0.972   5.192   2.065
 3503SOL     OW11407   3.611   6.974   3.694
 3503SOL    HW111408   3.698   6.941   3.731
 3503SOL    HW211409   3.567   0.011   3.760
 3504SOL     OW11410   2.291   2.850   2.839
 3504SOL    HW111411   2.304   2.800   2.925
 3504SOL    HW211412   2.327   2.795   2.763
 3505SOL     OW11413   4.252   6.277   4.985
 3505SOL    HW111414   4.280   6.359   4.935
 3505SOL    HW211415   4.314   6.202   4.963
 3506SOL     OW11416   5.836   5.127   2.643
 3506SOL    HW111417   5.857   5.181   2.562
 3506SOL    HW211418   5.902   5.148   2.715
 3507SOL     OW11419   0.123   0.499   6.347
 3507SOL    HW111420   0.207   0.534   6.388
 3507SOL    HW211421   0.112   0.536   6.255
 3508SOL     OW11422   5.947   4.223   6.828
 3508SOL    HW111423   5.852   4.217   6.859
 3508SOL    HW211424   6.004   4.251   6.905
 3509SOL     OW11425   5.928   0.468   0.309
 3509SOL    HW111426   5.851   0.527   0.333
 3509SOL    HW211427   5.900   0.372   0.315
 3510SOL     OW11428   2.283   2.470   2.271
 3510SOL    HW111429   2.362   2.424   2.229
 3510SOL    HW211430   2.222   2.401   2.310
 3511SOL     OW11431   0.731   1.258   5.254
 3511SOL    HW111432   0.791   1.333   5.226
 3511SOL    HW211433   0.778   1.171   5.243
 3512SOL     OW11434   3.073   2.895   1.245
 3512SOL    HW111435   3.039   2.910   1.153
 3512SOL    HW211436   3.032   2.811   1.282
 3513SOL     OW11437   5.142   4.386   1.106
 3513SOL    HW111438   5.144   4.363   1.009
 3513SOL    HW211439   5.078   4.325   1.154
 3514SOL     OW11440   1.589   6.947   2.066
 3514SOL    HW111441   1.661   6.910   2.008
 3514SOL    HW211442   1.550   0.005   2.024
 3515SOL     OW11443   3.711   6.239   3.846
 3515SOL    HW111444   3.767   6.227   3.764
 3515SOL    HW211445   3.770   6.236   3.927
 3516SOL     OW11446   2.128   1.316   0.526
 3516SOL    HW111447   2.083   1.239   0.482
 3516SOL    HW211448   2.226   1.297   0.534
 3517SOL     OW11449   0.613   0.499   6.599
 3517SOL    HW111450   0.674   0.576   6.582
 3517SOL    HW211451   0.632   0.427   6.532
 3518SOL     OW11452   4.695   3.454   5.535
 3518SOL    HW111453   4.621   3.504   5.581
 3518SOL    HW211454   4.775   3.452   5.595
 3519SOL     OW11455   3.268   6.867   0.678
 3519SOL    HW111456   3.179   6.834   0.645
 3519SOL    HW211457   3.334   6.865   0.603
 3520SOL     OW11458   3.972   4.799   1.394
 3520SOL    HW111459   3.881   4.762   1.374
 3520SOL    HW211460   4.011   4.839   1.311
 3521SOL     OW11461   6.030   2.549   6.221
 3521SOL    HW111462   6.051   2.451   6.224
 3521SOL    HW211463   5.947   2.563   6.168
 3522SOL     OW11464   2.813   0.713   0.588
 3522SOL    HW111465   2.779   0.762   0.669
 3522SOL    HW211466   2.767   0.625   0.581
 3523SOL     OW11467   2.651   4.541   5.238
 3523SOL    HW111468   2.610   4.596   5.165
 3523SOL    HW211469   2.751   4.538   5.226
 3524SOL     OW11470   2.101   0.323   1.908
 3524SOL    HW111471   2.082   0.225   1.902
 3524SOL    HW211472   2.163   0.340   1.986
 3525SOL     OW11473   1.466   3.971   2.677
 3525SOL    HW111474   1.527   4.048   2.657
 3525SOL    HW211475   1.490   3.931   2.765
 3526SOL     OW11476   4.116   6.852   3.412
 3526SOL    HW111477   4.049   6.779   3.426
 3526SOL    HW211478   4.156   6.878   3.500
 3527SOL     OW11479   5.460   2.885   6.282
 3527SOL    HW111480   5.525   2.935   6.339
 3527SOL    HW211481   5.484   2.788   6.283
 3528SOL     OW11482   1.330   6.966   4.779
 3528SOL    HW111483   1.360   0.037   4.776
 3528SOL    HW211484   1.341   6.924   4.689
 3529SOL     OW11485   4.026   6.632   0.212
 3529SOL    HW111486   4.077   6.717   0.227
 3529SOL    HW211487   4.091   6.557   0.200
 3530SOL     OW11488   1.992   6.671   2.637
 3530SOL    HW111489   1.910   6.703   2.589
 3530SOL    HW211490   1.979   6.681   2.735
 3531SOL     OW11491   5.257   4.461   6.703
 3531SOL    HW111492   5.272   4.387   6.768
 3531SOL    HW211493   5.226   4.543   6.751
 3532SOL     OW11494   1.789   6.583   0.689
 3532SOL    HW111495   1.828   6.495   0.662
 3532SOL    HW211496   1.863   6.650   0.699
 3533SOL     OW11497   1.468   1.275   4.114
 3533SOL    HW111498   1.399   1.331   4.067
 3533SOL    HW211499   1.512   1.329   4.185
 3534SOL     OW11500   5.275   0.778   5.415
 3534SOL    HW111501   5.274   0.702   5.480
 3534SOL    HW211502   5.213   0.758   5.339
 3535SOL     OW11503   4.970   6.409   6.710
 3535SOL    HW111504   4.931   6.499   6.731
 3535SOL    HW211505   4.905   6.357   6.654
 3536SOL     OW11506   0.890   3.852   2.442
 3536SOL    HW111507   0.795   3.827   2.460
 3536SOL    HW211508   0.950   3.773   2.455
 3537SOL     OW11509   2.681   4.182   1.029
 3537SOL    HW111510   2.676   4.083   1.042
 3537SOL    HW211511   2.707   4.226   1.115
 3538SOL     OW11512   4.298   1.108   3.407
 3538SOL    HW111513   4.334   1.029   3.357
 3538SOL    HW211514   4.283   1.082   3.503
 3539SOL     OW11515   5.468   5.994   6.099
 3539SOL    HW111516   5.475   5.907   6.149
 3539SOL    HW211517   5.508   6.067   6.153
 3540SOL     OW11518   2.749   4.629   6.000
 3540SOL    HW111519   2.846   4.632   5.975
 3540SOL    HW211520   2.695   4.671   5.927
 3541SOL     OW11521   1.443   2.704   1.846
 3541SOL    HW111522   1.440   2.795   1.805
 3541SOL    HW211523   1.483   2.639   1.781
 3542SOL     OW11524   6.331   1.638   6.799
 3542SOL    HW111525   6.394   1.711   6.825
 3542SOL    HW211526   6.240   1.676   6.785
 3543SOL     OW11527   0.514   1.986   3.650
 3543SOL    HW111528   0.610   1.963   3.666
 3543SOL    HW211529   0.472   1.915   3.593
 3544SOL     OW11530   2.857   4.155   0.052
 3544SOL    HW111531   2.954   4.143   0.033
 3544SOL    HW211532   2.804   4.113   7.003
 3545SOL     OW11533   3.963   7.018   0.518
 3545SOL    HW111534   3.907   6.981   0.444
 3545SOL    HW211535   3.982   0.090   0.501
 3546SOL     OW11536   6.718   4.379   1.689
 3546SOL    HW111537   6.802   4.333   1.716
 3546SOL    HW211538   6.655   4.313   1.648
 3547SOL     OW11539   1.179   4.061   4.990
 3547SOL    HW111540   1.156   3.976   4.941
 3547SOL    HW211541   1.226   4.123   4.927
 3548SOL     OW11542   6.080   0.023   6.322
 3548SOL    HW111543   6.042   0.098   6.268
 3548SOL    HW211544   6.099   0.055   6.414
 3549SOL     OW11545   2.247   6.162   6.734
 3549SOL    HW111546   2.252   6.166   6.834
 3549SOL    HW211547   2.153   6.182   6.705
 3550SOL     OW11548   5.462   1.229   5.477
 3550SOL    HW111549   5.432   1.194   5.566
 3550SOL    HW211550   5.516   1.312   5.490
 3551SOL     OW11551   5.113   1.835   4.853
 3551SOL    HW111552   5.080   1.848   4.759
 3551SOL    HW211553   5.209   1.809   4.852
 3552SOL     OW11554   6.357   0.137   3.757
 3552SOL    HW111555   6.269   0.108   3.719
 3552SOL    HW211556   6.360   0.236   3.763
 3553SOL     OW11557   5.850   5.939   6.895
 3553SOL    HW111558   5.908   5.947   6.976
 3553SOL    HW211559   5.908   5.936   6.813
 3554SOL     OW11560   4.825   4.514   0.081
 3554SOL    HW111561   4.734   4.531   0.119
 3554SOL    HW211562   4.840   4.416   0.072
 3555SOL     OW11563   2.832   1.382   5.024
 3555SOL    HW111564   2.892   1.308   5.054
 3555SOL    HW211565   2.863   1.468   5.064
 3556SOL     OW11566   5.678   1.032   0.839
 3556SOL    HW111567   5.719   1.106   0.892
 3556SOL    HW211568   5.614   1.070   0.772
 3557SOL     OW11569   5.564   6.739   1.628
 3557SOL    HW111570   5.608   6.829   1.636
 3557SOL    HW211571   5.563   6.695   1.718
 3558SOL     OW11572   3.537   5.638   2.247
 3558SOL    HW111573   3.530   5.539   2.231
 3558SOL    HW211574   3.447   5.674   2.272
 3559SOL     OW11575   4.276   6.392   6.907
 3559SOL    HW111576   4.307   6.327   6.838
 3559SOL    HW211577   4.260   6.481   6.865
 3560SOL     OW11578   1.137   5.631   4.023
 3560SOL    HW111579   1.125   5.554   4.086
 3560SOL    HW211580   1.234   5.651   4.012
 3561SOL     OW11581   4.548   3.350   5.314
 3561SOL    HW111582   4.602   3.390   5.388
 3561SOL    HW211583   4.543   3.414   5.238
 3562SOL     OW11584   3.081   1.508   0.485
 3562SOL    HW111585   3.167   1.520   0.535
 3562SOL    HW211586   3.031   1.595   0.484
 3563SOL     OW11587   6.530   2.472   6.292
 3563SOL    HW111588   6.463   2.497   6.361
 3563SOL    HW211589   6.500   2.503   6.202
 3564SOL     OW11590   6.173   3.678   2.647
 3564SOL    HW111591   6.167   3.606   2.578
 3564SOL    HW211592   6.108   3.751   2.625
 3565SOL     OW11593   4.733   5.938   6.059
 3565SOL    HW111594   4.725   6.024   6.009
 3565SOL    HW211595   4.642   5.905   6.084
 3566SOL     OW11596   1.296   1.049   5.268
 3566SOL    HW111597   1.263   1.051   5.173
 3566SOL    HW211598   1.392   1.075   5.270
 3567SOL     OW11599   0.080   3.712   6.851
 3567SOL    HW111600   0.017   3.720   6.927
 3567SOL    HW211601   0.149   3.642   6.872
 3568SOL     OW11602   5.556   3.697   6.448
 3568SOL    HW111603   5.625   3.768   6.432
 3568SOL    HW211604   5.509   3.715   6.535
 3569SOL     OW11605   1.394   0.500   3.769
 3569SOL    HW111606   1.390   0.556   3.686
 3569SOL    HW211607   1.399   0.560   3.849
 3570SOL     OW11608   5.666   1.734   4.686
 3570SOL    HW111609   5.751   1.725   4.739
 3570SOL    HW211610   5.635   1.643   4.658
 3571SOL     OW11611   6.615   6.415   5.233
 3571SOL    HW111612   6.560   6.491   5.199
 3571SOL    HW211613   6.555   6.346   5.274
 3572SOL     OW11614   6.189   6.375   5.877
 3572SOL    HW111615   6.149   6.422   5.956
 3572SOL    HW211616   6.130   6.300   5.849
 3573SOL     OW11617   0.500   2.126   2.095
 3573SOL    HW111618   0.512   2.132   2.194
 3573SOL    HW211619   0.559   2.192   2.049
 3574SOL     OW11620   6.321   3.615   0.496
 3574SOL    HW111621   6.271   3.555   0.558
 3574SOL    HW211622   6.387   3.669   0.548
 3575SOL     OW11623   6.413   5.641   1.939
 3575SOL    HW111624   6.481   5.695   1.890
 3575SOL    HW211625   6.332   5.629   1.881
 3576SOL     OW11626   0.367   1.054   6.673
 3576SOL    HW111627   0.440   1.112   6.710
 3576SOL    HW211628   0.301   1.034   6.746
 3577SOL     OW11629   2.470   3.590   6.358
 3577SOL    HW111630   2.402   3.617   6.426
 3577SOL    HW211631   2.521   3.670   6.328
 3578SOL     OW11632   3.562   4.279   1.773
 3578SOL    HW111633   3.597   4.372   1.766
 3578SOL    HW211634   3.466   4.281   1.799
 3579SOL     OW11635   1.878   4.377   4.830
 3579SOL    HW111636   1.795   4.420   4.864
 3579SOL    HW211637   1.858   4.284   4.799
 3580SOL     OW11638   6.990   3.144   1.561
 3580SOL    HW111639   6.903   3.097   1.547
 3580SOL    HW211640   6.976   3.224   1.619
 3581SOL     OW11641   5.721   1.182   3.192
 3581SOL    HW111642   5.682   1.245   3.124
 3581SOL    HW211643   5.683   1.204   3.282
 3582SOL     OW11644   0.015   0.371   5.227
 3582SOL    HW111645   0.039   0.372   5.324
 3582SOL    HW211646   0.052   0.289   5.184
 3583SOL     OW11647   1.864   5.293   1.543
 3583SOL    HW111648   1.768   5.286   1.516
 3583SOL    HW211649   1.877   5.247   1.631
 3584SOL     OW11650   5.952   0.119   5.723
 3584SOL    HW111651   5.902   0.080   5.800
 3584SOL    HW211652   6.014   0.190   5.757
 3585SOL     OW11653   2.337   4.733   3.947
 3585SOL    HW111654   2.388   4.658   3.904
 3585SOL    HW211655   2.290   4.699   4.029
 3586SOL     OW11656   1.066   1.318   6.196
 3586SOL    HW111657   0.972   1.348   6.182
 3586SOL    HW211658   1.126   1.365   6.132
 3587SOL     OW11659   3.663   6.906   6.672
 3587SOL    HW111660   3.724   6.982   6.653
 3587SOL    HW211661   3.590   6.936   6.734
 3588SOL     OW11662   2.136   1.257   5.426
 3588SOL    HW111663   2.204   1.271   5.498
 3588SOL    HW211664   2.132   1.160   5.401
 3589SOL     OW11665   3.662   0.347   4.807
 3589SOL    HW111666   3.563   0.337   4.818
 3589SOL    HW211667   3.681   0.392   4.720
 3590SOL     OW11668   1.110   4.982   6.887
 3590SOL    HW111669   1.168   5.001   6.966
 3590SOL    HW211670   1.072   4.890   6.895
 3591SOL     OW11671   5.494   2.563   6.012
 3591SOL    HW111672   5.553   2.593   5.936
 3591SOL    HW211673   5.502   2.464   6.023
 3592SOL     OW11674   5.252   2.313   2.194
 3592SOL    HW111675   5.199   2.247   2.142
 3592SOL    HW211676   5.219   2.406   2.173
 3593SOL     OW11677   0.698   5.137   4.183
 3593SOL    HW111678   0.610   5.185   4.174
 3593SOL    HW211679   0.749   5.147   4.098
 3594SOL     OW11680   4.240   1.514   4.598
 3594SOL    HW111681   4.189   1.590   4.640
 3594SOL    HW211682   4.319   1.492   4.655
 3595SOL     OW11683   1.711   5.954   6.224
 3595SOL    HW111684   1.689   6.008   6.306
 3595SOL    HW211685   1.664   5.993   6.145
 3596SOL     OW11686   0.485   3.875   3.333
 3596SOL    HW111687   0.418   3.930   3.381
 3596SOL    HW211688   0.504   3.792   3.386
 3597SOL     OW11689   3.649   6.535   3.750
 3597SOL    HW111690   3.731   6.593   3.751
 3597SOL    HW211691   3.677   6.439   3.740
 3598SOL     OW11692   1.592   0.292   0.763
 3598SOL    HW111693   1.537   0.351   0.704
 3598SOL    HW211694   1.682   0.278   0.722
 3599SOL     OW11695   6.559   1.515   4.116
 3599SOL    HW111696   6.533   1.437   4.173
 3599SOL    HW211697   6.654   1.504   4.084
 3600SOL     OW11698   6.889   0.682   1.509
 3600SOL    HW111699   6.798   0.644   1.490
 3600SOL    HW211700   6.928   0.635   1.588
 3601SOL     OW11701   6.256   3.313   5.299
 3601SOL    HW111702   6.277   3.238   5.237
 3601SOL    HW211703   6.162   3.305   5.331
 3602SOL     OW11704   2.747   2.190   0.457
 3602SOL    HW111705   2.733   2.107   0.403
 3602SOL    HW211706   2.841   2.223   0.445
 3603SOL     OW11707   4.263   5.258   4.657
 3603SOL    HW111708   4.301   5.350   4.652
 3603SOL    HW211709   4.300   5.202   4.582
 3604SOL     OW11710   0.153   3.823   3.364
 3604SOL    HW111711   0.118   3.886   3.433
 3604SOL    HW211712   0.192   3.874   3.288
 3605SOL     OW11713   6.188   3.164   6.573
 3605SOL    HW111714   6.162   3.255   6.542
 3605SOL    HW211715   6.116   3.126   6.631
 3606SOL     OW11716   1.804   4.255   4.110
 3606SOL    HW111717   1.836   4.215   4.024
 3606SOL    HW211718   1.864   4.227   4.185
 3607SOL     OW11719   4.271   6.935   0.041
 3607SOL    HW111720   4.236   6.921   0.134
 3607SOL    HW211721   4.197   6.918   7.000
 3608SOL     OW11722   0.334   2.741   2.693
 3608SOL    HW111723   0.315   2.806   2.619
 3608SOL    HW211724   0.416   2.688   2.672
 3609SOL     OW11725   6.816   6.879   5.273
 3609SOL    HW111726   6.791   6.884   5.176
 3609SOL    HW211727   6.825   6.784   5.300
 3610SOL     OW11728   1.496   5.675   5.072
 3610SOL    HW111729   1.565   5.667   5.144
 3610SOL    HW211730   1.406   5.693   5.113
 3611SOL     OW11731   4.267   5.215   5.462
 3611SOL    HW111732   4.280   5.235   5.365
 3611SOL    HW211733   4.203   5.281   5.501
 3612SOL     OW11734   1.691   6.459   1.030
 3612SOL    HW111735   1.604   6.479   1.075
 3612SOL    HW211736   1.685   6.481   0.933
 3613SOL     OW11737   5.161   4.888   6.101
 3613SOL    HW111738   5.100   4.809   6.110
 3613SOL    HW211739   5.254   4.862   6.129
 3614SOL     OW11740   4.093   3.618   4.235
 3614SOL    HW111741   4.001   3.657   4.239
 3614SOL    HW211742   4.088   3.524   4.202
 3615SOL     OW11743   6.311   6.066   6.371
 3615SOL    HW111744   6.322   5.978   6.324
 3615SOL    HW211745   6.217   6.075   6.403
 3616SOL     OW11746   6.607   0.948   5.157
 3616SOL    HW111747   6.551   0.865   5.162
 3616SOL    HW211748   6.702   0.924   5.141
 3617SOL     OW11749   6.961   0.482   0.114
 3617SOL    HW111750   6.978   0.559   0.052
 3617SOL    HW211751   6.896   0.420   0.072
 3618SOL     OW11752   2.753   0.215   5.670
 3618SOL    HW111753   2.750   0.284   5.742
 3618SOL    HW211754   2.802   0.134   5.702
 3619SOL     OW11755   5.404   3.739   3.943
 3619SOL    HW111756   5.313   3.705   3.921
 3619SOL    HW211757   5.450   3.675   4.004
 3620SOL     OW11758   6.319   1.080   5.075
 3620SOL    HW111759   6.335   0.985   5.103
 3620SOL    HW211760   6.289   1.082   4.980
 3621SOL     OW11761   1.434   2.969   5.672
 3621SOL    HW111762   1.527   2.997   5.694
 3621SOL    HW211763   1.384   2.948   5.756
 3622SOL     OW11764   0.534   3.317   0.670
 3622SOL    HW111765   0.458   3.313   0.605
 3622SOL    HW211766   0.582   3.229   0.669
 3623SOL     OW11767   7.008   5.502   4.190
 3623SOL    HW111768   0.036   5.454   4.260
 3623SOL    HW211769   7.009   5.600   4.208
 3624SOL     OW11770   1.909   1.173   1.948
 3624SOL    HW111771   1.932   1.177   2.045
 3624SOL    HW211772   1.812   1.197   1.936
 3625SOL     OW11773   0.498   3.190   4.765
 3625SOL    HW111774   0.453   3.176   4.676
 3625SOL    HW211775   0.443   3.253   4.820
 3626SOL     OW11776   2.641   3.866   5.296
 3626SOL    HW111777   2.577   3.900   5.227
 3626SOL    HW211778   2.595   3.801   5.357
 3627SOL     OW11779   3.009   3.293   3.577
 3627SOL    HW111780   3.058   3.380   3.587
 3627SOL    HW211781   2.964   3.290   3.488
 3628SOL     OW11782   3.200   5.312   3.086
 3628SOL    HW111783   3.201   5.348   3.179
 3628SOL    HW211784   3.218   5.214   3.087
 3629SOL     OW11785   6.019   2.263   4.965
 3629SOL    HW111786   6.070   2.187   5.005
 3629SOL    HW211787   5.922   2.239   4.960
 3630SOL     OW11788   5.545   1.989   4.625
 3630SOL    HW111789   5.573   1.894   4.612
 3630SOL    HW211790   5.477   2.014   4.557
 3631SOL     OW11791   1.950   0.615   4.192
 3631SOL    HW111792   1.922   0.599   4.287
 3631SOL    HW211793   1.948   0.528   4.142
 3632SOL     OW11794   3.860   0.066   6.637
 3632SOL    HW111795   3.856   0.137   6.708
 3632SOL    HW211796   3.952   0.027   6.633
 3633SOL     OW11797   2.206   2.908   5.753
 3633SOL    HW111798   2.206   2.878   5.657
 3633SOL    HW211799   2.212   2.828   5.813
 3634SOL     OW11800   2.729   5.842   5.470
 3634SOL    HW111801   2.652   5.794   5.427
 3634SOL    HW211802   2.761   5.914   5.408
 3635SOL     OW11803   1.967   0.879   4.939
 3635SOL    HW111804   1.985   0.840   5.029
 3635SOL    HW211805   2.023   0.833   4.871
 3636SOL     OW11806   1.334   5.500   6.222
 3636SOL    HW111807   1.296   5.428   6.279
 3636SOL    HW211808   1.419   5.533   6.263
 3637SOL     OW11809   5.243   1.360   1.937
 3637SOL    HW111810   5.226   1.401   1.848
 3637SOL    HW211811   5.278   1.430   2.000
 3638SOL     OW11812   6.347   4.353   3.762
 3638SOL    HW111813   6.310   4.435   3.718
 3638SOL    HW211814   6.435   4.331   3.721
 3639SOL     OW11815   2.528   5.210   0.021
 3639SOL    HW111816   2.452   5.231   6.984
 3639SOL    HW211817   2.495   5.200   0.114
 3640SOL     OW11818   3.100   5.802   1.240
 3640SOL    HW111819   3.014   5.834   1.281
 3640SOL    HW211820   3.126   5.863   1.166
 3641SOL     OW11821   2.324   0.079   4.521
 3641SOL    HW111822   2.232   0.044   4.537
 3641SOL    HW211823   2.379   0.009   4.475
 3642SOL     OW11824   6.127   6.888   3.283
 3642SOL    HW111825   6.131   6.985   3.306
 3642SOL    HW211826   6.205   6.840   3.324
 3643SOL     OW11827   3.213   4.509   5.734
 3643SOL    HW111828   3.283   4.476   5.798
 3643SOL    HW211829   3.178   4.431   5.680
 3644SOL     OW11830   0.160   0.804   0.205
 3644SOL    HW111831   0.195   0.716   0.238
 3644SOL    HW211832   0.061   0.799   0.194
 3645SOL     OW11833   3.250   6.585   2.783
 3645SOL    HW111834   3.291   6.673   2.806
 3645SOL    HW211835   3.158   6.600   2.747
 3646SOL     OW11836   6.508   5.414   4.487
 3646SOL    HW111837   6.526   5.493   4.428
 3646SOL    HW211838   6.589   5.396   4.543
 3647SOL     OW11839   2.456   2.701   1.557
 3647SOL    HW111840   2.388   2.630   1.574
 3647SOL    HW211841   2.427   2.786   1.601
 3648SOL     OW11842   2.828   5.915   3.288
 3648SOL    HW111843   2.830   5.833   3.231
 3648SOL    HW211844   2.742   5.964   3.273
 3649SOL     OW11845   3.172   3.596   2.234
 3649SOL    HW111846   3.109   3.666   2.201
 3649SOL    HW211847   3.137   3.557   2.319
 3650SOL     OW11848   6.633   6.832   1.478
 3650SOL    HW111849   6.579   6.755   1.441
 3650SOL    HW211850   6.723   6.799   1.505
 3651SOL     OW11851   1.630   5.815   2.669
 3651SOL    HW111852   1.723   5.830   2.700
 3651SOL    HW211853   1.618   5.720   2.640
 3652SOL     OW11854   4.258   5.152   3.016
 3652SOL    HW111855   4.332   5.200   3.064
 3652SOL    HW211856   4.295   5.104   2.937
 3653SOL     OW11857   0.304   2.744   4.174
 3653SOL    HW111858   0.251   2.662   4.194
 3653SOL    HW211859   0.362   2.766   4.253
 3654SOL     OW11860   1.451   6.420   1.299
 3654SOL    HW111861   1.540   6.399   1.341
 3654SOL    HW211862   1.466   6.467   1.212
 3655SOL     OW11863   0.960   0.668   4.248
 3655SOL    HW111864   1.054   0.698   4.232
 3655SOL    HW211865   0.906   0.744   4.283
 3656SOL     OW11866   2.427   1.961   2.223
 3656SOL    HW111867   2.330   1.978   2.242
 3656SOL    HW211868   2.483   2.009   2.290
 3657SOL     OW11869   3.876   5.507   1.338
 3657SOL    HW111870   3.837   5.415   1.346
 3657SOL    HW211871   3.906   5.538   1.429
 3658SOL     OW11872   1.306   5.458   5.926
 3658SOL    HW111873   1.222   5.417   5.890
 3658SOL    HW211874   1.299   5.466   6.025
 3659SOL     OW11875   1.056   4.386   0.298
 3659SOL    HW111876   1.079   4.353   0.389
 3659SOL    HW211877   1.028   4.308   0.241
 3660SOL     OW11878   4.601   5.910   0.903
 3660SOL    HW111879   4.662   5.940   0.830
 3660SOL    HW211880   4.615   5.966   0.985
 3661SOL     OW11881   5.426   1.411   1.174
 3661SOL    HW111882   5.352   1.473   1.199
 3661SOL    HW211883   5.390   1.318   1.165
 3662SOL     OW11884   3.077   6.539   5.420
 3662SOL    HW111885   3.029   6.625   5.404
 3662SOL    HW211886   3.095   6.529   5.518
 3663SOL     OW11887   1.018   3.509   5.929
 3663SOL    HW111888   0.941   3.514   5.866
 3663SOL    HW211889   1.084   3.582   5.909
 3664SOL     OW11890   3.969   1.196   1.078
 3664SOL    HW111891   4.052   1.156   1.117
 3664SOL    HW211892   3.962   1.292   1.106
 3665SOL     OW11893   1.113   6.685   5.623
 3665SOL    HW111894   1.122   6.766   5.680
 3665SOL    HW211895   1.018   6.655   5.622
 3666SOL     OW11896   0.557   5.473   3.823
 3666SOL    HW111897   0.643   5.521   3.843
 3666SOL    HW211898   0.519   5.508   3.737
 3667SOL     OW11899   6.612   1.788   6.495
 3667SOL    HW111900   6.642   1.860   6.557
 3667SOL    HW211901   6.608   1.824   6.401
 3668SOL     OW11902   1.433   6.111   1.976
 3668SOL    HW111903   1.426   6.019   2.014
 3668SOL    HW211904   1.512   6.116   1.915
 3669SOL     OW11905   6.655   2.096   3.089
 3669SOL    HW111906   6.607   2.160   3.149
 3669SOL    HW211907   6.718   2.146   3.030
 3670SOL     OW11908   1.713   5.250   5.865
 3670SOL    HW111909   1.717   5.340   5.910
 3670SOL    HW211910   1.617   5.222   5.858
 3671SOL     OW11911   1.036   0.799   3.699
 3671SOL    HW111912   0.978   0.834   3.626
 3671SOL    HW211913   1.132   0.808   3.673
 3672SOL     OW11914   7.013   0.186   1.208
 3672SOL    HW111915   0.081   0.188   1.247
 3672SOL    HW211916   6.954   0.248   1.260
 3673SOL     OW11917   4.622   0.340   7.000
 3673SOL    HW111918   4.551   0.409   7.019
 3673SOL    HW211919   4.602   0.295   6.914
 3674SOL     OW11920   1.115   6.542   0.975
 3674SOL    HW111921   1.119   6.542   0.875
 3674SOL    HW211922   1.128   6.635   1.009
 3675SOL     OW11923   1.935   1.889   4.868
 3675SOL    HW111924   1.868   1.815   4.860
 3675SOL    HW211925   1.889   1.977   4.861
 3676SOL     OW11926   2.323   5.403   2.590
 3676SOL    HW111927   2.242   5.440   2.636
 3676SOL    HW211928   2.374   5.478   2.547
 3677SOL     OW11929   6.274   6.758   4.217
 3677SOL    HW111930   6.188   6.716   4.246
 3677SOL    HW211931   6.304   6.716   4.131
 3678SOL     OW11932   1.287   1.796   3.890
 3678SOL    HW111933   1.251   1.845   3.811
 3678SOL    HW211934   1.371   1.841   3.922
 3679SOL     OW11935   0.202   1.410   1.597
 3679SOL    HW111936   0.162   1.452   1.515
 3679SOL    HW211937   0.198   1.311   1.589
 3680SOL     OW11938   6.827   3.547   4.699
 3680SOL    HW111939   6.792   3.456   4.676
 3680SOL    HW211940   6.789   3.614   4.635
 3681SOL     OW11941   5.889   6.108   4.880
 3681SOL    HW111942   5.836   6.191   4.897
 3681SOL    HW211943   5.833   6.028   4.899
 3682SOL     OW11944   0.766   2.258   6.199
 3682SOL    HW111945   0.842   2.213   6.246
 3682SOL    HW211946   0.729   2.330   6.258
 3683SOL     OW11947   5.580   6.310   3.639
 3683SOL    HW111948   5.595   6.408   3.640
 3683SOL    HW211949   5.489   6.289   3.604
 3684SOL     OW11950   1.585   3.249   0.720
 3684SOL    HW111951   1.487   3.244   0.736
 3684SOL    HW211952   1.622   3.157   0.706
 3685SOL     OW11953   6.455   6.631   6.788
 3685SOL    HW111954   6.436   6.538   6.756
 3685SOL    HW211955   6.443   6.695   6.713
 3686SOL     OW11956   5.987   4.163   1.200
 3686SOL    HW111957   6.037   4.221   1.136
 3686SOL    HW211958   6.050   4.129   1.270
 3687SOL     OW11959   3.169   1.473   6.957
 3687SOL    HW111960   3.095   1.442   7.016
 3687SOL    HW211961   3.252   1.487   7.012
 3688SOL     OW11962   0.632   3.263   6.901
 3688SOL    HW111963   0.576   3.211   6.836
 3688SOL    HW211964   0.719   3.216   6.915
 3689SOL     OW11965   2.528   0.827   3.879
 3689SOL    HW111966   2.492   0.901   3.822
 3689SOL    HW211967   2.605   0.861   3.932
 3690SOL     OW11968   5.672   6.068   5.384
 3690SOL    HW111969   5.669   5.969   5.369
 3690SOL    HW211970   5.698   6.087   5.478
 3691SOL     OW11971   3.374   2.564   0.039
 3691SOL    HW111972   3.348   2.620   0.117
 3691SOL    HW211973   3.445   2.500   0.066
 3692SOL     OW11974   2.306   0.374   6.087
 3692SOL    HW111975   2.378   0.390   6.020
 3692SOL    HW211976   2.238   0.447   6.081
 3693SOL     OW11977   2.738   2.347   3.126
 3693SOL    HW111978   2.831   2.316   3.109
 3693SOL    HW211979   2.685   2.273   3.168
 3694SOL     OW11980   2.242   6.033   2.822
 3694SOL    HW111981   2.165   6.096   2.817
 3694SOL    HW211982   2.325   6.083   2.847
 3695SOL     OW11983   1.564   2.149   2.113
 3695SOL    HW111984   1.656   2.151   2.152
 3695SOL    HW211985   1.545   2.058   2.076
 3696SOL     OW11986   3.047   6.715   5.875
 3696SOL    HW111987   3.084   6.801   5.841
 3696SOL    HW211988   3.097   6.688   5.958
 3697SOL     OW11989   5.827   6.969   4.438
 3697SOL    HW111990   5.742   6.984   4.386
 3697SOL    HW211991   5.855   0.031   4.480
 3698SOL     OW11992   2.990   6.985   5.452
 3698SOL    HW111993   2.939   6.908   5.415
 3698SOL    HW211994   2.932   0.041   5.456
 3699SOL     OW11995   1.070   3.863   2.207
 3699SOL    HW111996   1.116   3.875   2.120
 3699SOL    HW211997   0.971   3.873   2.195
 3700SOL     OW11998   0.375   6.720   4.335
 3700SOL    HW111999   0.449   6.786   4.330
 3700SOL    HW212000   0.372   6.666   4.251
 3701SOL     OW12001   5.751   0.519   3.712
 3701SOL    HW112002   5.713   0.602   3.753
 3701SOL    HW212003   5.806   0.470   3.780
 3702SOL     OW12004   3.769   0.816   0.186
 3702SOL    HW112005   3.837   0.879   0.147
 3702SOL    HW212006   3.816   0.745   0.238
 3703SOL     OW12007   4.532   4.774   6.425
 3703SOL    HW112008   4.532   4.841   6.350
 3703SOL    HW212009   4.583   4.812   6.503
 3704SOL     OW12010   2.456   0.670   2.040
 3704SOL    HW112011   2.547   0.638   2.013
 3704SOL    HW212012   2.402   0.689   1.959
 3705SOL     OW12013   5.582   0.932   4.159
 3705SOL    HW112014   5.496   0.971   4.126
 3705SOL    HW212015   5.654   1.001   4.154
 3706SOL     OW12016   1.843   1.896   4.279
 3706SOL    HW112017   1.751   1.930   4.258
 3706SOL    HW212018   1.911   1.951   4.233
 3707SOL     OW12019   4.360   2.666   5.281
 3707SOL    HW112020   4.293   2.602   5.245
 3707SOL    HW212021   4.317   2.755   5.296
 3708SOL     OW12022   6.190   6.850   6.125
 3708SOL    HW112023   6.240   6.893   6.050
 3708SOL    HW212024   6.138   6.919   6.174
 3709SOL     OW12025   4.574   0.455   0.736
 3709SOL    HW112026   4.578   0.532   0.800
 3709SOL    HW212027   4.599   0.485   0.645
 3710SOL     OW12028   0.206   5.193   1.098
 3710SOL    HW112029   0.209   5.111   1.156
 3710SOL    HW212030   0.160   5.171   1.012
 3711SOL     OW12031   6.345   4.920   3.286
 3711SOL    HW112032   6.334   5.008   3.332
 3711SOL    HW212033   6.393   4.857   3.346
 3712SOL     OW12034   2.292   6.972   0.791
 3712SOL    HW112035   2.253   6.924   0.870
 3712SOL    HW212036   2.226   0.012   0.755
 3713SOL     OW12037   3.759   5.641   5.923
 3713SOL    HW112038   3.792   5.731   5.894
 3713SOL    HW212039   3.695   5.651   5.999
 3714SOL     OW12040   3.867   1.013   4.835
 3714SOL    HW112041   3.774   0.978   4.823
 3714SOL    HW212042   3.930   0.937   4.844
 3715SOL     OW12043   5.455   3.808   4.394
 3715SOL    HW112044   5.416   3.822   4.485
 3715SOL    HW212045   5.496   3.894   4.362
 3716SOL     OW12046   0.345   1.460   4.291
 3716SOL    HW112047   0.273   1.424   4.351
 3716SOL    HW212048   0.324   1.554   4.267
 3717SOL     OW12049   5.331   6.979   0.202
 3717SOL    HW112050   5.238   6.983   0.237
 3717SOL    HW212051   5.343   0.024   0.131
 3718SOL     OW12052   0.319   5.644   0.406
 3718SOL    HW112053   0.392   5.697   0.450
 3718SOL    HW212054   0.251   5.618   0.474
 3719SOL     OW12055   3.728   4.978   5.412
 3719SOL    HW112056   3.682   4.889   5.411
 3719SOL    HW212057   3.737   5.012   5.319
 3720SOL     OW12058   0.396   1.907   5.725
 3720SOL    HW112059   0.325   1.842   5.698
 3720SOL    HW212060   0.403   1.979   5.656
 3721SOL     OW12061   4.443   3.454   1.037
 3721SOL    HW112062   4.459   3.394   0.959
 3721SOL    HW212063   4.373   3.413   1.096
 3722SOL     OW12064   6.027   5.742   2.110
 3722SOL    HW112065   6.044   5.805   2.034
 3722SOL    HW212066   5.993   5.655   2.073
 3723SOL     OW12067   4.492   1.279   0.746
 3723SOL    HW112068   4.484   1.367   0.792
 3723SOL    HW212069   4.428   1.213   0.787
 3724SOL     OW12070   0.303   5.561   5.360
 3724SOL    HW112071   0.346   5.605   5.439
 3724SOL    HW212072   0.313   5.620   5.280
 3725SOL     OW12073   6.711   6.976   0.913
 3725SOL    HW112074   6.749   7.009   1.000
 3725SOL    HW212075   6.764   6.897   0.881
 3726SOL     OW12076   5.547   3.177   1.776
 3726SOL    HW112077   5.605   3.251   1.743
 3726SOL    HW212078   5.465   3.171   1.719
 3727SOL     OW12079   2.339   3.084   5.394
 3727SOL    HW112080   2.300   3.166   5.352
 3727SOL    HW212081   2.397   3.037   5.327
 3728SOL     OW12082   0.807   3.201   6.595
 3728SOL    HW112083   0.885   3.239   6.646
 3728SOL    HW212084   0.838   3.123   6.540
 3729SOL     OW12085   0.589   2.798   3.282
 3729SOL    HW112086   0.655   2.725   3.299
 3729SOL    HW212087   0.592   2.865   3.356
 3730SOL     OW12088   2.602   0.835   0.399
 3730SOL    HW112089   2.678   0.824   0.463
 3730SOL    HW212090   2.589   0.750   0.348
 3731SOL     OW12091   3.724   6.477   6.520
 3731SOL    HW112092   3.695   6.411   6.451
 3731SOL    HW212093   3.821   6.462   6.541
 3732SOL     OW12094   2.157   3.785   5.028
 3732SOL    HW112095   2.153   3.760   5.124
 3732SOL    HW212096   2.199   3.876   5.019
 3733SOL     OW12097   2.287   3.414   1.191
 3733SOL    HW112098   2.224   3.338   1.181
 3733SOL    HW212099   2.303   3.456   1.102
 3734SOL     OW12100   5.286   0.072   2.802
 3734SOL    HW112101   5.226   0.099   2.726
 3734SOL    HW212102   5.381   0.076   2.772
 3735SOL     OW12103   3.491   1.514   1.888
 3735SOL    HW112104   3.586   1.505   1.858
 3735SOL    HW212105   3.453   1.600   1.854
 3736SOL     OW12106   5.241   1.060   6.782
 3736SOL    HW112107   5.254   0.961   6.775
 3736SOL    HW212108   5.145   1.080   6.798
 3737SOL     OW12109   4.354   7.020   3.221
 3737SOL    HW112110   4.258   0.017   3.203
 3737SOL    HW212111   4.391   6.969   3.143
 3738SOL     OW12112   0.120   0.185   3.984
 3738SOL    HW112113   0.130   0.087   3.966
 3738SOL    HW212114   0.189   0.236   3.934
 3739SOL     OW12115   0.394   3.932   2.006
 3739SOL    HW112116   0.472   3.869   2.005
 3739SOL    HW212117   0.354   3.937   1.915
 3740SOL     OW12118   5.258   1.316   0.022
 3740SOL    HW112119   5.178   1.266   7.011
 3740SOL    HW212120   5.342   1.269   7.020
 3741SOL     OW12121   3.865   2.449   6.443
 3741SOL    HW112122   3.960   2.419   6.431
 3741SOL    HW212123   3.804   2.370   6.434
 3742SOL     OW12124   3.110   3.474   5.503
 3742SOL    HW112125   3.083   3.560   5.545
 3742SOL    HW212126   3.033   3.437   5.450
 3743SOL     OW12127   0.466   5.672   6.427
 3743SOL    HW112128   0.379   5.661   6.379
 3743SOL    HW212129   0.540   5.681   6.359
 3744SOL     OW12130   6.809   5.801   3.286
 3744SOL    HW112131   6.764   5.884   3.321
 3744SOL    HW212132   6.838   5.744   3.362
 3745SOL     OW12133   4.915   6.036   1.711
 3745SOL    HW112134   4.922   6.123   1.761
 3745SOL    HW212135   4.973   5.967   1.754
 3746SOL     OW12136   4.007   1.921   2.540
 3746SOL    HW112137   4.014   1.930   2.440
 3746SOL    HW212138   3.921   1.877   2.563
 3747SOL     OW12139   2.728   0.175   0.368
 3747SOL    HW112140   2.715   0.160   0.270
 3747SOL    HW212141   2.785   0.101   0.405
 3748SOL     OW12142   5.918   0.864   2.561
 3748SOL    HW112143   5.875   0.829   2.478
 3748SOL    HW212144   6.016   0.843   2.559
 3749SOL     OW12145   1.403   0.329   5.436
 3749SOL    HW112146   1.367   0.242   5.469
 3749SOL    HW212147   1.354   0.356   5.353
 3750SOL     OW12148   0.652   4.200   6.511
 3750SOL    HW112149   0.587   4.124   6.506
 3750SOL    HW212150   0.663   4.240   6.420
 3751SOL     OW12151   1.462   3.985   2.040
 3751SOL    HW112152   1.471   3.909   1.976
 3751SOL    HW212153   1.446   3.950   2.132
 3752SOL     OW12154   5.432   6.836   6.778
 3752SOL    HW112155   5.461   6.894   6.703
 3752SOL    HW212156   5.348   6.874   6.819
 3753SOL     OW12157   6.908   0.495   4.002
 3753SOL    HW112158   6.844   0.460   3.934
 3753SOL    HW212159   6.878   0.586   4.032
 3754SOL     OW12160   2.869   1.913   0.674
 3754SOL    HW112161   2.810   1.832   0.668
 3754SOL    HW212162   2.909   1.918   0.765
 3755SOL     OW12163   3.239   4.987   3.867
 3755SOL    HW112164   3.244   4.976   3.967
 3755SOL    HW212165   3.150   4.954   3.835
 3756SOL     OW12166   1.850   6.220   0.359
 3756SOL    HW112167   1.813   6.142   0.309
 3756SOL    HW212168   1.888   6.286   0.294
 3757SOL     OW12169   6.893   4.615   1.581
 3757SOL    HW112170   6.937   4.643   1.666
 3757SOL    HW212171   6.798   4.587   1.600
 3758SOL     OW12172   2.142   6.915   3.826
 3758SOL    HW112173   2.073   6.945   3.760
 3758SOL    HW212174   2.107   6.929   3.919
 3759SOL     OW12175   5.245   0.307   4.080
 3759SOL    HW112176   5.288   0.288   4.168
 3759SOL    HW212177   5.225   0.405   4.073
 3760SOL     OW12178   1.132   1.078   3.553
 3760SOL    HW112179   1.136   1.119   3.462
 3760SOL    HW212180   1.183   0.992   3.553
 3761SOL     OW12181   5.175   0.874   4.616
 3761SOL    HW112182   5.149   0.824   4.698
 3761SOL    HW212183   5.170   0.814   4.537
 3762SOL     OW12184   6.956   2.812   3.560
 3762SOL    HW112185   7.000   2.890   3.605
 3762SOL    HW212186   6.915   2.842   3.473
 3763SOL     OW12187   0.521   4.294   6.973
 3763SOL    HW112188   0.584   4.302   0.025
 3763SOL    HW212189   0.544   4.363   6.904
 3764SOL     OW12190   2.722   0.744   3.085
 3764SOL    HW112191   2.733   0.741   2.985
 3764SOL    HW212192   2.786   0.680   3.127
 3765SOL     OW12193   5.507   2.965   2.933
 3765SOL    HW112194   5.565   2.951   3.013
 3765SOL    HW212195   5.563   2.963   2.850
 3766SOL     OW12196   1.100   3.701   2.416
 3766SOL    HW112197   1.159   3.748   2.482
 3766SOL    HW212198   1.102   3.749   2.329
 3767SOL     OW12199   1.111   5.236   6.109
 3767SOL    HW112200   1.095   5.142   6.079
 3767SOL    HW212201   1.167   5.236   6.192
 3768SOL     OW12202   1.471   6.812   2.953
 3768SOL    HW112203   1.462   6.903   2.993
 3768SOL    HW212204   1.475   6.743   3.025
 3769SOL     OW12205   5.559   5.555   4.106
 3769SOL    HW112206   5.625   5.607   4.050
 3769SOL    HW212207   5.602   5.530   4.192
 3770SOL     OW12208   1.904   1.131   1.608
 3770SOL    HW112209   1.891   1.168   1.699
 3770SOL    HW212210   1.815   1.115   1.565
 3771SOL     OW12211   6.554   5.622   5.203
 3771SOL    HW112212   6.455   5.619   5.189
 3771SOL    HW212213   6.588   5.530   5.221
 3772SOL     OW12214   1.259   6.224   1.276
 3772SOL    HW112215   1.329   6.293   1.297
 3772SOL    HW212216   1.251   6.214   1.177
 3773SOL     OW12217   5.118   5.108   6.475
 3773SOL    HW112218   5.080   5.027   6.518
 3773SOL    HW212219   5.197   5.083   6.419
 3774SOL     OW12220   6.645   5.305   1.704
 3774SOL    HW112221   6.635   5.375   1.633
 3774SOL    HW212222   6.734   5.313   1.748
 3775SOL     OW12223   4.594   5.255   4.865
 3775SOL    HW112224   4.615   5.351   4.880
 3775SOL    HW212225   4.499   5.237   4.892
 3776SOL     OW12226   3.774   2.750   5.836
 3776SOL    HW112227   3.749   2.800   5.753
 3776SOL    HW212228   3.752   2.804   5.916
 3777SOL     OW12229   2.858   5.098   4.578
 3777SOL    HW112230   2.899   5.122   4.490
 3777SOL    HW212231   2.917   5.129   4.652
 3778SOL     OW12232   3.217   5.563   6.726
 3778SOL    HW112233   3.134   5.531   6.772
 3778SOL    HW212234   3.203   5.558   6.627
 3779SOL     OW12235   6.997   4.625   0.301
 3779SOL    HW112236   6.992   4.566   0.382
 3779SOL    HW212237   0.061   4.613   0.257
 3780SOL     OW12238   5.309   4.287   1.662
 3780SOL    HW112239   5.285   4.235   1.744
 3780SOL    HW212240   5.237   4.353   1.642
 3781SOL     OW12241   2.693   6.167   4.533
 3781SOL    HW112242   2.616   6.229   4.537
 3781SOL    HW212243   2.742   6.169   4.620
 3782SOL     OW12244   4.531   4.701   0.970
 3782SOL    HW112245   4.551   4.609   0.936
 3782SOL    HW212246   4.616   4.747   0.995
 3783SOL     OW12247   4.937   5.378   4.594
 3783SOL    HW112248   4.995   5.343   4.519
 3783SOL    HW212249   4.991   5.383   4.678
 3784SOL     OW12250   5.719   2.504   4.499
 3784SOL    HW112251   5.731   2.496   4.598
 3784SOL    HW212252   5.720   2.601   4.474
 3785SOL     OW12253   1.616   2.887   3.545
 3785SOL    HW112254   1.554   2.965   3.556
 3785SOL    HW212255   1.564   2.807   3.516
 3786SOL     OW12256   2.135   3.103   4.749
 3786SOL    HW112257   2.038   3.123   4.736
 3786SOL    HW212258   2.157   3.107   4.847
 3787SOL     OW12259   4.936   0.247   4.195
 3787SOL    HW112260   4.904   0.168   4.141
 3787SOL    HW212261   4.999   0.215   4.265
 3788SOL     OW12262   5.309   2.405   5.326
 3788SOL    HW112263   5.325   2.454   5.241
 3788SOL    HW212264   5.236   2.450   5.378
 3789SOL     OW12265   2.164   3.034   2.337
 3789SOL    HW112266   2.151   3.084   2.252
 3789SOL    HW212267   2.219   2.952   2.319
 3790SOL     OW12268   7.004   6.417   2.085
 3790SOL    HW112269   7.021   6.487   2.016
 3790SOL    HW212270   0.008   6.451   2.175
 3791SOL     OW12271   5.499   1.484   6.024
 3791SOL    HW112272   5.406   1.490   5.987
 3791SOL    HW212273   5.558   1.549   5.976
 3792SOL     OW12274   6.700   0.293   4.755
 3792SOL    HW112275   6.738   0.201   4.751
 3792SOL    HW212276   6.641   0.309   4.676
 3793SOL     OW12277   4.052   4.851   0.067
 3793SOL    HW112278   4.102   4.913   0.127
 3793SOL    HW212279   4.114   4.779   0.035
 3794SOL     OW12280   0.404   4.458   6.221
 3794SOL    HW112281   0.335   4.401   6.266
 3794SOL    HW212282   0.494   4.414   6.228
 3795SOL     OW12283   2.861   5.871   1.378
 3795SOL    HW112284   2.825   5.890   1.469
 3795SOL    HW212285   2.793   5.823   1.324
 3796SOL     OW12286   4.240   1.686   0.243
 3796SOL    HW112287   4.264   1.658   0.150
 3796SOL    HW212288   4.146   1.661   0.263
 3797SOL     OW12289   0.849   4.561   1.961
 3797SOL    HW112290   0.789   4.572   2.040
 3797SOL    HW212291   0.884   4.467   1.959
 3798SOL     OW12292   1.587   5.804   3.757
 3798SOL    HW112293   1.659   5.872   3.765
 3798SOL    HW212294   1.589   5.743   3.837
 3799SOL     OW12295   6.843   0.859   3.328
 3799SOL    HW112296   6.820   0.933   3.266
 3799SOL    HW212297   6.802   0.774   3.295
 3800SOL     OW12298   5.179   2.626   3.041
 3800SOL    HW112299   5.276   2.625   3.018
 3800SOL    HW212300   5.146   2.720   3.044
 3801SOL     OW12301   5.850   1.697   1.267
 3801SOL    HW112302   5.806   1.706   1.178
 3801SOL    HW212303   5.912   1.774   1.282
 3802SOL     OW12304   6.475   3.085   2.080
 3802SOL    HW112305   6.527   3.171   2.070
 3802SOL    HW212306   6.455   3.048   1.989
 3803SOL     OW12307   3.376   3.341   4.447
 3803SOL    HW112308   3.397   3.289   4.364
 3803SOL    HW212309   3.316   3.286   4.506
 3804SOL     OW12310   4.270   6.118   3.505
 3804SOL    HW112311   4.180   6.099   3.466
 3804SOL    HW212312   4.341   6.096   3.438
 3805SOL     OW12313   2.705   2.764   6.775
 3805SOL    HW112314   2.692   2.863   6.774
 3805SOL    HW212315   2.643   2.721   6.710
 3806SOL     OW12316   2.706   4.794   1.276
 3806SOL    HW112317   2.783   4.737   1.304
 3806SOL    HW212318   2.638   4.737   1.231
 3807SOL     OW12319   1.895   4.123   4.360
 3807SOL    HW112320   1.913   4.030   4.393
 3807SOL    HW212321   1.799   4.146   4.375
 3808SOL     OW12322   2.702   6.633   6.351
 3808SOL    HW112323   2.771   6.609   6.282
 3808SOL    HW212324   2.708   6.568   6.427
 3809SOL     OW12325   4.950   2.050   1.153
 3809SOL    HW112326   4.944   2.059   1.252
 3809SOL    HW212327   4.858   2.041   1.114
 3810SOL     OW12328   5.249   1.947   2.125
 3810SOL    HW112329   5.179   1.955   2.195
 3810SOL    HW212330   5.236   2.019   2.056
 3811SOL     OW12331   0.511   5.624   5.573
 3811SOL    HW112332   0.567   5.560   5.520
 3811SOL    HW212333   0.568   5.671   5.641
 3812SOL     OW12334   4.744   6.020   0.714
 3812SOL    HW112335   4.768   6.116   0.702
 3812SOL    HW212336   4.696   5.987   0.633
 3813SOL     OW12337   6.350   4.276   6.956
 3813SOL    HW112338   6.335   4.324   6.870
 3813SOL    HW212339   6.426   4.319   7.006
 3814SOL     OW12340   6.982   0.627   5.031
 3814SOL    HW112341   0.021   0.700   5.057
 3814SOL    HW212342   7.017   0.539   5.065
 3815SOL     OW12343   6.629   3.622   5.452
 3815SOL    HW112344   6.540   3.629   5.497
 3815SOL    HW212345   6.701   3.648   5.516
 3816SOL     OW12346   6.714   5.773   1.078
 3816SOL    HW112347   6.656   5.693   1.062
 3816SOL    HW212348   6.796   5.766   1.021
 3817SOL     OW12349   4.732   3.795   1.749
 3817SOL    HW112350   4.660   3.860   1.724
 3817SOL    HW212351   4.790   3.836   1.819
 3818SOL     OW12352   5.709   6.151   2.696
 3818SOL    HW112353   5.762   6.200   2.627
 3818SOL    HW212354   5.680   6.214   2.768
 3819SOL     OW12355   6.190   4.118   3.794
 3819SOL    HW112356   6.282   4.156   3.786
 3819SOL    HW212357   6.195   4.018   3.801
 3820SOL     OW12358   2.369   6.092   4.265
 3820SOL    HW112359   2.367   6.116   4.168
 3820SOL    HW212360   2.453   6.042   4.286
 3821SOL     OW12361   1.778   0.334   0.208
 3821SOL    HW112362   1.696   0.279   0.195
 3821SOL    HW212363   1.754   0.431   0.204
 3822SOL     OW12364   4.569   0.089   2.333
 3822SOL    HW112365   4.626   0.156   2.286
 3822SOL    HW212366   4.485   0.133   2.365
 3823SOL     OW12367   5.656   6.260   6.471
 3823SOL    HW112368   5.701   6.285   6.385
 3823SOL    HW212369   5.707   6.297   6.548
 3824SOL     OW12370   2.376   3.201   0.106
 3824SOL    HW112371   2.404   3.220   0.011
 3824SOL    HW212372   2.358   3.104   0.116
 3825SOL     OW12373   0.705   4.572   5.391
 3825SOL    HW112374   0.751   4.488   5.363
 3825SOL    HW212375   0.672   4.620   5.309
 3826SOL     OW12376   5.253   4.383   4.016
 3826SOL    HW112377   5.283   4.469   4.057
 3826SOL    HW212378   5.323   4.313   4.031
 3827SOL     OW12379   0.576   1.967   0.698
 3827SOL    HW112380   0.585   2.050   0.644
 3827SOL    HW212381   0.660   1.951   0.750
 3828SOL     OW12382   3.630   3.425   3.947
 3828SOL    HW112383   3.709   3.369   3.972
 3828SOL    HW212384   3.626   3.505   4.008
 3829SOL     OW12385   0.839   3.529   2.220
 3829SOL    HW112386   0.749   3.560   2.191
 3829SOL    HW212387   0.879   3.598   2.281
 3830SOL     OW12388   5.710   0.704   3.907
 3830SOL    HW112389   5.702   0.676   4.003
 3830SOL    HW212390   5.622   0.741   3.876
 3831SOL     OW12391   5.282   1.970   3.879
 3831SOL    HW112392   5.184   1.965   3.858
 3831SOL    HW212393   5.334   1.981   3.795
 3832SOL     OW12394   6.459   0.791   3.700
 3832SOL    HW112395   6.451   0.758   3.606
 3832SOL    HW212396   6.370   0.782   3.746
 3833SOL     OW12397   1.971   1.451   5.529
 3833SOL    HW112398   1.901   1.478   5.464
 3833SOL    HW212399   2.019   1.370   5.496
 3834SOL     OW12400   4.919   3.895   0.838
 3834SOL    HW112401   5.016   3.916   0.835
 3834SOL    HW212402   4.889   3.887   0.933
 3835SOL     OW12403   3.637   5.374   5.181
 3835SOL    HW112404   3.566   5.306   5.164
 3835SOL    HW212405   3.594   5.462   5.203
 3836SOL     OW12406   0.197   6.365   5.756
 3836SOL    HW112407   0.236   6.278   5.726
 3836SOL    HW212408   0.136   6.400   5.685
 3837SOL     OW12409   4.371   4.787   5.530
 3837SOL    HW112410   4.283   4.834   5.535
 3837SOL    HW212411   4.368   4.717   5.459
 3838SOL     OW12412   0.940   1.521   3.894
 3838SOL    HW112413   1.022   1.550   3.943
 3838SOL    HW212414   0.875   1.597   3.890
 3839SOL     OW12415   4.695   0.851   4.018
 3839SOL    HW112416   4.750   0.931   3.992
 3839SOL    HW212417   4.707   0.780   3.949
 3840SOL     OW12418   2.749   1.431   6.849
 3840SOL    HW112419   2.770   1.352   6.793
 3840SOL    HW212420   2.793   1.512   6.811
 3841SOL     OW12421   5.972   4.191   4.444
 3841SOL    HW112422   5.890   4.242   4.418
 3841SOL    HW212423   6.045   4.255   4.468
 3842SOL     OW12424   1.477   3.538   5.181
 3842SOL    HW112425   1.477   3.626   5.228
 3842SOL    HW212426   1.435   3.469   5.239
 3843SOL     OW12427   5.097   2.559   0.110
 3843SOL    HW112428   5.033   2.499   0.159
 3843SOL    HW212429   5.175   2.506   0.078
 3844SOL     OW12430   0.570   6.954   1.598
 3844SOL    HW112431   0.522   0.017   1.592
 3844SOL    HW212432   0.508   6.884   1.634
 3845SOL     OW12433   2.207   5.558   0.632
 3845SOL    HW112434   2.250   5.551   0.722
 3845SOL    HW212435   2.191   5.654   0.609
 3846SOL     OW12436   0.944   2.744   3.008
 3846SOL    HW112437   0.844   2.742   3.005
 3846SOL    HW212438   0.976   2.697   3.090
 3847SOL     OW12439   6.736   2.003   6.679
 3847SOL    HW112440   6.708   2.057   6.758
 3847SOL    HW212441   6.792   1.926   6.709
 3848SOL     OW12442   5.714   3.968   2.721
 3848SOL    HW112443   5.739   3.871   2.731
 3848SOL    HW212444   5.620   3.975   2.690
 3849SOL     OW12445   6.845   4.862   6.651
 3849SOL    HW112446   6.824   4.831   6.744
 3849SOL    HW212447   6.764   4.853   6.593
 3850SOL     OW12448   2.813   2.340   1.348
 3850SOL    HW112449   2.744   2.267   1.346
 3850SOL    HW212450   2.822   2.380   1.257
 3851SOL     OW12451   0.540   5.525   2.068
 3851SOL    HW112452   0.630   5.493   2.095
 3851SOL    HW212453   0.495   5.568   2.146
 3852SOL     OW12454   2.452   6.542   5.511
 3852SOL    HW112455   2.424   6.629   5.550
 3852SOL    HW212456   2.419   6.467   5.569
 3853SOL     OW12457   2.480   0.329   3.377
 3853SOL    HW112458   2.495   0.382   3.293
 3853SOL    HW212459   2.568   0.304   3.417
 3854SOL     OW12460   1.629   2.180   2.474
 3854SOL    HW112461   1.614   2.231   2.558
 3854SOL    HW212462   1.545   2.132   2.449
 3855SOL     OW12463   3.653   6.602   0.213
 3855SOL    HW112464   3.600   6.554   0.144
 3855SOL    HW212465   3.750   6.586   0.198
 3856SOL     OW12466   0.454   2.274   0.066
 3856SOL    HW112467   0.405   2.238   7.011
 3856SOL    HW212468   0.537   2.220   0.080
 3857SOL     OW12469   2.636   0.196   6.047
 3857SOL    HW112470   2.645   0.202   6.147
 3857SOL    HW212471   2.725   0.175   6.007
 3858SOL     OW12472   4.276   0.562   4.611
 3858SOL    HW112473   4.349   0.540   4.546
 3858SOL    HW212474   4.316   0.609   4.690
 3859SOL     OW12475   6.412   7.003   1.922
 3859SOL    HW112476   6.508   7.019   1.945
 3859SOL    HW212477   6.407   6.950   1.837
 3860SOL     OW12478   1.011   6.661   4.117
 3860SOL    HW112479   1.069   6.648   4.037
 3860SOL    HW212480   0.954   6.580   4.131
 3861SOL     OW12481   3.228   5.838   1.485
 3861SOL    HW112482   3.202   5.865   1.392
 3861SOL    HW212483   3.260   5.744   1.485
 3862SOL     OW12484   1.703   0.311   3.613
 3862SOL    HW112485   1.649   0.364   3.678
 3862SOL    HW212486   1.676   0.215   3.617
 3863SOL     OW12487   3.816   0.420   0.588
 3863SOL    HW112488   3.887   0.475   0.544
 3863SOL    HW212489   3.726   0.446   0.553
 3864SOL     OW12490   2.386   6.835   4.893
 3864SOL    HW112491   2.464   6.777   4.869
 3864SOL    HW212492   2.340   6.865   4.809
 3865SOL     OW12493   3.864   0.715   0.621
 3865SOL    HW112494   3.797   0.642   0.631
 3865SOL    HW212495   3.845   0.766   0.537
 3866SOL     OW12496   2.551   2.625   6.566
 3866SOL    HW112497   2.499   2.566   6.627
 3866SOL    HW212498   2.640   2.584   6.548
 3867SOL     OW12499   0.288   3.609   1.947
 3867SOL    HW112500   0.245   3.599   2.036
 3867SOL    HW212501   0.251   3.690   1.901
 3868SOL     OW12502   4.664   0.537   0.473
 3868SOL    HW112503   4.595   0.553   0.403
 3868SOL    HW212504   4.702   0.625   0.502
 3869SOL     OW12505   5.942   2.423   3.365
 3869SOL    HW112506   5.996   2.358   3.419
 3869SOL    HW212507   5.909   2.496   3.425
 3870SOL     OW12508   0.385   0.274   4.308
 3870SOL    HW112509   0.374   0.239   4.401
 3870SOL    HW212510   0.370   0.373   4.308
 3871SOL     OW12511   2.909   4.917   4.178
 3871SOL    HW112512   2.814   4.895   4.203
 3871SOL    HW212513   2.922   4.901   4.080
 3872SOL     OW12514   3.019   3.691   5.652
 3872SOL    HW112515   3.022   3.623   5.725
 3872SOL    HW212516   3.039   3.781   5.690
 3873SOL     OW12517   4.545   1.924   0.252
 3873SOL    HW112518   4.538   2.011   0.302
 3873SOL    HW212519   4.556   1.849   0.317
 3874SOL     OW12520   3.145   0.702   0.175
 3874SOL    HW112521   3.197   0.706   0.261
 3874SOL    HW212522   3.086   0.782   0.168
 3875SOL     OW12523   1.523   2.264   5.912
 3875SOL    HW112524   1.467   2.346   5.903
 3875SOL    HW212525   1.471   2.193   5.960
 3876SOL     OW12526   4.380   4.941   1.262
 3876SOL    HW112527   4.391   4.843   1.246
 3876SOL    HW212528   4.374   4.958   1.361
 3877SOL     OW12529   6.784   1.971   0.106
 3877SOL    HW112530   6.775   1.917   0.190
 3877SOL    HW212531   6.738   1.923   0.031
 3878SOL     OW12532   4.436   0.683   4.275
 3878SOL    HW112533   4.363   0.657   4.212
 3878SOL    HW212534   4.402   0.749   4.341
 3879SOL     OW12535   5.384   5.318   0.273
 3879SOL    HW112536   5.397   5.416   0.288
 3879SOL    HW212537   5.454   5.284   0.211
 3880SOL     OW12538   4.587   4.359   4.052
 3880SOL    HW112539   4.649   4.300   4.102
 3880SOL    HW212540   4.512   4.387   4.113
 3881SOL     OW12541   0.819   4.108   0.579
 3881SOL    HW112542   0.837   4.038   0.510
 3881SOL    HW212543   0.757   4.072   0.648
 3882SOL     OW12544   0.831   1.874   0.511
 3882SOL    HW112545   0.758   1.909   0.452
 3882SOL    HW212546   0.887   1.950   0.544
 3883SOL     OW12547   4.966   6.365   3.195
 3883SOL    HW112548   4.948   6.460   3.221
 3883SOL    HW212549   5.004   6.362   3.103
 3884SOL     OW12550   0.900   4.842   2.235
 3884SOL    HW112551   0.944   4.805   2.153
 3884SOL    HW212552   0.801   4.839   2.224
 3885SOL     OW12553   5.199   6.209   3.349
 3885SOL    HW112554   5.167   6.206   3.444
 3885SOL    HW212555   5.121   6.225   3.289
 3886SOL     OW12556   3.816   6.472   5.984
 3886SOL    HW112557   3.750   6.457   6.058
 3886SOL    HW212558   3.847   6.567   5.985
 3887SOL     OW12559   0.157   6.024   2.282
 3887SOL    HW112560   0.234   6.078   2.318
 3887SOL    HW212561   0.131   6.059   2.192
 3888SOL     OW12562   6.033   5.819   4.029
 3888SOL    HW112563   6.002   5.749   4.093
 3888SOL    HW212564   5.963   5.890   4.019
 3889SOL     OW12565   5.424   3.292   6.653
 3889SOL    HW112566   5.385   3.383   6.651
 3889SOL    HW212567   5.508   3.293   6.708
 3890SOL     OW12568   5.521   3.112   4.223
 3890SOL    HW112569   5.560   3.046   4.288
 3890SOL    HW212570   5.586   3.127   4.148
 3891SOL     OW12571   5.968   4.986   3.383
 3891SOL    HW112572   6.019   5.014   3.464
 3891SOL    HW212573   5.935   4.892   3.396
 3892SOL     OW12574   0.253   2.261   1.504
 3892SOL    HW112575   0.295   2.324   1.438
 3892SOL    HW212576   0.250   2.169   1.465
 3893SOL     OW12577   3.931   3.665   1.553
 3893SOL    HW112578   3.927   3.764   1.563
 3893SOL    HW212579   3.988   3.626   1.625
 3894SOL     OW12580   4.599   0.471   6.620
 3894SOL    HW112581   4.633   0.478   6.526
 3894SOL    HW212582   4.652   0.532   6.679
 3895SOL     OW12583   1.808   6.930   4.275
 3895SOL    HW112584   1.854   6.978   4.200
 3895SOL    HW212585   1.842   6.836   4.280
 3896SOL     OW12586   1.486   1.127   6.932
 3896SOL    HW112587   1.387   1.114   6.926
 3896SOL    HW212588   1.508   1.222   6.910
 3897SOL     OW12589   4.375   5.961   1.775
 3897SOL    HW112590   4.448   5.907   1.731
 3897SOL    HW212591   4.403   6.057   1.779
 3898SOL     OW12592   4.190   2.832   6.412
 3898SOL    HW112593   4.284   2.824   6.380
 3898SOL    HW212594   4.152   2.920   6.385
 3899SOL     OW12595   3.967   6.159   6.199
 3899SOL    HW112596   3.982   6.061   6.215
 3899SOL    HW212597   4.054   6.207   6.207
 3900SOL     OW12598   5.318   3.944   3.217
 3900SOL    HW112599   5.233   3.974   3.260
 3900SOL    HW212600   5.374   3.896   3.284
 3901SOL     OW12601   2.924   0.350   0.137
 3901SOL    HW112602   3.018   0.347   0.104
 3901SOL    HW212603   2.862   0.338   0.060
 3902SOL     OW12604   6.202   2.942   2.646
 3902SOL    HW112605   6.232   2.955   2.552
 3902SOL    HW212606   6.140   3.016   2.672
 3903SOL     OW12607   3.454   5.489   6.792
 3903SOL    HW112608   3.367   5.532   6.766
 3903SOL    HW212609   3.436   5.402   6.836
 3904SOL     OW12610   1.420   0.314   0.355
 3904SOL    HW112611   1.321   0.321   0.365
 3904SOL    HW212612   1.454   0.239   0.411
 3905SOL     OW12613   6.866   5.919   5.623
 3905SOL    HW112614   6.935   5.983   5.590
 3905SOL    HW212615   6.896   5.825   5.605
 3906SOL     OW12616   5.958   6.724   5.742
 3906SOL    HW112617   6.058   6.722   5.742
 3906SOL    HW212618   5.923   6.654   5.804
 3907SOL     OW12619   5.673   1.803   4.412
 3907SOL    HW112620   5.687   1.756   4.499
 3907SOL    HW212621   5.577   1.798   4.386
 3908SOL     OW12622   1.978   2.166   5.905
 3908SOL    HW112623   1.997   2.129   5.996
 3908SOL    HW212624   2.051   2.228   5.878
 3909SOL     OW12625   5.858   5.443   3.863
 3909SOL    HW112626   5.955   5.442   3.888
 3909SOL    HW212627   5.804   5.405   3.937
 3910SOL     OW12628   3.555   3.793   3.044
 3910SOL    HW112629   3.635   3.744   3.080
 3910SOL    HW212630   3.517   3.851   3.116
 3911SOL     OW12631   5.942   1.677   5.560
 3911SOL    HW112632   5.935   1.668   5.660
 3911SOL    HW212633   5.875   1.743   5.527
 3912SOL     OW12634   5.938   2.218   5.833
 3912SOL    HW112635   5.870   2.148   5.810
 3912SOL    HW212636   6.029   2.185   5.809
 3913SOL     OW12637   1.153   6.690   0.415
 3913SOL    HW112638   1.155   6.789   0.422
 3913SOL    HW212639   1.166   6.650   0.506
 3914SOL     OW12640   3.164   6.341   6.485
 3914SOL    HW112641   3.166   6.401   6.565
 3914SOL    HW212642   3.258   6.315   6.461
 3915SOL     OW12643   5.556   5.070   1.716
 3915SOL    HW112644   5.545   5.110   1.625
 3915SOL    HW212645   5.653   5.066   1.739
 3916SOL     OW12646   1.222   0.170   3.231
 3916SOL    HW112647   1.159   0.235   3.273
 3916SOL    HW212648   1.194   0.152   3.136
 3917SOL     OW12649   2.181   6.929   6.896
 3917SOL    HW112650   2.148   7.017   6.864
 3917SOL    HW212651   2.153   6.857   6.832
 3918SOL     OW12652   5.312   4.588   1.901
 3918SOL    HW112653   5.340   4.602   1.806
 3918SOL    HW212654   5.348   4.662   1.958
 3919SOL     OW12655   3.466   6.980   0.353
 3919SOL    HW112656   3.371   6.949   0.352
 3919SOL    HW212657   3.495   7.004   0.260
 3920SOL     OW12658   2.181   2.125   6.876
 3920SOL    HW112659   2.108   2.166   6.823
 3920SOL    HW212660   2.224   2.194   6.933
 3921SOL     OW12661   1.074   3.977   1.732
 3921SOL    HW112662   1.169   3.996   1.707
 3921SOL    HW212663   1.039   3.901   1.677
 3922SOL     OW12664   1.156   4.454   1.139
 3922SOL    HW112665   1.124   4.454   1.044
 3922SOL    HW212666   1.151   4.547   1.175
 3923SOL     OW12667   0.489   0.443   0.031
 3923SOL    HW112668   0.554   0.465   6.982
 3923SOL    HW212669   0.456   0.349   0.020
 3924SOL     OW12670   6.663   4.313   4.390
 3924SOL    HW112671   6.734   4.357   4.445
 3924SOL    HW212672   6.618   4.243   4.445
 3925SOL     OW12673   1.915   5.554   2.424
 3925SOL    HW112674   1.942   5.480   2.362
 3925SOL    HW212675   1.960   5.638   2.396
 3926SOL     OW12676   4.589   4.551   2.197
 3926SOL    HW112677   4.544   4.504   2.272
 3926SOL    HW212678   4.589   4.492   2.116
 3927SOL     OW12679   0.451   3.117   6.306
 3927SOL    HW112680   0.532   3.087   6.357
 3927SOL    HW212681   0.443   3.063   6.222
 3928SOL     OW12682   5.367   5.773   6.802
 3928SOL    HW112683   5.329   5.865   6.799
 3928SOL    HW212684   5.467   5.778   6.808
 3929SOL     OW12685   1.070   1.313   5.207
 3929SOL    HW112686   1.036   1.256   5.281
 3929SOL    HW212687   1.011   1.393   5.197
 3930SOL     OW12688   2.387   1.484   3.527
 3930SOL    HW112689   2.472   1.534   3.544
 3930SOL    HW212690   2.357   1.502   3.433
 3931SOL     OW12691   6.034   1.905   1.357
 3931SOL    HW112692   6.072   1.926   1.447
 3931SOL    HW212693   6.035   1.987   1.301
 3932SOL     OW12694   0.849   2.241   4.391
 3932SOL    HW112695   0.857   2.318   4.454
 3932SOL    HW212696   0.837   2.157   4.443
 3933SOL     OW12697   1.415   6.970   6.296
 3933SOL    HW112698   1.499   6.936   6.338
 3933SOL    HW212699   1.416   0.046   6.298
 3934SOL     OW12700   5.984   0.506   6.094
 3934SOL    HW112701   6.080   0.482   6.085
 3934SOL    HW212702   5.974   0.580   6.161
 3935SOL     OW12703   4.928   0.669   1.087
 3935SOL    HW112704   4.831   0.687   1.105
 3935SOL    HW212705   4.973   0.641   1.172
 3936SOL     OW12706   6.536   5.492   3.882
 3936SOL    HW112707   6.437   5.474   3.885
 3936SOL    HW212708   6.551   5.589   3.859
 3937SOL     OW12709   0.844   1.190   2.862
 3937SOL    HW112710   0.873   1.260   2.796
 3937SOL    HW212711   0.755   1.216   2.900
 3938SOL     OW12712   6.978   1.207   3.024
 3938SOL    HW112713   0.029   1.160   2.976
 3938SOL    HW212714   7.017   1.270   3.091
 3939SOL     OW12715   3.001   1.864   2.135
 3939SOL    HW112716   2.987   1.904   2.044
 3939SOL    HW212717   2.916   1.823   2.167
 3940SOL     OW12718   3.475   3.885   1.123
 3940SOL    HW112719   3.505   3.867   1.217
 3940SOL    HW212720   3.438   3.802   1.083
 3941SOL     OW12721   4.089   4.179   6.073
 3941SOL    HW112722   4.007   4.122   6.079
 3941SOL    HW212723   4.063   4.270   6.040
 3942SOL     OW12724   6.650   6.739   6.613
 3942SOL    HW112725   6.673   6.742   6.710
 3942SOL    HW212726   6.695   6.814   6.565
 3943SOL     OW12727   0.633   3.796   4.730
 3943SOL    HW112728   0.717   3.774   4.780
 3943SOL    HW212729   0.632   3.746   4.643
 3944SOL     OW12730   5.142   2.708   4.646
 3944SOL    HW112731   5.221   2.656   4.614
 3944SOL    HW212732   5.068   2.645   4.669
 3945SOL     OW12733   6.804   1.238   1.320
 3945SOL    HW112734   6.741   1.162   1.336
 3945SOL    HW212735   6.858   1.219   1.238
 3946SOL     OW12736   4.503   4.816   3.437
 3946SOL    HW112737   4.481   4.865   3.353
 3946SOL    HW212738   4.569   4.744   3.417
 3947SOL     OW12739   5.474   5.841   0.319
 3947SOL    HW112740   5.454   5.858   0.416
 3947SOL    HW212741   5.572   5.850   0.303
 3948SOL     OW12742   5.959   4.673   1.367
 3948SOL    HW112743   5.883   4.609   1.355
 3948SOL    HW212744   5.924   4.766   1.370
 3949SOL     OW12745   4.428   6.023   3.280
 3949SOL    HW112746   4.462   6.086   3.211
 3949SOL    HW212747   4.465   5.931   3.263
 3950SOL     OW12748   1.979   5.665   1.019
 3950SOL    HW112749   2.042   5.637   0.947
 3950SOL    HW212750   1.902   5.601   1.022
 3951SOL     OW12751   5.367   0.325   1.838
 3951SOL    HW112752   5.385   0.423   1.838
 3951SOL    HW212753   5.304   0.302   1.765
 3952SOL     OW12754   6.786   2.974   0.862
 3952SOL    HW112755   6.815   3.039   0.932
 3952SOL    HW212756   6.842   2.984   0.781
 3953SOL     OW12757   4.041   3.855   2.090
 3953SOL    HW112758   4.038   3.764   2.132
 3953SOL    HW212759   4.068   3.922   2.159
 3954SOL     OW12760   4.035   4.645   5.698
 3954SOL    HW112761   4.004   4.733   5.662
 3954SOL    HW212762   3.960   4.579   5.696
 3955SOL     OW12763   3.557   0.464   5.560
 3955SOL    HW112764   3.584   0.548   5.512
 3955SOL    HW212765   3.463   0.440   5.535
 3956SOL     OW12766   1.152   1.012   2.053
 3956SOL    HW112767   1.167   0.996   2.151
 3956SOL    HW212768   1.063   0.977   2.027
 3957SOL     OW12769   3.738   0.330   4.254
 3957SOL    HW112770   3.668   0.319   4.324
 3957SOL    HW212771   3.795   0.248   4.250
 3958SOL     OW12772   6.229   1.663   4.977
 3958SOL    HW112773   6.320   1.701   4.962
 3958SOL    HW212774   6.222   1.574   4.932
 3959SOL     OW12775   4.739   5.269   0.380
 3959SOL    HW112776   4.727   5.189   0.438
 3959SOL    HW212777   4.652   5.292   0.336
 3960SOL     OW12778   5.548   2.219   5.186
 3960SOL    HW112779   5.475   2.274   5.146
 3960SOL    HW212780   5.599   2.274   5.252
 3961SOL     OW12781   5.840   6.536   3.400
 3961SOL    HW112782   5.879   6.444   3.407
 3961SOL    HW212783   5.894   6.599   3.456
 3962SOL     OW12784   0.080   5.287   5.514
 3962SOL    HW112785   7.007   5.304   5.530
 3962SOL    HW212786   0.096   5.273   5.417
 3963SOL     OW12787   4.739   6.529   1.701
 3963SOL    HW112788   4.690   6.576   1.628
 3963SOL    HW212789   4.742   6.587   1.782
 3964SOL     OW12790   4.888   3.850   3.219
 3964SOL    HW112791   4.943   3.768   3.232
 3964SOL    HW212792   4.867   3.891   3.307
 3965SOL     OW12793   5.484   3.563   4.157
 3965SOL    HW112794   5.548   3.628   4.197
 3965SOL    HW212795   5.520   3.470   4.170
 3966SOL     OW12796   2.768   5.717   6.784
 3966SOL    HW112797   2.833   5.744   6.855
 3966SOL    HW212798   2.785   5.772   6.702
 3967SOL     OW12799   1.829   5.006   2.402
 3967SOL    HW112800   1.755   4.952   2.362
 3967SOL    HW212801   1.914   4.990   2.352
 3968SOL     OW12802   4.484   0.990   1.191
 3968SOL    HW112803   4.443   1.070   1.148
 3968SOL    HW212804   4.427   0.959   1.267
 3969SOL     OW12805   2.009   6.177   2.125
 3969SOL    HW112806   1.974   6.234   2.050
 3969SOL    HW212807   1.933   6.154   2.187
 3970SOL     OW12808   5.492   6.494   2.282
 3970SOL    HW112809   5.535   6.551   2.213
 3970SOL    HW212810   5.496   6.398   2.253
 3971SOL     OW12811   2.786   5.740   4.003
 3971SOL    HW112812   2.784   5.840   4.003
 3971SOL    HW212813   2.850   5.708   4.073
 3972SOL     OW12814   2.107   4.277   6.938
 3972SOL    HW112815   2.175   4.256   7.008
 3972SOL    HW212816   2.138   4.356   6.885
 3973SOL     OW12817   1.131   6.041   0.590
 3973SOL    HW112818   1.200   6.067   0.522
 3973SOL    HW212819   1.148   5.947   0.619
 3974SOL     OW12820   2.518   0.446   5.881
 3974SOL    HW112821   2.585   0.382   5.919
 3974SOL    HW212822   2.487   0.414   5.792
 3975SOL     OW12823   5.354   2.112   6.407
 3975SOL    HW112824   5.367   2.199   6.359
 3975SOL    HW212825   5.256   2.095   6.419
 3976SOL     OW12826   1.923   5.886   2.373
 3976SOL    HW112827   1.958   5.912   2.463
 3976SOL    HW212828   1.839   5.935   2.355
 3977SOL     OW12829   0.754   3.652   6.598
 3977SOL    HW112830   0.796   3.569   6.561
 3977SOL    HW212831   0.706   3.631   6.683
 3978SOL     OW12832   6.740   4.773   4.050
 3978SOL    HW112833   6.704   4.865   4.064
 3978SOL    HW212834   6.820   4.777   3.990
 3979SOL     OW12835   3.369   0.510   6.239
 3979SOL    HW112836   3.434   0.586   6.241
 3979SOL    HW212837   3.419   0.424   6.250
 3980SOL     OW12838   6.052   6.353   6.357
 3980SOL    HW112839   6.057   6.269   6.411
 3980SOL    HW212840   6.145   6.383   6.334
 3981SOL     OW12841   5.005   6.758   0.773
 3981SOL    HW112842   5.021   6.761   0.871
 3981SOL    HW212843   4.910   6.781   0.753
 3982SOL     OW12844   2.754   0.016   2.613
 3982SOL    HW112845   2.728   0.008   2.517
 3982SOL    HW212846   2.688   6.993   2.670
 3983SOL     OW12847   4.360   5.962   3.726
 3983SOL    HW112848   4.317   6.033   3.671
 3983SOL    HW212849   4.294   5.926   3.792
 3984SOL     OW12850   6.168   2.057   2.850
 3984SOL    HW112851   6.158   1.993   2.773
 3984SOL    HW212852   6.218   2.138   2.819
 3985SOL     OW12853   3.066   5.681   6.248
 3985SOL    HW112854   3.100   5.593   6.214
 3985SOL    HW212855   2.985   5.708   6.196
 3986SOL     OW12856   5.011   1.237   2.062
 3986SOL    HW112857   4.986   1.239   2.159
 3986SOL    HW212858   5.084   1.302   2.045
 3987SOL     OW12859   3.179   5.029   5.201
 3987SOL    HW112860   3.122   4.989   5.273
 3987SOL    HW212861   3.125   5.095   5.149
 3988SOL     OW12862   4.909   5.486   0.290
 3988SOL    HW112863   4.856   5.410   0.328
 3988SOL    HW212864   4.853   5.569   0.291
 3989SOL     OW12865   6.713   2.235   6.879
 3989SOL    HW112866   6.635   2.227   6.941
 3989SOL    HW212867   6.796   2.256   6.931
 3990SOL     OW12868   5.133   2.593   1.803
 3990SOL    HW112869   5.077   2.668   1.838
 3990SOL    HW212870   5.227   2.604   1.834
 3991SOL     OW12871   0.437   0.611   3.221
 3991SOL    HW112872   0.412   0.700   3.261
 3991SOL    HW212873   0.472   0.552   3.293
 3992SOL     OW12874   2.856   2.724   1.208
 3992SOL    HW112875   2.812   2.701   1.121
 3992SOL    HW212876   2.787   2.724   1.281
 3993SOL     OW12877   1.228   3.426   2.424
 3993SOL    HW112878   1.224   3.403   2.327
 3993SOL    HW212879   1.211   3.524   2.436
 3994SOL     OW12880   2.714   6.756   5.064
 3994SOL    HW112881   2.753   6.821   4.999
 3994SOL    HW212882   2.619   6.781   5.082
 3995SOL     OW12883   1.429   2.524   4.745
 3995SOL    HW112884   1.423   2.461   4.668
 3995SOL    HW212885   1.525   2.552   4.757
 3996SOL     OW12886   0.419   6.670   4.988
 3996SOL    HW112887   0.427   6.571   4.996
 3996SOL    HW212888   0.323   6.695   4.972
 3997SOL     OW12889   5.672   0.813   4.491
 3997SOL    HW112890   5.766   0.794   4.464
 3997SOL    HW212891   5.671   0.843   4.587
 3998SOL     OW12892   4.105   2.223   3.654
 3998SOL    HW112893   4.120   2.287   3.729
 3998SOL    HW212894   4.128   2.130   3.684
 3999SOL     OW12895   6.150   2.047   5.056
 3999SOL    HW112896   6.223   2.001   5.005
 3999SOL    HW212897   6.178   2.059   5.151
 4000SOL     OW12898   4.084   0.339   3.421
 4000SOL    HW112899   4.130   0.380   3.343
 4000SOL    HW212900   4.141   0.266   3.459
 4001SOL     OW12901   1.214   2.535   3.168
 4001SOL    HW112902   1.165   2.618   3.197
 4001SOL    HW212903   1.298   2.526   3.221
 4002SOL     OW12904   1.941   3.522   2.044
 4002SOL    HW112905   1.886   3.438   2.052
 4002SOL    HW212906   2.038   3.498   2.042
 4003SOL     OW12907   3.719   0.780   4.510
 4003SOL    HW112908   3.779   0.769   4.589
 4003SOL    HW212909   3.773   0.801   4.429
 4004SOL     OW12910   6.801   1.885   5.169
 4004SOL    HW112911   6.860   1.816   5.127
 4004SOL    HW212912   6.706   1.854   5.165
 4005SOL     OW12913   5.508   5.323   5.902
 4005SOL    HW112914   5.521   5.406   5.847
 4005SOL    HW212915   5.420   5.281   5.879
 4006SOL     OW12916   3.787   5.546   2.108
 4006SOL    HW112917   3.719   5.541   2.181
 4006SOL    HW212918   3.745   5.585   2.026
 4007SOL     OW12919   6.870   2.206   6.525
 4007SOL    HW112920   6.804   2.134   6.546
 4007SOL    HW212921   6.848   2.287   6.579
 4008SOL     OW12922   2.576   2.501   5.402
 4008SOL    HW112923   2.671   2.530   5.412
 4008SOL    HW212924   2.518   2.582   5.393
 4009SOL     OW12925   4.070   3.650   2.766
 4009SOL    HW112926   4.131   3.603   2.830
 4009SOL    HW212927   4.063   3.746   2.793
 4010SOL     OW12928   2.079   3.059   6.954
 4010SOL    HW112929   2.134   3.138   6.979
 4010SOL    HW212930   1.999   3.055   7.014
 4011SOL     OW12931   0.925   2.438   1.323
 4011SOL    HW112932   0.860   2.407   1.393
 4011SOL    HW212933   0.880   2.501   1.260
 4012SOL     OW12934   6.254   3.520   3.761
 4012SOL    HW112935   6.222   3.437   3.808
 4012SOL    HW212936   6.305   3.577   3.825
 4013SOL     OW12937   4.652   2.645   3.418
 4013SOL    HW112938   4.587   2.616   3.488
 4013SOL    HW212939   4.700   2.727   3.448
 4014SOL     OW12940   5.405   6.013   2.689
 4014SOL    HW112941   5.371   6.005   2.782
 4014SOL    HW212942   5.501   6.043   2.691
 4015SOL     OW12943   5.212   3.892   6.173
 4015SOL    HW112944   5.243   3.939   6.255
 4015SOL    HW212945   5.290   3.879   6.111
 4016SOL     OW12946   2.869   6.350   5.327
 4016SOL    HW112947   2.879   6.428   5.389
 4016SOL    HW212948   2.821   6.380   5.244
 4017SOL     OW12949   6.507   5.709   7.002
 4017SOL    HW112950   6.581   5.642   6.996
 4017SOL    HW212951   6.456   5.710   6.915
 4018SOL     OW12952   2.810   5.911   0.711
 4018SOL    HW112953   2.855   5.963   0.639
 4018SOL    HW212954   2.722   5.877   0.678
 4019SOL     OW12955   5.433   5.141   3.576
 4019SOL    HW112956   5.462   5.220   3.629
 4019SOL    HW212957   5.337   5.122   3.593
 4020SOL     OW12958   5.292   1.864   5.430
 4020SOL    HW112959   5.318   1.837   5.337
 4020SOL    HW212960   5.259   1.958   5.429
 4021SOL     OW12961   3.752   4.553   6.228
 4021SOL    HW112962   3.776   4.463   6.263
 4021SOL    HW212963   3.832   4.613   6.234
 4022SOL     OW12964   5.368   0.210   1.415
 4022SOL    HW112965   5.363   0.114   1.442
 4022SOL    HW212966   5.463   0.242   1.421
 4023SOL     OW12967   6.525   0.503   6.152
 4023SOL    HW112968   6.567   0.531   6.065
 4023SOL    HW212969   6.568   0.419   6.184
 4024SOL     OW12970   3.777   5.033   4.288
 4024SOL    HW112971   3.852   4.976   4.252
 4024SOL    HW212972   3.720   5.064   4.212
 4025SOL     OW12973   1.711   4.400   2.868
 4025SOL    HW112974   1.631   4.342   2.885
 4025SOL    HW212975   1.793   4.343   2.867
 4026SOL     OW12976   5.469   6.707   4.317
 4026SOL    HW112977   5.539   6.682   4.383
 4026SOL    HW212978   5.491   6.667   4.227
 4027SOL     OW12979   4.308   5.374   1.324
 4027SOL    HW112980   4.240   5.413   1.386
 4027SOL    HW212981   4.376   5.323   1.376
 4028SOL     OW12982   2.496   6.980   3.838
 4028SOL    HW112983   2.405   6.980   3.799
 4028SOL    HW212984   2.562   7.013   3.770
 4029SOL     OW12985   2.287   4.336   4.602
 4029SOL    HW112986   2.274   4.256   4.544
 4029SOL    HW212987   2.237   4.324   4.688
 4030SOL     OW12988   1.247   1.700   6.160
 4030SOL    HW112989   1.272   1.680   6.255
 4030SOL    HW212990   1.179   1.773   6.159
 4031SOL     OW12991   4.395   5.489   4.614
 4031SOL    HW112992   4.489   5.460   4.593
 4031SOL    HW212993   4.392   5.588   4.622
 4032SOL     OW12994   5.042   0.015   4.846
 4032SOL    HW112995   5.007   6.948   4.824
 4032SOL    HW212996   4.972   0.083   4.825
 4033SOL     OW12997   3.097   3.824   5.300
 4033SOL    HW112998   3.178   3.774   5.269
 4033SOL    HW212999   3.017   3.765   5.296
 4034SOL     OW13000   6.550   2.119   3.810
 4034SOL    HW113001   6.611   2.093   3.734
 4034SOL    HW213002   6.524   2.037   3.861
 4035SOL     OW13003   0.390   5.346   0.635
 4035SOL    HW113004   0.297   5.335   0.670
 4035SOL    HW213005   0.435   5.420   0.684
 4036SOL     OW13006   6.667   6.526   3.393
 4036SOL    HW113007   6.637   6.603   3.337
 4036SOL    HW213008   6.696   6.560   3.483
 4037SOL     OW13009   6.594   4.173   6.174
 4037SOL    HW113010   6.506   4.125   6.173
 4037SOL    HW213011   6.632   4.171   6.267
 4038SOL     OW13012   6.370   5.033   3.964
 4038SOL    HW113013   6.438   5.088   3.915
 4038SOL    HW213014   6.388   5.038   4.063
 4039SOL     OW13015   4.163   6.079   0.943
 4039SOL    HW113016   4.256   6.091   0.910
 4039SOL    HW213017   4.162   6.082   1.043
 4040SOL     OW13018   3.739   6.398   1.185
 4040SOL    HW113019   3.641   6.378   1.185
 4040SOL    HW213020   3.756   6.481   1.132
 4041SOL     OW13021   1.260   0.077   3.468
 4041SOL    HW113022   1.246   0.147   3.538
 4041SOL    HW213023   1.255   0.120   3.378
 4042SOL     OW13024   6.272   5.384   2.157
 4042SOL    HW113025   6.280   5.363   2.254
 4042SOL    HW213026   6.303   5.477   2.141
 4043SOL     OW13027   6.515   3.378   2.083
 4043SOL    HW113028   6.558   3.344   2.167
 4043SOL    HW213029   6.472   3.466   2.101
 4044SOL     OW13030   6.687   6.208   3.601
 4044SOL    HW113031   6.758   6.228   3.533
 4044SOL    HW213032   6.597   6.210   3.557
 4045SOL     OW13033   1.889   5.055   5.711
 4045SOL    HW113034   1.814   5.119   5.727
 4045SOL    HW213035   1.940   5.041   5.796
 4046SOL     OW13036   1.047   2.733   1.018
 4046SOL    HW113037   1.024   2.785   0.936
 4046SOL    HW213038   0.978   2.750   1.089
 4047SOL     OW13039   3.069   4.225   1.381
 4047SOL    HW113040   3.069   4.275   1.468
 4047SOL    HW213041   3.044   4.129   1.398
 4048SOL     OW13042   4.985   1.794   0.888
 4048SOL    HW113043   4.998   1.867   0.820
 4048SOL    HW213044   4.890   1.794   0.918
 4049SOL     OW13045   6.852   0.853   6.045
 4049SOL    HW113046   6.933   0.826   5.993
 4049SOL    HW213047   6.770   0.844   5.989
 4050SOL     OW13048   2.093   0.330   1.600
 4050SOL    HW113049   2.170   0.269   1.579
 4050SOL    HW213050   2.082   0.336   1.699
 4051SOL     OW13051   1.672   4.379   0.997
 4051SOL    HW113052   1.605   4.437   1.044
 4051SOL    HW213053   1.636   4.287   0.987
 4052SOL     OW13054   1.591   6.186   1.528
 4052SOL    HW113055   1.537   6.131   1.465
 4052SOL    HW213056   1.663   6.234   1.477
 4053SOL     OW13057   2.876   4.849   3.130
 4053SOL    HW113058   2.795   4.903   3.150
 4053SOL    HW213059   2.934   4.843   3.211
 4054SOL     OW13060   5.082   1.699   6.981
 4054SOL    HW113061   5.157   1.643   7.019
 4054SOL    HW213062   5.020   1.726   0.030
 4055SOL     OW13063   4.069   2.413   0.607
 4055SOL    HW113064   4.137   2.343   0.631
 4055SOL    HW213065   4.114   2.502   0.602
 4056SOL     OW13066   4.054   3.176   0.971
 4056SOL    HW113067   4.040   3.096   1.028
 4056SOL    HW213068   3.986   3.246   0.994
 4057SOL     OW13069   6.504   2.276   0.031
 4057SOL    HW113070   6.428   2.335   0.004
 4057SOL    HW213071   6.470   2.204   0.091
 4058SOL     OW13072   1.592   0.876   4.829
 4058SOL    HW113073   1.496   0.858   4.809
 4058SOL    HW213074   1.649   0.840   4.756
 4059SOL     OW13075   6.179   1.419   4.887
 4059SOL    HW113076   6.268   1.375   4.878
 4059SOL    HW213077   6.108   1.349   4.899
 4060SOL     OW13078   3.919   6.435   4.542
 4060SOL    HW113079   4.014   6.448   4.515
 4060SOL    HW213080   3.915   6.399   4.635
 4061SOL     OW13081   2.579   3.033   1.572
 4061SOL    HW113082   2.656   2.988   1.616
 4061SOL    HW213083   2.495   3.014   1.624
 4062SOL     OW13084   3.641   6.345   3.027
 4062SOL    HW113085   3.578   6.268   3.031
 4062SOL    HW213086   3.688   6.346   2.939
 4063SOL     OW13087   2.643   5.649   5.953
 4063SOL    HW113088   2.602   5.644   5.862
 4063SOL    HW213089   2.684   5.739   5.967
 4064SOL     OW13090   6.012   0.229   4.488
 4064SOL    HW113091   6.100   0.272   4.469
 4064SOL    HW213092   5.961   0.218   4.402
 4065SOL     OW13093   6.054   5.081   0.179
 4065SOL    HW113094   5.997   5.162   0.195
 4065SOL    HW213095   6.101   5.056   0.264
 4066SOL     OW13096   6.268   5.242   1.904
 4066SOL    HW113097   6.253   5.143   1.917
 4066SOL    HW213098   6.274   5.286   1.994
 4067SOL     OW13099   6.295   0.914   1.866
 4067SOL    HW113100   6.284   0.954   1.957
 4067SOL    HW213101   6.339   0.824   1.874
 4068SOL     OW13102   5.915   1.201   4.533
 4068SOL    HW113103   5.884   1.266   4.464
 4068SOL    HW213104   5.854   1.205   4.612
 4069SOL     OW13105   0.046   5.594   1.211
 4069SOL    HW113106   0.141   5.615   1.236
 4069SOL    HW213107   0.021   5.647   1.130
 4070SOL     OW13108   0.454   3.547   2.763
 4070SOL    HW113109   0.469   3.555   2.665
 4070SOL    HW213110   0.400   3.624   2.796
 4071SOL     OW13111   2.617   0.515   3.616
 4071SOL    HW113112   2.543   0.534   3.680
 4071SOL    HW213113   2.705   0.531   3.662
 4072SOL     OW13114   0.632   0.414   4.444
 4072SOL    HW113115   0.667   0.335   4.395
 4072SOL    HW213116   0.553   0.387   4.500
 4073SOL     OW13117   3.300   5.056   1.373
 4073SOL    HW113118   3.388   5.100   1.356
 4073SOL    HW213119   3.299   5.021   1.467
 4074SOL     OW13120   0.721   2.578   0.607
 4074SOL    HW113121   0.704   2.505   0.541
 4074SOL    HW213122   0.818   2.603   0.605
 4075SOL     OW13123   5.317   0.573   3.766
 4075SOL    HW113124   5.364   0.512   3.702
 4075SOL    HW213125   5.381   0.639   3.803
 4076SOL     OW13126   1.260   2.307   3.438
 4076SOL    HW113127   1.239   2.404   3.438
 4076SOL    HW213128   1.352   2.293   3.476
 4077SOL     OW13129   2.971   1.515   0.927
 4077SOL    HW113130   2.917   1.551   0.851
 4077SOL    HW213131   2.970   1.581   1.003
 4078SOL     OW13132   5.156   4.019   2.439
 4078SOL    HW113133   5.237   4.051   2.488
 4078SOL    HW213134   5.096   4.097   2.420
 4079SOL     OW13135   6.465   0.849   4.445
 4079SOL    HW113136   6.401   0.904   4.393
 4079SOL    HW213137   6.437   0.753   4.443
 4080SOL     OW13138   3.923   3.005   2.429
 4080SOL    HW113139   3.858   3.038   2.361
 4080SOL    HW213140   4.012   2.990   2.386
 4081SOL     OW13141   2.460   2.440   6.089
 4081SOL    HW113142   2.554   2.412   6.071
 4081SOL    HW213143   2.400   2.361   6.082
 4082SOL     OW13144   1.464   2.162   5.643
 4082SOL    HW113145   1.493   2.150   5.738
 4082SOL    HW213146   1.517   2.102   5.584
 4083SOL     OW13147   6.071   5.683   2.903
 4083SOL    HW113148   6.125   5.736   2.837
 4083SOL    HW213149   6.106   5.590   2.908
 4084SOL     OW13150   4.457   0.548   2.838
 4084SOL    HW113151   4.554   0.539   2.817
 4084SOL    HW213152   4.415   0.614   2.777
 4085SOL     OW13153   3.180   4.854   2.398
 4085SOL    HW113154   3.108   4.801   2.443
 4085SOL    HW213155   3.203   4.934   2.455
 4086SOL     OW13156   6.119   4.807   4.891
 4086SOL    HW113157   6.084   4.833   4.981
 4086SOL    HW213158   6.215   4.782   4.899
 4087SOL     OW13159   1.639   0.348   2.098
 4087SOL    HW113160   1.576   0.424   2.091
 4087SOL    HW213161   1.733   0.381   2.087
 4088SOL     OW13162   0.225   2.105   5.502
 4088SOL    HW113163   0.229   2.007   5.483
 4088SOL    HW213164   0.317   2.144   5.498
 4089SOL     OW13165   1.301   0.834   2.954
 4089SOL    HW113166   1.256   0.812   2.867
 4089SOL    HW213167   1.235   0.830   3.028
 4090SOL     OW13168   2.647   2.150   5.787
 4090SOL    HW113169   2.594   2.210   5.726
 4090SOL    HW213170   2.716   2.101   5.733
 4091SOL     OW13171   3.533   5.533   1.721
 4091SOL    HW113172   3.471   5.473   1.772
 4091SOL    HW213173   3.620   5.541   1.770
 4092SOL     OW13174   4.771   2.249   5.572
 4092SOL    HW113175   4.694   2.296   5.529
 4092SOL    HW213176   4.738   2.170   5.623
 4093SOL     OW13177   5.245   4.583   3.523
 4093SOL    HW113178   5.183   4.545   3.454
 4093SOL    HW213179   5.242   4.526   3.605
 4094SOL     OW13180   0.076   6.039   0.124
 4094SOL    HW113181   0.061   6.060   0.221
 4094SOL    HW213182   0.091   6.124   0.073
 4095SOL     OW13183   1.252   5.164   0.808
 4095SOL    HW113184   1.188   5.101   0.851
 4095SOL    HW213185   1.217   5.258   0.816
 4096SOL     OW13186   0.713   0.420   6.858
 4096SOL    HW113187   0.751   0.509   6.885
 4096SOL    HW213188   0.679   0.426   6.764
 4097SOL     OW13189   6.536   3.906   4.982
 4097SOL    HW113190   6.569   3.814   4.962
 4097SOL    HW213191   6.464   3.901   5.051
 4098SOL     OW13192   1.113   5.122   2.168
 4098SOL    HW113193   1.099   5.112   2.266
 4098SOL    HW213194   1.141   5.035   2.128
 4099SOL     OW13195   5.744   4.358   5.829
 4099SOL    HW113196   5.832   4.341   5.785
 4099SOL    HW213197   5.671   4.316   5.775
 4100SOL     OW13198   1.864   1.800   2.918
 4100SOL    HW113199   1.940   1.774   2.977
 4100SOL    HW213200   1.853   1.899   2.918
 4101SOL     OW13201   6.373   5.453   0.055
 4101SOL    HW113202   6.453   5.399   0.033
 4101SOL    HW213203   6.292   5.413   0.011
 4102SOL     OW13204   1.627   6.034   0.507
 4102SOL    HW113205   1.617   5.981   0.422
 4102SOL    HW213206   1.618   6.131   0.486
 4103SOL     OW13207   1.940   6.841   3.132
 4103SOL    HW113208   2.039   6.828   3.121
 4103SOL    HW213209   1.923   6.934   3.165
 4104SOL     OW13210   2.021   5.677   5.360
 4104SOL    HW113211   1.966   5.663   5.442
 4104SOL    HW213212   1.964   5.714   5.287
 4105SOL     OW13213   3.984   0.315   2.496
 4105SOL    HW113214   4.037   0.288   2.417
 4105SOL    HW213215   3.914   0.246   2.514
 4106SOL     OW13216   1.688   1.097   3.043
 4106SOL    HW113217   1.752   1.033   3.085
 4106SOL    HW213218   1.643   1.151   3.114
 4107SOL     OW13219   1.587   0.792   1.370
 4107SOL    HW113220   1.643   0.718   1.332
 4107SOL    HW213221   1.511   0.812   1.308
 4108SOL     OW13222   6.149   5.944   6.021
 4108SOL    HW113223   6.055   5.974   6.039
 4108SOL    HW213224   6.157   5.913   5.927
 4109SOL     OW13225   5.161   6.070   3.673
 4109SOL    HW113226   5.134   5.992   3.615
 4109SOL    HW213227   5.233   6.042   3.736
 4110SOL     OW13228   5.354   2.705   0.708
 4110SOL    HW113229   5.406   2.670   0.630
 4110SOL    HW213230   5.407   2.776   0.755
 4111SOL     OW13231   5.969   4.491   4.150
 4111SOL    HW113232   6.034   4.563   4.175
 4111SOL    HW213233   6.006   4.438   4.075
 4112SOL     OW13234   4.038   6.221   4.406
 4112SOL    HW113235   4.007   6.137   4.362
 4112SOL    HW213236   3.959   6.268   4.447
 4113SOL     OW13237   4.313   5.120   4.899
 4113SOL    HW113238   4.304   5.170   4.813
 4113SOL    HW213239   4.323   5.022   4.880
 4114SOL     OW13240   6.999   1.129   1.788
 4114SOL    HW113241   7.020   1.227   1.791
 4114SOL    HW213242   6.992   1.099   1.693
 4115SOL     OW13243   4.562   5.777   3.608
 4115SOL    HW113244   4.529   5.737   3.523
 4115SOL    HW213245   4.499   5.848   3.638
 4116SOL     OW13246   4.945   3.690   2.814
 4116SOL    HW113247   4.893   3.604   2.810
 4116SOL    HW213248   5.002   3.697   2.732
 4117SOL     OW13249   1.334   1.365   3.877
 4117SOL    HW113250   1.290   1.434   3.934
 4117SOL    HW213251   1.323   1.390   3.780
 4118SOL     OW13252   0.805   6.890   0.471
 4118SOL    HW113253   0.890   6.942   0.468
 4118SOL    HW213254   0.744   6.921   0.399
 4119SOL     OW13255   0.462   0.646   4.411
 4119SOL    HW113256   0.396   0.614   4.478
 4119SOL    HW213257   0.550   0.600   4.427
 4120SOL     OW13258   2.610   1.038   6.731
 4120SOL    HW113259   2.520   1.077   6.749
 4120SOL    HW213260   2.601   0.959   6.671
 4121SOL     OW13261   6.671   0.028   2.330
 4121SOL    HW113262   6.652   6.992   2.252
 4121SOL    HW213263   6.595   0.092   2.342
 4122SOL     OW13264   0.858   4.358   2.872
 4122SOL    HW113265   0.765   4.341   2.839
 4122SOL    HW213266   0.902   4.427   2.814
 4123SOL     OW13267   5.172   4.674   1.093
 4123SOL    HW113268   5.161   4.576   1.076
 4123SOL    HW213269   5.200   4.689   1.188
 4124SOL     OW13270   6.573   5.911   0.142
 4124SOL    HW113271   6.652   5.953   0.098
 4124SOL    HW213272   6.529   5.847   0.079
 4125SOL     OW13273   6.379   2.872   0.219
 4125SOL    HW113274   6.317   2.943   0.186
 4125SOL    HW213275   6.416   2.821   0.141
 4126SOL     OW13276   0.875   3.350   3.741
 4126SOL    HW113277   0.857   3.262   3.696
 4126SOL    HW213278   0.834   3.424   3.688
 4127SOL     OW13279   4.516   2.579   3.913
 4127SOL    HW113280   4.475   2.492   3.942
 4127SOL    HW213281   4.531   2.637   3.993
 4128SOL     OW13282   6.643   2.860   6.465
 4128SOL    HW113283   6.686   2.945   6.494
 4128SOL    HW213284   6.694   2.782   6.502
 4129SOL     OW13285   3.025   1.677   1.125
 4129SOL    HW113286   2.970   1.718   1.198
 4129SOL    HW213287   3.084   1.607   1.164
 4130SOL     OW13288   6.185   3.075   0.731
 4130SOL    HW113289   6.123   3.039   0.801
 4130SOL    HW213290   6.236   3.000   0.689
 4131SOL     OW13291   5.428   6.977   3.219
 4131SOL    HW113292   5.376   6.935   3.144
 4131SOL    HW213293   5.460   6.906   3.281
 4132SOL     OW13294   6.448   5.182   3.404
 4132SOL    HW113295   6.531   5.179   3.349
 4132SOL    HW213296   6.467   5.226   3.492
 4133SOL     OW13297   5.846   6.853   2.941
 4133SOL    HW113298   5.751   6.882   2.933
 4133SOL    HW213299   5.858   6.801   3.026
 4134SOL     OW13300   1.499   3.537   1.134
 4134SOL    HW113301   1.513   3.463   1.201
 4134SOL    HW213302   1.554   3.519   1.052
 4135SOL     OW13303   6.496   1.072   1.344
 4135SOL    HW113304   6.431   0.999   1.324
 4135SOL    HW213305   6.535   1.059   1.435
 4136SOL     OW13306   0.621   4.920   1.160
 4136SOL    HW113307   0.613   4.821   1.175
 4136SOL    HW213308   0.553   4.949   1.093
 4137SOL     OW13309   0.658   2.396   6.388
 4137SOL    HW113310   0.725   2.469   6.378
 4137SOL    HW213311   0.566   2.435   6.382
 4138SOL     OW13312   4.426   0.298   6.805
 4138SOL    HW113313   4.349   0.353   6.837
 4138SOL    HW213314   4.464   0.339   6.722
 4139SOL     OW13315   2.224   4.063   2.998
 4139SOL    HW113316   2.183   3.972   3.001
 4139SOL    HW213317   2.247   4.085   2.903
 4140SOL     OW13318   2.578   0.310   6.534
 4140SOL    HW113319   2.597   0.390   6.590
 4140SOL    HW213320   2.489   0.320   6.490
 4141SOL     OW13321   5.608   0.993   6.201
 4141SOL    HW113322   5.685   1.047   6.168
 4141SOL    HW213323   5.569   0.940   6.125
 4142SOL     OW13324   6.585   5.141   2.460
 4142SOL    HW113325   6.537   5.150   2.547
 4142SOL    HW213326   6.553   5.058   2.414
 4143SOL     OW13327   6.306   3.675   6.568
 4143SOL    HW113328   6.362   3.746   6.525
 4143SOL    HW213329   6.323   3.587   6.523
 4144SOL     OW13330   5.277   1.913   1.448
 4144SOL    HW113331   5.209   1.912   1.374
 4144SOL    HW213332   5.247   1.977   1.519
 4145SOL     OW13333   7.012   0.576   1.752
 4145SOL    HW113334   6.959   0.500   1.790
 4145SOL    HW213335   7.012   0.652   1.817
 4146SOL     OW13336   5.064   6.555   1.828
 4146SOL    HW113337   5.158   6.581   1.849
 4146SOL    HW213338   5.004   6.579   1.905
 4147SOL     OW13339   4.707   4.922   6.569
 4147SOL    HW113340   4.717   4.996   6.502
 4147SOL    HW213341   4.689   4.962   6.659
 4148SOL     OW13342   3.112   1.204   4.927
 4148SOL    HW113343   3.071   1.160   5.007
 4148SOL    HW213344   3.104   1.144   4.848
 4149SOL     OW13345   1.405   3.749   6.244
 4149SOL    HW113346   1.355   3.834   6.232
 4149SOL    HW213347   1.346   3.671   6.224
 4150SOL     OW13348   5.404   1.542   0.083
 4150SOL    HW113349   5.503   1.527   0.087
 4150SOL    HW213350   5.357   1.458   0.110
 4151SOL     OW13351   2.645   5.912   4.645
 4151SOL    HW113352   2.640   5.925   4.744
 4151SOL    HW213353   2.650   6.001   4.599
 4152SOL     OW13354   2.164   4.274   1.295
 4152SOL    HW113355   2.106   4.256   1.374
 4152SOL    HW213356   2.160   4.196   1.232
 4153SOL     OW13357   6.586   5.812   1.818
 4153SOL    HW113358   6.624   5.805   1.726
 4153SOL    HW213359   6.640   5.877   1.871
 4154SOL     OW13360   0.824   6.458   4.196
 4154SOL    HW113361   0.790   6.441   4.288
 4154SOL    HW213362   0.763   6.523   4.150
 4155SOL     OW13363   0.245   0.611   2.029
 4155SOL    HW113364   0.176   0.602   2.101
 4155SOL    HW213365   0.240   0.532   1.968
 4156SOL     OW13366   0.453   4.875   6.009
 4156SOL    HW113367   0.390   4.800   6.031
 4156SOL    HW213368   0.405   4.962   6.015
 4157SOL     OW13369   5.498   5.550   1.387
 4157SOL    HW113370   5.560   5.474   1.405
 4157SOL    HW213371   5.427   5.553   1.457
 4158SOL     OW13372   1.000   3.065   1.221
 4158SOL    HW113373   1.076   3.125   1.247
 4158SOL    HW213374   0.977   3.005   1.297
 4159SOL     OW13375   2.815   0.481   4.483
 4159SOL    HW113376   2.715   0.469   4.485
 4159SOL    HW213377   2.844   0.529   4.566
 4160SOL     OW13378   0.783   6.774   6.492
 4160SOL    HW113379   0.810   6.861   6.450
 4160SOL    HW213380   0.758   6.790   6.588
 4161SOL     OW13381   3.523   3.521   2.902
 4161SOL    HW113382   3.619   3.536   2.927
 4161SOL    HW213383   3.492   3.434   2.941
 4162SOL     OW13384   5.297   5.271   1.398
 4162SOL    HW113385   5.382   5.278   1.450
 4162SOL    HW213386   5.306   5.201   1.328
 4163SOL     OW13387   3.787   5.974   2.108
 4163SOL    HW113388   3.806   5.909   2.034
 4163SOL    HW213389   3.784   6.067   2.070
 4164SOL     OW13390   6.973   1.107   6.064
 4164SOL    HW113391   0.032   1.087   6.116
 4164SOL    HW213392   6.922   1.022   6.050
 4165SOL     OW13393   4.083   0.972   4.470
 4165SOL    HW113394   4.008   0.932   4.417
 4165SOL    HW213395   4.054   1.058   4.510
 4166SOL     OW13396   5.676   2.418   1.098
 4166SOL    HW113397   5.638   2.504   1.131
 4166SOL    HW213398   5.645   2.343   1.157
 4167SOL     OW13399   3.707   5.184   4.650
 4167SOL    HW113400   3.625   5.215   4.698
 4167SOL    HW213401   3.701   5.085   4.634
 4168SOL     OW13402   5.143   3.919   0.226
 4168SOL    HW113403   5.187   3.926   0.316
 4168SOL    HW213404   5.066   3.856   0.232
 4169SOL     OW13405   5.416   2.913   5.961
 4169SOL    HW113406   5.429   2.956   6.050
 4169SOL    HW213407   5.475   2.832   5.954
 4170SOL     OW13408   0.449   2.010   4.586
 4170SOL    HW113409   0.500   2.030   4.669
 4170SOL    HW213410   0.445   1.911   4.572
 4171SOL     OW13411   0.955   1.617   0.019
 4171SOL    HW113412   0.978   1.661   0.106
 4171SOL    HW213413   0.952   1.685   6.971
 4172SOL     OW13414   2.853   3.234   0.751
 4172SOL    HW113415   2.835   3.312   0.810
 4172SOL    HW213416   2.767   3.186   0.732
 4173SOL     OW13417   5.078   2.030   6.393
 4173SOL    HW113418   5.029   2.116   6.408
 4173SOL    HW213419   5.024   1.955   6.430
 4174SOL     OW13420   4.380   0.011   4.674
 4174SOL    HW113421   4.472   7.003   4.695
 4174SOL    HW213422   4.384   0.076   4.598
 4175SOL     OW13423   0.968   4.213   6.541
 4175SOL    HW113424   0.981   4.309   6.568
 4175SOL    HW213425   0.870   4.195   6.529
 4176SOL     OW13426   5.756   6.564   6.539
 4176SOL    HW113427   5.741   6.521   6.628
 4176SOL    HW213428   5.824   6.636   6.547
 4177SOL     OW13429   4.275   4.639   2.790
 4177SOL    HW113430   4.331   4.626   2.708
 4177SOL    HW213431   4.183   4.669   2.763
 4178SOL     OW13432   4.203   6.260   1.421
 4178SOL    HW113433   4.167   6.203   1.495
 4178SOL    HW213434   4.133   6.327   1.393
 4179SOL     OW13435   4.620   2.920   6.861
 4179SOL    HW113436   4.673   2.884   6.784
 4179SOL    HW213437   4.659   2.886   6.947
 4180SOL     OW13438   4.193   3.539   0.747
 4180SOL    HW113439   4.162   3.627   0.781
 4180SOL    HW213440   4.290   3.544   0.724
 4181SOL     OW13441   5.234   6.939   5.869
 4181SOL    HW113442   5.219   6.867   5.801
 4181SOL    HW213443   5.194   6.910   5.956
 4182SOL     OW13444   0.858   6.392   4.753
 4182SOL    HW113445   0.866   6.444   4.838
 4182SOL    HW213446   0.808   6.307   4.770
 4183SOL     OW13447   4.508   1.957   0.900
 4183SOL    HW113448   4.485   2.048   0.934
 4183SOL    HW213449   4.440   1.891   0.932
 4184SOL     OW13450   3.829   5.577   4.069
 4184SOL    HW113451   3.828   5.615   4.161
 4184SOL    HW213452   3.811   5.478   4.074
 4185SOL     OW13453   4.921   3.285   3.651
 4185SOL    HW113454   4.888   3.234   3.572
 4185SOL    HW213455   4.897   3.237   3.735
 4186SOL     OW13456   1.577   5.965   0.256
 4186SOL    HW113457   1.610   6.045   0.206
 4186SOL    HW213458   1.551   5.894   0.190
 4187SOL     OW13459   1.401   3.354   6.827
 4187SOL    HW113460   1.470   3.419   6.794
 4187SOL    HW213461   1.373   3.294   6.752
 4188SOL     OW13462   4.470   0.125   0.085
 4188SOL    HW113463   4.405   0.176   0.141
 4188SOL    HW213464   4.550   0.181   0.068
 4189SOL     OW13465   4.450   5.162   3.508
 4189SOL    HW113466   4.413   5.082   3.555
 4189SOL    HW213467   4.527   5.134   3.451
 4190SOL     OW13468   6.581   6.028   1.107
 4190SOL    HW113469   6.627   5.945   1.078
 4190SOL    HW213470   6.531   6.011   1.192
 4191SOL     OW13471   4.505   3.682   6.578
 4191SOL    HW113472   4.541   3.647   6.492
 4191SOL    HW213473   4.454   3.610   6.625
 4192SOL     OW13474   1.390   3.248   0.045
 4192SOL    HW113475   1.434   3.292   6.991
 4192SOL    HW213476   1.377   3.151   0.025
 4193SOL     OW13477   0.501   0.172   0.479
 4193SOL    HW113478   0.558   0.235   0.533
 4193SOL    HW213479   0.457   0.106   0.540
 4194SOL     OW13480   5.349   1.970   5.713
 4194SOL    HW113481   5.379   1.966   5.618
 4194SOL    HW213482   5.272   2.034   5.720
 4195SOL     OW13483   3.948   0.193   0.746
 4195SOL    HW113484   3.884   0.250   0.695
 4195SOL    HW213485   3.898   0.116   0.787
 4196SOL     OW13486   5.917   2.821   2.669
 4196SOL    HW113487   5.941   2.917   2.682
 4196SOL    HW213488   5.997   2.764   2.688
 4197SOL     OW13489   3.800   0.976   6.684
 4197SOL    HW113490   3.746   1.030   6.619
 4197SOL    HW213491   3.805   0.881   6.652
 4198SOL     OW13492   6.377   2.333   2.374
 4198SOL    HW113493   6.395   2.278   2.293
 4198SOL    HW213494   6.286   2.312   2.410
 4199SOL     OW13495   0.298   4.278   6.435
 4199SOL    HW113496   0.370   4.208   6.432
 4199SOL    HW213497   0.218   4.240   6.481
 4200SOL     OW13498   4.307   1.531   3.866
 4200SOL    HW113499   4.341   1.493   3.780
 4200SOL    HW213500   4.216   1.494   3.886
 4201SOL     OW13501   6.004   6.844   3.945
 4201SOL    HW113502   6.082   6.847   3.882
 4201SOL    HW213503   5.995   6.932   3.991
 4202SOL     OW13504   4.719   4.016   1.344
 4202SOL    HW113505   4.626   3.989   1.369
 4202SOL    HW213506   4.768   4.045   1.427
 4203SOL     OW13507   6.283   4.249   5.124
 4203SOL    HW113508   6.309   4.182   5.194
 4203SOL    HW213509   6.183   4.252   5.117
 4204SOL     OW13510   1.663   3.720   6.400
 4204SOL    HW113511   1.564   3.717   6.384
 4204SOL    HW213512   1.687   3.807   6.441
 4205SOL     OW13513   4.318   6.882   6.493
 4205SOL    HW113514   4.360   6.920   6.410
 4205SOL    HW213515   4.386   6.876   6.565
 4206SOL     OW13516   2.143   2.018   4.600
 4206SOL    HW113517   2.046   2.042   4.611
 4206SOL    HW213518   2.162   2.000   4.504
 4207SOL     OW13519   0.394   1.853   2.194
 4207SOL    HW113520   0.402   1.866   2.095
 4207SOL    HW213521   0.302   1.819   2.215
 4208SOL     OW13522   2.088   2.740   3.583
 4208SOL    HW113523   2.135   2.820   3.620
 4208SOL    HW213524   1.994   2.737   3.619
 4209SOL     OW13525   6.145   6.415   2.064
 4209SOL    HW113526   6.131   6.316   2.068
 4209SOL    HW213527   6.243   6.435   2.063
 4210SOL     OW13528   3.244   4.063   4.769
 4210SOL    HW113529   3.263   4.089   4.675
 4210SOL    HW213530   3.170   4.119   4.805
 4211SOL     OW13531   3.989   2.603   5.391
 4211SOL    HW113532   4.058   2.575   5.324
 4211SOL    HW213533   4.005   2.698   5.418
 4212SOL     OW13534   6.883   1.898   3.133
 4212SOL    HW113535   6.841   1.849   3.210
 4212SOL    HW213536   6.815   1.957   3.090
 4213SOL     OW13537   3.003   0.673   4.291
 4213SOL    HW113538   3.072   0.732   4.331
 4213SOL    HW213539   2.987   0.594   4.351
 4214SOL     OW13540   6.864   6.566   3.164
 4214SOL    HW113541   6.788   6.523   3.212
 4214SOL    HW213542   6.947   6.510   3.176
 4215SOL     OW13543   5.423   0.021   5.642
 4215SOL    HW113544   5.362   7.013   5.715
 4215SOL    HW213545   5.486   0.089   5.679
 4216SOL     OW13546   2.219   5.616   2.076
 4216SOL    HW113547   2.212   5.520   2.101
 4216SOL    HW213548   2.190   5.628   1.981
 4217SOL     OW13549   1.285   0.866   3.291
 4217SOL    HW113550   1.337   0.844   3.373
 4217SOL    HW213551   1.320   0.951   3.251
 4218SOL     OW13552   3.443   1.311   0.509
 4218SOL    HW113553   3.420   1.214   0.496
 4218SOL    HW213554   3.490   1.346   0.428
 4219SOL     OW13555   4.309   5.741   2.566
 4219SOL    HW113556   4.351   5.732   2.475
 4219SOL    HW213557   4.244   5.666   2.580
 4220SOL     OW13558   5.507   1.562   1.598
 4220SOL    HW113559   5.554   1.607   1.522
 4220SOL    HW213560   5.466   1.477   1.566
 4221SOL     OW13561   1.464   6.582   0.757
 4221SOL    HW113562   1.492   6.660   0.813
 4221SOL    HW213563   1.542   6.548   0.705
 4222SOL     OW13564   5.284   2.864   3.982
 4222SOL    HW113565   5.267   2.956   4.016
 4222SOL    HW213566   5.198   2.813   3.980
 4223SOL     OW13567   4.109   3.755   2.388
 4223SOL    HW113568   4.186   3.721   2.443
 4223SOL    HW213569   4.064   3.829   2.438
 4224SOL     OW13570   4.623   4.993   4.525
 4224SOL    HW113571   4.689   5.033   4.588
 4224SOL    HW213572   4.637   5.030   4.433
 4225SOL     OW13573   0.975   1.765   6.052
 4225SOL    HW113574   0.894   1.706   6.048
 4225SOL    HW213575   0.979   1.822   5.971
 4226SOL     OW13576   0.649   6.193   4.839
 4226SOL    HW113577   0.637   6.100   4.804
 4226SOL    HW213578   0.564   6.245   4.825
 4227SOL     OW13579   4.232   5.456   2.192
 4227SOL    HW113580   4.153   5.516   2.195
 4227SOL    HW213581   4.235   5.407   2.105
 4228SOL     OW13582   0.804   5.564   3.864
 4228SOL    HW113583   0.862   5.596   3.789
 4228SOL    HW213584   0.816   5.625   3.943
 4229SOL     OW13585   6.725   5.160   5.791
 4229SOL    HW113586   6.809   5.176   5.843
 4229SOL    HW213587   6.669   5.092   5.838
 4230SOL     OW13588   6.716   0.795   1.992
 4230SOL    HW113589   6.685   0.884   2.027
 4230SOL    HW213590   6.759   0.744   2.065
 4231SOL     OW13591   6.753   1.403   6.211
 4231SOL    HW113592   6.789   1.311   6.223
 4231SOL    HW213593   6.807   1.452   6.144
 4232SOL     OW13594   1.607   5.402   3.815
 4232SOL    HW113595   1.637   5.479   3.872
 4232SOL    HW213596   1.511   5.412   3.792
 4233SOL     OW13597   4.051   5.305   2.378
 4233SOL    HW113598   3.976   5.238   2.375
 4233SOL    HW213599   4.085   5.321   2.285
 4234SOL     OW13600   3.014   5.305   5.975
 4234SOL    HW113601   2.982   5.323   5.882
 4234SOL    HW213602   3.080   5.230   5.973
 4235SOL     OW13603   0.032   5.953   5.899
 4235SOL    HW113604   0.104   6.005   5.944
 4235SOL    HW213605   6.973   6.007   5.895
 4236SOL     OW13606   0.569   5.142   2.618
 4236SOL    HW113607   0.524   5.057   2.645
 4236SOL    HW213608   0.593   5.194   2.700
 4237SOL     OW13609   0.199   4.796   4.090
 4237SOL    HW113610   0.265   4.860   4.051
 4237SOL    HW213611   0.233   4.761   4.177
 4238SOL     OW13612   3.468   6.661   2.465
 4238SOL    HW113613   3.487   6.754   2.433
 4238SOL    HW213614   3.406   6.616   2.401
 4239SOL     OW13615   3.949   1.033   3.689
 4239SOL    HW113616   4.049   1.027   3.699
 4239SOL    HW213617   3.917   1.119   3.728
 4240SOL     OW13618   6.384   6.556   2.137
 4240SOL    HW113619   6.385   6.625   2.064
 4240SOL    HW213620   6.336   6.593   2.217
 4241SOL     OW13621   6.172   4.023   0.440
 4241SOL    HW113622   6.149   3.929   0.464
 4241SOL    HW213623   6.234   4.060   0.510
 4242SOL     OW13624   2.966   1.720   3.451
 4242SOL    HW113625   2.967   1.659   3.530
 4242SOL    HW213626   2.874   1.758   3.440
 4243SOL     OW13627   4.874   0.934   2.976
 4243SOL    HW113628   4.931   0.969   3.049
 4243SOL    HW213629   4.782   0.974   2.982
 4244SOL     OW13630   3.574   2.996   3.762
 4244SOL    HW113631   3.507   2.937   3.716
 4244SOL    HW213632   3.568   3.089   3.725
 4245SOL     OW13633   5.994   1.394   6.660
 4245SOL    HW113634   5.961   1.445   6.739
 4245SOL    HW213635   5.946   1.306   6.655
 4246SOL     OW13636   0.329   3.333   0.497
 4246SOL    HW113637   0.298   3.276   0.421
 4246SOL    HW213638   0.249   3.366   0.548
 4247SOL     OW13639   7.000   5.711   5.449
 4247SOL    HW113640   0.013   5.634   5.502
 4247SOL    HW213641   7.014   5.694   5.352
 4248SOL     OW13642   1.427   3.157   4.934
 4248SOL    HW113643   1.478   3.083   4.891
 4248SOL    HW213644   1.333   3.158   4.900
 4249SOL     OW13645   5.519   4.150   5.940
 4249SOL    HW113646   5.536   4.218   6.011
 4249SOL    HW213647   5.493   4.196   5.855
 4250SOL     OW13648   0.586   4.322   2.751
 4250SOL    HW113649   0.575   4.418   2.777
 4250SOL    HW213650   0.509   4.269   2.785
 4251SOL     OW13651   5.650   3.795   0.704
 4251SOL    HW113652   5.648   3.890   0.673
 4251SOL    HW213653   5.686   3.736   0.631
 4252SOL     OW13654   0.567   5.984   5.704
 4252SOL    HW113655   0.644   5.922   5.692
 4252SOL    HW213656   0.583   6.068   5.652
 4253SOL     OW13657   4.167   5.998   2.790
 4253SOL    HW113658   4.132   6.088   2.816
 4253SOL    HW213659   4.264   5.991   2.815
 4254SOL     OW13660   2.508   4.256   0.833
 4254SOL    HW113661   2.563   4.227   0.912
 4254SOL    HW213662   2.562   4.319   0.777
 4255SOL     OW13663   7.012   1.953   4.297
 4255SOL    HW113664   6.988   2.046   4.268
 4255SOL    HW213665   6.946   1.889   4.258
 4256SOL     OW13666   1.966   1.033   2.266
 4256SOL    HW113667   1.954   1.018   2.364
 4256SOL    HW213668   2.040   0.976   2.231
 4257SOL     OW13669   4.034   2.241   4.580
 4257SOL    HW113670   4.107   2.253   4.647
 4257SOL    HW213671   4.069   2.263   4.489
 4258SOL     OW13672   5.526   6.449   2.553
 4258SOL    HW113673   5.519   6.455   2.453
 4258SOL    HW213674   5.462   6.514   2.594
 4259SOL     OW13675   1.880   3.001   0.141
 4259SOL    HW113676   1.944   3.027   0.213
 4259SOL    HW213677   1.787   3.000   0.177
 4260SOL     OW13678   4.970   5.575   3.510
 4260SOL    HW113679   5.031   5.649   3.482
 4260SOL    HW213680   5.008   5.488   3.477
 4261SOL     OW13681   2.136   1.058   2.834
 4261SOL    HW113682   2.195   1.137   2.848
 4261SOL    HW213683   2.040   1.085   2.841
 4262SOL     OW13684   0.211   5.698   6.646
 4262SOL    HW113685   0.300   5.715   6.688
 4262SOL    HW213686   0.224   5.654   6.557
 4263SOL     OW13687   3.659   5.200   5.881
 4263SOL    HW113688   3.605   5.203   5.797
 4263SOL    HW213689   3.738   5.261   5.872
 4264SOL     OW13690   7.016   0.498   0.785
 4264SOL    HW113691   6.947   0.466   0.720
 4264SOL    HW213692   0.082   0.492   0.744
 4265SOL     OW13693   6.826   2.501   0.676
 4265SOL    HW113694   6.897   2.556   0.720
 4265SOL    HW213695   6.759   2.561   0.632
 4266SOL     OW13696   3.027   4.732   0.825
 4266SOL    HW113697   2.939   4.697   0.855
 4266SOL    HW213698   3.096   4.660   0.834
 4267SOL     OW13699   1.920   4.202   5.605
 4267SOL    HW113700   1.973   4.187   5.522
 4267SOL    HW213701   1.918   4.299   5.627
 4268SOL     OW13702   1.470   1.202   0.736
 4268SOL    HW113703   1.494   1.108   0.711
 4268SOL    HW213704   1.477   1.214   0.835
 4269SOL     OW13705   3.437   3.558   0.357
 4269SOL    HW113706   3.487   3.641   0.334
 4269SOL    HW213707   3.345   3.582   0.387
 4270SOL     OW13708   3.560   2.679   5.486
 4270SOL    HW113709   3.605   2.748   5.542
 4270SOL    HW213710   3.598   2.589   5.508
 4271SOL     OW13711   1.050   7.001   0.310
 4271SOL    HW113712   1.067   6.939   0.233
 4271SOL    HW213713   1.115   6.982   0.383
 4272SOL     OW13714   6.898   4.563   4.154
 4272SOL    HW113715   6.939   4.545   4.064
 4272SOL    HW213716   6.837   4.642   4.148
 4273SOL     OW13717   6.063   6.336   5.192
 4273SOL    HW113718   6.085   6.243   5.223
 4273SOL    HW213719   6.010   6.331   5.107
 4274SOL     OW13720   2.258   0.263   4.108
 4274SOL    HW113721   2.221   0.219   4.189
 4274SOL    HW213722   2.229   0.359   4.106
 4275SOL     OW13723   1.178   6.824   6.845
 4275SOL    HW113724   1.174   6.785   6.754
 4275SOL    HW213725   1.131   6.913   6.846
 4276SOL     OW13726   2.070   4.341   2.256
 4276SOL    HW113727   2.001   4.336   2.328
 4276SOL    HW213728   2.027   4.372   2.171
 4277SOL     OW13729   0.350   5.205   3.701
 4277SOL    HW113730   0.288   5.240   3.771
 4277SOL    HW213731   0.443   5.201   3.739
 4278SOL     OW13732   0.566   6.236   5.564
 4278SOL    HW113733   0.601   6.256   5.472
 4278SOL    HW213734   0.574   6.318   5.620
 4279SOL     OW13735   3.527   5.694   4.302
 4279SOL    HW113736   3.490   5.714   4.393
 4279SOL    HW213737   3.510   5.598   4.279
 4280SOL     OW13738   4.904   3.439   3.983
 4280SOL    HW113739   4.979   3.387   3.942
 4280SOL    HW213740   4.898   3.417   4.081
 4281SOL     OW13741   2.063   4.117   5.123
 4281SOL    HW113742   2.155   4.084   5.102
 4281SOL    HW213743   2.000   4.084   5.053
 4282SOL     OW13744   1.469   2.384   1.103
 4282SOL    HW113745   1.447   2.378   1.200
 4282SOL    HW213746   1.462   2.479   1.073
 4283SOL     OW13747   1.717   0.353   4.506
 4283SOL    HW113748   1.733   0.353   4.604
 4283SOL    HW213749   1.628   0.395   4.487
 4284SOL     OW13750   6.056   1.901   2.650
 4284SOL    HW113751   6.123   1.827   2.639
 4284SOL    HW213752   5.979   1.885   2.589
 4285SOL     OW13753   1.039   5.985   6.262
 4285SOL    HW113754   1.120   5.974   6.319
 4285SOL    HW213755   1.032   5.908   6.198
 4286SOL     OW13756   5.744   5.381   6.869
 4286SOL    HW113757   5.722   5.438   6.948
 4286SOL    HW213758   5.812   5.428   6.812
 4287SOL     OW13759   5.010   6.546   5.087
 4287SOL    HW113760   5.089   6.499   5.127
 4287SOL    HW213761   4.994   6.510   4.995
 4288SOL     OW13762   1.552   0.058   2.749
 4288SOL    HW113763   1.628   0.071   2.685
 4288SOL    HW213764   1.562   0.122   2.825
 4289SOL     OW13765   5.647   3.680   1.275
 4289SOL    HW113766   5.587   3.649   1.201
 4289SOL    HW213767   5.648   3.780   1.277
 4290SOL     OW13768   2.396   0.911   1.890
 4290SOL    HW113769   2.480   0.870   1.855
 4290SOL    HW213770   2.328   0.915   1.818
 4291SOL     OW13771   6.337   4.387   1.197
 4291SOL    HW113772   6.412   4.451   1.212
 4291SOL    HW213773   6.289   4.371   1.283
 4292SOL     OW13774   6.347   5.480   6.700
 4292SOL    HW113775   6.284   5.439   6.765
 4292SOL    HW213776   6.325   5.576   6.687
 4293SOL     OW13777   6.774   2.691   0.069
 4293SOL    HW113778   6.842   2.734   0.010
 4293SOL    HW213779   6.790   2.719   0.164
 4294SOL     OW13780   5.153   2.169   5.652
 4294SOL    HW113781   5.129   2.260   5.686
 4294SOL    HW213782   5.188   2.176   5.559
 4295SOL     OW13783   4.108   6.705   4.779
 4295SOL    HW113784   4.014   6.672   4.771
 4295SOL    HW213785   4.122   6.781   4.716
 4296SOL     OW13786   2.295   1.666   0.856
 4296SOL    HW113787   2.345   1.610   0.922
 4296SOL    HW213788   2.200   1.634   0.849
 4297SOL     OW13789   5.855   0.702   5.680
 4297SOL    HW113790   5.776   0.706   5.742
 4297SOL    HW213791   5.915   0.780   5.697
 4298SOL     OW13792   3.170   5.390   0.891
 4298SOL    HW113793   3.225   5.441   0.824
 4298SOL    HW213794   3.165   5.442   0.976
 4299SOL     OW13795   0.452   4.040   6.462
 4299SOL    HW113796   0.452   3.963   6.526
 4299SOL    HW213797   0.457   4.005   6.368
 4300SOL     OW13798   5.676   0.487   0.037
 4300SOL    HW113799   5.650   0.499   6.965
 4300SOL    HW213800   5.687   0.389   0.056
 4301SOL     OW13801   3.083   1.353   0.238
 4301SOL    HW113802   3.065   1.406   0.321
 4301SOL    HW213803   3.006   1.363   0.175
 4302SOL     OW13804   0.613   6.227   6.870
 4302SOL    HW113805   0.616   6.271   6.959
 4302SOL    HW213806   0.688   6.162   6.861
 4303SOL     OW13807   6.734   3.189   2.033
 4303SOL    HW113808   6.748   3.251   2.110
 4303SOL    HW213809   6.732   3.095   2.066
 4304SOL     OW13810   3.337   2.929   4.090
 4304SOL    HW113811   3.305   2.999   4.154
 4304SOL    HW213812   3.305   2.839   4.121
 4305SOL     OW13813   6.215   1.859   3.686
 4305SOL    HW113814   6.167   1.772   3.683
 4305SOL    HW213815   6.173   1.919   3.754
 4306SOL     OW13816   6.519   5.348   5.693
 4306SOL    HW113817   6.565   5.275   5.746
 4306SOL    HW213818   6.422   5.328   5.686
 4307SOL     OW13819   5.294   3.444   6.187
 4307SOL    HW113820   5.374   3.503   6.196
 4307SOL    HW213821   5.323   3.348   6.186
 4308SOL     OW13822   5.108   6.208   4.710
 4308SOL    HW113823   5.137   6.301   4.686
 4308SOL    HW213824   5.022   6.187   4.663
 4309SOL     OW13825   1.632   1.370   0.592
 4309SOL    HW113826   1.579   1.317   0.658
 4309SOL    HW213827   1.647   1.315   0.510
 4310SOL     OW13828   1.149   0.727   2.483
 4310SOL    HW113829   1.166   0.636   2.445
 4310SOL    HW213830   1.051   0.747   2.479
 4311SOL     OW13831   1.689   6.427   3.774
 4311SOL    HW113832   1.633   6.499   3.733
 4311SOL    HW213833   1.630   6.351   3.802
 4312SOL     OW13834   2.644   5.107   1.935
 4312SOL    HW113835   2.688   5.085   2.022
 4312SOL    HW213836   2.551   5.069   1.934
 4313SOL     OW13837   4.612   0.581   2.510
 4313SOL    HW113838   4.701   0.539   2.525
 4313SOL    HW213839   4.624   0.677   2.484
 4314SOL     OW13840   4.917   2.999   2.824
 4314SOL    HW113841   4.934   3.093   2.795
 4314SOL    HW213842   4.994   2.941   2.795
 4315SOL     OW13843   2.624   1.645   1.983
 4315SOL    HW113844   2.555   1.705   2.024
 4315SOL    HW213845   2.614   1.553   2.020
 4316SOL     OW13846   6.771   6.982   2.645
 4316SOL    HW113847   6.747   0.054   2.641
 4316SOL    HW213848   6.807   6.953   2.556
 4317SOL     OW13849   4.107   1.403   2.945
 4317SOL    HW113850   4.119   1.304   2.947
 4317SOL    HW213851   4.068   1.434   3.033
 4318SOL     OW13852   0.114   2.378   4.069
 4318SOL    HW113853   0.198   2.348   4.024
 4318SOL    HW213854   0.035   2.354   4.013
 4319SOL     OW13855   2.428   3.530   5.657
 4319SOL    HW113856   2.333   3.548   5.632
 4319SOL    HW213857   2.431   3.494   5.751
 4320SOL     OW13858   6.978   5.858   2.892
 4320SOL    HW113859   6.965   5.806   2.807
 4320SOL    HW213860   0.022   5.930   2.877
 4321SOL     OW13861   0.718   0.319   5.396
 4321SOL    HW113862   0.697   0.408   5.355
 4321SOL    HW213863   0.686   0.246   5.335
 4322SOL     OW13864   6.189   0.703   0.609
 4322SOL    HW113865   6.114   0.729   0.669
 4322SOL    HW213866   6.275   0.705   0.660
 4323SOL     OW13867   6.769   2.583   3.580
 4323SOL    HW113868   6.788   2.553   3.674
 4323SOL    HW213869   6.850   2.630   3.545
 4324SOL     OW13870   6.206   4.233   5.541
 4324SOL    HW113871   6.160   4.202   5.457
 4324SOL    HW213872   6.215   4.156   5.604
 4325SOL     OW13873   2.137   1.849   6.382
 4325SOL    HW113874   2.111   1.825   6.476
 4325SOL    HW213875   2.219   1.797   6.356
 4326SOL     OW13876   6.461   2.132   5.580
 4326SOL    HW113877   6.428   2.134   5.485
 4326SOL    HW213878   6.453   2.038   5.615
 4327SOL     OW13879   5.774   6.773   2.514
 4327SOL    HW113880   5.697   6.812   2.564
 4327SOL    HW213881   5.850   6.758   2.577
 4328SOL     OW13882   5.279   5.086   0.401
 4328SOL    HW113883   5.314   5.176   0.378
 4328SOL    HW213884   5.180   5.091   0.418
 4329SOL     OW13885   3.330   1.486   5.918
 4329SOL    HW113886   3.278   1.570   5.938
 4329SOL    HW213887   3.419   1.511   5.880
 4330SOL     OW13888   1.265   0.666   6.464
 4330SOL    HW113889   1.202   0.605   6.513
 4330SOL    HW213890   1.303   0.733   6.529
 4331SOL     OW13891   6.097   2.578   0.147
 4331SOL    HW113892   6.131   2.671   0.133
 4331SOL    HW213893   6.033   2.577   0.224
 4332SOL     OW13894   5.409   3.407   1.281
 4332SOL    HW113895   5.407   3.480   1.213
 4332SOL    HW213896   5.493   3.415   1.336
 4333SOL     OW13897   5.523   1.025   5.299
 4333SOL    HW113898   5.577   1.068   5.226
 4333SOL    HW213899   5.515   1.088   5.376
 4334SOL     OW13900   4.494   1.017   2.085
 4334SOL    HW113901   4.566   0.954   2.056
 4334SOL    HW213902   4.508   1.106   2.041
 4335SOL     OW13903   3.412   4.214   5.143
 4335SOL    HW113904   3.444   4.301   5.181
 4335SOL    HW213905   3.467   4.139   5.179
 4336SOL     OW13906   1.371   6.227   4.177
 4336SOL    HW113907   1.380   6.147   4.119
 4336SOL    HW213908   1.410   6.307   4.131
 4337SOL     OW13909   0.042   5.073   0.886
 4337SOL    HW113910   6.989   5.017   0.915
 4337SOL    HW213911   0.091   5.027   0.813
 4338SOL     OW13912   6.375   6.582   4.027
 4338SOL    HW113913   6.460   6.544   4.063
 4338SOL    HW213914   6.396   6.650   3.956
 4339SOL     OW13915   6.511   1.544   6.236
 4339SOL    HW113916   6.464   1.521   6.322
 4339SOL    HW213917   6.604   1.508   6.239
 4340SOL     OW13918   4.712   3.348   1.635
 4340SOL    HW113919   4.754   3.259   1.620
 4340SOL    HW213920   4.741   3.412   1.563
 4341SOL     OW13921   0.478   4.562   0.917
 4341SOL    HW113922   0.478   4.472   0.873
 4341SOL    HW213923   0.482   4.633   0.847
 4342SOL     OW13924   0.111   3.005   2.876
 4342SOL    HW113925   0.065   3.050   2.952
 4342SOL    HW213926   0.134   2.911   2.902
 4343SOL     OW13927   2.295   1.745   1.274
 4343SOL    HW113928   2.369   1.710   1.331
 4343SOL    HW213929   2.270   1.676   1.206
 4344SOL     OW13930   2.054   4.780   3.123
 4344SOL    HW113931   2.112   4.740   3.052
 4344SOL    HW213932   1.979   4.830   3.080
 4345SOL     OW13933   2.032   1.922   5.764
 4345SOL    HW113934   1.983   1.865   5.698
 4345SOL    HW213935   1.985   2.009   5.774
 4346SOL     OW13936   1.478   3.015   1.732
 4346SOL    HW113937   1.440   3.007   1.824
 4346SOL    HW213938   1.577   3.007   1.736
 4347SOL     OW13939   6.251   6.236   2.590
 4347SOL    HW113940   6.211   6.298   2.523
 4347SOL    HW213941   6.328   6.187   2.549
 4348SOL     OW13942   0.907   3.662   6.860
 4348SOL    HW113943   0.851   3.597   6.912
 4348SOL    HW213944   0.864   3.679   6.771
 4349SOL     OW13945   6.670   0.357   3.805
 4349SOL    HW113946   6.681   0.455   3.787
 4349SOL    HW213947   6.741   0.306   3.758
 4350SOL     OW13948   4.882   1.742   3.740
 4350SOL    HW113949   4.874   1.764   3.643
 4350SOL    HW213950   4.796   1.762   3.786
 4351SOL     OW13951   2.952   6.267   0.709
 4351SOL    HW113952   2.878   6.268   0.777
 4351SOL    HW213953   3.039   6.246   0.754
 4352SOL     OW13954   6.339   1.533   1.943
 4352SOL    HW113955   6.284   1.472   1.887
 4352SOL    HW213956   6.338   1.625   1.903
 4353SOL     OW13957   4.129   5.759   0.146
 4353SOL    HW113958   4.069   5.797   0.075
 4353SOL    HW213959   4.173   5.833   0.196
 4354SOL     OW13960   1.673   0.615   1.168
 4354SOL    HW113961   1.640   0.668   1.089
 4354SOL    HW213962   1.688   0.520   1.140
 4355SOL     OW13963   5.747   0.900   1.085
 4355SOL    HW113964   5.751   0.935   0.991
 4355SOL    HW213965   5.654   0.871   1.106
 4356SOL     OW13966   3.647   4.375   0.349
 4356SOL    HW113967   3.664   4.303   0.417
 4356SOL    HW213968   3.621   4.460   0.396
 4357SOL     OW13969   6.312   0.866   6.829
 4357SOL    HW113970   6.376   0.850   6.753
 4357SOL    HW213971   6.232   0.915   6.795
 4358SOL     OW13972   0.766   0.521   2.057
 4358SOL    HW113973   0.758   0.617   2.031
 4358SOL    HW213974   0.745   0.463   1.978
 4359SOL     OW13975   6.308   2.228   3.768
 4359SOL    HW113976   6.225   2.181   3.801
 4359SOL    HW213977   6.386   2.166   3.774
 4360SOL     OW13978   1.661   3.132   1.368
 4360SOL    HW113979   1.724   3.091   1.302
 4360SOL    HW213980   1.580   3.074   1.377
 4361SOL     OW13981   4.812   1.838   2.014
 4361SOL    HW113982   4.736   1.848   2.079
 4361SOL    HW213983   4.874   1.767   2.046
 4362SOL     OW13984   5.724   4.590   4.126
 4362SOL    HW113985   5.736   4.683   4.089
 4362SOL    HW213986   5.814   4.546   4.132
 4363SOL     OW13987   4.892   1.775   5.922
 4363SOL    HW113988   4.947   1.820   5.851
 4363SOL    HW213989   4.907   1.676   5.918
 4364SOL     OW13990   3.687   3.907   5.008
 4364SOL    HW113991   3.599   3.932   4.968
 4364SOL    HW213992   3.748   3.986   5.006
 4365SOL     OW13993   3.245   1.157   1.394
 4365SOL    HW113994   3.145   1.156   1.396
 4365SOL    HW213995   3.277   1.093   1.325
 4366SOL     OW13996   5.402   4.758   1.253
 4366SOL    HW113997   5.497   4.779   1.230
 4366SOL    HW213998   5.376   4.808   1.336
 4367SOL     OW13999   0.831   6.066   6.801
 4367SOL    HW114000   0.837   5.966   6.804
 4367SOL    HW214001   0.849   6.098   6.708
 4368SOL     OW14002   5.225   3.763   2.003
 4368SOL    HW114003   5.182   3.852   2.019
 4368SOL    HW214004   5.230   3.713   2.088
 4369SOL     OW14005   3.449   5.625   1.476
 4369SOL    HW114006   3.478   5.579   1.560
 4369SOL    HW214007   3.530   5.661   1.429
 4370SOL     OW14008   5.637   5.467   2.876
 4370SOL    HW114009   5.568   5.448   2.807
 4370SOL    HW214010   5.692   5.546   2.849
 4371SOL     OW14011   6.274   1.716   2.656
 4371SOL    HW114012   6.324   1.679   2.735
 4371SOL    HW214013   6.339   1.755   2.591
 4372SOL     OW14014   4.657   6.672   3.428
 4372SOL    HW114015   4.558   6.678   3.417
 4372SOL    HW214016   4.678   6.621   3.512
 4373SOL     OW14017   0.218   1.841   6.428
 4373SOL    HW114018   0.133   1.789   6.424
 4373SOL    HW214019   0.197   1.938   6.443
 4374SOL     OW14020   2.820   2.409   1.098
 4374SOL    HW114021   2.785   2.477   1.034
 4374SOL    HW214022   2.890   2.353   1.053
 4375SOL     OW14023   2.912   6.741   4.109
 4375SOL    HW114024   2.901   6.828   4.061
 4375SOL    HW214025   2.858   6.742   4.193
 4376SOL     OW14026   5.926   1.560   3.462
 4376SOL    HW114027   5.861   1.626   3.425
 4376SOL    HW214028   6.002   1.550   3.398
 4377SOL     OW14029   5.635   5.010   6.321
 4377SOL    HW114030   5.668   4.919   6.348
 4377SOL    HW214031   5.662   5.029   6.227
 4378SOL     OW14032   2.044   1.193   3.743
 4378SOL    HW114033   2.093   1.202   3.830
 4378SOL    HW214034   2.069   1.106   3.700
 4379SOL     OW14035   2.898   1.823   5.240
 4379SOL    HW114036   2.865   1.739   5.281
 4379SOL    HW214037   2.961   1.869   5.303
 4380SOL     OW14038   0.350   1.195   2.260
 4380SOL    HW114039   0.358   1.262   2.186
 4380SOL    HW214040   0.273   1.220   2.319
 4381SOL     OW14041   1.426   5.768   6.381
 4381SOL    HW114042   1.525   5.763   6.396
 4381SOL    HW214043   1.397   5.863   6.381
 4382SOL     OW14044   6.838   3.670   4.945
 4382SOL    HW114045   6.842   3.622   4.857
 4382SOL    HW214046   6.782   3.618   5.009
 4383SOL     OW14047   6.281   3.306   6.939
 4383SOL    HW114048   6.299   3.367   7.016
 4383SOL    HW214049   6.232   3.356   6.867
 4384SOL     OW14050   5.832   6.676   3.830
 4384SOL    HW114051   5.886   6.611   3.776
 4384SOL    HW214052   5.891   6.718   3.900
 4385SOL     OW14053   4.481   1.272   5.268
 4385SOL    HW114054   4.538   1.289   5.187
 4385SOL    HW214055   4.533   1.295   5.351
 4386SOL     OW14056   1.247   3.637   4.692
 4386SOL    HW114057   1.334   3.685   4.705
 4386SOL    HW214058   1.229   3.580   4.771
 4387SOL     OW14059   6.760   2.058   0.693
 4387SOL    HW114060   6.816   2.136   0.721
 4387SOL    HW214061   6.681   2.091   0.641
 4388SOL     OW14062   5.314   2.879   6.922
 4388SOL    HW114063   5.335   2.796   6.870
 4388SOL    HW214064   5.276   2.854   7.011
 4389SOL     OW14065   0.711   3.553   1.241
 4389SOL    HW114066   0.769   3.472   1.248
 4389SOL    HW214067   0.620   3.532   1.276
 4390SOL     OW14068   6.761   1.589   0.942
 4390SOL    HW114069   6.851   1.571   0.980
 4390SOL    HW214070   6.736   1.685   0.960
 4391SOL     OW14071   1.890   6.133   0.801
 4391SOL    HW114072   1.883   6.199   0.876
 4391SOL    HW214073   1.911   6.043   0.838
 4392SOL     OW14074   1.623   2.613   5.223
 4392SOL    HW114075   1.576   2.685   5.172
 4392SOL    HW214076   1.559   2.540   5.245
 4393SOL     OW14077   4.725   0.542   2.138
 4393SOL    HW114078   4.804   0.567   2.195
 4393SOL    HW214079   4.749   0.552   2.041
 4394SOL     OW14080   1.221   0.474   2.353
 4394SOL    HW114081   1.320   0.473   2.340
 4394SOL    HW214082   1.176   0.451   2.266
 4395SOL     OW14083   2.988   5.012   1.754
 4395SOL    HW114084   2.941   4.961   1.825
 4395SOL    HW214085   2.921   5.046   1.688
 4396SOL     OW14086   3.080   0.860   3.270
 4396SOL    HW114087   3.122   0.809   3.195
 4396SOL    HW214088   2.997   0.906   3.237
 4397SOL     OW14089   3.525   1.478   4.476
 4397SOL    HW114090   3.532   1.545   4.402
 4397SOL    HW214091   3.585   1.400   4.455
 4398SOL     OW14092   1.741   2.603   4.769
 4398SOL    HW114093   1.724   2.549   4.687
 4398SOL    HW214094   1.820   2.662   4.755
 4399SOL     OW14095   3.136   6.784   1.863
 4399SOL    HW114096   3.153   6.728   1.781
 4399SOL    HW214097   3.182   6.743   1.941
 4400SOL     OW14098   2.120   5.577   4.711
 4400SOL    HW114099   2.035   5.620   4.740
 4400SOL    HW214100   2.188   5.584   4.784
 4401SOL     OW14101   3.328   6.673   6.687
 4401SOL    HW114102   3.264   6.597   6.682
 4401SOL    HW214103   3.396   6.665   6.615
 4402SOL     OW14104   1.441   0.990   3.773
 4402SOL    HW114105   1.480   0.951   3.857
 4402SOL    HW214106   1.510   1.047   3.728
 4403SOL     OW14107   1.308   4.883   2.114
 4403SOL    HW114108   1.301   4.883   2.014
 4403SOL    HW214109   1.308   4.788   2.147
 4404SOL     OW14110   0.515   7.003   6.005
 4404SOL    HW114111   0.424   6.970   5.981
 4404SOL    HW214112   0.577   6.926   6.013
 4405SOL     OW14113   1.757   5.547   2.878
 4405SOL    HW114114   1.710   5.548   2.966
 4405SOL    HW214115   1.833   5.612   2.880
 4406SOL     OW14116   6.438   3.642   2.212
 4406SOL    HW114117   6.460   3.662   2.307
 4406SOL    HW214118   6.400   3.723   2.168
 4407SOL     OW14119   5.607   6.320   2.018
 4407SOL    HW114120   5.550   6.257   2.071
 4407SOL    HW214121   5.607   6.410   2.063
 4408SOL     OW14122   4.515   0.878   0.338
 4408SOL    HW114123   4.502   0.973   0.308
 4408SOL    HW214124   4.575   0.831   0.273
 4409SOL     OW14125   2.744   0.330   3.209
 4409SOL    HW114126   2.736   0.268   3.288
 4409SOL    HW214127   2.836   0.369   3.206
 4410SOL     OW14128   0.841   6.795   0.897
 4410SOL    HW114129   0.911   6.803   0.968
 4410SOL    HW214130   0.761   6.748   0.935
 4411SOL     OW14131   3.566   4.432   5.256
 4411SOL    HW114132   3.649   4.390   5.220
 4411SOL    HW214133   3.585   4.471   5.346
 4412SOL     OW14134   4.465   6.245   2.814
 4412SOL    HW114135   4.407   6.247   2.732
 4412SOL    HW214136   4.485   6.150   2.838
 4413SOL     OW14137   4.663   6.832   4.032
 4413SOL    HW114138   4.673   6.745   4.079
 4413SOL    HW214139   4.732   6.838   3.959
 4414SOL     OW14140   4.859   4.185   1.509
 4414SOL    HW114141   4.890   4.146   1.596
 4414SOL    HW214142   4.803   4.266   1.526
 4415SOL     OW14143   2.346   2.912   1.684
 4415SOL    HW114144   2.292   2.957   1.756
 4415SOL    HW214145   2.289   2.902   1.602
 4416SOL     OW14146   4.515   2.542   3.632
 4416SOL    HW114147   4.500   2.585   3.721
 4416SOL    HW214148   4.468   2.454   3.629
 4417SOL     OW14149   6.814   3.816   2.480
 4417SOL    HW114150   6.870   3.759   2.420
 4417SOL    HW214151   6.786   3.763   2.560
 4418SOL     OW14152   6.471   6.530   5.887
 4418SOL    HW114153   6.393   6.472   5.908
 4418SOL    HW214154   6.439   6.614   5.844
 4419SOL     OW14155   6.016   5.174   6.566
 4419SOL    HW114156   5.972   5.093   6.527
 4419SOL    HW214157   6.024   5.163   6.665
 4420SOL     OW14158   2.977   2.260   0.920
 4420SOL    HW114159   2.986   2.203   0.838
 4420SOL    HW214160   3.038   2.225   0.991
 4421SOL     OW14161   1.746   2.384   6.465
 4421SOL    HW114162   1.665   2.353   6.416
 4421SOL    HW214163   1.728   2.379   6.564
 4422SOL     OW14164   6.107   3.656   5.965
 4422SOL    HW114165   6.056   3.601   5.899
 4422SOL    HW214166   6.050   3.671   6.046
 4423SOL     OW14167   5.634   4.146   4.835
 4423SOL    HW114168   5.618   4.217   4.766
 4423SOL    HW214169   5.725   4.108   4.823
 4424SOL     OW14170   4.415   5.975   2.901
 4424SOL    HW114171   4.396   5.965   2.999
 4424SOL    HW214172   4.490   5.915   2.875
 4425SOL     OW14173   1.625   5.229   1.453
 4425SOL    HW114174   1.531   5.227   1.489
 4425SOL    HW214175   1.622   5.237   1.354
 4426SOL     OW14176   0.566   0.538   4.928
 4426SOL    HW114177   0.551   0.476   5.005
 4426SOL    HW214178   0.608   0.622   4.962
 4427SOL     OW14179   2.550   6.123   2.850
 4427SOL    HW114180   2.611   6.093   2.776
 4427SOL    HW214181   2.502   6.206   2.822
 4428SOL     OW14182   5.286   6.312   3.672
 4428SOL    HW114183   5.234   6.233   3.706
 4428SOL    HW214184   5.222   6.381   3.637
 4429SOL     OW14185   3.010   5.907   2.794
 4429SOL    HW114186   2.978   5.977   2.858
 4429SOL    HW214187   2.941   5.895   2.722
 4430SOL     OW14188   5.025   4.101   5.607
 4430SOL    HW114189   5.025   4.093   5.507
 4430SOL    HW214190   4.975   4.183   5.634
 4431SOL     OW14191   3.145   6.356   3.804
 4431SOL    HW114192   3.220   6.292   3.786
 4431SOL    HW214193   3.170   6.447   3.772
 4432SOL     OW14194   0.794   3.614   5.744
 4432SOL    HW114195   0.737   3.629   5.825
 4432SOL    HW214196   0.819   3.702   5.704
 4433SOL     OW14197   0.932   0.788   5.628
 4433SOL    HW114198   1.006   0.764   5.566
 4433SOL    HW214199   0.967   0.791   5.722
 4434SOL     OW14200   0.646   0.857   3.070
 4434SOL    HW114201   0.707   0.920   3.118
 4434SOL    HW214202   0.673   0.851   2.974
 4435SOL     OW14203   2.397   4.291   0.062
 4435SOL    HW114204   2.496   4.301   0.063
 4435SOL    HW214205   2.372   4.195   0.076
 4436SOL     OW14206   4.105   1.620   1.689
 4436SOL    HW114207   4.068   1.621   1.782
 4436SOL    HW214208   4.177   1.552   1.682
 4437SOL     OW14209   6.771   4.084   0.349
 4437SOL    HW114210   6.750   3.988   0.327
 4437SOL    HW214211   6.794   4.092   0.446
 4438SOL     OW14212   4.094   0.428   5.446
 4438SOL    HW114213   4.087   0.414   5.545
 4438SOL    HW214214   4.186   0.462   5.423
 4439SOL     OW14215   2.677   6.833   3.048
 4439SOL    HW114216   2.646   6.824   3.143
 4439SOL    HW214217   2.741   6.759   3.027
 4440SOL     OW14218   1.472   4.872   6.833
 4440SOL    HW114219   1.455   4.948   6.897
 4440SOL    HW214220   1.387   4.822   6.817
 4441SOL     OW14221   6.937   1.760   0.681
 4441SOL    HW114222   7.000   1.780   0.756
 4441SOL    HW214223   6.843   1.769   0.714
 4442SOL     OW14224   1.856   4.792   6.595
 4442SOL    HW114225   1.937   4.836   6.557
 4442SOL    HW214226   1.866   4.785   6.695
 4443SOL     OW14227   0.921   5.385   6.226
 4443SOL    HW114228   0.839   5.365   6.173
 4443SOL    HW214229   1.000   5.340   6.184
 4444SOL     OW14230   5.713   4.929   6.724
 4444SOL    HW114231   5.663   5.010   6.755
 4444SOL    HW214232   5.692   4.852   6.784
 4445SOL     OW14233   0.407   5.018   0.504
 4445SOL    HW114234   0.450   5.065   0.581
 4445SOL    HW214235   0.464   5.029   0.422
 4446SOL     OW14236   4.878   1.694   1.223
 4446SOL    HW114237   4.847   1.714   1.130
 4446SOL    HW214238   4.968   1.735   1.237
 4447SOL     OW14239   4.968   5.712   5.765
 4447SOL    HW114240   4.885   5.694   5.818
 4447SOL    HW214241   4.954   5.682   5.671
 4448SOL     OW14242   3.854   6.152   1.221
 4448SOL    HW114243   3.805   6.239   1.211
 4448SOL    HW214244   3.789   6.076   1.222
 4449SOL     OW14245   3.137   1.294   5.252
 4449SOL    HW114246   3.119   1.199   5.229
 4449SOL    HW214247   3.128   1.351   5.170
 4450SOL     OW14248   3.187   6.932   6.693
 4450SOL    HW114249   3.095   6.897   6.714
 4450SOL    HW214250   3.233   6.868   6.632
 4451SOL     OW14251   4.800   4.821   3.244
 4451SOL    HW114252   4.881   4.854   3.195
 4451SOL    HW214253   4.809   4.723   3.262
 4452SOL     OW14254   4.538   6.598   4.545
 4452SOL    HW114255   4.493   6.509   4.547
 4452SOL    HW214256   4.565   6.624   4.638
 4453SOL     OW14257   6.404   4.261   0.314
 4453SOL    HW114258   6.306   4.275   0.333
 4453SOL    HW214259   6.450   4.231   0.397
 4454SOL     OW14260   1.511   3.100   0.407
 4454SOL    HW114261   1.463   3.032   0.462
 4454SOL    HW214262   1.468   3.190   0.420
 4455SOL     OW14263   0.839   6.636   5.613
 4455SOL    HW114264   0.809   6.655   5.519
 4455SOL    HW214265   0.820   6.541   5.635
 4456SOL     OW14266   2.570   6.899   4.487
 4456SOL    HW114267   2.584   6.960   4.564
 4456SOL    HW214268   2.611   6.939   4.405
 4457SOL     OW14269   1.847   2.071   4.580
 4457SOL    HW114270   1.868   1.976   4.557
 4457SOL    HW214271   1.829   2.079   4.678
 4458SOL     OW14272   1.518   3.569   6.679
 4458SOL    HW114273   1.450   3.629   6.635
 4458SOL    HW214274   1.582   3.625   6.731
 4459SOL     OW14275   0.660   2.783   3.018
 4459SOL    HW114276   0.626   2.792   3.112
 4459SOL    HW214277   0.601   2.722   2.967
 4460SOL     OW14278   6.791   2.397   4.399
 4460SOL    HW114279   6.703   2.422   4.441
 4460SOL    HW214280   6.854   2.365   4.470
 4461SOL     OW14281   2.121   1.179   1.017
 4461SOL    HW114282   2.203   1.129   0.988
 4461SOL    HW214283   2.041   1.142   0.971
 4462SOL     OW14284   6.655   4.034   3.128
 4462SOL    HW114285   6.646   4.058   3.224
 4462SOL    HW214286   6.666   3.935   3.119
 4463SOL     OW14287   5.704   1.970   0.505
 4463SOL    HW114288   5.618   2.021   0.510
 4463SOL    HW214289   5.691   1.890   0.446
 4464SOL     OW14290   0.209   4.978   1.259
 4464SOL    HW114291   0.164   4.958   1.346
 4464SOL    HW214292   0.240   4.893   1.217
 4465SOL     OW14293   3.652   5.652   1.253
 4465SOL    HW114294   3.590   5.603   1.191
 4465SOL    HW214295   3.741   5.606   1.255
 4466SOL     OW14296   1.882   2.320   2.518
 4466SOL    HW114297   1.796   2.305   2.469
 4466SOL    HW214298   1.897   2.418   2.531
 4467SOL     OW14299   5.011   6.086   2.941
 4467SOL    HW114300   4.919   6.112   2.911
 4467SOL    HW214301   5.078   6.120   2.875
 4468SOL     OW14302   1.749   3.005   1.766
 4468SOL    HW114303   1.838   3.046   1.745
 4468SOL    HW214304   1.762   2.923   1.820
 4469SOL     OW14305   2.756   6.250   0.926
 4469SOL    HW114306   2.769   6.255   1.025
 4469SOL    HW214307   2.679   6.190   0.906
 4470SOL     OW14308   2.146   6.988   2.862
 4470SOL    HW114309   2.051   6.971   2.887
 4470SOL    HW214310   2.149   0.026   2.784
 4471SOL     OW14311   1.115   0.521   6.735
 4471SOL    HW114312   1.167   0.498   6.817
 4471SOL    HW214313   1.067   0.608   6.749
 4472SOL     OW14314   1.930   2.772   1.096
 4472SOL    HW114315   1.990   2.813   1.027
 4472SOL    HW214316   1.887   2.690   1.058
 4473SOL     OW14317   0.251   2.202   4.392
 4473SOL    HW114318   0.176   2.163   4.339
 4473SOL    HW214319   0.336   2.153   4.371
 4474SOL     OW14320   3.101   5.950   0.993
 4474SOL    HW114321   3.176   5.905   0.946
 4474SOL    HW214322   3.014   5.908   0.967
 4475SOL     OW14323   0.996   3.998   1.210
 4475SOL    HW114324   0.943   4.078   1.183
 4475SOL    HW214325   1.054   3.969   1.133
 4476SOL     OW14326   5.479   0.812   3.843
 4476SOL    HW114327   5.444   0.842   3.755
 4476SOL    HW214328   5.458   0.880   3.913
 4477SOL     OW14329   1.213   1.139   4.999
 4477SOL    HW114330   1.264   1.201   4.939
 4477SOL    HW214331   1.144   1.190   5.050
 4478SOL     OW14332   2.079   0.362   1.110
 4478SOL    HW114333   2.026   0.287   1.072
 4478SOL    HW214334   2.029   0.448   1.099
 4479SOL     OW14335   1.611   2.300   6.970
 4479SOL    HW114336   1.710   2.300   6.956
 4479SOL    HW214337   1.589   2.260   0.034
 4480SOL     OW14338   1.194   6.601   3.895
 4480SOL    HW114339   1.188   6.670   3.822
 4480SOL    HW214340   1.208   6.511   3.854
 4481SOL     OW14341   2.240   3.829   5.689
 4481SOL    HW114342   2.272   3.910   5.640
 4481SOL    HW214343   2.247   3.749   5.630
 4482SOL     OW14344   2.497   6.596   1.261
 4482SOL    HW114345   2.531   6.633   1.348
 4482SOL    HW214346   2.544   6.511   1.241
 4483SOL     OW14347   1.282   3.483   0.568
 4483SOL    HW114348   1.271   3.551   0.639
 4483SOL    HW214349   1.311   3.396   0.609
 4484SOL     OW14350   2.361   0.989   6.912
 4484SOL    HW114351   2.407   1.006   6.999
 4484SOL    HW214352   2.391   0.901   6.875
 4485SOL     OW14353   6.767   2.574   5.131
 4485SOL    HW114354   6.708   2.516   5.188
 4485SOL    HW214355   6.795   2.655   5.183
 4486SOL     OW14356   4.773   5.081   4.758
 4486SOL    HW114357   4.865   5.104   4.790
 4486SOL    HW214358   4.707   5.147   4.796
 4487SOL     OW14359   0.605   2.805   6.728
 4487SOL    HW114360   0.609   2.714   6.769
 4487SOL    HW214361   0.629   2.798   6.631
 4488SOL     OW14362   0.242   4.321   3.659
 4488SOL    HW114363   0.339   4.295   3.653
 4488SOL    HW214364   0.233   4.419   3.642
 4489SOL     OW14365   3.975   5.887   6.195
 4489SOL    HW114366   4.030   5.888   6.112
 4489SOL    HW214367   3.982   5.797   6.239
 4490SOL     OW14368   5.096   1.525   1.727
 4490SOL    HW114369   5.121   1.556   1.636
 4490SOL    HW214370   4.997   1.515   1.734
 4491SOL     OW14371   1.160   3.061   3.141
 4491SOL    HW114372   1.181   3.091   3.234
 4491SOL    HW214373   1.113   3.136   3.093
 4492SOL     OW14374   6.708   0.523   2.335
 4492SOL    HW114375   6.734   0.612   2.372
 4492SOL    HW214376   6.777   0.455   2.358
 4493SOL     OW14377   5.526   1.565   5.256
 4493SOL    HW114378   5.606   1.615   5.223
 4493SOL    HW214379   5.550   1.516   5.340
 4494SOL     OW14380   1.241   0.793   1.641
 4494SOL    HW114381   1.312   0.723   1.629
 4494SOL    HW214382   1.270   0.859   1.711
 4495SOL     OW14383   4.309   6.559   0.748
 4495SOL    HW114384   4.276   6.501   0.673
 4495SOL    HW214385   4.289   6.514   0.835
 4496SOL     OW14386   3.387   6.278   6.364
 4496SOL    HW114387   3.407   6.278   6.266
 4496SOL    HW214388   3.419   6.193   6.405
 4497SOL     OW14389   4.052   0.906   5.616
 4497SOL    HW114390   3.971   0.868   5.570
 4497SOL    HW214391   4.102   0.832   5.660
 4498SOL     OW14392   0.169   5.241   4.975
 4498SOL    HW114393   0.098   5.299   4.937
 4498SOL    HW214394   0.176   5.157   4.920
 4499SOL     OW14395   5.689   1.796   2.086
 4499SOL    HW114396   5.685   1.830   1.992
 4499SOL    HW214397   5.636   1.857   2.146
 4500SOL     OW14398   3.980   5.540   6.876
 4500SOL    HW114399   4.012   5.456   6.920
 4500SOL    HW214400   4.026   5.551   6.788
 4501SOL     OW14401   5.962   0.122   2.800
 4501SOL    HW114402   5.938   0.212   2.836
 4501SOL    HW214403   6.013   0.071   2.870
 4502SOL     OW14404   6.971   3.435   6.727
 4502SOL    HW114405   6.966   3.448   6.826
 4502SOL    HW214406   0.043   3.424   6.700
 4503SOL     OW14407   3.033   1.248   2.921
 4503SOL    HW114408   3.014   1.308   2.843
 4503SOL    HW214409   3.132   1.247   2.938
 4504SOL     OW14410   0.055   1.584   2.779
 4504SOL    HW114411   0.081   1.495   2.815
 4504SOL    HW214412   7.022   1.631   2.847
 4505SOL     OW14413   5.586   4.533   3.877
 4505SOL    HW114414   5.591   4.545   3.976
 4505SOL    HW214415   5.499   4.567   3.843
 4506SOL     OW14416   5.591   2.875   5.644
 4506SOL    HW114417   5.514   2.938   5.637
 4506SOL    HW214418   5.657   2.894   5.571
 4507SOL     OW14419   6.286   2.148   3.157
 4507SOL    HW114420   6.343   2.191   3.228
 4507SOL    HW214421   6.333   2.155   3.069
 4508SOL     OW14422   0.154   5.006   0.651
 4508SOL    HW114423   0.115   4.952   0.576
 4508SOL    HW214424   0.251   5.021   0.633
 4509SOL     OW14425   4.847   2.618   1.839
 4509SOL    HW114426   4.753   2.608   1.871
 4509SOL    HW214427   4.868   2.716   1.827
 4510SOL     OW14428   3.968   1.226   3.966
 4510SOL    HW114429   3.916   1.148   4.000
 4510SOL    HW214430   3.976   1.295   4.038
 4511SOL     OW14431   0.249   4.394   0.047
 4511SOL    HW114432   0.338   4.370   0.007
 4511SOL    HW214433   0.224   4.326   0.116
 4512SOL     OW14434   3.256   3.528   5.059
 4512SOL    HW114435   3.186   3.469   5.101
 4512SOL    HW214436   3.280   3.492   4.969
 4513SOL     OW14437   0.758   6.948   1.184
 4513SOL    HW114438   0.668   6.906   1.172
 4513SOL    HW214439   0.753   0.021   1.164
 4514SOL     OW14440   3.864   4.813   6.310
 4514SOL    HW114441   3.963   4.806   6.316
 4514SOL    HW214442   3.823   4.783   6.397
 4515SOL     OW14443   4.299   0.801   5.900
 4515SOL    HW114444   4.273   0.817   5.995
 4515SOL    HW214445   4.384   0.849   5.879
 4516SOL     OW14446   2.806   2.376   5.582
 4516SOL    HW114447   2.870   2.302   5.562
 4516SOL    HW214448   2.712   2.342   5.576
 4517SOL     OW14449   4.158   0.893   5.291
 4517SOL    HW114450   4.129   0.830   5.219
 4517SOL    HW214451   4.096   0.885   5.368
 4518SOL     OW14452   0.745   6.204   1.196
 4518SOL    HW114453   0.804   6.283   1.180
 4518SOL    HW214454   0.775   6.156   1.279
 4519SOL     OW14455   4.693   6.965   0.224
 4519SOL    HW114456   4.682   6.975   0.323
 4519SOL    HW214457   4.749   6.884   0.205
 4520SOL     OW14458   4.482   5.829   5.726
 4520SOL    HW114459   4.450   5.896   5.659
 4520SOL    HW214460   4.542   5.763   5.680
 4521SOL     OW14461   4.403   2.349   4.095
 4521SOL    HW114462   4.456   2.265   4.104
 4521SOL    HW214463   4.422   2.409   4.172
 4522SOL     OW14464   5.525   4.203   3.637
 4522SOL    HW114465   5.582   4.179   3.558
 4522SOL    HW214466   5.561   4.287   3.678
 4523SOL     OW14467   0.461   3.235   5.848
 4523SOL    HW114468   0.535   3.278   5.796
 4523SOL    HW214469   0.373   3.262   5.810
 4524SOL     OW14470   1.572   3.214   2.256
 4524SOL    HW114471   1.474   3.201   2.243
 4524SOL    HW214472   1.589   3.304   2.297
 4525SOL     OW14473   3.626   2.386   5.587
 4525SOL    HW114474   3.577   2.337   5.514
 4525SOL    HW214475   3.592   2.355   5.676
 4526SOL     OW14476   1.120   6.886   5.816
 4526SOL    HW114477   1.197   6.924   5.764
 4526SOL    HW214478   1.122   6.922   5.910
 4527SOL     OW14479   0.301   1.325   2.643
 4527SOL    HW114480   0.329   1.235   2.611
 4527SOL    HW214481   0.314   1.392   2.571
 4528SOL     OW14482   5.254   0.655   4.957
 4528SOL    HW114483   5.263   0.570   5.009
 4528SOL    HW214484   5.192   0.640   4.880
 4529SOL     OW14485   2.127   1.056   4.166
 4529SOL    HW114486   2.040   1.009   4.146
 4529SOL    HW214487   2.156   1.108   4.085
 4530SOL     OW14488   4.318   5.739   6.564
 4530SOL    HW114489   4.248   5.703   6.504
 4530SOL    HW214490   4.304   5.837   6.577
 4531SOL     OW14491   1.373   5.951   5.449
 4531SOL    HW114492   1.302   5.883   5.428
 4531SOL    HW214493   1.445   5.908   5.504
 4532SOL     OW14494   5.393   1.109   2.957
 4532SOL    HW114495   5.358   1.022   2.922
 4532SOL    HW214496   5.372   1.116   3.055
 4533SOL     OW14497   2.560   0.513   0.857
 4533SOL    HW114498   2.518   0.422   0.866
 4533SOL    HW214499   2.600   0.539   0.945
 4534SOL     OW14500   4.622   1.477   4.014
 4534SOL    HW114501   4.647   1.386   3.983
 4534SOL    HW214502   4.623   1.541   3.937
 4535SOL     OW14503   1.946   0.612   1.165
 4535SOL    HW114504   1.849   0.625   1.184
 4535SOL    HW214505   2.000   0.639   1.245
 4536SOL     OW14506   3.342   0.260   5.566
 4536SOL    HW114507   3.431   0.217   5.581
 4536SOL    HW214508   3.314   0.309   5.649
 4537SOL     OW14509   3.000   3.717   3.706
 4537SOL    HW114510   3.049   3.764   3.779
 4537SOL    HW214511   2.950   3.639   3.743
 4538SOL     OW14512   0.349   2.202   0.771
 4538SOL    HW114513   0.283   2.135   0.738
 4538SOL    HW214514   0.417   2.221   0.699
 4539SOL     OW14515   1.551   6.170   5.673
 4539SOL    HW114516   1.511   6.239   5.612
 4539SOL    HW214517   1.599   6.101   5.618
 4540SOL     OW14518   1.091   2.133   0.363
 4540SOL    HW114519   1.170   2.146   0.423
 4540SOL    HW214520   1.077   2.216   0.309
 4541SOL     OW14521   3.948   2.951   6.127
 4541SOL    HW114522   3.858   2.923   6.092
 4541SOL    HW214523   3.940   3.040   6.172
 4542SOL     OW14524   0.555   1.871   6.979
 4542SOL    HW114525   0.588   1.917   0.037
 4542SOL    HW214526   0.481   1.808   7.004
 4543SOL     OW14527   3.812   2.119   0.646
 4543SOL    HW114528   3.788   2.191   0.710
 4543SOL    HW214529   3.884   2.061   0.686
 4544SOL     OW14530   5.502   6.473   0.639
 4544SOL    HW114531   5.472   6.477   0.735
 4544SOL    HW214532   5.463   6.551   0.590
 4545SOL     OW14533   2.019   2.856   4.972
 4545SOL    HW114534   2.047   2.952   4.961
 4545SOL    HW214535   2.085   2.809   5.029
 4546SOL     OW14536   3.381   0.553   5.047
 4546SOL    HW114537   3.324   0.633   5.061
 4546SOL    HW214538   3.326   0.479   5.009
 4547SOL     OW14539   0.064   0.207   0.148
 4547SOL    HW114540   0.035   0.299   0.171
 4547SOL    HW214541   0.094   0.159   0.230
 4548SOL     OW14542   2.803   1.725   2.673
 4548SOL    HW114543   2.779   1.798   2.737
 4548SOL    HW214544   2.902   1.715   2.669
 4549SOL     OW14545   0.429   3.530   4.382
 4549SOL    HW114546   0.525   3.554   4.399
 4549SOL    HW214547   0.385   3.603   4.331
 4550SOL     OW14548   2.326   5.375   4.262
 4550SOL    HW114549   2.316   5.276   4.255
 4550SOL    HW214550   2.320   5.402   4.359
 4551SOL     OW14551   2.401   2.115   5.122
 4551SOL    HW114552   2.365   2.106   5.029
 4551SOL    HW214553   2.482   2.058   5.133
 4552SOL     OW14554   5.345   1.141   1.190
 4552SOL    HW114555   5.402   1.134   1.271
 4552SOL    HW214556   5.267   1.079   1.198
 4553SOL     OW14557   0.272   5.736   0.048
 4553SOL    HW114558   0.258   5.768   6.979
 4553SOL    HW214559   0.288   5.815   0.108
 4554SOL     OW14560   6.315   6.508   2.968
 4554SOL    HW114561   6.246   6.445   2.934
 4554SOL    HW214562   6.389   6.516   2.902
 4555SOL     OW14563   1.106   0.947   0.946
 4555SOL    HW114564   1.020   0.923   0.899
 4555SOL    HW214565   1.149   1.023   0.897
 4556SOL     OW14566   5.829   4.849   4.294
 4556SOL    HW114567   5.838   4.793   4.376
 4556SOL    HW214568   5.731   4.866   4.276
 4557SOL     OW14569   0.318   5.118   4.194
 4557SOL    HW114570   0.221   5.136   4.178
 4557SOL    HW214571   0.360   5.086   4.109
 4558SOL     OW14572   1.555   3.466   4.640
 4558SOL    HW114573   1.505   3.471   4.727
 4558SOL    HW214574   1.649   3.499   4.654
 4559SOL     OW14575   0.174   2.918   4.019
 4559SOL    HW114576   0.227   2.989   3.971
 4559SOL    HW214577   0.231   2.874   4.088
 4560SOL     OW14578   5.444   4.132   3.072
 4560SOL    HW114579   5.539   4.101   3.075
 4560SOL    HW214580   5.385   4.062   3.113
 4561SOL     OW14581   4.428   2.285   3.706
 4561SOL    HW114582   4.375   2.226   3.644
 4561SOL    HW214583   4.504   2.233   3.744
 4562SOL     OW14584   3.745   0.861   0.842
 4562SOL    HW114585   3.796   0.948   0.845
 4562SOL    HW214586   3.773   0.809   0.762
 4563SOL     OW14587   0.513   4.344   2.386
 4563SOL    HW114588   0.551   4.265   2.435
 4563SOL    HW214589   0.477   4.314   2.298
 4564SOL     OW14590   2.120   3.595   2.263
 4564SOL    HW114591   2.066   3.649   2.198
 4564SOL    HW214592   2.185   3.538   2.212
 4565SOL     OW14593   1.909   6.201   6.445
 4565SOL    HW114594   1.947   6.132   6.506
 4565SOL    HW214595   1.823   6.235   6.483
 4566SOL     OW14596   0.123   4.586   3.637
 4566SOL    HW114597   0.028   4.567   3.660
 4566SOL    HW214598   0.135   4.580   3.538
 4567SOL     OW14599   0.369   6.917   6.643
 4567SOL    HW114600   0.434   6.994   6.642
 4567SOL    HW214601   0.331   6.909   6.735
 4568SOL     OW14602   1.518   5.173   3.032
 4568SOL    HW114603   1.451   5.246   3.028
 4568SOL    HW214604   1.471   5.085   3.047
 4569SOL     OW14605   1.962   1.334   3.542
 4569SOL    HW114606   1.969   1.263   3.613
 4569SOL    HW214607   2.047   1.339   3.490
 4570SOL     OW14608   5.187   5.645   1.501
 4570SOL    HW114609   5.169   5.547   1.514
 4570SOL    HW214610   5.161   5.672   1.409
 4571SOL     OW14611   2.602   2.883   6.260
 4571SOL    HW114612   2.642   2.962   6.304
 4571SOL    HW214613   2.506   2.874   6.288
 4572SOL     OW14614   3.282   3.001   2.360
 4572SOL    HW114615   3.186   2.997   2.335
 4572SOL    HW214616   3.296   3.071   2.430
 4573SOL     OW14617   3.514   5.348   0.883
 4573SOL    HW114618   3.457   5.267   0.864
 4573SOL    HW214619   3.586   5.355   0.814
 4574SOL     OW14620   4.730   0.528   1.827
 4574SOL    HW114621   4.811   0.476   1.798
 4574SOL    HW214622   4.659   0.465   1.857
 4575SOL     OW14623   0.606   0.215   5.909
 4575SOL    HW114624   0.547   0.135   5.923
 4575SOL    HW214625   0.700   0.185   5.893
 4576SOL     OW14626   2.691   4.469   6.215
 4576SOL    HW114627   2.717   4.499   6.306
 4576SOL    HW214628   2.704   4.544   6.150
 4577SOL     OW14629   0.856   1.804   2.542
 4577SOL    HW114630   0.945   1.821   2.584
 4577SOL    HW214631   0.867   1.751   2.458
 4578SOL     OW14632   1.265   1.837   2.209
 4578SOL    HW114633   1.203   1.905   2.169
 4578SOL    HW214634   1.256   1.751   2.160
 4579SOL     OW14635   4.593   0.571   3.425
 4579SOL    HW114636   4.563   0.479   3.452
 4579SOL    HW214637   4.638   0.615   3.503
 4580SOL     OW14638   0.238   1.589   1.085
 4580SOL    HW114639   0.292   1.632   1.014
 4580SOL    HW214640   0.279   1.500   1.108
 4581SOL     OW14641   3.511   1.063   0.972
 4581SOL    HW114642   3.591   1.019   0.930
 4581SOL    HW214643   3.514   1.051   1.071
 4582SOL     OW14644   6.420   1.195   3.962
 4582SOL    HW114645   6.512   1.233   3.951
 4582SOL    HW214646   6.377   1.186   3.872
 4583SOL     OW14647   1.930   0.363   0.703
 4583SOL    HW114648   1.946   0.458   0.678
 4583SOL    HW214649   1.901   0.311   0.622
 4584SOL     OW14650   0.585   1.541   4.537
 4584SOL    HW114651   0.671   1.528   4.486
 4584SOL    HW214652   0.519   1.472   4.509
 4585SOL     OW14653   1.513   2.982   3.258
 4585SOL    HW114654   1.431   2.957   3.310
 4585SOL    HW214655   1.571   2.902   3.246
 4586SOL     OW14656   6.046   5.297   6.342
 4586SOL    HW114657   6.022   5.269   6.435
 4586SOL    HW214658   6.145   5.295   6.331
 4587SOL     OW14659   3.606   3.036   5.069
 4587SOL    HW114660   3.540   3.060   4.997
 4587SOL    HW214661   3.699   3.041   5.031
 4588SOL     OW14662   3.361   4.092   6.292
 4588SOL    HW114663   3.313   4.113   6.207
 4588SOL    HW214664   3.352   3.994   6.312
 4589SOL     OW14665   5.664   6.594   2.088
 4589SOL    HW114666   5.763   6.598   2.097
 4589SOL    HW214667   5.631   6.676   2.041
 4590SOL     OW14668   3.559   5.150   1.287
 4590SOL    HW114669   3.567   5.095   1.204
 4590SOL    HW214670   3.534   5.244   1.262
 4591SOL     OW14671   2.365   0.217   5.217
 4591SOL    HW114672   2.463   0.223   5.197
 4591SOL    HW214673   2.352   0.166   5.302
 4592SOL     OW14674   1.594   1.617   4.051
 4592SOL    HW114675   1.566   1.626   4.146
 4592SOL    HW214676   1.688   1.584   4.046
 4593SOL     OW14677   1.359   5.506   4.300
 4593SOL    HW114678   1.441   5.448   4.298
 4593SOL    HW214679   1.347   5.543   4.392
 4594SOL     OW14680   1.940   0.089   3.111
 4594SOL    HW114681   2.031   0.104   3.149
 4594SOL    HW214682   1.877   0.157   3.147
 4595SOL     OW14683   5.464   1.896   6.528
 4595SOL    HW114684   5.453   1.980   6.476
 4595SOL    HW214685   5.538   1.842   6.489
 4596SOL     OW14686   6.862   0.746   2.220
 4596SOL    HW114687   6.867   0.838   2.258
 4596SOL    HW214688   6.952   0.702   2.225
 4597SOL     OW14689   2.471   5.917   0.361
 4597SOL    HW114690   2.463   5.836   0.302
 4597SOL    HW214691   2.379   5.950   0.384
 4598SOL     OW14692   0.483   4.319   0.773
 4598SOL    HW114693   0.404   4.272   0.733
 4598SOL    HW214694   0.533   4.255   0.831
 4599SOL     OW14695   3.491   6.081   1.837
 4599SOL    HW114696   3.490   6.019   1.758
 4599SOL    HW214697   3.584   6.112   1.854
 4600SOL     OW14698   0.405   6.163   6.337
 4600SOL    HW114699   0.425   6.227   6.263
 4600SOL    HW214700   0.473   6.174   6.410
 4601SOL     OW14701   1.641   0.762   5.298
 4601SOL    HW114702   1.705   0.747   5.222
 4601SOL    HW214703   1.693   0.783   5.381
 4602SOL     OW14704   3.267   1.978   5.606
 4602SOL    HW114705   3.249   2.075   5.624
 4602SOL    HW214706   3.365   1.965   5.589
 4603SOL     OW14707   4.760   0.269   1.212
 4603SOL    HW114708   4.834   0.207   1.188
 4603SOL    HW214709   4.674   0.235   1.175
 4604SOL     OW14710   6.522   6.959   4.849
 4604SOL    HW114711   6.618   6.984   4.834
 4604SOL    HW214712   6.515   6.897   4.927
 4605SOL     OW14713   3.787   0.312   1.701
 4605SOL    HW114714   3.852   0.388   1.709
 4605SOL    HW214715   3.724   0.330   1.625
 4606SOL     OW14716   0.119   6.414   5.386
 4606SOL    HW114717   0.115   6.500   5.335
 4606SOL    HW214718   0.067   6.423   5.472
 4607SOL     OW14719   2.356   1.935   0.743
 4607SOL    HW114720   2.454   1.949   0.731
 4607SOL    HW214721   2.339   1.841   0.774
 4608SOL     OW14722   6.930   2.301   4.611
 4608SOL    HW114723   6.916   2.296   4.710
 4608SOL    HW214724   6.978   2.219   4.580
 4609SOL     OW14725   5.062   5.249   6.686
 4609SOL    HW114726   5.041   5.343   6.661
 4609SOL    HW214727   5.074   5.194   6.603
 4610SOL     OW14728   5.237   4.603   0.108
 4610SOL    HW114729   5.160   4.623   0.168
 4610SOL    HW214730   5.205   4.596   0.014
 4611SOL     OW14731   0.758   0.734   6.536
 4611SOL    HW114732   0.733   0.830   6.546
 4611SOL    HW214733   0.764   0.711   6.438
 4612SOL     OW14734   2.009   2.026   1.683
 4612SOL    HW114735   2.098   1.991   1.654
 4612SOL    HW214736   1.937   1.967   1.647
 4613SOL     OW14737   1.342   4.513   1.647
 4613SOL    HW114738   1.367   4.419   1.626
 4613SOL    HW214739   1.416   4.575   1.619
 4614SOL     OW14740   6.679   4.323   4.114
 4614SOL    HW114741   6.673   4.414   4.073
 4614SOL    HW214742   6.669   4.330   4.214
 4615SOL     OW14743   1.394   3.553   5.855
 4615SOL    HW114744   1.347   3.613   5.790
 4615SOL    HW214745   1.365   3.574   5.948
 4616SOL     OW14746   0.722   2.790   5.130
 4616SOL    HW114747   0.681   2.747   5.211
 4616SOL    HW214748   0.667   2.870   5.105
 4617SOL     OW14749   0.390   2.478   3.644
 4617SOL    HW114750   0.461   2.410   3.625
 4617SOL    HW214751   0.301   2.433   3.649
 4618SOL     OW14752   2.295   4.046   5.982
 4618SOL    HW114753   2.303   4.111   6.058
 4618SOL    HW214754   2.211   4.066   5.930
 4619SOL     OW14755   4.810   6.537   6.439
 4619SOL    HW114756   4.799   6.442   6.467
 4619SOL    HW214757   4.860   6.541   6.353
 4620SOL     OW14758   0.886   5.234   2.523
 4620SOL    HW114759   0.823   5.164   2.490
 4620SOL    HW214760   0.839   5.291   2.591
 4621SOL     OW14761   3.359   6.847   2.799
 4621SOL    HW114762   3.437   6.841   2.738
 4621SOL    HW214763   3.294   6.915   2.765
 4622SOL     OW14764   5.437   6.473   0.918
 4622SOL    HW114765   5.420   6.375   0.919
 4622SOL    HW214766   5.503   6.496   0.989
 4623SOL     OW14767   2.883   4.631   1.393
 4623SOL    HW114768   2.836   4.567   1.453
 4623SOL    HW214769   2.958   4.675   1.443
 4624SOL     OW14770   4.252   1.338   2.017
 4624SOL    HW114771   4.222   1.334   2.112
 4624SOL    HW214772   4.343   1.299   2.009
 4625SOL     OW14773   1.958   6.656   1.524
 4625SOL    HW114774   1.935   6.560   1.508
 4625SOL    HW214775   2.004   6.693   1.443
 4626SOL     OW14776   4.105   3.610   1.744
 4626SOL    HW114777   4.176   3.677   1.723
 4626SOL    HW214778   4.142   3.541   1.806
 4627SOL     OW14779   5.286   0.438   5.143
 4627SOL    HW114780   5.367   0.395   5.102
 4627SOL    HW214781   5.288   0.424   5.242
 4628SOL     OW14782   5.608   4.840   3.695
 4628SOL    HW114783   5.621   4.936   3.671
 4628SOL    HW214784   5.542   4.799   3.631
 4629SOL     OW14785   2.238   5.539   0.251
 4629SOL    HW114786   2.218   5.507   0.158
 4629SOL    HW214787   2.221   5.464   0.316
 4630SOL     OW14788   1.747   3.284   1.708
 4630SOL    HW114789   1.844   3.275   1.731
 4630SOL    HW214790   1.697   3.208   1.749
 4631SOL     OW14791   0.266   0.676   3.017
 4631SOL    HW114792   0.236   0.766   3.051
 4631SOL    HW214793   0.338   0.640   3.076
 4632SOL     OW14794   3.442   5.021   2.960
 4632SOL    HW114795   3.446   4.959   2.882
 4632SOL    HW214796   3.515   5.089   2.952
 4633SOL     OW14797   4.776   1.363   4.808
 4633SOL    HW114798   4.815   1.412   4.731
 4633SOL    HW214799   4.849   1.332   4.868
 4634SOL     OW14800   3.582   4.052   5.286
 4634SOL    HW114801   3.626   4.032   5.373
 4634SOL    HW214802   3.618   3.990   5.216
 4635SOL     OW14803   4.225   6.392   1.758
 4635SOL    HW114804   4.128   6.397   1.734
 4635SOL    HW214805   4.267   6.482   1.749
 4636SOL     OW14806   1.545   5.231   7.002
 4636SOL    HW114807   1.629   5.188   6.969
 4636SOL    HW214808   1.481   5.159   0.006
 4637SOL     OW14809   3.114   1.536   3.604
 4637SOL    HW114810   3.142   1.502   3.514
 4637SOL    HW214811   3.184   1.597   3.640
 4638SOL     OW14812   3.877   5.003   6.698
 4638SOL    HW114813   3.863   5.078   6.633
 4638SOL    HW214814   3.788   4.967   6.727
 4639SOL     OW14815   3.836   2.321   1.626
 4639SOL    HW114816   3.794   2.312   1.716
 4639SOL    HW214817   3.935   2.310   1.635
 4640SOL     OW14818   6.195   3.522   0.055
 4640SOL    HW114819   6.223   3.570   6.997
 4640SOL    HW214820   6.185   3.587   0.130
 4641SOL     OW14821   1.294   5.967   4.319
 4641SOL    HW114822   1.282   6.064   4.340
 4641SOL    HW214823   1.205   5.922   4.321
 4642SOL     OW14824   6.562   0.932   4.690
 4642SOL    HW114825   6.572   0.852   4.749
 4642SOL    HW214826   6.508   0.908   4.610
 4643SOL     OW14827   0.704   2.144   0.099
 4643SOL    HW114828   0.753   2.057   0.094
 4643SOL    HW214829   0.741   2.199   0.173
 4644SOL     OW14830   1.323   0.801   0.832
 4644SOL    HW114831   1.238   0.830   0.877
 4644SOL    HW214832   1.301   0.758   0.745
 4645SOL     OW14833   6.491   1.677   4.531
 4645SOL    HW114834   6.588   1.668   4.507
 4645SOL    HW214835   6.436   1.621   4.469
 4646SOL     OW14836   2.464   4.460   4.302
 4646SOL    HW114837   2.485   4.364   4.319
 4646SOL    HW214838   2.365   4.474   4.308
 4647SOL     OW14839   1.298   6.648   1.439
 4647SOL    HW114840   1.356   6.573   1.407
 4647SOL    HW214841   1.356   6.726   1.466
 4648SOL     OW14842   2.518   1.464   4.292
 4648SOL    HW114843   2.586   1.444   4.362
 4648SOL    HW214844   2.437   1.409   4.307
 4649SOL     OW14845   6.529   1.883   0.249
 4649SOL    HW114846   6.490   1.816   0.312
 4649SOL    HW214847   6.467   1.961   0.240
 4650SOL     OW14848   5.094   6.264   0.858
 4650SOL    HW114849   5.141   6.224   0.937
 4650SOL    HW214850   5.145   6.242   0.774
 4651SOL     OW14851   6.786   3.159   5.880
 4651SOL    HW114852   6.875   3.114   5.888
 4651SOL    HW214853   6.728   3.133   5.957
 4652SOL     OW14854   0.325   6.235   5.381
 4652SOL    HW114855   0.406   6.286   5.351
 4652SOL    HW214856   0.245   6.295   5.378
 4653SOL     OW14857   6.517   5.247   0.427
 4653SOL    HW114858   6.549   5.160   0.464
 4653SOL    HW214859   6.419   5.257   0.443
 4654SOL     OW14860   1.614   0.308   5.963
 4654SOL    HW114861   1.611   0.210   5.984
 4654SOL    HW214862   1.629   0.321   5.865
 4655SOL     OW14863   5.067   2.763   1.569
 4655SOL    HW114864   5.125   2.715   1.635
 4655SOL    HW214865   4.972   2.733   1.579
 4656SOL     OW14866   6.927   1.306   1.552
 4656SOL    HW114867   6.876   1.284   1.469
 4656SOL    HW214868   6.935   1.405   1.561
 4657SOL     OW14869   3.767   1.131   2.613
 4657SOL    HW114870   3.776   1.194   2.690
 4657SOL    HW214871   3.840   1.149   2.547
 4658SOL     OW14872   1.265   2.612   5.803
 4658SOL    HW114873   1.309   2.571   5.883
 4658SOL    HW214874   1.171   2.578   5.795
 4659SOL     OW14875   1.564   4.150   6.948
 4659SOL    HW114876   1.644   4.205   6.973
 4659SOL    HW214877   1.508   4.201   6.883
 4660SOL     OW14878   0.979   6.352   3.260
 4660SOL    HW114879   1.030   6.435   3.237
 4660SOL    HW214880   1.024   6.305   3.336
 4661SOL     OW14881   0.724   1.572   5.985
 4661SOL    HW114882   0.637   1.594   5.941
 4661SOL    HW214883   0.794   1.556   5.914
 4662SOL     OW14884   2.051   0.331   5.312
 4662SOL    HW114885   2.063   0.233   5.294
 4662SOL    HW214886   2.055   0.381   5.226
 4663SOL     OW14887   1.213   6.952   0.515
 4663SOL    HW114888   1.307   6.921   0.528
 4663SOL    HW214889   1.176   6.984   0.602
 4664SOL     OW14890   6.526   0.087   6.798
 4664SOL    HW114891   6.460   0.159   6.777
 4664SOL    HW214892   6.616   0.127   6.811
 4665SOL     OW14893   1.183   0.421   3.970
 4665SOL    HW114894   1.232   0.353   3.915
 4665SOL    HW214895   1.109   0.461   3.916
 4666SOL     OW14896   2.407   1.640   4.681
 4666SOL    HW114897   2.357   1.559   4.650
 4666SOL    HW214898   2.350   1.692   4.745
 4667SOL     OW14899   6.265   4.161   1.389
 4667SOL    HW114900   6.208   4.173   1.471
 4667SOL    HW214901   6.358   4.137   1.417
 4668SOL     OW14902   4.999   1.669   4.389
 4668SOL    HW114903   4.962   1.614   4.314
 4668SOL    HW214904   5.007   1.612   4.471
 4669SOL     OW14905   5.349   0.030   6.262
 4669SOL    HW114906   5.298   0.103   6.307
 4669SOL    HW214907   5.391   0.066   6.178
 4670SOL     OW14908   0.346   2.946   0.309
 4670SOL    HW114909   0.301   2.874   0.257
 4670SOL    HW214910   0.309   3.035   0.282
 4671SOL     OW14911   0.348   3.315   0.867
 4671SOL    HW114912   0.355   3.405   0.910
 4671SOL    HW214913   0.427   3.301   0.806
 4672SOL     OW14914   2.820   4.399   6.456
 4672SOL    HW114915   2.880   4.339   6.403
 4672SOL    HW214916   2.763   4.345   6.517
 4673SOL     OW14917   6.041   1.330   0.412
 4673SOL    HW114918   6.051   1.423   0.448
 4673SOL    HW214919   6.021   1.267   0.487
 4674SOL     OW14920   1.040   2.489   0.844
 4674SOL    HW114921   0.947   2.518   0.866
 4674SOL    HW214922   1.104   2.534   0.906
 4675SOL     OW14923   1.747   5.531   6.824
 4675SOL    HW114924   1.685   5.453   6.813
 4675SOL    HW214925   1.806   5.538   6.744
 4676SOL     OW14926   0.517   6.190   4.099
 4676SOL    HW114927   0.589   6.202   4.031
 4676SOL    HW214928   0.515   6.269   4.161
 4677SOL     OW14929   4.050   0.218   6.928
 4677SOL    HW114930   3.952   0.219   6.906
 4677SOL    HW214931   4.088   0.127   6.908
 4678SOL     OW14932   1.877   4.577   6.417
 4678SOL    HW114933   1.823   4.632   6.481
 4678SOL    HW214934   1.966   4.556   6.459
 4679SOL     OW14935   2.743   6.663   6.047
 4679SOL    HW114936   2.688   6.591   6.004
 4679SOL    HW214937   2.839   6.648   6.026
 4680SOL     OW14938   1.625   4.463   6.831
 4680SOL    HW114939   1.597   4.491   6.739
 4680SOL    HW214940   1.605   4.536   6.896
 4681SOL     OW14941   6.276   5.903   5.283
 4681SOL    HW114942   6.296   5.886   5.186
 4681SOL    HW214943   6.199   5.965   5.291
 4682SOL     OW14944   3.789   6.689   0.572
 4682SOL    HW114945   3.850   6.749   0.623
 4682SOL    HW214946   3.841   6.615   0.530
 4683SOL     OW14947   6.795   4.324   3.455
 4683SOL    HW114948   6.722   4.255   3.449
 4683SOL    HW214949   6.788   4.372   3.543
 4684SOL     OW14950   1.527   1.214   5.297
 4684SOL    HW114951   1.447   1.272   5.304
 4684SOL    HW214952   1.581   1.220   5.381
 4685SOL     OW14953   5.061   4.355   5.101
 4685SOL    HW114954   4.986   4.392   5.156
 4685SOL    HW214955   5.028   4.333   5.010
 4686SOL     OW14956   5.017   5.885   0.719
 4686SOL    HW114957   5.016   5.854   0.623
 4686SOL    HW214958   4.942   5.948   0.735
 4687SOL     OW14959   5.203   6.706   4.571
 4687SOL    HW114960   5.287   6.715   4.517
 4687SOL    HW214961   5.176   6.610   4.574
 4688SOL     OW14962   1.181   2.370   0.202
 4688SOL    HW114963   1.250   2.441   0.189
 4688SOL    HW214964   1.146   2.341   0.113
 4689SOL     OW14965   1.502   5.197   4.726
 4689SOL    HW114966   1.408   5.167   4.739
 4689SOL    HW214967   1.504   5.287   4.683
 4690SOL     OW14968   1.680   2.672   0.532
 4690SOL    HW114969   1.635   2.585   0.555
 4690SOL    HW214970   1.659   2.739   0.603
 4691SOL     OW14971   3.802   4.439   0.104
 4691SOL    HW114972   3.821   4.537   0.107
 4691SOL    HW214973   3.750   4.413   0.185
 4692SOL     OW14974   0.185   5.494   3.078
 4692SOL    HW114975   0.109   5.429   3.071
 4692SOL    HW214976   0.254   5.472   3.010
 4693SOL     OW14977   0.508   0.840   3.880
 4693SOL    HW114978   0.566   0.921   3.891
 4693SOL    HW214979   0.513   0.784   3.962
 4694SOL     OW14980   2.392   0.959   6.299
 4694SOL    HW114981   2.388   1.052   6.336
 4694SOL    HW214982   2.356   0.896   6.367
 4695SOL     OW14983   3.264   2.970   1.550
 4695SOL    HW114984   3.338   2.946   1.613
 4695SOL    HW214985   3.291   2.946   1.457
 4696SOL     OW14986   6.138   3.196   0.467
 4696SOL    HW114987   6.106   3.287   0.491
 4696SOL    HW214988   6.130   3.135   0.546
 4697SOL     OW14989   0.534   5.001   0.254
 4697SOL    HW114990   0.575   5.055   0.180
 4697SOL    HW214991   0.565   4.906   0.247
 4698SOL     OW14992   5.785   3.417   1.753
 4698SOL    HW114993   5.799   3.448   1.847
 4698SOL    HW214994   5.870   3.376   1.718
 4699SOL     OW14995   6.231   0.422   3.501
 4699SOL    HW114996   6.299   0.395   3.433
 4699SOL    HW214997   6.270   0.417   3.592
 4700SOL     OW14998   6.087   0.036   0.515
 4700SOL    HW114999   6.042   6.980   0.554
 4700SOL    HW215000   6.112   0.018   0.420
 4701SOL     OW15001   0.433   1.161   0.272
 4701SOL    HW115002   0.410   1.254   0.244
 4701SOL    HW215003   0.349   1.114   0.301
 4702SOL     OW15004   2.641   3.545   6.815
 4702SOL    HW115005   2.663   3.537   6.912
 4702SOL    HW215006   2.652   3.640   6.785
 4703SOL     OW15007   1.459   1.370   1.604
 4703SOL    HW115008   1.467   1.330   1.512
 4703SOL    HW215009   1.444   1.297   1.670
 4704SOL     OW15010   4.366   6.987   0.502
 4704SOL    HW115011   4.465   6.986   0.508
 4704SOL    HW215012   4.327   6.930   0.574
 4705SOL     OW15013   3.509   4.102   4.052
 4705SOL    HW115014   3.433   4.094   4.117
 4705SOL    HW215015   3.593   4.122   4.102
 4706SOL     OW15016   4.810   5.404   1.022
 4706SOL    HW115017   4.734   5.433   0.964
 4706SOL    HW215018   4.784   5.411   1.118
 4707SOL     OW15019   3.170   6.188   0.847
 4707SOL    HW115020   3.146   6.125   0.920
 4707SOL    HW215021   3.249   6.243   0.875
 4708SOL     OW15022   2.069   2.645   2.070
 4708SOL    HW115023   2.015   2.662   2.153
 4708SOL    HW215024   2.135   2.572   2.088
 4709SOL     OW15025   3.929   3.847   6.499
 4709SOL    HW115026   3.928   3.879   6.594
 4709SOL    HW215027   4.024   3.845   6.466
 4710SOL     OW15028   5.268   2.177   0.699
 4710SOL    HW115029   5.213   2.254   0.670
 4710SOL    HW215030   5.263   2.167   0.799
 4711SOL     OW15031   3.115   6.763   3.053
 4711SOL    HW115032   3.158   6.709   3.125
 4711SOL    HW215033   3.025   6.724   3.031
 4712SOL     OW15034   1.238   4.574   0.223
 4712SOL    HW115035   1.169   4.502   0.232
 4712SOL    HW215036   1.284   4.588   0.310
 4713SOL     OW15037   2.837   5.908   0.975
 4713SOL    HW115038   2.778   5.950   1.045
 4713SOL    HW215039   2.794   5.918   0.886
 4714SOL     OW15040   3.258   2.668   0.789
 4714SOL    HW115041   3.168   2.657   0.831
 4714SOL    HW215042   3.276   2.593   0.727
 4715SOL     OW15043   5.440   4.171   4.484
 4715SOL    HW115044   5.472   4.238   4.417
 4715SOL    HW215045   5.510   4.100   4.497
 4716SOL     OW15046   3.110   5.522   0.302
 4716SOL    HW115047   3.089   5.429   0.330
 4716SOL    HW215048   3.037   5.583   0.333
 4717SOL     OW15049   0.995   5.654   3.625
 4717SOL    HW115050   1.028   5.728   3.566
 4717SOL    HW215051   1.048   5.571   3.607
 4718SOL     OW15052   6.009   1.102   6.339
 4718SOL    HW115053   6.013   1.184   6.281
 4718SOL    HW215054   6.082   1.039   6.313
 4719SOL     OW15055   4.189   3.127   1.553
 4719SOL    HW115056   4.269   3.139   1.612
 4719SOL    HW215057   4.196   3.189   1.475
 4720SOL     OW15058   3.210   0.590   4.044
 4720SOL    HW115059   3.189   0.649   3.967
 4720SOL    HW215060   3.309   0.586   4.057
 4721SOL     OW15061   1.136   1.938   1.267
 4721SOL    HW115062   1.099   1.977   1.351
 4721SOL    HW215063   1.180   2.010   1.213
 4722SOL     OW15064   2.806   0.220   1.607
 4722SOL    HW115065   2.780   0.314   1.629
 4722SOL    HW215066   2.806   0.165   1.691
 4723SOL     OW15067   2.982   0.239   6.766
 4723SOL    HW115068   3.048   0.217   6.695
 4723SOL    HW215069   2.891   0.209   6.738
 4724SOL     OW15070   3.595   5.240   1.910
 4724SOL    HW115071   3.675   5.222   1.852
 4724SOL    HW215072   3.563   5.155   1.951
 4725SOL     OW15073   5.968   5.471   3.486
 4725SOL    HW115074   5.889   5.435   3.437
 4725SOL    HW215075   5.975   5.570   3.471
 4726SOL     OW15076   1.034   6.370   5.955
 4726SOL    HW115077   0.954   6.324   5.993
 4726SOL    HW215078   1.115   6.313   5.968
 4727SOL     OW15079   0.254   6.692   0.579
 4727SOL    HW115080   0.228   6.736   0.664
 4727SOL    HW215081   0.352   6.705   0.562
 4728SOL     OW15082   0.148   1.328   6.727
 4728SOL    HW115083   0.050   1.333   6.704
 4728SOL    HW215084   0.168   1.239   6.767
 4729SOL     OW15085   3.022   0.347   0.722
 4729SOL    HW115086   3.065   0.428   0.761
 4729SOL    HW215087   2.999   0.363   0.626
 4730SOL     OW15088   1.663   6.988   5.438
 4730SOL    HW115089   1.655   6.900   5.391
 4730SOL    HW215090   1.667   0.038   5.371
 4731SOL     OW15091   5.755   1.998   5.765
 4731SOL    HW115092   5.769   1.925   5.831
 4731SOL    HW215093   5.785   1.968   5.674
 4732SOL     OW15094   0.499   1.582   0.920
 4732SOL    HW115095   0.547   1.557   1.004
 4732SOL    HW215096   0.553   1.554   0.841
 4733SOL     OW15097   6.697   2.955   4.114
 4733SOL    HW115098   6.659   3.002   4.194
 4733SOL    HW215099   6.791   2.927   4.133
 4734SOL     OW15100   4.706   4.555   5.985
 4734SOL    HW115101   4.801   4.524   5.975
 4734SOL    HW215102   4.679   4.551   6.081
 4735SOL     OW15103   0.240   4.864   3.724
 4735SOL    HW115104   0.265   4.767   3.720
 4735SOL    HW215105   0.311   4.914   3.772
 4736SOL     OW15106   1.016   1.052   1.495
 4736SOL    HW115107   1.058   0.973   1.540
 4736SOL    HW215108   0.919   1.057   1.520
 4737SOL     OW15109   2.886   5.499   1.445
 4737SOL    HW115110   2.954   5.464   1.379
 4737SOL    HW215111   2.929   5.570   1.501
 4738SOL     OW15112   0.027   6.227   2.873
 4738SOL    HW115113   7.006   6.316   2.868
 4738SOL    HW215114   0.054   6.198   2.781
 4739SOL     OW15115   4.734   0.864   1.462
 4739SOL    HW115116   4.823   0.834   1.498
 4739SOL    HW215117   4.740   0.959   1.434
 4740SOL     OW15118   1.057   2.378   3.730
 4740SOL    HW115119   0.985   2.373   3.799
 4740SOL    HW215120   1.146   2.389   3.776
 4741SOL     OW15121   3.757   4.354   1.229
 4741SOL    HW115122   3.672   4.311   1.198
 4741SOL    HW215123   3.796   4.301   1.304
 4742SOL     OW15124   3.750   0.916   0.458
 4742SOL    HW115125   3.673   0.967   0.495
 4742SOL    HW215126   3.734   0.897   0.361
 4743SOL     OW15127   1.773   4.571   0.794
 4743SOL    HW115128   1.721   4.650   0.828
 4743SOL    HW215129   1.791   4.509   0.870
 4744SOL     OW15130   2.387   5.926   1.466
 4744SOL    HW115131   2.310   5.953   1.409
 4744SOL    HW215132   2.376   5.832   1.496
 4745SOL     OW15133   0.713   3.831   0.096
 4745SOL    HW115134   0.774   3.894   0.049
 4745SOL    HW215135   0.753   3.739   0.096
 4746SOL     OW15136   4.368   5.669   4.358
 4746SOL    HW115137   4.439   5.700   4.421
 4746SOL    HW215138   4.310   5.601   4.403
 4747SOL     OW15139   1.908   1.214   6.895
 4747SOL    HW115140   1.916   1.292   6.957
 4747SOL    HW215141   1.995   1.166   6.890
 4748SOL     OW15142   1.586   6.629   1.908
 4748SOL    HW115143   1.509   6.581   1.864
 4748SOL    HW215144   1.614   6.579   1.990
 4749SOL     OW15145   3.106   2.222   0.407
 4749SOL    HW115146   3.191   2.180   0.439
 4749SOL    HW215147   3.045   2.151   0.370
 4750SOL     OW15148   5.205   2.803   5.528
 4750SOL    HW115149   5.124   2.862   5.522
 4750SOL    HW215150   5.281   2.846   5.481
 4751SOL     OW15151   4.555   0.733   3.203
 4751SOL    HW115152   4.568   0.676   3.284
 4751SOL    HW215153   4.460   0.728   3.174
 4752SOL     OW15154   4.904   2.229   6.531
 4752SOL    HW115155   4.806   2.208   6.525
 4752SOL    HW215156   4.919   2.323   6.502
 4753SOL     OW15157   2.968   6.184   4.663
 4753SOL    HW115158   2.982   6.213   4.568
 4753SOL    HW215159   3.018   6.246   4.724
 4754SOL     OW15160   4.825   4.341   6.573
 4754SOL    HW115161   4.766   4.418   6.596
 4754SOL    HW215162   4.816   4.319   6.476
 4755SOL     OW15163   0.682   1.096   1.615
 4755SOL    HW115164   0.677   1.188   1.652
 4755SOL    HW215165   0.700   1.100   1.517
 4756SOL     OW15166   6.390   3.666   5.590
 4756SOL    HW115167   6.395   3.642   5.687
 4756SOL    HW215168   6.407   3.764   5.579
 4757SOL     OW15169   1.556   3.759   0.829
 4757SOL    HW115170   1.611   3.759   0.912
 4757SOL    HW215171   1.596   3.821   0.762
 4758SOL     OW15172   2.021   6.214   3.262
 4758SOL    HW115173   1.979   6.127   3.237
 4758SOL    HW215174   2.071   6.203   3.347
 4759SOL     OW15175   6.939   6.383   1.721
 4759SOL    HW115176   6.847   6.370   1.758
 4759SOL    HW215177   6.934   6.396   1.622
 4760SOL     OW15178   1.388   5.836   0.633
 4760SOL    HW115179   1.408   5.934   0.621
 4760SOL    HW215180   1.387   5.791   0.544
 4761SOL     OW15181   5.820   6.437   1.861
 4761SOL    HW115182   5.875   6.489   1.926
 4761SOL    HW215183   5.742   6.396   1.909
 4762SOL     OW15184   2.064   0.589   2.488
 4762SOL    HW115185   2.008   0.663   2.449
 4762SOL    HW215186   2.010   0.538   2.555
 4763SOL     OW15187   5.863   5.304   2.430
 4763SOL    HW115188   5.876   5.242   2.353
 4763SOL    HW215189   5.952   5.340   2.459
 4764SOL     OW15190   4.909   2.338   0.210
 4764SOL    HW115191   4.856   2.277   0.152
 4764SOL    HW215192   4.896   2.314   0.306
 4765SOL     OW15193   4.017   1.576   5.383
 4765SOL    HW115194   3.934   1.609   5.337
 4765SOL    HW215195   4.051   1.494   5.337
 4766SOL     OW15196   0.750   0.467   4.744
 4766SOL    HW115197   0.760   0.543   4.680
 4766SOL    HW215198   0.679   0.489   4.811
 4767SOL     OW15199   2.214   4.124   3.252
 4767SOL    HW115200   2.222   4.224   3.255
 4767SOL    HW215201   2.213   4.093   3.157
 4768SOL     OW15202   4.545   2.982   6.299
 4768SOL    HW115203   4.628   2.995   6.353
 4768SOL    HW215204   4.466   3.020   6.348
 4769SOL     OW15205   2.045   3.408   0.567
 4769SOL    HW115206   2.129   3.420   0.514
 4769SOL    HW215207   1.984   3.346   0.518
 4770SOL     OW15208   0.125   1.622   4.104
 4770SOL    HW115209   0.097   1.530   4.074
 4770SOL    HW215210   0.127   1.683   4.025
 4771SOL     OW15211   1.919   6.944   3.675
 4771SOL    HW115212   1.891   6.961   3.581
 4771SOL    HW215213   1.856   6.878   3.717
 4772SOL     OW15214   3.299   5.457   2.272
 4772SOL    HW115215   3.211   5.482   2.233
 4772SOL    HW215216   3.285   5.412   2.361
 4773SOL     OW15217   2.692   5.253   4.838
 4773SOL    HW115218   2.615   5.255   4.774
 4773SOL    HW215219   2.701   5.161   4.876
 4774SOL     OW15220   0.904   4.358   0.554
 4774SOL    HW115221   0.863   4.267   0.554
 4774SOL    HW215222   1.001   4.351   0.579
 4775SOL     OW15223   6.014   6.354   5.456
 4775SOL    HW115224   5.926   6.373   5.499
 4775SOL    HW215225   6.004   6.359   5.356
 4776SOL     OW15226   0.386   1.218   5.995
 4776SOL    HW115227   0.433   1.164   5.925
 4776SOL    HW215228   0.387   1.315   5.969
 4777SOL     OW15229   2.242   0.258   2.538
 4777SOL    HW115230   2.186   0.228   2.614
 4777SOL    HW215231   2.310   0.325   2.570
 4778SOL     OW15232   2.056   1.022   0.214
 4778SOL    HW115233   2.109   1.107   0.208
 4778SOL    HW215234   2.087   0.969   0.293
 4779SOL     OW15235   5.196   0.367   4.583
 4779SOL    HW115236   5.234   0.375   4.490
 4779SOL    HW215237   5.271   0.367   4.649
 4780SOL     OW15238   5.089   2.571   5.419
 4780SOL    HW115239   4.992   2.591   5.432
 4780SOL    HW215240   5.144   2.629   5.478
 4781SOL     OW15241   2.197   6.235   1.741
 4781SOL    HW115242   2.098   6.228   1.732
 4781SOL    HW215243   2.238   6.144   1.732
 4782SOL     OW15244   6.622   6.878   4.462
 4782SOL    HW115245   6.722   6.874   4.463
 4782SOL    HW215246   6.592   6.968   4.495
 4783SOL     OW15247   0.010   3.544   6.081
 4783SOL    HW115248   7.003   3.527   6.174
 4783SOL    HW215249   0.084   3.612   6.083
 4784SOL     OW15250   5.230   3.121   6.832
 4784SOL    HW115251   5.304   3.150   6.771
 4784SOL    HW215252   5.244   3.026   6.859
 4785SOL     OW15253   0.293   0.046   4.729
 4785SOL    HW115254   0.305   6.972   4.735
 4785SOL    HW215255   0.302   0.087   4.819
 4786SOL     OW15256   1.071   6.290   0.754
 4786SOL    HW115257   1.122   6.288   0.840
 4786SOL    HW215258   1.091   6.207   0.701
 4787SOL     OW15259   4.079   1.383   4.196
 4787SOL    HW115260   4.135   1.350   4.271
 4787SOL    HW215261   4.112   1.473   4.166
 4788SOL     OW15262   0.020   6.317   0.263
 4788SOL    HW115263   0.030   6.311   0.163
 4788SOL    HW215264   0.011   6.225   0.301
 4789SOL     OW15265   5.669   0.845   2.722
 4789SOL    HW115266   5.678   0.768   2.785
 4789SOL    HW215267   5.751   0.850   2.664
 4790SOL     OW15268   6.785   1.997   4.898
 4790SOL    HW115269   6.746   1.924   4.841
 4790SOL    HW215270   6.814   1.959   4.985
 4791SOL     OW15271   1.144   0.200   0.581
 4791SOL    HW115272   1.119   0.179   0.487
 4791SOL    HW215273   1.111   0.128   0.641
 4792SOL     OW15274   1.950   3.549   2.488
 4792SOL    HW115275   1.974   3.452   2.480
 4792SOL    HW215276   1.986   3.599   2.410
 4793SOL     OW15277   1.007   3.495   5.609
 4793SOL    HW115278   1.043   3.559   5.541
 4793SOL    HW215279   0.936   3.540   5.663
 4794SOL     OW15280   4.352   1.835   4.615
 4794SOL    HW115281   4.365   1.776   4.695
 4794SOL    HW215282   4.254   1.848   4.599
 4795SOL     OW15283   7.000   0.806   6.571
 4795SOL    HW115284   6.933   0.741   6.605
 4795SOL    HW215285   0.068   0.777   6.598
 4796SOL     OW15286   4.685   1.345   5.457
 4796SOL    HW115287   4.779   1.342   5.422
 4796SOL    HW215288   4.674   1.423   5.517
 4797SOL     OW15289   1.462   5.160   5.561
 4797SOL    HW115290   1.513   5.074   5.564
 4797SOL    HW215291   1.436   5.186   5.654
 4798SOL     OW15292   3.933   5.795   6.992
 4798SOL    HW115293   3.858   5.785   0.034
 4798SOL    HW215294   3.946   5.709   6.943
 4799SOL     OW15295   4.476   2.497   6.733
 4799SOL    HW115296   4.378   2.497   6.712
 4799SOL    HW215297   4.489   2.511   6.831
 4800SOL     OW15298   0.226   4.158   0.227
 4800SOL    HW115299   0.224   4.058   0.230
 4800SOL    HW215300   0.319   4.190   0.244
 4801SOL     OW15301   4.764   2.310   1.736
 4801SOL    HW115302   4.764   2.367   1.654
 4801SOL    HW215303   4.835   2.342   1.799
 4802SOL     OW15304   6.520   0.080   4.522
 4802SOL    HW115305   6.483   0.096   4.431
 4802SOL    HW215306   6.509   0.162   4.578
 4803SOL     OW15307   4.991   3.952   6.030
 4803SOL    HW115308   5.073   3.936   6.085
 4803SOL    HW215309   4.912   3.912   6.076
 4804SOL     OW15310   5.124   2.038   0.331
 4804SOL    HW115311   5.041   1.982   0.336
 4804SOL    HW215312   5.189   1.996   0.269
 4805SOL     OW15313   6.119   1.636   0.251
 4805SOL    HW115314   6.181   1.560   0.233
 4805SOL    HW215315   6.169   1.709   0.299
 4806SOL     OW15316   1.289   1.458   3.461
 4806SOL    HW115317   1.198   1.425   3.483
 4806SOL    HW215318   1.302   1.549   3.501
 4807SOL     OW15319   0.090   4.228   5.919
 4807SOL    HW115320   0.174   4.273   5.948
 4807SOL    HW215321   0.093   4.210   5.820
 4808SOL     OW15322   4.034   5.787   1.426
 4808SOL    HW115323   3.994   5.863   1.477
 4808SOL    HW215324   4.103   5.822   1.363
 4809SOL     OW15325   2.947   3.708   1.931
 4809SOL    HW115326   2.875   3.665   1.876
 4809SOL    HW215327   2.987   3.785   1.880
 4810SOL     OW15328   1.130   5.410   4.176
 4810SOL    HW115329   1.221   5.427   4.214
 4810SOL    HW215330   1.083   5.342   4.232
 4811SOL     OW15331   3.381   3.572   4.265
 4811SOL    HW115332   3.366   3.486   4.313
 4811SOL    HW215333   3.338   3.568   4.175
 4812SOL     OW15334   1.332   0.381   2.919
 4812SOL    HW115335   1.243   0.336   2.932
 4812SOL    HW215336   1.326   0.442   2.840
 4813SOL     OW15337   0.216   1.647   5.644
 4813SOL    HW115338   0.182   1.556   5.665
 4813SOL    HW215339   0.305   1.640   5.599
 4814SOL     OW15340   6.268   3.843   1.546
 4814SOL    HW115341   6.202   3.915   1.525
 4814SOL    HW215342   6.235   3.789   1.624
 4815SOL     OW15343   6.301   4.718   2.385
 4815SOL    HW115344   6.240   4.797   2.391
 4815SOL    HW215345   6.285   4.657   2.463
 4816SOL     OW15346   3.208   0.815   2.612
 4816SOL    HW115347   3.258   0.898   2.637
 4816SOL    HW215348   3.151   0.833   2.532
 4817SOL     OW15349   4.188   1.574   1.128
 4817SOL    HW115350   4.099   1.532   1.145
 4817SOL    HW215351   4.260   1.506   1.142
 4818SOL     OW15352   4.418   0.005   4.974
 4818SOL    HW115353   4.380   6.963   5.038
 4818SOL    HW215354   4.348   0.030   4.907
 4819SOL     OW15355   2.949   1.120   0.681
 4819SOL    HW115356   2.943   1.214   0.647
 4819SOL    HW215357   2.923   1.056   0.608
 4820SOL     OW15358   5.849   4.273   2.059
 4820SOL    HW115359   5.785   4.305   2.130
 4820SOL    HW215360   5.806   4.283   1.969
 4821SOL     OW15361   0.125   5.515   1.700
 4821SOL    HW115362   0.125   5.573   1.782
 4821SOL    HW215363   0.098   5.570   1.621
 4822SOL     OW15364   0.791   3.851   2.083
 4822SOL    HW115365   0.766   3.917   2.012
 4822SOL    HW215366   0.709   3.804   2.116
 4823SOL     OW15367   1.667   1.216   3.928
 4823SOL    HW115368   1.661   1.208   3.829
 4823SOL    HW215369   1.583   1.257   3.964
 4824SOL     OW15370   5.564   2.729   1.568
 4824SOL    HW115371   5.515   2.718   1.481
 4824SOL    HW215372   5.633   2.800   1.558
 4825SOL     OW15373   0.100   3.210   3.307
 4825SOL    HW115374   0.199   3.212   3.319
 4825SOL    HW215375   0.056   3.250   3.388
 4826SOL     OW15376   6.710   6.109   6.564
 4826SOL    HW115377   6.673   6.126   6.656
 4826SOL    HW215378   6.667   6.172   6.499
 4827SOL     OW15379   5.781   1.194   1.419
 4827SOL    HW115380   5.824   1.117   1.467
 4827SOL    HW215381   5.835   1.276   1.432
 4828SOL     OW15382   4.875   3.319   6.769
 4828SOL    HW115383   4.939   3.263   6.718
 4828SOL    HW215384   4.789   3.268   6.781
 4829SOL     OW15385   3.762   0.093   5.227
 4829SOL    HW115386   3.731   0.075   5.134
 4829SOL    HW215387   3.851   0.050   5.242
 4830SOL     OW15388   4.098   6.035   5.076
 4830SOL    HW115389   4.037   5.982   5.016
 4830SOL    HW215390   4.148   6.102   5.021
 4831SOL     OW15391   6.476   3.420   5.752
 4831SOL    HW115392   6.558   3.475   5.762
 4831SOL    HW215393   6.425   3.448   5.671
 4832SOL     OW15394   2.146   2.683   6.176
 4832SOL    HW115395   2.152   2.632   6.091
 4832SOL    HW215396   2.234   2.681   6.222
 4833SOL     OW15397   5.564   1.511   3.126
 4833SOL    HW115398   5.577   1.440   3.057
 4833SOL    HW215399   5.615   1.592   3.101
 4834SOL     OW15400   5.371   1.079   3.257
 4834SOL    HW115401   5.321   1.156   3.296
 4834SOL    HW215402   5.453   1.062   3.311
 4835SOL     OW15403   2.080   0.641   5.360
 4835SOL    HW115404   2.164   0.589   5.344
 4835SOL    HW215405   2.010   0.582   5.399
 4836SOL     OW15406   5.330   2.822   2.047
 4836SOL    HW115407   5.242   2.870   2.052
 4836SOL    HW215408   5.352   2.802   1.952
 4837SOL     OW15409   0.341   3.758   1.151
 4837SOL    HW115410   0.267   3.815   1.186
 4837SOL    HW215411   0.418   3.817   1.125
 4838SOL     OW15412   2.849   5.804   2.572
 4838SOL    HW115413   2.859   5.757   2.484
 4838SOL    HW215414   2.752   5.808   2.595
 4839SOL     OW15415   0.745   6.751   0.021
 4839SOL    HW115416   0.748   6.713   6.952
 4839SOL    HW215417   0.832   6.734   0.066
 4840SOL     OW15418   6.445   6.606   0.036
 4840SOL    HW115419   6.445   6.633   6.964
 4840SOL    HW215420   6.359   6.561   0.059
 4841SOL     OW15421   2.770   6.263   2.542
 4841SOL    HW115422   2.797   6.176   2.501
 4841SOL    HW215423   2.671   6.264   2.558
 4842SOL     OW15424   3.475   6.280   1.176
 4842SOL    HW115425   3.440   6.349   1.240
 4842SOL    HW215426   3.432   6.294   1.086
 4843SOL     OW15427   0.886   2.727   6.865
 4843SOL    HW115428   0.925   2.718   6.774
 4843SOL    HW215429   0.790   2.701   6.863
 4844SOL     OW15430   0.524   1.363   5.738
 4844SOL    HW115431   0.440   1.369   5.683
 4844SOL    HW215432   0.554   1.455   5.762
 4845SOL     OW15433   5.609   5.221   3.861
 4845SOL    HW115434   5.510   5.233   3.864
 4845SOL    HW215435   5.642   5.238   3.768
 4846SOL     OW15436   0.674   5.396   0.360
 4846SOL    HW115437   0.684   5.458   0.438
 4846SOL    HW215438   0.621   5.442   0.288
 4847SOL     OW15439   5.058   2.490   4.319
 4847SOL    HW115440   5.036   2.431   4.396
 4847SOL    HW215441   5.108   2.437   4.250
 4848SOL     OW15442   2.882   2.026   1.894
 4848SOL    HW115443   2.811   2.010   1.963
 4848SOL    HW215444   2.915   2.120   1.901
 4849SOL     OW15445   1.207   6.521   6.878
 4849SOL    HW115446   1.195   6.621   6.874
 4849SOL    HW215447   1.152   6.479   6.806
 4850SOL     OW15448   3.741   0.671   2.641
 4850SOL    HW115449   3.722   0.576   2.619
 4850SOL    HW215450   3.692   0.697   2.725
 4851SOL     OW15451   5.455   0.874   5.578
 4851SOL    HW115452   5.540   0.905   5.535
 4851SOL    HW215453   5.398   0.828   5.510
 4852SOL     OW15454   1.967   2.144   1.208
 4852SOL    HW115455   1.867   2.150   1.219
 4852SOL    HW215456   2.002   2.234   1.180
 4853SOL     OW15457   3.384   1.564   1.566
 4853SOL    HW115458   3.435   1.614   1.636
 4853SOL    HW215459   3.419   1.471   1.559
 4854SOL     OW15460   3.959   0.220   0.289
 4854SOL    HW115461   3.971   0.135   0.237
 4854SOL    HW215462   3.882   0.272   0.252
 4855SOL     OW15463   0.073   2.432   2.558
 4855SOL    HW115464   0.096   2.364   2.628
 4855SOL    HW215465   0.069   2.522   2.599
 4856SOL     OW15466   2.196   4.402   3.234
 4856SOL    HW115467   2.260   4.441   3.168
 4856SOL    HW215468   2.149   4.476   3.283
 4857SOL     OW15469   0.566   1.143   6.184
 4857SOL    HW115470   0.500   1.185   6.122
 4857SOL    HW215471   0.527   1.137   6.276
 4858SOL     OW15472   1.235   0.767   4.168
 4858SOL    HW115473   1.168   0.780   4.095
 4858SOL    HW215474   1.277   0.854   4.191
 4859SOL     OW15475   3.226   5.496   5.584
 4859SOL    HW115476   3.263   5.560   5.651
 4859SOL    HW215477   3.139   5.459   5.617
 4860SOL     OW15478   4.421   4.555   0.655
 4860SOL    HW115479   4.502   4.586   0.606
 4860SOL    HW215480   4.378   4.480   0.604
 4861SOL     OW15481   5.050   3.680   5.764
 4861SOL    HW115482   5.094   3.755   5.716
 4861SOL    HW215483   5.119   3.625   5.811
 4862SOL     OW15484   1.238   6.511   1.722
 4862SOL    HW115485   1.221   6.568   1.642
 4862SOL    HW215486   1.331   6.473   1.717
 4863SOL     OW15487   5.504   4.553   6.597
 4863SOL    HW115488   5.568   4.484   6.631
 4863SOL    HW215489   5.412   4.532   6.631
 4864SOL     OW15490   3.242   0.747   3.729
 4864SOL    HW115491   3.277   0.841   3.724
 4864SOL    HW215492   3.154   0.742   3.681
 4865SOL     OW15493   2.159   6.409   5.002
 4865SOL    HW115494   2.188   6.460   4.921
 4865SOL    HW215495   2.142   6.473   5.077
 4866SOL     OW15496   6.344   4.027   6.287
 4866SOL    HW115497   6.320   4.108   6.341
 4866SOL    HW215498   6.398   3.965   6.344
 4867SOL     OW15499   4.602   0.122   2.967
 4867SOL    HW115500   4.545   0.043   2.990
 4867SOL    HW215501   4.647   0.105   2.879
 4868SOL     OW15502   6.838   4.628   1.299
 4868SOL    HW115503   6.865   4.630   1.395
 4868SOL    HW215504   6.864   4.713   1.254
 4869SOL     OW15505   0.872   0.919   0.565
 4869SOL    HW115506   0.826   0.986   0.507
 4869SOL    HW215507   0.929   0.860   0.507
 4870SOL     OW15508   0.379   6.225   2.293
 4870SOL    HW115509   0.436   6.143   2.295
 4870SOL    HW215510   0.436   6.306   2.278
 4871SOL     OW15511   1.867   1.654   4.195
 4871SOL    HW115512   1.861   1.753   4.206
 4871SOL    HW215513   1.944   1.632   4.134
 4872SOL     OW15514   5.740   6.333   3.018
 4872SOL    HW115515   5.649   6.318   2.981
 4872SOL    HW215516   5.776   6.419   2.981
 4873SOL     OW15517   6.328   5.492   5.392
 4873SOL    HW115518   6.322   5.526   5.298
 4873SOL    HW215519   6.345   5.394   5.391
 4874SOL     OW15520   4.837   2.963   3.096
 4874SOL    HW115521   4.876   3.029   3.032
 4874SOL    HW215522   4.909   2.902   3.130
 4875SOL     OW15523   5.747   6.280   5.224
 4875SOL    HW115524   5.677   6.351   5.232
 4875SOL    HW215525   5.725   6.205   5.286
 4876SOL     OW15526   1.408   1.199   2.408
 4876SOL    HW115527   1.391   1.287   2.364
 4876SOL    HW215528   1.340   1.133   2.377
 4877SOL     OW15529   6.962   1.680   5.436
 4877SOL    HW115530   6.924   1.666   5.527
 4877SOL    HW215531   6.893   1.719   5.376
 4878SOL     OW15532   6.902   2.703   2.198
 4878SOL    HW115533   6.875   2.610   2.222
 4878SOL    HW215534   7.002   2.708   2.190
 4879SOL     OW15535   5.411   0.925   2.641
 4879SOL    HW115536   5.425   1.023   2.623
 4879SOL    HW215537   5.495   0.886   2.678
 4880SOL     OW15538   6.455   3.115   6.584
 4880SOL    HW115539   6.361   3.134   6.556
 4880SOL    HW215540   6.459   3.110   6.684
 4881SOL     OW15541   1.863   2.376   1.478
 4881SOL    HW115542   1.892   2.471   1.464
 4881SOL    HW215543   1.926   2.314   1.432
 4882SOL     OW15544   4.284   1.952   4.250
 4882SOL    HW115545   4.310   1.861   4.282
 4882SOL    HW215546   4.348   2.020   4.285
 4883SOL     OW15547   6.008   4.139   0.846
 4883SOL    HW115548   5.984   4.053   0.890
 4883SOL    HW215549   6.009   4.213   0.914
 4884SOL     OW15550   1.958   0.303   1.362
 4884SOL    HW115551   2.008   0.283   1.446
 4884SOL    HW215552   2.014   0.361   1.303
 4885SOL     OW15553   1.210   4.143   0.222
 4885SOL    HW115554   1.296   4.171   0.264
 4885SOL    HW215555   1.188   4.204   0.146
 4886SOL     OW15556   2.615   1.177   1.962
 4886SOL    HW115557   2.561   1.253   1.998
 4886SOL    HW215558   2.591   1.162   1.866
 4887SOL     OW15559   6.130   6.417   1.019
 4887SOL    HW115560   6.149   6.513   1.043
 4887SOL    HW215561   6.170   6.397   0.930
 4888SOL     OW15562   3.851   0.050   2.865
 4888SOL    HW115563   3.867   0.098   2.951
 4888SOL    HW215564   3.930   7.017   2.843
 4889SOL     OW15565   6.911   3.135   3.676
 4889SOL    HW115566   6.830   3.077   3.674
 4889SOL    HW215567   6.940   3.150   3.771
 4890SOL     OW15568   6.192   1.470   4.601
 4890SOL    HW115569   6.290   1.465   4.580
 4890SOL    HW215570   6.179   1.466   4.700
 4891SOL     OW15571   2.708   5.224   5.897
 4891SOL    HW115572   2.772   5.192   5.828
 4891SOL    HW215573   2.718   5.170   5.980
 4892SOL     OW15574   5.107   5.769   2.826
 4892SOL    HW115575   5.157   5.853   2.848
 4892SOL    HW215576   5.064   5.779   2.736
 4893SOL     OW15577   1.097   3.367   1.059
 4893SOL    HW115578   1.154   3.438   1.018
 4893SOL    HW215579   1.143   3.329   1.139
 4894SOL     OW15580   5.330   6.891   1.923
 4894SOL    HW115581   5.232   6.910   1.911
 4894SOL    HW215582   5.345   6.793   1.917
 4895SOL     OW15583   6.947   4.379   4.894
 4895SOL    HW115584   7.016   4.312   4.866
 4895SOL    HW215585   6.873   4.381   4.827
 4896SOL     OW15586   1.999   4.848   4.687
 4896SOL    HW115587   2.032   4.772   4.743
 4896SOL    HW215588   1.938   4.905   4.741
 4897SOL     OW15589   1.828   6.700   5.391
 4897SOL    HW115590   1.771   6.727   5.313
 4897SOL    HW215591   1.770   6.657   5.461
 4898SOL     OW15592   5.097   1.532   3.491
 4898SOL    HW115593   5.092   1.618   3.440
 4898SOL    HW215594   5.168   1.538   3.561
 4899SOL     OW15595   6.694   6.709   1.792
 4899SOL    HW115596   6.673   6.666   1.704
 4899SOL    HW215597   6.663   6.649   1.866
 4900SOL     OW15598   3.808   6.133   5.647
 4900SOL    HW115599   3.725   6.177   5.612
 4900SOL    HW215600   3.873   6.204   5.674
 4901SOL     OW15601   1.341   0.882   6.254
 4901SOL    HW115602   1.303   0.952   6.314
 4901SOL    HW215603   1.312   0.791   6.286
 4902SOL     OW15604   2.076   6.811   5.430
 4902SOL    HW115605   2.142   6.745   5.394
 4902SOL    HW215606   1.983   6.775   5.418
 4903SOL     OW15607   4.807   3.951   2.638
 4903SOL    HW115608   4.825   3.899   2.722
 4903SOL    HW215609   4.870   3.922   2.567
 4904SOL     OW15610   1.442   6.841   0.595
 4904SOL    HW115611   1.454   6.872   0.690
 4904SOL    HW215612   1.512   6.774   0.572
 4905SOL     OW15613   3.105   6.387   2.982
 4905SOL    HW115614   3.147   6.471   2.949
 4905SOL    HW215615   3.112   6.383   3.082
 4906SOL     OW15616   4.959   3.413   4.991
 4906SOL    HW115617   4.955   3.392   4.894
 4906SOL    HW215618   4.888   3.480   5.014
 4907SOL     OW15619   4.325   1.970   0.083
 4907SOL    HW115620   4.345   1.986   7.011
 4907SOL    HW215621   4.410   1.950   0.132
 4908SOL     OW15622   3.808   6.845   0.042
 4908SOL    HW115623   3.772   6.768   7.014
 4908SOL    HW215624   3.751   6.926   0.027
 4909SOL     OW15625   5.417   5.012   4.520
 4909SOL    HW115626   5.386   4.957   4.443
 4909SOL    HW215627   5.343   5.021   4.586
 4910SOL     OW15628   4.804   2.326   5.820
 4910SOL    HW115629   4.757   2.410   5.846
 4910SOL    HW215630   4.806   2.318   5.720
 4911SOL     OW15631   6.514   2.587   2.541
 4911SOL    HW115632   6.472   2.584   2.632
 4911SOL    HW215633   6.471   2.519   2.482
 4912SOL     OW15634   5.731   2.692   3.817
 4912SOL    HW115635   5.678   2.757   3.872
 4912SOL    HW215636   5.711   2.599   3.848
 4913SOL     OW15637   0.788   3.843   5.580
 4913SOL    HW115638   0.818   3.818   5.488
 4913SOL    HW215639   0.690   3.865   5.578
 4914SOL     OW15640   4.283   0.610   3.404
 4914SOL    HW115641   4.331   0.640   3.486
 4914SOL    HW215642   4.326   0.527   3.368
 4915SOL     OW15643   3.204   5.103   5.990
 4915SOL    HW115644   3.286   5.160   5.987
 4915SOL    HW215645   3.225   5.013   5.952
 4916SOL     OW15646   5.730   2.629   4.165
 4916SOL    HW115647   5.647   2.642   4.110
 4916SOL    HW215648   5.717   2.672   4.254
 4917SOL     OW15649   4.178   6.868   0.308
 4917SOL    HW115650   4.087   6.904   0.331
 4917SOL    HW215651   4.247   6.913   0.365
 4918SOL     OW15652   6.073   4.931   3.133
 4918SOL    HW115653   6.016   4.955   3.212
 4918SOL    HW215654   6.168   4.955   3.151
 4919SOL     OW15655   3.142   4.006   2.051
 4919SOL    HW115656   3.104   4.097   2.037
 4919SOL    HW215657   3.223   3.995   1.994
 4920SOL     OW15658   6.615   1.751   6.001
 4920SOL    HW115659   6.546   1.679   5.994
 4920SOL    HW215660   6.615   1.787   6.095
 4921SOL     OW15661   0.235   0.027   2.890
 4921SOL    HW115662   0.318   0.082   2.895
 4921SOL    HW215663   0.189   0.042   2.803
 4922SOL     OW15664   3.642   1.945   6.147
 4922SOL    HW115665   3.592   1.879   6.204
 4922SOL    HW215666   3.600   2.035   6.154
 4923SOL     OW15667   3.695   1.493   2.139
 4923SOL    HW115668   3.652   1.470   2.226
 4923SOL    HW215669   3.766   1.425   2.118
 4924SOL     OW15670   2.534   0.742   5.290
 4924SOL    HW115671   2.565   0.736   5.195
 4924SOL    HW215672   2.492   0.831   5.305
 4925SOL     OW15673   6.007   6.489   3.703
 4925SOL    HW115674   6.063   6.556   3.654
 4925SOL    HW215675   5.986   6.412   3.643
 4926SOL     OW15676   5.142   2.882   1.078
 4926SOL    HW115677   5.106   2.935   1.002
 4926SOL    HW215678   5.226   2.924   1.112
 4927SOL     OW15679   3.677   1.497   6.379
 4927SOL    HW115680   3.616   1.442   6.436
 4927SOL    HW215681   3.710   1.442   6.303
 4928SOL     OW15682   6.987   2.757   0.698
 4928SOL    HW115683   6.949   2.841   0.660
 4928SOL    HW215684   6.991   2.764   0.798
 4929SOL     OW15685   0.828   6.110   5.274
 4929SOL    HW115686   0.881   6.160   5.205
 4929SOL    HW215687   0.733   6.143   5.274
 4930SOL     OW15688   5.001   6.012   2.013
 4930SOL    HW115689   4.925   6.046   2.068
 4930SOL    HW215690   5.053   6.089   1.975
 4931SOL     OW15691   6.789   5.511   0.259
 4931SOL    HW115692   6.849   5.591   0.250
 4931SOL    HW215693   6.694   5.541   0.259
 4932SOL     OW15694   3.694   3.526   2.161
 4932SOL    HW115695   3.656   3.458   2.224
 4932SOL    HW215696   3.637   3.531   2.079
 4933SOL     OW15697   2.059   6.411   5.363
 4933SOL    HW115698   2.052   6.490   5.302
 4933SOL    HW215699   1.968   6.386   5.396
 4934SOL     OW15700   4.106   5.524   2.536
 4934SOL    HW115701   4.032   5.535   2.601
 4934SOL    HW215702   4.081   5.456   2.467
 4935SOL     OW15703   0.215   0.957   5.979
 4935SOL    HW115704   0.263   1.042   5.958
 4935SOL    HW215705   0.251   0.918   6.064
 4936SOL     OW15706   3.935   2.391   0.875
 4936SOL    HW115707   3.842   2.422   0.855
 4936SOL    HW215708   3.993   2.408   0.795
 4937SOL     OW15709   4.597   2.699   5.020
 4937SOL    HW115710   4.526   2.644   4.976
 4937SOL    HW215711   4.651   2.745   4.951
 4938SOL     OW15712   4.052   5.028   5.766
 4938SOL    HW115713   4.044   4.974   5.850
 4938SOL    HW215714   3.984   4.999   5.700
 4939SOL     OW15715   4.884   3.414   5.928
 4939SOL    HW115716   4.923   3.338   5.980
 4939SOL    HW215717   4.955   3.457   5.873
 4940SOL     OW15718   1.956   5.930   4.109
 4940SOL    HW115719   2.011   5.920   4.026
 4940SOL    HW215720   1.983   5.860   4.175
 4941SOL     OW15721   5.773   0.393   0.909
 4941SOL    HW115722   5.850   0.353   0.959
 4941SOL    HW215723   5.744   0.477   0.956
 4942SOL     OW15724   5.175   3.347   5.688
 4942SOL    HW115725   5.202   3.407   5.763
 4942SOL    HW215726   5.153   3.256   5.724
 4943SOL     OW15727   5.077   2.360   1.648
 4943SOL    HW115728   5.060   2.384   1.552
 4943SOL    HW215729   5.077   2.443   1.703
 4944SOL     OW15730   2.324   4.248   2.241
 4944SOL    HW115731   2.235   4.294   2.240
 4944SOL    HW215732   2.376   4.278   2.321
 4945SOL     OW15733   0.264   6.417   5.031
 4945SOL    HW115734   0.213   6.496   4.999
 4945SOL    HW215735   0.204   6.357   5.084
 4946SOL     OW15736   0.103   4.387   2.186
 4946SOL    HW115737   0.132   4.459   2.249
 4946SOL    HW215738   0.017   4.347   2.218
 4947SOL     OW15739   6.533   0.192   1.475
 4947SOL    HW115740   6.617   0.144   1.448
 4947SOL    HW215741   6.553   0.253   1.551
 4948SOL     OW15742   2.087   0.808   2.097
 4948SOL    HW115743   2.077   0.716   2.060
 4948SOL    HW215744   2.087   0.874   2.022
 4949SOL     OW15745   5.000   1.870   4.606
 4949SOL    HW115746   5.012   1.818   4.521
 4949SOL    HW215747   4.907   1.907   4.610
 4950SOL     OW15748   2.904   5.226   5.141
 4950SOL    HW115749   2.895   5.252   5.237
 4950SOL    HW215750   2.850   5.143   5.124
 4951SOL     OW15751   4.840   1.994   4.064
 4951SOL    HW115752   4.777   2.072   4.065
 4951SOL    HW215753   4.788   1.910   4.075
 4952SOL     OW15754   0.013   4.594   5.072
 4952SOL    HW115755   7.020   4.521   5.005
 4952SOL    HW215756   0.059   4.670   5.027
 4953SOL     OW15757   1.924   5.840   1.795
 4953SOL    HW115758   1.972   5.849   1.882
 4953SOL    HW215759   1.830   5.812   1.811
 4954SOL     OW15760   6.495   6.264   0.221
 4954SOL    HW115761   6.545   6.346   0.196
 4954SOL    HW215762   6.547   6.183   0.194
 4955SOL     OW15763   1.214   0.340   1.714
 4955SOL    HW115764   1.310   0.315   1.724
 4955SOL    HW215765   1.167   0.329   1.801
 4956SOL     OW15766   5.864   6.638   4.769
 4956SOL    HW115767   5.892   6.654   4.863
 4956SOL    HW215768   5.866   6.540   4.749
 4957SOL     OW15769   1.789   6.258   3.412
 4957SOL    HW115770   1.874   6.243   3.361
 4957SOL    HW215771   1.809   6.268   3.509
 4958SOL     OW15772   0.227   6.201   6.548
 4958SOL    HW115773   0.276   6.179   6.464
 4958SOL    HW215774   0.288   6.248   6.611
 4959SOL     OW15775   0.634   1.188   0.683
 4959SOL    HW115776   0.629   1.149   0.591
 4959SOL    HW215777   0.560   1.150   0.739
 4960SOL     OW15778   3.792   6.276   5.031
 4960SOL    HW115779   3.821   6.258   5.125
 4960SOL    HW215780   3.713   6.219   5.009
 4961SOL     OW15781   4.742   0.703   5.711
 4961SOL    HW115782   4.752   0.609   5.743
 4961SOL    HW215783   4.693   0.703   5.624
 4962SOL     OW15784   6.380   2.428   2.022
 4962SOL    HW115785   6.298   2.473   2.058
 4962SOL    HW215786   6.384   2.335   2.058
 4963SOL     OW15787   6.913   4.115   1.663
 4963SOL    HW115788   6.874   4.023   1.669
 4963SOL    HW215789   6.901   4.150   1.571
 4964SOL     OW15790   3.504   6.510   2.679
 4964SOL    HW115791   3.433   6.537   2.745
 4964SOL    HW215792   3.483   6.550   2.590
 4965SOL     OW15793   0.203   6.653   4.527
 4965SOL    HW115794   0.157   6.593   4.462
 4965SOL    HW215795   0.287   6.689   4.486
 4966SOL     OW15796   3.440   5.439   4.210
 4966SOL    HW115797   3.442   5.378   4.289
 4966SOL    HW215798   3.360   5.499   4.218
 4967SOL     OW15799   4.882   2.252   6.085
 4967SOL    HW115800   4.935   2.335   6.103
 4967SOL    HW215801   4.859   2.248   5.987
 4968SOL     OW15802   5.746   3.976   5.800
 4968SOL    HW115803   5.761   4.049   5.867
 4968SOL    HW215804   5.668   3.999   5.742
 4969SOL     OW15805   0.209   2.004   1.416
 4969SOL    HW115806   0.265   1.942   1.471
 4969SOL    HW215807   0.229   1.989   1.319
 4970SOL     OW15808   1.140   2.876   5.848
 4970SOL    HW115809   1.053   2.897   5.802
 4970SOL    HW215810   1.177   2.791   5.812
 4971SOL     OW15811   6.954   5.715   3.670
 4971SOL    HW115812   7.009   5.638   3.704
 4971SOL    HW215813   6.881   5.681   3.612
 4972SOL     OW15814   1.662   2.010   5.502
 4972SOL    HW115815   1.740   2.005   5.564
 4972SOL    HW215816   1.691   1.983   5.410
 4973SOL     OW15817   5.901   5.871   3.261
 4973SOL    HW115818   5.830   5.825   3.207
 4973SOL    HW215819   5.905   5.968   3.235
 4974SOL     OW15820   4.314   6.657   1.736
 4974SOL    HW115821   4.310   6.725   1.662
 4974SOL    HW215822   4.348   6.701   1.819
 4975SOL     OW15823   5.329   6.038   6.838
 4975SOL    HW115824   5.349   6.136   6.839
 4975SOL    HW215825   5.355   5.997   6.925
 4976SOL     OW15826   3.423   0.769   4.500
 4976SOL    HW115827   3.386   0.736   4.413
 4976SOL    HW215828   3.521   0.787   4.489
 4977SOL     OW15829   3.479   3.740   6.973
 4977SOL    HW115830   3.472   3.641   6.970
 4977SOL    HW215831   3.519   3.768   0.036
 4978SOL     OW15832   6.334   3.296   6.193
 4978SOL    HW115833   6.385   3.345   6.123
 4978SOL    HW215834   6.240   3.329   6.195
 4979SOL     OW15835   1.010   2.704   4.126
 4979SOL    HW115836   1.057   2.685   4.212
 4979SOL    HW215837   1.014   2.802   4.106
 4980SOL     OW15838   3.132   5.508   3.285
 4980SOL    HW115839   3.035   5.491   3.300
 4980SOL    HW215840   3.186   5.458   3.353
 4981SOL     OW15841   5.367   6.467   5.671
 4981SOL    HW115842   5.301   6.428   5.735
 4981SOL    HW215843   5.427   6.531   5.720
 4982SOL     OW15844   2.398   2.372   6.952
 4982SOL    HW115845   2.437   2.288   6.990
 4982SOL    HW215846   2.462   2.448   6.965
 4983SOL     OW15847   5.405   3.075   4.824
 4983SOL    HW115848   5.502   3.052   4.828
 4983SOL    HW215849   5.352   2.992   4.805
 4984SOL     OW15850   4.700   4.186   2.530
 4984SOL    HW115851   4.672   4.233   2.613
 4984SOL    HW215852   4.725   4.092   2.552
 4985SOL     OW15853   5.447   4.147   2.783
 4985SOL    HW115854   5.432   4.128   2.880
 4985SOL    HW215855   5.434   4.245   2.767
 4986SOL     OW15856   4.683   4.521   2.659
 4986SOL    HW115857   4.644   4.595   2.714
 4986SOL    HW215858   4.680   4.436   2.710
 4987SOL     OW15859   0.197   3.989   1.301
 4987SOL    HW115860   0.192   4.062   1.369
 4987SOL    HW215861   0.107   3.976   1.260
 4988SOL     OW15862   0.856   2.178   5.381
 4988SOL    HW115863   0.815   2.095   5.418
 4988SOL    HW215864   0.881   2.239   5.456
 4989SOL     OW15865   0.167   1.097   0.243
 4989SOL    HW115866   0.107   1.131   0.315
 4989SOL    HW215867   0.149   1.001   0.226
 4990SOL     OW15868   0.370   1.873   6.167
 4990SOL    HW115869   0.294   1.866   6.231
 4990SOL    HW215870   0.453   1.837   6.211
 4991SOL     OW15871   2.263   2.067   4.829
 4991SOL    HW115872   2.228   2.040   4.740
 4991SOL    HW215873   2.302   2.159   4.823
 4992SOL     OW15874   4.007   0.512   4.641
 4992SOL    HW115875   4.103   0.516   4.615
 4992SOL    HW215876   3.968   0.426   4.610
 4993SOL     OW15877   2.291   6.140   3.984
 4993SOL    HW115878   2.320   6.192   3.903
 4993SOL    HW215879   2.219   6.190   4.032
 4994SOL     OW15880   0.399   6.530   2.282
 4994SOL    HW115881   0.486   6.506   2.238
 4994SOL    HW215882   0.396   6.628   2.300
 4995SOL     OW15883   6.504   2.708   5.673
 4995SOL    HW115884   6.592   2.690   5.629
 4995SOL    HW215885   6.496   2.806   5.692
 4996SOL     OW15886   0.291   1.293   4.004
 4996SOL    HW115887   0.383   1.333   4.010
 4996SOL    HW215888   0.233   1.331   4.076
 4997SOL     OW15889   0.367   2.298   3.925
 4997SOL    HW115890   0.436   2.369   3.913
 4997SOL    HW215891   0.327   2.276   3.836
 4998SOL     OW15892   1.119   5.487   4.973
 4998SOL    HW115893   1.106   5.586   4.979
 4998SOL    HW215894   1.211   5.464   5.003
 4999SOL     OW15895   5.796   4.486   0.894
 4999SOL    HW115896   5.786   4.445   0.985
 4999SOL    HW215897   5.789   4.415   0.824
 5000SOL     OW15898   6.767   5.748   4.073
 5000SOL    HW115899   6.681   5.723   4.119
 5000SOL    HW215900   6.842   5.739   4.138
 5001SOL     OW15901   4.619   4.361   5.047
 5001SOL    HW115902   4.551   4.431   5.068
 5001SOL    HW215903   4.599   4.321   4.958
 5002SOL     OW15904   2.107   2.187   1.457
 5002SOL    HW115905   2.067   2.137   1.380
 5002SOL    HW215906   2.074   2.148   1.543
 5003SOL     OW15907   6.822   5.157   3.656
 5003SOL    HW115908   6.877   5.152   3.572
 5003SOL    HW215909   6.848   5.237   3.709
 5004SOL     OW15910   2.663   4.677   6.695
 5004SOL    HW115911   2.743   4.623   6.669
 5004SOL    HW215912   2.640   4.740   6.620
 5005SOL     OW15913   4.008   2.370   0.031
 5005SOL    HW115914   4.100   2.331   0.032
 5005SOL    HW215915   4.002   2.442   0.099
 5006SOL     OW15916   5.815   4.479   3.147
 5006SOL    HW115917   5.774   4.430   3.224
 5006SOL    HW215918   5.832   4.574   3.173
 5007SOL     OW15919   4.206   1.095   5.049
 5007SOL    HW115920   4.216   1.193   5.032
 5007SOL    HW215921   4.169   1.081   5.141
 5008SOL     OW15922   6.598   0.933   4.241
 5008SOL    HW115923   6.693   0.905   4.228
 5008SOL    HW215924   6.567   0.905   4.332
 5009SOL     OW15925   1.468   6.280   3.043
 5009SOL    HW115926   1.395   6.254   3.106
 5009SOL    HW215927   1.555   6.279   3.091
 5010SOL     OW15928   3.340   2.927   4.543
 5010SOL    HW115929   3.420   2.944   4.485
 5010SOL    HW215930   3.367   2.875   4.624
 5011SOL     OW15931   0.925   3.059   3.379
 5011SOL    HW115932   0.948   2.964   3.358
 5011SOL    HW215933   0.864   3.094   3.307
 5012SOL     OW15934   5.668   3.462   0.259
 5012SOL    HW115935   5.654   3.364   0.266
 5012SOL    HW215936   5.724   3.494   0.335
 5013SOL     OW15937   5.005   1.949   5.706
 5013SOL    HW115938   5.065   1.884   5.658
 5013SOL    HW215939   5.042   2.041   5.696
 5014SOL     OW15940   5.893   6.496   0.101
 5014SOL    HW115941   5.836   6.418   0.127
 5014SOL    HW215942   5.849   6.581   0.130
 5015SOL     OW15943   5.418   2.344   3.520
 5015SOL    HW115944   5.432   2.443   3.511
 5015SOL    HW215945   5.407   2.304   3.429
 5016SOL     OW15946   2.208   0.063   1.961
 5016SOL    HW115947   2.234   0.026   1.872
 5016SOL    HW215948   2.138   0.004   2.002
 5017SOL     OW15949   2.458   2.293   1.608
 5017SOL    HW115950   2.492   2.374   1.656
 5017SOL    HW215951   2.385   2.319   1.546
 5018SOL     OW15952   6.582   5.366   4.118
 5018SOL    HW115953   6.559   5.413   4.033
 5018SOL    HW215954   6.524   5.284   4.127
 5019SOL     OW15955   3.147   5.440   6.170
 5019SOL    HW115956   3.200   5.365   6.208
 5019SOL    HW215957   3.097   5.409   6.089
 5020SOL     OW15958   4.894   5.209   6.344
 5020SOL    HW115959   4.896   5.309   6.350
 5020SOL    HW215960   4.973   5.171   6.392
 5021SOL     OW15961   2.522   4.797   5.519
 5021SOL    HW115962   2.487   4.737   5.447
 5021SOL    HW215963   2.519   4.892   5.488
 5022SOL     OW15964   1.457   4.680   0.380
 5022SOL    HW115965   1.449   4.729   0.467
 5022SOL    HW215966   1.493   4.743   0.310
 5023SOL     OW15967   6.669   2.559   3.328
 5023SOL    HW115968   6.578   2.600   3.329
 5023SOL    HW215969   6.707   2.558   3.421
 5024SOL     OW15970   5.794   3.446   5.668
 5024SOL    HW115971   5.871   3.478   5.724
 5024SOL    HW215972   5.795   3.346   5.664
 5025SOL     OW15973   6.320   1.190   3.295
 5025SOL    HW115974   6.263   1.109   3.306
 5025SOL    HW215975   6.348   1.224   3.385
 5026SOL     OW15976   0.640   5.908   2.877
 5026SOL    HW115977   0.726   5.947   2.843
 5026SOL    HW215978   0.634   5.920   2.976
 5027SOL     OW15979   0.612   6.549   3.724
 5027SOL    HW115980   0.583   6.620   3.660
 5027SOL    HW215981   0.619   6.461   3.676
 5028SOL     OW15982   1.291   0.498   2.667
 5028SOL    HW115983   1.274   0.408   2.628
 5028SOL    HW215984   1.218   0.561   2.640
 5029SOL     OW15985   0.417   1.119   3.042
 5029SOL    HW115986   0.398   1.025   3.015
 5029SOL    HW215987   0.407   1.127   3.142
 5030SOL     OW15988   1.979   5.441   6.961
 5030SOL    HW115989   1.898   5.494   6.937
 5030SOL    HW215990   1.983   5.358   6.905
 5031SOL     OW15991   5.775   0.972   5.506
 5031SOL    HW115992   5.869   1.005   5.495
 5031SOL    HW215993   5.739   1.001   5.594
 5032SOL     OW15994   0.822   6.170   1.453
 5032SOL    HW115995   0.909   6.219   1.444
 5032SOL    HW215996   0.771   6.206   1.531
 5033SOL     OW15997   0.117   4.231   5.605
 5033SOL    HW115998   0.175   4.312   5.604
 5033SOL    HW215999   0.054   4.234   5.527
 5034SOL     OW16000   6.981   3.840   6.629
 5034SOL    HW116001   6.976   3.762   6.566
 5034SOL    HW216002   7.005   3.807   6.721
 5035SOL     OW16003   5.729   4.523   1.318
 5035SOL    HW116004   5.632   4.505   1.302
 5035SOL    HW216005   5.764   4.460   1.387
 5036SOL     OW16006   1.830   0.772   2.483
 5036SOL    HW116007   1.838   0.700   2.552
 5036SOL    HW216008   1.816   0.860   2.528
 5037SOL     OW16009   4.713   2.588   2.673
 5037SOL    HW116010   4.740   2.656   2.741
 5037SOL    HW216011   4.642   2.529   2.712
 5038SOL     OW16012   2.853   6.064   5.290
 5038SOL    HW116013   2.779   6.085   5.227
 5038SOL    HW216014   2.876   6.146   5.343
 5039SOL     OW16015   1.372   1.720   3.503
 5039SOL    HW116016   1.419   1.806   3.485
 5039SOL    HW216017   1.434   1.657   3.550
 5040SOL     OW16018   2.711   3.697   6.026
 5040SOL    HW116019   2.787   3.763   6.031
 5040SOL    HW216020   2.652   3.721   5.949
 5041SOL     OW16021   0.676   5.584   0.570
 5041SOL    HW116022   0.668   5.678   0.539
 5041SOL    HW216023   0.755   5.574   0.629
 5042SOL     OW16024   6.346   1.877   6.006
 5042SOL    HW116025   6.294   1.963   6.007
 5042SOL    HW216026   6.344   1.836   6.097
 5043SOL     OW16027   5.076   0.448   3.364
 5043SOL    HW116028   5.062   0.353   3.335
 5043SOL    HW216029   5.011   0.507   3.317
 5044SOL     OW16030   5.407   4.432   2.736
 5044SOL    HW116031   5.337   4.491   2.694
 5044SOL    HW216032   5.398   4.436   2.836
 5045SOL     OW16033   5.974   3.372   6.186
 5045SOL    HW116034   5.916   3.443   6.148
 5045SOL    HW216035   5.955   3.285   6.140
 5046SOL     OW16036   3.434   2.850   4.807
 5046SOL    HW116037   3.529   2.866   4.779
 5046SOL    HW216038   3.432   2.794   4.889
 5047SOL     OW16039   1.145   1.388   2.372
 5047SOL    HW116040   1.089   1.455   2.421
 5047SOL    HW216041   1.112   1.296   2.392
 5048SOL     OW16042   5.932   3.677   1.613
 5048SOL    HW116043   6.011   3.657   1.672
 5048SOL    HW216044   5.873   3.596   1.609
 5049SOL     OW16045   1.283   1.993   1.710
 5049SOL    HW116046   1.245   1.901   1.723
 5049SOL    HW216047   1.298   2.036   1.799
 5050SOL     OW16048   0.947   3.456   0.644
 5050SOL    HW116049   1.039   3.494   0.653
 5050SOL    HW216050   0.882   3.517   0.690
 5051SOL     OW16051   1.925   3.772   0.428
 5051SOL    HW116052   1.959   3.850   0.480
 5051SOL    HW216053   1.850   3.801   0.368
 5052SOL     OW16054   5.466   3.609   0.735
 5052SOL    HW116055   5.530   3.685   0.717
 5052SOL    HW216056   5.489   3.532   0.677
 5053SOL     OW16057   2.224   4.262   0.596
 5053SOL    HW116058   2.154   4.278   0.526
 5053SOL    HW216059   2.183   4.267   0.687
 5054SOL     OW16060   3.809   6.057   4.681
 5054SOL    HW116061   3.793   6.122   4.756
 5054SOL    HW216062   3.726   6.047   4.627
 5055SOL     OW16063   1.703   1.773   3.664
 5055SOL    HW116064   1.794   1.805   3.692
 5055SOL    HW216065   1.712   1.725   3.576
 5056SOL     OW16066   2.881   2.234   5.102
 5056SOL    HW116067   2.980   2.251   5.101
 5056SOL    HW216068   2.843   2.261   5.013
 5057SOL     OW16069   0.340   4.383   2.904
 5057SOL    HW116070   0.250   4.417   2.876
 5057SOL    HW216071   0.379   4.443   2.973
 5058SOL     OW16072   3.454   3.130   0.453
 5058SOL    HW116073   3.424   3.045   0.497
 5058SOL    HW216074   3.501   3.108   0.367
 5059SOL     OW16075   4.472   1.657   3.100
 5059SOL    HW116076   4.568   1.640   3.119
 5059SOL    HW216077   4.435   1.582   3.045
 5060SOL     OW16078   0.284   3.338   5.314
 5060SOL    HW116079   0.227   3.255   5.316
 5060SOL    HW216080   0.240   3.407   5.257
 5061SOL     OW16081   3.813   1.905   5.325
 5061SOL    HW116082   3.720   1.918   5.358
 5061SOL    HW216083   3.873   1.881   5.401
 5062SOL     OW16084   5.350   0.890   3.613
 5062SOL    HW116085   5.260   0.912   3.578
 5062SOL    HW216086   5.416   0.885   3.538
 5063SOL     OW16087   0.975   1.535   1.618
 5063SOL    HW116088   1.003   1.487   1.535
 5063SOL    HW216089   0.976   1.634   1.602
 5064SOL     OW16090   4.792   5.144   0.894
 5064SOL    HW116091   4.856   5.192   0.953
 5064SOL    HW216092   4.840   5.114   0.811
 5065SOL     OW16093   2.342   1.008   2.122
 5065SOL    HW116094   2.357   0.996   2.024
 5065SOL    HW216095   2.331   0.918   2.165
 5066SOL     OW16096   1.948   4.702   2.552
 5066SOL    HW116097   1.968   4.609   2.582
 5066SOL    HW216098   2.033   4.755   2.551
 5067SOL     OW16099   5.920   2.599   1.057
 5067SOL    HW116100   5.860   2.525   1.088
 5067SOL    HW216101   5.866   2.681   1.041
 5068SOL     OW16102   2.318   5.819   0.759
 5068SOL    HW116103   2.226   5.856   0.746
 5068SOL    HW216104   2.317   5.750   0.831
 5069SOL     OW16105   4.008   5.045   5.281
 5069SOL    HW116106   4.003   5.035   5.380
 5069SOL    HW216107   3.916   5.065   5.245
 5070SOL     OW16108   5.866   3.926   4.905
 5070SOL    HW116109   5.904   4.002   4.852
 5070SOL    HW216110   5.781   3.954   4.948
 5071SOL     OW16111   3.087   6.677   3.442
 5071SOL    HW116112   3.137   6.749   3.394
 5071SOL    HW216113   3.038   6.620   3.376
 5072SOL     OW16114   0.791   1.581   1.360
 5072SOL    HW116115   0.822   1.663   1.408
 5072SOL    HW216116   0.867   1.516   1.354
 5073SOL     OW16117   2.504   1.239   3.224
 5073SOL    HW116118   2.578   1.294   3.262
 5073SOL    HW216119   2.416   1.283   3.244
 5074SOL     OW16120   3.526   2.175   1.744
 5074SOL    HW116121   3.598   2.228   1.790
 5074SOL    HW216122   3.442   2.228   1.743
 5075SOL     OW16123   6.893   3.408   0.296
 5075SOL    HW116124   6.814   3.376   0.349
 5075SOL    HW216125   6.915   3.501   0.322
 5076SOL     OW16126   0.136   0.079   6.161
 5076SOL    HW116127   0.181   0.001   6.119
 5076SOL    HW216128   0.166   0.163   6.117
 5077SOL     OW16129   0.800   4.348   4.009
 5077SOL    HW116130   0.706   4.346   4.044
 5077SOL    HW216131   0.798   4.343   3.909
 5078SOL     OW16132   0.187   1.720   3.674
 5078SOL    HW116133   0.157   1.765   3.758
 5078SOL    HW216134   0.285   1.733   3.662
 5079SOL     OW16135   1.842   3.182   5.472
 5079SOL    HW116136   1.766   3.219   5.420
 5079SOL    HW216137   1.815   3.170   5.567
 5080SOL     OW16138   5.860   5.721   0.419
 5080SOL    HW116139   5.854   5.719   0.518
 5080SOL    HW216140   5.805   5.647   0.380
 5081SOL     OW16141   2.253   5.105   5.348
 5081SOL    HW116142   2.186   5.120   5.421
 5081SOL    HW216143   2.217   5.039   5.282
 5082SOL     OW16144   5.411   5.648   1.137
 5082SOL    HW116145   5.439   5.595   1.217
 5082SOL    HW216146   5.417   5.590   1.056
 5083SOL     OW16147   2.162   0.222   3.831
 5083SOL    HW116148   2.206   0.175   3.755
 5083SOL    HW216149   2.223   0.221   3.910
 5084SOL     OW16150   2.746   4.136   5.572
 5084SOL    HW116151   2.693   4.053   5.552
 5084SOL    HW216152   2.810   4.153   5.498
 5085SOL     OW16153   0.318   4.576   4.978
 5085SOL    HW116154   0.310   4.501   5.044
 5085SOL    HW216155   0.253   4.561   4.903
 5086SOL     OW16156   1.968   5.541   1.587
 5086SOL    HW116157   1.921   5.454   1.604
 5086SOL    HW216158   2.057   5.523   1.546
 5087SOL     OW16159   6.489   4.365   2.490
 5087SOL    HW116160   6.473   4.357   2.392
 5087SOL    HW216161   6.528   4.281   2.525
 5088SOL     OW16162   5.003   5.773   2.123
 5088SOL    HW116163   5.032   5.792   2.217
 5088SOL    HW216164   5.021   5.853   2.066
 5089SOL     OW16165   5.412   5.675   5.697
 5089SOL    HW116166   5.503   5.657   5.734
 5089SOL    HW216167   5.390   5.606   5.628
 5090SOL     OW16168   2.712   6.608   4.742
 5090SOL    HW116169   2.792   6.576   4.793
 5090SOL    HW216170   2.632   6.606   4.802
 5091SOL     OW16171   6.891   6.429   6.204
 5091SOL    HW116172   6.963   6.374   6.161
 5091SOL    HW216173   6.926   6.521   6.223
 5092SOL     OW16174   3.536   3.260   4.239
 5092SOL    HW116175   3.634   3.247   4.253
 5092SOL    HW216176   3.520   3.340   4.182
 5093SOL     OW16177   3.013   2.177   2.601
 5093SOL    HW116178   2.977   2.088   2.573
 5093SOL    HW216179   2.975   2.249   2.542
 5094SOL     OW16180   1.338   6.224   4.784
 5094SOL    HW116181   1.263   6.214   4.718
 5094SOL    HW216182   1.357   6.321   4.798
 5095SOL     OW16183   6.634   1.007   2.925
 5095SOL    HW116184   6.640   1.026   2.827
 5095SOL    HW216185   6.557   1.058   2.964
 5096SOL     OW16186   5.917   3.322   5.088
 5096SOL    HW116187   5.836   3.380   5.092
 5096SOL    HW216188   5.890   3.226   5.080
 5097SOL     OW16189   1.449   0.518   5.995
 5097SOL    HW116190   1.439   0.521   6.094
 5097SOL    HW216191   1.498   0.434   5.969
 5098SOL     OW16192   3.525   3.371   0.580
 5098SOL    HW116193   3.511   3.277   0.551
 5098SOL    HW216194   3.505   3.433   0.504
 5099SOL     OW16195   1.774   6.799   2.248
 5099SOL    HW116196   1.830   6.830   2.171
 5099SOL    HW216197   1.684   6.842   2.243
 5100SOL     OW16198   4.911   3.649   2.053
 5100SOL    HW116199   4.898   3.693   2.143
 5100SOL    HW216200   4.987   3.584   2.059
 5101SOL     OW16201   3.438   0.200   5.860
 5101SOL    HW116202   3.491   0.210   5.944
 5101SOL    HW216203   3.399   0.288   5.834
 5102SOL     OW16204   5.482   5.282   4.217
 5102SOL    HW116205   5.448   5.338   4.141
 5102SOL    HW216206   5.419   5.205   4.232
 5103SOL     OW16207   1.394   0.878   6.614
 5103SOL    HW116208   1.314   0.936   6.600
 5103SOL    HW216209   1.475   0.935   6.627
 5104SOL     OW16210   3.981   3.574   2.158
 5104SOL    HW116211   3.886   3.541   2.160
 5104SOL    HW216212   4.004   3.614   2.247
 5105SOL     OW16213   4.371   3.041   6.583
 5105SOL    HW116214   4.286   3.082   6.616
 5105SOL    HW216215   4.397   2.966   6.644
 5106SOL     OW16216   4.183   2.535   1.214
 5106SOL    HW116217   4.173   2.487   1.127
 5106SOL    HW216218   4.280   2.544   1.237
 5107SOL     OW16219   5.357   4.328   0.495
 5107SOL    HW116220   5.398   4.417   0.514
 5107SOL    HW216221   5.344   4.318   0.396
 5108SOL     OW16222   3.860   4.765   0.477
 5108SOL    HW116223   3.810   4.845   0.509
 5108SOL    HW216224   3.951   4.763   0.520
 5109SOL     OW16225   1.022   2.708   1.624
 5109SOL    HW116226   1.074   2.776   1.676
 5109SOL    HW216227   1.082   2.634   1.594
 5110SOL     OW16228   5.022   0.215   5.724
 5110SOL    HW116229   5.037   0.142   5.791
 5110SOL    HW216230   5.092   0.285   5.735
 5111SOL     OW16231   0.856   5.435   5.095
 5111SOL    HW116232   0.850   5.411   4.998
 5111SOL    HW216233   0.952   5.444   5.120
 5112SOL     OW16234   0.387   6.834   2.893
 5112SOL    HW116235   0.326   6.914   2.899
 5112SOL    HW216236   0.336   6.751   2.915
 5113SOL     OW16237   1.738   4.097   0.159
 5113SOL    HW116238   1.650   4.142   0.145
 5113SOL    HW216239   1.783   4.085   0.071
 5114SOL     OW16240   4.170   4.536   1.770
 5114SOL    HW116241   4.268   4.515   1.767
 5114SOL    HW216242   4.157   4.635   1.759
 5115SOL     OW16243   2.274   3.563   0.955
 5115SOL    HW116244   2.183   3.559   0.916
 5115SOL    HW216245   2.335   3.612   0.893
 5116SOL     OW16246   1.114   0.196   5.705
 5116SOL    HW116247   1.213   0.198   5.697
 5116SOL    HW216248   1.073   0.228   5.619
 5117SOL     OW16249   0.293   2.170   3.379
 5117SOL    HW116250   0.219   2.133   3.435
 5117SOL    HW216251   0.293   2.126   3.289
 5118SOL     OW16252   4.107   5.299   6.961
 5118SOL    HW116253   4.130   5.300   0.034
 5118SOL    HW216254   4.035   5.231   6.945
 5119SOL     OW16255   5.753   1.000   0.474
 5119SOL    HW116256   5.850   1.020   0.458
 5119SOL    HW216257   5.744   0.944   0.556
 5120SOL     OW16258   5.006   6.764   6.724
 5120SOL    HW116259   5.057   6.740   6.642
 5120SOL    HW216260   5.054   6.729   6.805
 5121SOL     OW16261   1.238   3.132   5.957
 5121SOL    HW116262   1.303   3.152   5.885
 5121SOL    HW216263   1.186   3.050   5.933
 5122SOL     OW16264   4.798   4.821   4.146
 5122SOL    HW116265   4.751   4.807   4.059
 5122SOL    HW216266   4.751   4.892   4.198
 5123SOL     OW16267   4.890   2.879   1.833
 5123SOL    HW116268   4.844   2.911   1.916
 5123SOL    HW216269   4.940   2.954   1.792
 5124SOL     OW16270   1.797   6.312   5.409
 5124SOL    HW116271   1.708   6.356   5.398
 5124SOL    HW216272   1.804   6.234   5.346
 5125SOL     OW16273   6.342   1.739   3.395
 5125SOL    HW116274   6.384   1.751   3.306
 5125SOL    HW216275   6.243   1.733   3.385
 5126SOL     OW16276   1.874   0.694   1.717
 5126SOL    HW116277   1.807   0.760   1.753
 5126SOL    HW216278   1.826   0.618   1.674
 5127SOL     OW16279   2.459   5.685   0.209
 5127SOL    HW116280   2.367   5.646   0.200
 5127SOL    HW216281   2.507   5.678   0.122
 5128SOL     OW16282   6.106   0.235   2.275
 5128SOL    HW116283   6.139   0.279   2.359
 5128SOL    HW216284   6.084   0.304   2.207
 5129SOL     OW16285   6.579   6.940   0.366
 5129SOL    HW116286   6.576   6.858   0.424
 5129SOL    HW216287   6.675   6.965   0.351
 5130SOL     OW16288   6.403   4.598   3.170
 5130SOL    HW116289   6.468   4.637   3.236
 5130SOL    HW216290   6.417   4.499   3.165
 5131SOL     OW16291   2.571   2.515   2.787
 5131SOL    HW116292   2.581   2.535   2.884
 5131SOL    HW216293   2.504   2.577   2.746
 5132SOL     OW16294   3.039   6.069   5.019
 5132SOL    HW116295   3.040   5.995   4.952
 5132SOL    HW216296   2.945   6.084   5.050
 5133SOL     OW16297   3.716   6.420   5.402
 5133SOL    HW116298   3.623   6.408   5.435
 5133SOL    HW216299   3.746   6.338   5.354
 5134SOL     OW16300   6.323   4.720   6.342
 5134SOL    HW116301   6.283   4.744   6.430
 5134SOL    HW216302   6.360   4.627   6.346
 5135SOL     OW16303   5.582   1.728   4.090
 5135SOL    HW116304   5.656   1.770   4.038
 5135SOL    HW216305   5.521   1.799   4.125
 5136SOL     OW16306   3.721   1.332   4.811
 5136SOL    HW116307   3.739   1.377   4.899
 5136SOL    HW216308   3.693   1.237   4.828
 5137SOL     OW16309   3.598   3.917   6.571
 5137SOL    HW116310   3.626   3.914   6.667
 5137SOL    HW216311   3.572   3.826   6.541
 5138SOL     OW16312   2.556   3.037   5.885
 5138SOL    HW116313   2.503   3.029   5.801
 5138SOL    HW216314   2.494   3.052   5.962
 5139SOL     OW16315   0.550   0.306   4.080
 5139SOL    HW116316   0.513   0.280   4.169
 5139SOL    HW216317   0.482   0.288   4.009
 5140SOL     OW16318   3.478   2.924   1.693
 5140SOL    HW116319   3.515   3.017   1.692
 5140SOL    HW216320   3.443   2.902   1.784
 5141SOL     OW16321   0.033   3.643   5.367
 5141SOL    HW116322   7.023   3.585   5.292
 5141SOL    HW216323   0.101   3.591   5.419
 5142SOL     OW16324   5.737   3.269   3.508
 5142SOL    HW116325   5.685   3.332   3.566
 5142SOL    HW216326   5.676   3.198   3.473
 5143SOL     OW16327   7.002   5.397   4.787
 5143SOL    HW116328   6.917   5.344   4.789
 5143SOL    HW216329   6.982   5.494   4.794
 5144SOL     OW16330   2.094   0.978   4.703
 5144SOL    HW116331   2.014   1.015   4.751
 5144SOL    HW216332   2.126   1.046   4.636
 5145SOL     OW16333   3.427   6.112   5.638
 5145SOL    HW116334   3.496   6.053   5.681
 5145SOL    HW216335   3.347   6.057   5.614
 5146SOL     OW16336   2.674   4.733   0.373
 5146SOL    HW116337   2.740   4.767   0.439
 5146SOL    HW216338   2.615   4.665   0.416
 5147SOL     OW16339   6.513   4.995   6.883
 5147SOL    HW116340   6.517   5.073   6.820
 5147SOL    HW216341   6.544   5.024   6.973
 5148SOL     OW16342   0.496   6.606   1.873
 5148SOL    HW116343   0.456   6.520   1.905
 5148SOL    HW216344   0.550   6.647   1.946
 5149SOL     OW16345   6.595   1.090   6.011
 5149SOL    HW116346   6.667   1.158   5.997
 5149SOL    HW216347   6.579   1.040   5.926
 5150SOL     OW16348   1.528   4.936   3.898
 5150SOL    HW116349   1.506   5.026   3.935
 5150SOL    HW216350   1.623   4.913   3.919
 5151SOL     OW16351   5.133   0.991   6.313
 5151SOL    HW116352   5.082   1.044   6.380
 5151SOL    HW216353   5.081   0.909   6.288
 5152SOL     OW16354   0.850   5.244   0.545
 5152SOL    HW116355   0.795   5.285   0.472
 5152SOL    HW216356   0.811   5.156   0.571
 5153SOL     OW16357   1.926   1.822   0.829
 5153SOL    HW116358   1.896   1.895   0.891
 5153SOL    HW216359   1.856   1.807   0.760
 5154SOL     OW16360   1.927   3.425   4.943
 5154SOL    HW116361   1.999   3.432   4.874
 5154SOL    HW216362   1.887   3.333   4.940
 5155SOL     OW16363   3.464   0.842   2.106
 5155SOL    HW116364   3.539   0.775   2.100
 5155SOL    HW216365   3.492   0.917   2.166
 5156SOL     OW16366   6.040   2.970   5.618
 5156SOL    HW116367   6.075   2.903   5.683
 5156SOL    HW216368   6.111   3.036   5.595
 5157SOL     OW16369   6.016   2.581   4.252
 5157SOL    HW116370   6.032   2.484   4.239
 5157SOL    HW216371   5.923   2.604   4.223
 5158SOL     OW16372   4.089   1.026   0.739
 5158SOL    HW116373   4.106   0.927   0.745
 5158SOL    HW216374   4.002   1.047   0.782
 5159SOL     OW16375   1.531   2.938   4.813
 5159SOL    HW116376   1.601   2.899   4.873
 5159SOL    HW216377   1.548   2.911   4.719
 5160SOL     OW16378   1.899   2.943   4.186
 5160SOL    HW116379   1.897   3.010   4.112
 5160SOL    HW216380   1.895   2.990   4.274
 5161SOL     OW16381   1.324   3.512   6.121
 5161SOL    HW116382   1.266   3.434   6.144
 5161SOL    HW216383   1.420   3.490   6.142
 5162SOL     OW16384   6.120   5.752   4.654
 5162SOL    HW116385   6.083   5.785   4.741
 5162SOL    HW216386   6.205   5.801   4.634
 5163SOL     OW16387   5.134   3.815   1.130
 5163SOL    HW116388   5.132   3.808   1.230
 5163SOL    HW216389   5.212   3.872   1.103
 5164SOL     OW16390   6.174   5.276   5.620
 5164SOL    HW116391   6.112   5.255   5.544
 5164SOL    HW216392   6.170   5.373   5.642
 5165SOL     OW16393   6.214   3.853   4.236
 5165SOL    HW116394   6.164   3.916   4.177
 5165SOL    HW216395   6.310   3.851   4.209
 5166SOL     OW16396   1.484   0.399   1.787
 5166SOL    HW116397   1.512   0.437   1.699
 5166SOL    HW216398   1.499   0.468   1.859
 5167SOL     OW16399   1.353   0.059   5.477
 5167SOL    HW116400   1.377   6.993   5.441
 5167SOL    HW216401   1.385   0.067   5.571
 5168SOL     OW16402   3.677   2.091   3.071
 5168SOL    HW116403   3.740   2.126   3.141
 5168SOL    HW216404   3.605   2.037   3.116
 5169SOL     OW16405   4.024   4.132   6.476
 5169SOL    HW116406   4.080   4.055   6.444
 5169SOL    HW216407   3.979   4.106   6.561
 5170SOL     OW16408   4.754   4.693   4.539
 5170SOL    HW116409   4.708   4.689   4.451
 5170SOL    HW216410   4.702   4.752   4.601
 5171SOL     OW16411   2.696   4.726   4.839
 5171SOL    HW116412   2.747   4.748   4.757
 5171SOL    HW216413   2.758   4.693   4.910
 5172SOL     OW16414   1.951   4.654   0.243
 5172SOL    HW116415   1.935   4.564   0.202
 5172SOL    HW216416   1.935   4.650   0.341
 5173SOL     OW16417   6.384   3.700   5.878
 5173SOL    HW116418   6.295   3.667   5.909
 5173SOL    HW216419   6.401   3.791   5.916
 5174SOL     OW16420   1.809   4.413   5.962
 5174SOL    HW116421   1.873   4.453   6.028
 5174SOL    HW216422   1.801   4.315   5.979
 5175SOL     OW16423   0.486   5.377   6.326
 5175SOL    HW116424   0.403   5.433   6.320
 5175SOL    HW216425   0.461   5.282   6.347
 5176SOL     OW16426   5.406   3.782   6.695
 5176SOL    HW116427   5.433   3.867   6.740
 5176SOL    HW216428   5.317   3.794   6.651
 5177SOL     OW16429   5.253   6.419   6.698
 5177SOL    HW116430   5.160   6.390   6.676
 5177SOL    HW216431   5.313   6.402   6.619
 5178SOL     OW16432   2.942   2.136   1.494
 5178SOL    HW116433   2.908   2.208   1.434
 5178SOL    HW216434   2.985   2.064   1.439
 5179SOL     OW16435   3.248   6.053   5.198
 5179SOL    HW116436   3.239   6.121   5.271
 5179SOL    HW216437   3.179   6.068   5.128
 5180SOL     OW16438   3.087   2.518   0.311
 5180SOL    HW116439   3.002   2.535   0.361
 5180SOL    HW216440   3.113   2.422   0.322
 5181SOL     OW16441   2.940   5.650   2.335
 5181SOL    HW116442   2.951   5.566   2.282
 5181SOL    HW216443   3.022   5.666   2.389
 5182SOL     OW16444   4.514   4.330   1.486
 5182SOL    HW116445   4.450   4.295   1.555
 5182SOL    HW216446   4.592   4.373   1.531
 5183SOL     OW16447   3.932   0.892   2.828
 5183SOL    HW116448   3.866   0.923   2.896
 5183SOL    HW216449   3.911   0.933   2.739
 5184SOL     OW16450   1.143   1.985   3.055
 5184SOL    HW116451   1.063   2.023   3.101
 5184SOL    HW216452   1.117   1.950   2.965
 5185SOL     OW16453   3.542   0.551   2.102
 5185SOL    HW116454   3.496   0.462   2.096
 5185SOL    HW216455   3.572   0.566   2.196
 5186SOL     OW16456   5.830   4.510   0.075
 5186SOL    HW116457   5.881   4.567   0.139
 5186SOL    HW216458   5.875   4.513   7.010
 5187SOL     OW16459   5.076   2.187   4.417
 5187SOL    HW116460   5.042   2.097   4.390
 5187SOL    HW216461   5.000   2.243   4.451
 5188SOL     OW16462   0.942   3.227   4.634
 5188SOL    HW116463   0.972   3.131   4.635
 5188SOL    HW216464   0.881   3.243   4.712
 5189SOL     OW16465   4.296   5.170   6.464
 5189SOL    HW116466   4.263   5.192   6.556
 5189SOL    HW216467   4.391   5.200   6.454
 5190SOL     OW16468   1.940   2.321   3.423
 5190SOL    HW116469   2.012   2.390   3.407
 5190SOL    HW216470   1.892   2.303   3.338
 5191SOL     OW16471   4.280   0.612   2.317
 5191SOL    HW116472   4.199   0.670   2.308
 5191SOL    HW216473   4.361   0.663   2.287
 5192SOL     OW16474   5.962   4.585   2.140
 5192SOL    HW116475   5.929   4.530   2.216
 5192SOL    HW216476   5.892   4.652   2.115
 5193SOL     OW16477   4.838   3.788   2.272
 5193SOL    HW116478   4.760   3.850   2.279
 5193SOL    HW216479   4.893   3.793   2.356
 5194SOL     OW16480   5.360   1.740   6.722
 5194SOL    HW116481   5.409   1.788   6.650
 5194SOL    HW216482   5.284   1.796   6.754
 5195SOL     OW16483   6.250   6.414   5.592
 5195SOL    HW116484   6.166   6.382   5.548
 5195SOL    HW216485   6.249   6.386   5.689
 5196SOL     OW16486   0.689   3.312   1.693
 5196SOL    HW116487   0.619   3.261   1.744
 5196SOL    HW216488   0.665   3.313   1.596
 5197SOL     OW16489   3.501   6.163   5.198
 5197SOL    HW116490   3.455   6.228   5.137
 5197SOL    HW216491   3.445   6.080   5.206
 5198SOL     OW16492   4.733   0.422   5.773
 5198SOL    HW116493   4.634   0.430   5.784
 5198SOL    HW216494   4.770   0.368   5.849
 5199SOL     OW16495   0.169   5.056   1.876
 5199SOL    HW116496   0.232   5.038   1.801
 5199SOL    HW216497   0.077   5.072   1.838
 5200SOL     OW16498   0.410   0.028   5.300
 5200SOL    HW116499   0.404   6.959   5.263
 5200SOL    HW216500   0.383   0.027   5.396
 5201SOL     OW16501   5.818   4.471   4.755
 5201SOL    HW116502   5.732   4.444   4.712
 5201SOL    HW216503   5.801   4.545   4.820
 5202SOL     OW16504   3.616   3.277   5.586
 5202SOL    HW116505   3.637   3.333   5.506
 5202SOL    HW216506   3.519   3.256   5.589
 5203SOL     OW16507   2.003   0.406   6.260
 5203SOL    HW116508   2.086   0.426   6.311
 5203SOL    HW216509   2.010   0.445   6.168
 5204SOL     OW16510   2.546   1.200   0.890
 5204SOL    HW116511   2.463   1.145   0.889
 5204SOL    HW216512   2.626   1.140   0.901
 5205SOL     OW16513   7.003   6.731   0.986
 5205SOL    HW116514   0.056   6.758   0.929
 5205SOL    HW216515   6.971   6.811   1.038
 5206SOL     OW16516   1.243   4.905   3.482
 5206SOL    HW116517   1.170   4.961   3.521
 5206SOL    HW216518   1.289   4.856   3.556
 5207SOL     OW16519   6.265   6.570   4.652
 5207SOL    HW116520   6.319   6.621   4.584
 5207SOL    HW216521   6.253   6.627   4.733
 5208SOL     OW16522   6.294   1.909   0.667
 5208SOL    HW116523   6.257   2.001   0.655
 5208SOL    HW216524   6.226   1.852   0.712
 5209SOL     OW16525   5.336   6.435   3.325
 5209SOL    HW116526   5.283   6.352   3.343
 5209SOL    HW216527   5.408   6.445   3.394
 5210SOL     OW16528   5.601   4.686   0.916
 5210SOL    HW116529   5.676   4.624   0.941
 5210SOL    HW216530   5.620   4.777   0.951
 5211SOL     OW16531   5.382   2.231   4.883
 5211SOL    HW116532   5.312   2.235   4.812
 5211SOL    HW216533   5.343   2.188   4.965
 5212SOL     OW16534   0.218   3.893   0.252
 5212SOL    HW116535   0.140   3.831   0.247
 5212SOL    HW216536   0.292   3.858   0.195
 5213SOL     OW16537   3.963   3.419   3.108
 5213SOL    HW116538   3.949   3.439   3.205
 5213SOL    HW216539   3.900   3.474   3.053
 5214SOL     OW16540   5.693   3.540   5.081
 5214SOL    HW116541   5.654   3.512   4.994
 5214SOL    HW216542   5.621   3.567   5.144
 5215SOL     OW16543   0.396   4.801   5.133
 5215SOL    HW116544   0.348   4.722   5.095
 5215SOL    HW216545   0.380   4.806   5.232
 5216SOL     OW16546   5.103   4.965   1.336
 5216SOL    HW116547   5.024   4.911   1.307
 5216SOL    HW216548   5.072   5.055   1.368
 5217SOL     OW16549   5.029   6.415   2.927
 5217SOL    HW116550   5.106   6.412   2.863
 5217SOL    HW216551   5.003   6.510   2.942
 5218SOL     OW16552   6.384   0.251   0.163
 5218SOL    HW116553   6.355   0.230   0.256
 5218SOL    HW216554   6.479   0.281   0.163
 5219SOL     OW16555   3.423   0.747   5.503
 5219SOL    HW116556   3.416   0.677   5.432
 5219SOL    HW216557   3.340   0.745   5.559
 5220SOL     OW16558   2.046   5.258   4.453
 5220SOL    HW116559   2.100   5.191   4.403
 5220SOL    HW216560   2.068   5.253   4.550
 5221SOL     OW16561   5.813   5.380   1.656
 5221SOL    HW116562   5.880   5.362   1.585
 5221SOL    HW216563   5.800   5.298   1.712
 5222SOL     OW16564   6.851   3.483   1.574
 5222SOL    HW116565   6.754   3.484   1.596
 5222SOL    HW216566   6.865   3.442   1.484
 5223SOL     OW16567   6.549   2.847   0.671
 5223SOL    HW116568   6.455   2.830   0.701
 5223SOL    HW216569   6.600   2.891   0.745
 5224SOL     OW16570   0.527   1.366   5.412
 5224SOL    HW116571   0.600   1.336   5.350
 5224SOL    HW216572   0.501   1.291   5.472
 5225SOL     OW16573   6.730   1.427   4.532
 5225SOL    HW116574   6.727   1.526   4.520
 5225SOL    HW216575   6.814   1.402   4.579
 5226SOL     OW16576   0.231   6.586   3.915
 5226SOL    HW116577   0.135   6.599   3.891
 5226SOL    HW216578   0.257   6.491   3.897
 5227SOL     OW16579   0.407   4.115   5.764
 5227SOL    HW116580   0.438   4.203   5.801
 5227SOL    HW216581   0.397   4.122   5.665
 5228SOL     OW16582   0.741   1.991   5.540
 5228SOL    HW116583   0.787   1.966   5.625
 5228SOL    HW216584   0.648   2.023   5.560
 5229SOL     OW16585   3.212   1.706   6.037
 5229SOL    HW116586   3.232   1.641   6.111
 5229SOL    HW216587   3.189   1.795   6.076
 5230SOL     OW16588   6.951   6.993   2.391
 5230SOL    HW116589   6.866   0.004   2.353
 5230SOL    HW216590   0.003   0.027   2.363
 5231SOL     OW16591   6.234   3.194   2.173
 5231SOL    HW116592   6.322   3.161   2.137
 5231SOL    HW216593   6.230   3.294   2.164
 5232SOL     OW16594   2.008   2.465   5.565
 5232SOL    HW116595   1.991   2.485   5.469
 5232SOL    HW216596   2.105   2.444   5.578
 5233SOL     OW16597   3.374   6.563   2.237
 5233SOL    HW116598   3.330   6.601   2.156
 5233SOL    HW216599   3.402   6.469   2.219
 5234SOL     OW16600   3.230   1.949   6.187
 5234SOL    HW116601   3.317   1.915   6.224
 5234SOL    HW216602   3.231   2.049   6.185
 5235SOL     OW16603   2.618   1.888   1.557
 5235SOL    HW116604   2.614   1.949   1.635
 5235SOL    HW216605   2.627   1.941   1.473
 5236SOL     OW16606   3.369   5.226   1.606
 5236SOL    HW116607   3.368   5.126   1.614
 5236SOL    HW216608   3.364   5.267   1.697
 5237SOL     OW16609   1.816   2.079   2.250
 5237SOL    HW116610   1.802   2.086   2.349
 5237SOL    HW216611   1.914   2.089   2.229
 5238SOL     OW16612   0.454   0.160   2.972
 5238SOL    HW116613   0.515   0.095   3.017
 5238SOL    HW216614   0.490   0.253   2.983
 5239SOL     OW16615   2.597   3.879   0.675
 5239SOL    HW116616   2.686   3.909   0.708
 5239SOL    HW216617   2.550   3.955   0.631
 5240SOL     OW16618   2.273   4.114   5.509
 5240SOL    HW116619   2.350   4.082   5.453
 5240SOL    HW216620   2.297   4.201   5.551
 5241SOL     OW16621   1.722   6.485   2.493
 5241SOL    HW116622   1.805   6.490   2.439
 5241SOL    HW216623   1.744   6.457   2.587
 5242SOL     OW16624   4.088   0.584   6.471
 5242SOL    HW116625   4.167   0.576   6.411
 5242SOL    HW216626   4.119   0.597   6.565
 5243SOL     OW16627   2.517   6.275   2.580
 5243SOL    HW116628   2.423   6.240   2.574
 5243SOL    HW216629   2.527   6.355   2.521
 5244SOL     OW16630   4.827   1.463   0.330
 5244SOL    HW116631   4.781   1.406   0.398
 5244SOL    HW216632   4.906   1.508   0.372
 5245SOL     OW16633   3.101   4.232   1.089
 5245SOL    HW116634   3.132   4.138   1.099
 5245SOL    HW216635   3.069   4.266   1.178
 5246SOL     OW16636   6.084   4.059   6.160
 5246SOL    HW116637   6.165   4.028   6.209
 5246SOL    HW216638   6.023   4.107   6.224
 5247SOL     OW16639   4.318   1.890   6.832
 5247SOL    HW116640   4.249   1.827   6.798
 5247SOL    HW216641   4.313   1.976   6.782
 5248SOL     OW16642   5.366   1.027   4.000
 5248SOL    HW116643   5.266   1.033   4.000
 5248SOL    HW216644   5.402   1.067   3.916
 5249SOL     OW16645   0.523   5.095   0.723
 5249SOL    HW116646   0.512   5.077   0.821
 5249SOL    HW216647   0.467   5.174   0.698
 5250SOL     OW16648   2.495   5.910   1.196
 5250SOL    HW116649   2.442   5.955   1.268
 5250SOL    HW216650   2.559   5.846   1.238
 5251SOL     OW16651   0.414   4.784   0.736
 5251SOL    HW116652   0.468   4.795   0.652
 5251SOL    HW216653   0.420   4.868   0.790
 5252SOL     OW16654   3.746   5.791   2.324
 5252SOL    HW116655   3.782   5.844   2.248
 5252SOL    HW216656   3.665   5.741   2.295
 5253SOL     OW16657   6.558   6.220   4.792
 5253SOL    HW116658   6.550   6.262   4.701
 5253SOL    HW216659   6.647   6.174   4.800
 5254SOL     OW16660   4.773   5.921   3.260
 5254SOL    HW116661   4.867   5.908   3.228
 5254SOL    HW216662   4.722   5.975   3.194
 5255SOL     OW16663   6.539   1.795   5.188
 5255SOL    HW116664   6.499   1.797   5.096
 5255SOL    HW216665   6.473   1.757   5.253
 5256SOL     OW16666   6.635   1.838   2.068
 5256SOL    HW116667   6.563   1.811   2.004
 5256SOL    HW216668   6.651   1.764   2.133
 5257SOL     OW16669   4.652   1.658   6.134
 5257SOL    HW116670   4.700   1.657   6.222
 5257SOL    HW216671   4.634   1.752   6.107
 5258SOL     OW16672   4.924   1.422   4.585
 5258SOL    HW116673   4.870   1.348   4.546
 5258SOL    HW216674   5.012   1.387   4.617
 5259SOL     OW16675   6.059   5.054   3.650
 5259SOL    HW116676   6.083   5.059   3.747
 5259SOL    HW216677   5.961   5.038   3.641
 5260SOL     OW16678   1.918   0.130   1.038
 5260SOL    HW116679   1.886   0.087   0.953
 5260SOL    HW216680   1.901   0.069   1.115
 5261SOL     OW16681   5.402   4.270   6.889
 5261SOL    HW116682   5.383   4.315   6.976
 5261SOL    HW216683   5.500   4.269   6.872
 5262SOL     OW16684   1.604   1.203   1.919
 5262SOL    HW116685   1.519   1.190   1.868
 5262SOL    HW216686   1.590   1.273   1.989
 5263SOL     OW16687   1.494   6.017   2.539
 5263SOL    HW116688   1.512   5.972   2.626
 5263SOL    HW216689   1.546   5.972   2.467
 5264SOL     OW16690   6.416   2.105   1.490
 5264SOL    HW116691   6.318   2.122   1.477
 5264SOL    HW216692   6.444   2.141   1.579
 5265SOL     OW16693   6.680   5.427   5.412
 5265SOL    HW116694   6.731   5.388   5.489
 5265SOL    HW216695   6.587   5.447   5.441
 5266SOL     OW16696   1.471   0.316   6.594
 5266SOL    HW116697   1.510   0.321   6.686
 5266SOL    HW216698   1.483   0.403   6.548
 5267SOL     OW16699   5.471   2.619   4.027
 5267SOL    HW116700   5.475   2.600   3.929
 5267SOL    HW216701   5.390   2.673   4.048
 5268SOL     OW16702   5.661   0.465   6.028
 5268SOL    HW116703   5.625   0.536   6.088
 5268SOL    HW216704   5.743   0.499   5.981
 5269SOL     OW16705   0.729   6.882   3.931
 5269SOL    HW116706   0.770   6.909   4.018
 5269SOL    HW216707   0.747   6.953   3.863
 5270SOL     OW16708   0.596   1.710   6.275
 5270SOL    HW116709   0.637   1.631   6.229
 5270SOL    HW216710   0.553   1.680   6.361
 5271SOL     OW16711   1.261   5.010   3.206
 5271SOL    HW116712   1.240   4.958   3.123
 5271SOL    HW216713   1.220   4.965   3.285
 5272SOL     OW16714   4.209   0.443   6.918
 5272SOL    HW116715   4.177   0.517   6.978
 5272SOL    HW216716   4.142   0.368   6.921
 5273SOL     OW16717   2.551   1.610   2.627
 5273SOL    HW116718   2.491   1.663   2.567
 5273SOL    HW216719   2.643   1.650   2.625
 5274SOL     OW16720   5.404   4.893   1.510
 5274SOL    HW116721   5.404   4.812   1.569
 5274SOL    HW216722   5.353   4.966   1.554
 5275SOL     OW16723   4.300   1.447   6.634
 5275SOL    HW116724   4.255   1.359   6.622
 5275SOL    HW216725   4.233   1.521   6.627
 5276SOL     OW16726   3.965   6.653   2.096
 5276SOL    HW116727   3.989   6.723   2.163
 5276SOL    HW216728   3.866   6.654   2.081
 5277SOL     OW16729   1.993   2.864   1.940
 5277SOL    HW116730   2.059   2.903   1.875
 5277SOL    HW216731   2.035   2.788   1.988
 5278SOL     OW16732   3.893   3.708   1.893
 5278SOL    HW116733   3.965   3.659   1.844
 5278SOL    HW216734   3.917   3.714   1.990
 5279SOL     OW16735   1.891   6.330   1.888
 5279SOL    HW116736   1.941   6.412   1.860
 5279SOL    HW216737   1.829   6.353   1.962
 5280SOL     OW16738   4.326   0.407   5.012
 5280SOL    HW116739   4.422   0.393   5.035
 5280SOL    HW216740   4.285   0.471   5.078
 5281SOL     OW16741   0.094   2.417   3.239
 5281SOL    HW116742   0.103   2.466   3.326
 5281SOL    HW216743   0.000   2.383   3.229
 5282SOL     OW16744   4.888   1.339   1.542
 5282SOL    HW116745   4.845   1.380   1.622
 5282SOL    HW216746   4.879   1.239   1.547
 5283SOL     OW16747   5.033   5.423   5.465
 5283SOL    HW116748   5.005   5.335   5.425
 5283SOL    HW216749   4.956   5.487   5.463
 5284SOL     OW16750   4.885   2.551   3.339
 5284SOL    HW116751   4.801   2.577   3.386
 5284SOL    HW216752   4.922   2.468   3.380
 5285SOL     OW16753   4.025   5.986   2.543
 5285SOL    HW116754   4.069   6.011   2.629
 5285SOL    HW216755   4.052   5.893   2.518
 5286SOL     OW16756   2.735   5.448   2.360
 5286SOL    HW116757   2.698   5.367   2.405
 5286SOL    HW216758   2.821   5.474   2.404
 5287SOL     OW16759   0.481   1.577   1.916
 5287SOL    HW116760   0.482   1.664   1.964
 5287SOL    HW216761   0.489   1.593   1.817
 5288SOL     OW16762   4.373   0.816   0.809
 5288SOL    HW116763   4.283   0.785   0.780
 5288SOL    HW216764   4.364   0.899   0.864
 5289SOL     OW16765   2.200   6.121   0.904
 5289SOL    HW116766   2.105   6.131   0.874
 5289SOL    HW216767   2.203   6.055   0.980
 5290SOL     OW16768   5.266   5.964   0.717
 5290SOL    HW116769   5.169   5.942   0.731
 5290SOL    HW216770   5.313   5.966   0.805
 5291SOL     OW16771   0.998   5.161   6.446
 5291SOL    HW116772   0.918   5.218   6.469
 5291SOL    HW216773   0.969   5.088   6.384
 5292SOL     OW16774   5.301   1.940   0.115
 5292SOL    HW116775   5.400   1.937   0.103
 5292SOL    HW216776   5.259   1.983   0.035
 5293SOL     OW16777   1.493   1.603   3.753
 5293SOL    HW116778   1.443   1.595   3.839
 5293SOL    HW216779   1.555   1.681   3.758
 5294SOL     OW16780   4.572   2.521   5.239
 5294SOL    HW116781   4.635   2.556   5.171
 5294SOL    HW216782   4.501   2.589   5.258
 5295SOL     OW16783   5.824   0.872   2.274
 5295SOL    HW116784   5.740   0.883   2.221
 5295SOL    HW216785   5.895   0.930   2.235
 5296SOL     OW16786   0.220   3.235   0.232
 5296SOL    HW116787   0.133   3.275   0.202
 5296SOL    HW216788   0.287   3.243   0.158
 5297SOL     OW16789   1.365   3.043   2.470
 5297SOL    HW116790   1.439   2.981   2.498
 5297SOL    HW216791   1.376   3.130   2.518
 5298SOL     OW16792   1.242   5.255   1.875
 5298SOL    HW116793   1.256   5.161   1.907
 5298SOL    HW216794   1.248   5.318   1.952
 5299SOL     OW16795   3.470   0.342   1.141
 5299SOL    HW116796   3.461   0.244   1.122
 5299SOL    HW216797   3.394   0.371   1.200
 5300SOL     OW16798   6.809   5.408   3.793
 5300SOL    HW116799   6.812   5.378   3.888
 5300SOL    HW216800   6.732   5.471   3.781
 5301SOL     OW16801   4.936   0.467   0.872
 5301SOL    HW116802   4.915   0.539   0.939
 5301SOL    HW216803   4.885   0.483   0.788
 5302SOL     OW16804   6.565   4.137   3.393
 5302SOL    HW116805   6.517   4.221   3.420
 5302SOL    HW216806   6.591   4.085   3.474
 5303SOL     OW16807   0.932   5.526   3.044
 5303SOL    HW116808   0.944   5.503   2.948
 5303SOL    HW216809   0.878   5.455   3.089
 5304SOL     OW16810   4.764   2.169   5.253
 5304SOL    HW116811   4.840   2.219   5.294
 5304SOL    HW216812   4.708   2.128   5.325
 5305SOL     OW16813   2.973   1.194   3.735
 5305SOL    HW116814   2.906   1.120   3.742
 5305SOL    HW216815   3.020   1.204   3.823
 5306SOL     OW16816   3.049   6.535   4.468
 5306SOL    HW116817   2.980   6.605   4.484
 5306SOL    HW216818   3.053   6.514   4.371
 5307SOL     OW16819   4.046   6.955   6.903
 5307SOL    HW116820   3.971   6.915   6.954
 5307SOL    HW216821   4.053   6.910   6.814
 5308SOL     OW16822   6.677   1.041   2.125
 5308SOL    HW116823   6.703   1.018   2.219
 5308SOL    HW216824   6.748   1.098   2.084
 5309SOL     OW16825   3.597   3.779   4.710
 5309SOL    HW116826   3.510   3.801   4.666
 5309SOL    HW216827   3.606   3.680   4.717
 5310SOL     OW16828   5.467   2.801   0.154
 5310SOL    HW116829   5.373   2.772   0.170
 5310SOL    HW216830   5.485   2.803   0.056
 5311SOL     OW16831   0.865   6.129   6.509
 5311SOL    HW116832   0.885   6.033   6.488
 5311SOL    HW216833   0.928   6.188   6.459
 5312SOL     OW16834   0.204   3.211   1.905
 5312SOL    HW116835   0.298   3.188   1.928
 5312SOL    HW216836   0.201   3.301   1.860
 5313SOL     OW16837   1.005   6.296   0.167
 5313SOL    HW116838   1.000   6.374   0.229
 5313SOL    HW216839   0.930   6.301   0.102
 5314SOL     OW16840   3.806   4.897   1.030
 5314SOL    HW116841   3.826   4.834   0.955
 5314SOL    HW216842   3.883   4.959   1.044
 5315SOL     OW16843   5.482   2.389   2.034
 5315SOL    HW116844   5.397   2.402   2.086
 5315SOL    HW216845   5.518   2.297   2.053
 5316SOL     OW16846   5.757   5.266   4.408
 5316SOL    HW116847   5.798   5.235   4.494
 5316SOL    HW216848   5.749   5.188   4.345
 5317SOL     OW16849   6.461   5.385   2.833
 5317SOL    HW116850   6.462   5.377   2.933
 5317SOL    HW216851   6.555   5.384   2.798
 5318SOL     OW16852   0.417   2.086   4.113
 5318SOL    HW116853   0.466   2.117   4.195
 5318SOL    HW216854   0.415   2.160   4.046
 5319SOL     OW16855   3.577   6.894   1.649
 5319SOL    HW116856   3.502   6.955   1.671
 5319SOL    HW216857   3.616   6.857   1.733
 5320SOL     OW16858   6.268   3.421   5.550
 5320SOL    HW116859   6.260   3.518   5.577
 5320SOL    HW216860   6.265   3.414   5.451
 5321SOL     OW16861   2.184   4.806   5.852
 5321SOL    HW116862   2.226   4.794   5.762
 5321SOL    HW216863   2.102   4.750   5.859
 5322SOL     OW16864   2.445   6.083   0.704
 5322SOL    HW116865   2.352   6.074   0.740
 5322SOL    HW216866   2.447   6.155   0.634
 5323SOL     OW16867   5.445   3.416   0.530
 5323SOL    HW116868   5.392   3.487   0.484
 5323SOL    HW216869   5.476   3.348   0.463
 5324SOL     OW16870   3.779   3.476   1.442
 5324SOL    HW116871   3.737   3.422   1.515
 5324SOL    HW216872   3.854   3.530   1.480
 5325SOL     OW16873   4.206   5.894   4.749
 5325SOL    HW116874   4.274   5.825   4.771
 5325SOL    HW216875   4.164   5.873   4.661
 5326SOL     OW16876   0.082   0.090   2.679
 5326SOL    HW116877   0.130   0.080   2.592
 5326SOL    HW216878   0.031   0.175   2.680
 5327SOL     OW16879   6.949   0.282   4.162
 5327SOL    HW116880   6.924   0.372   4.125
 5327SOL    HW216881   7.015   0.239   4.100
 5328SOL     OW16882   3.555   5.113   0.110
 5328SOL    HW116883   3.645   5.101   0.153
 5328SOL    HW216884   3.500   5.031   0.126
 5329SOL     OW16885   6.973   5.708   0.251
 5329SOL    HW116886   0.033   5.657   0.233
 5329SOL    HW216887   6.982   5.760   0.336
 5330SOL     OW16888   3.340   3.956   0.257
 5330SOL    HW116889   3.351   4.055   0.267
 5330SOL    HW216890   3.310   3.917   0.344
 5331SOL     OW16891   5.128   1.921   6.780
 5331SOL    HW116892   5.085   1.857   6.716
 5331SOL    HW216893   5.121   1.884   6.873
 5332SOL     OW16894   5.353   3.309   0.147
 5332SOL    HW116895   5.284   3.324   0.076
 5332SOL    HW216896   5.310   3.273   0.229
 5333SOL     OW16897   1.796   1.293   4.627
 5333SOL    HW116898   1.774   1.390   4.623
 5333SOL    HW216899   1.731   1.246   4.686
 5334SOL     OW16900   3.391   6.255   1.679
 5334SOL    HW116901   3.299   6.232   1.650
 5334SOL    HW216902   3.413   6.207   1.764
 5335SOL     OW16903   0.334   4.715   1.900
 5335SOL    HW116904   0.260   4.648   1.900
 5335SOL    HW216905   0.380   4.716   1.811
 5336SOL     OW16906   1.659   3.291   5.319
 5336SOL    HW116907   1.677   3.386   5.294
 5336SOL    HW216908   1.561   3.279   5.337
 5337SOL     OW16909   7.022   3.621   0.993
 5337SOL    HW116910   0.020   3.717   1.009
 5337SOL    HW216911   6.934   3.600   1.036
 5338SOL     OW16912   6.508   3.670   0.696
 5338SOL    HW116913   6.522   3.571   0.696
 5338SOL    HW216914   6.571   3.712   0.631
 5339SOL     OW16915   5.594   3.199   2.340
 5339SOL    HW116916   5.658   3.129   2.306
 5339SOL    HW216917   5.644   3.285   2.354
 5340SOL     OW16918   4.454   3.481   1.705
 5340SOL    HW116919   4.534   3.423   1.689
 5340SOL    HW216920   4.387   3.430   1.760
 5341SOL     OW16921   4.825   4.547   3.589
 5341SOL    HW116922   4.837   4.602   3.507
 5341SOL    HW216923   4.771   4.466   3.568
 5342SOL     OW16924   6.302   5.849   5.012
 5342SOL    HW116925   6.372   5.919   5.023
 5342SOL    HW216926   6.213   5.892   4.999
 5343SOL     OW16927   3.884   3.347   6.409
 5343SOL    HW116928   3.925   3.436   6.387
 5343SOL    HW216929   3.872   3.340   6.508
 5344SOL     OW16930   6.921   1.417   6.672
 5344SOL    HW116931   6.846   1.418   6.738
 5344SOL    HW216932   6.888   1.447   6.583
 5345SOL     OW16933   5.009   1.313   6.594
 5345SOL    HW116934   5.108   1.321   6.603
 5345SOL    HW216935   4.965   1.340   6.680
 5346SOL     OW16936   3.232   6.010   3.236
 5346SOL    HW116937   3.219   5.917   3.203
 5346SOL    HW216938   3.146   6.061   3.229
 5347SOL     OW16939   5.337   1.417   4.442
 5347SOL    HW116940   5.257   1.378   4.489
 5347SOL    HW216941   5.307   1.492   4.383
 5348SOL     OW16942   4.701   2.841   4.817
 5348SOL    HW116943   4.787   2.877   4.852
 5348SOL    HW216944   4.663   2.904   4.749
 5349SOL     OW16945   0.552   3.823   1.420
 5349SOL    HW116946   0.521   3.808   1.514
 5349SOL    HW216947   0.640   3.779   1.405
 5350SOL     OW16948   1.185   0.089   6.963
 5350SOL    HW116949   1.088   0.114   6.957
 5350SOL    HW216950   1.227   0.096   6.873
 5351SOL     OW16951   0.283   5.685   3.250
 5351SOL    HW116952   0.213   5.748   3.283
 5351SOL    HW216953   0.239   5.607   3.204
 5352SOL     OW16954   1.538   2.643   5.745
 5352SOL    HW116955   1.567   2.564   5.691
 5352SOL    HW216956   1.441   2.636   5.767
 5353SOL     OW16957   3.735   5.265   3.650
 5353SOL    HW116958   3.680   5.258   3.566
 5353SOL    HW216959   3.809   5.330   3.635
 5354SOL     OW16960   3.925   5.842   1.002
 5354SOL    HW116961   3.987   5.871   1.075
 5354SOL    HW216962   3.833   5.877   1.020
 5355SOL     OW16963   4.647   5.895   4.858
 5355SOL    HW116964   4.666   5.801   4.829
 5355SOL    HW216965   4.732   5.938   4.888
 5356SOL     OW16966   1.067   6.195   1.035
 5356SOL    HW116967   0.997   6.135   0.995
 5356SOL    HW216968   1.028   6.287   1.046
 5357SOL     OW16969   6.453   3.170   2.530
 5357SOL    HW116970   6.503   3.165   2.616
 5357SOL    HW216971   6.453   3.080   2.486
 5358SOL     OW16972   5.994   0.352   6.861
 5358SOL    HW116973   5.974   0.342   6.763
 5358SOL    HW216974   6.086   0.389   6.873
 5359SOL     OW16975   2.928   2.673   6.918
 5359SOL    HW116976   2.860   2.722   6.862
 5359SOL    HW216977   3.005   2.733   6.936
 5360SOL     OW16978   5.319   5.440   4.045
 5360SOL    HW116979   5.236   5.495   4.046
 5360SOL    HW216980   5.399   5.499   4.052
 5361SOL     OW16981   1.632   4.546   3.109
 5361SOL    HW116982   1.728   4.547   3.136
 5361SOL    HW216983   1.621   4.493   3.025
 5362SOL     OW16984   6.232   1.132   2.884
 5362SOL    HW116985   6.206   1.036   2.877
 5362SOL    HW216986   6.235   1.173   2.793
 5363SOL     OW16987   5.639   5.581   3.597
 5363SOL    HW116988   5.577   5.604   3.672
 5363SOL    HW216989   5.672   5.665   3.554
 5364SOL     OW16990   4.333   2.371   2.379
 5364SOL    HW116991   4.259   2.309   2.352
 5364SOL    HW216992   4.344   2.369   2.478
 5365SOL     OW16993   2.884   4.068   5.314
 5365SOL    HW116994   2.882   3.968   5.303
 5365SOL    HW216995   2.975   4.102   5.288
 5366SOL     OW16996   6.368   5.733   3.320
 5366SOL    HW116997   6.459   5.708   3.286
 5366SOL    HW216998   6.310   5.758   3.243
 5367SOL     OW16999   5.980   6.004   1.606
 5367SOL    HW117000   5.935   5.945   1.538
 5367SOL    HW217001   5.913   6.036   1.672
 5368SOL     OW17002   0.392   6.200   4.651
 5368SOL    HW117003   0.315   6.146   4.687
 5368SOL    HW217004   0.443   6.146   4.586
 5369SOL     OW17005   4.399   6.405   2.462
 5369SOL    HW117006   4.393   6.331   2.529
 5369SOL    HW217007   4.321   6.400   2.400
 5370SOL     OW17008   1.741   2.755   6.986
 5370SOL    HW117009   1.803   2.694   0.010
 5370SOL    HW217010   1.668   2.784   0.022
 5371SOL     OW17011   6.202   5.514   4.565
 5371SOL    HW117012   6.180   5.512   4.467
 5371SOL    HW217013   6.201   5.608   4.598
 5372SOL     OW17014   2.258   6.872   3.109
 5372SOL    HW117015   2.326   6.812   3.067
 5372SOL    HW217016   2.253   6.958   3.058
 5373SOL     OW17017   2.992   1.023   6.320
 5373SOL    HW117018   3.017   1.018   6.224
 5373SOL    HW217019   2.948   1.111   6.339
 5374SOL     OW17020   1.133   3.859   1.396
 5374SOL    HW117021   1.227   3.893   1.396
 5374SOL    HW217022   1.080   3.908   1.326
 5375SOL     OW17023   2.293   4.506   4.948
 5375SOL    HW117024   2.275   4.452   5.030
 5375SOL    HW217025   2.374   4.563   4.962
 5376SOL     OW17026   1.351   0.419   0.722
 5376SOL    HW117027   1.315   0.328   0.705
 5376SOL    HW217028   1.300   0.462   0.797
 5377SOL     OW17029   1.436   1.960   2.734
 5377SOL    HW117030   1.530   1.925   2.733
 5377SOL    HW217031   1.400   1.960   2.641
 5378SOL     OW17032   4.893   6.835   2.438
 5378SOL    HW117033   4.826   6.907   2.449
 5378SOL    HW217034   4.859   6.751   2.481
 5379SOL     OW17035   2.300   1.930   3.307
 5379SOL    HW117036   2.245   2.013   3.306
 5379SOL    HW217037   2.268   1.870   3.381
 5380SOL     OW17038   4.586   6.055   1.132
 5380SOL    HW117039   4.566   6.007   1.218
 5380SOL    HW217040   4.635   6.140   1.151
 5381SOL     OW17041   3.400   1.433   3.327
 5381SOL    HW117042   3.410   1.335   3.344
 5381SOL    HW217043   3.305   1.454   3.307
 5382SOL     OW17044   4.049   1.515   2.696
 5382SOL    HW117045   4.064   1.455   2.775
 5382SOL    HW217046   4.021   1.605   2.728
 5383SOL     OW17047   1.850   3.185   4.781
 5383SOL    HW117048   1.824   3.089   4.768
 5383SOL    HW217049   1.787   3.243   4.729
 5384SOL     OW17050   5.091   6.126   6.072
 5384SOL    HW117051   5.177   6.173   6.091
 5384SOL    HW217052   5.015   6.190   6.085
 5385SOL     OW17053   4.472   3.650   0.169
 5385SOL    HW117054   4.471   3.575   0.104
 5385SOL    HW217055   4.420   3.625   0.250
 5386SOL     OW17056   4.382   5.081   4.152
 5386SOL    HW117057   4.394   5.052   4.057
 5386SOL    HW217058   4.332   5.168   4.154
 5387SOL     OW17059   0.955   2.451   4.537
 5387SOL    HW117060   1.025   2.380   4.542
 5387SOL    HW217061   0.925   2.474   4.630
 5388SOL     OW17062   6.410   6.690   4.450
 5388SOL    HW117063   6.350   6.733   4.383
 5388SOL    HW217064   6.490   6.748   4.466
 5389SOL     OW17065   5.568   1.138   4.849
 5389SOL    HW117066   5.492   1.106   4.793
 5389SOL    HW217067   5.534   1.164   4.939
 5390SOL     OW17068   5.923   3.876   3.171
 5390SOL    HW117069   5.991   3.802   3.176
 5390SOL    HW217070   5.848   3.856   3.235
 5391SOL     OW17071   3.628   2.507   1.215
 5391SOL    HW117072   3.533   2.487   1.241
 5391SOL    HW217073   3.687   2.500   1.296
 5392SOL     OW17074   5.513   0.403   4.464
 5392SOL    HW117075   5.566   0.426   4.545
 5392SOL    HW217076   5.508   0.483   4.403
 5393SOL     OW17077   4.348   1.062   3.924
 5393SOL    HW117078   4.396   1.001   3.987
 5393SOL    HW217079   4.340   1.153   3.966
 5394SOL     OW17080   6.840   2.890   2.027
 5394SOL    HW117081   6.859   2.819   2.094
 5394SOL    HW217082   6.915   2.956   2.025
 5395SOL     OW17083   0.636   1.438   1.133
 5395SOL    HW117084   0.693   1.489   1.197
 5395SOL    HW217085   0.688   1.363   1.093
 5396SOL     OW17086   3.410   2.983   0.952
 5396SOL    HW117087   3.484   3.022   1.006
 5396SOL    HW217088   3.445   2.954   0.863
 5397SOL     OW17089   6.926   0.394   2.176
 5397SOL    HW117090   6.956   0.361   2.266
 5397SOL    HW217091   6.938   0.322   2.108
 5398SOL     OW17092   6.846   2.373   3.239
 5398SOL    HW117093   6.816   2.344   3.148
 5398SOL    HW217094   6.785   2.445   3.273
 5399SOL     OW17095   2.095   3.242   1.092
 5399SOL    HW117096   2.157   3.176   1.049
 5399SOL    HW217097   2.043   3.290   1.021
 5400SOL     OW17098   4.785   2.771   1.566
 5400SOL    HW117099   4.783   2.863   1.605
 5400SOL    HW217100   4.757   2.774   1.471
 5401SOL     OW17101   5.138   3.228   1.122
 5401SOL    HW117102   5.149   3.254   1.218
 5401SOL    HW217103   5.182   3.296   1.063
 5402SOL     OW17104   1.105   6.492   1.974
 5402SOL    HW117105   1.180   6.475   2.037
 5402SOL    HW217106   1.140   6.499   1.881
 5403SOL     OW17107   5.040   2.456   6.161
 5403SOL    HW117108   5.005   2.527   6.223
 5403SOL    HW217109   5.094   2.498   6.088
 5404SOL     OW17110   4.863   6.687   0.182
 5404SOL    HW117111   4.866   6.651   0.275
 5404SOL    HW217112   4.948   6.664   0.134
 5405SOL     OW17113   0.238   4.865   0.027
 5405SOL    HW117114   0.155   4.827   7.010
 5405SOL    HW217115   0.218   4.956   0.063
 5406SOL     OW17116   3.101   1.103   5.744
 5406SOL    HW117117   3.004   1.123   5.732
 5406SOL    HW217118   3.152   1.189   5.746
 5407SOL     OW17119   1.189   6.608   3.602
 5407SOL    HW117120   1.193   6.698   3.559
 5407SOL    HW217121   1.217   6.538   3.536
 5408SOL     OW17122   2.509   2.042   4.237
 5408SOL    HW117123   2.545   2.049   4.144
 5408SOL    HW217124   2.497   1.946   4.261
 5409SOL     OW17125   0.853   2.634   2.734
 5409SOL    HW117126   0.901   2.588   2.660
 5409SOL    HW217127   0.920   2.672   2.798
 5410SOL     OW17128   6.669   2.645   0.491
 5410SOL    HW117129   6.627   2.725   0.534
 5410SOL    HW217130   6.598   2.584   0.456
 5411SOL     OW17131   3.691   5.385   0.665
 5411SOL    HW117132   3.660   5.480   0.661
 5411SOL    HW217133   3.709   5.352   0.573
 5412SOL     OW17134   1.486   2.391   4.511
 5412SOL    HW117135   1.560   2.456   4.493
 5412SOL    HW217136   1.522   2.297   4.508
 5413SOL     OW17137   0.322   5.095   5.405
 5413SOL    HW117138   0.405   5.115   5.352
 5413SOL    HW217139   0.244   5.144   5.364
 5414SOL     OW17140   5.570   4.588   5.566
 5414SOL    HW117141   5.553   4.600   5.664
 5414SOL    HW217142   5.667   4.569   5.552
 5415SOL     OW17143   2.128   1.607   6.715
 5415SOL    HW117144   2.114   1.544   6.638
 5415SOL    HW217145   2.076   1.691   6.700
 5416SOL     OW17146   3.279   5.785   6.955
 5416SOL    HW117147   3.316   5.787   6.863
 5416SOL    HW217148   3.267   5.690   6.984
 5417SOL     OW17149   5.743   0.383   3.189
 5417SOL    HW117150   5.700   0.335   3.265
 5417SOL    HW217151   5.736   0.482   3.204
 5418SOL     OW17152   6.998   3.654   5.826
 5418SOL    HW117153   7.002   3.594   5.906
 5418SOL    HW217154   0.052   3.716   5.828
 5419SOL     OW17155   3.847   1.704   6.794
 5419SOL    HW117156   3.809   1.709   6.702
 5419SOL    HW217157   3.775   1.715   6.862
 5420SOL     OW17158   1.348   2.230   1.588
 5420SOL    HW117159   1.321   2.145   1.633
 5420SOL    HW217160   1.446   2.226   1.567
 5421SOL     OW17161   3.969   5.596   1.617
 5421SOL    HW117162   3.989   5.676   1.560
 5421SOL    HW217163   4.046   5.579   1.678
 5422SOL     OW17164   2.373   5.398   3.552
 5422SOL    HW117165   2.446   5.386   3.619
 5422SOL    HW217166   2.293   5.437   3.596
 5423SOL     OW17167   5.044   6.393   1.330
 5423SOL    HW117168   4.987   6.412   1.410
 5423SOL    HW217169   5.092   6.307   1.343
 5424SOL     OW17170   4.246   3.482   5.539
 5424SOL    HW117171   4.230   3.392   5.579
 5424SOL    HW217172   4.217   3.482   5.443
 5425SOL     OW17173   1.021   4.979   6.001
 5425SOL    HW117174   1.119   4.958   5.998
 5425SOL    HW217175   0.983   4.973   5.909
 5426SOL     OW17176   6.563   4.535   1.243
 5426SOL    HW117177   6.658   4.506   1.253
 5426SOL    HW217178   6.558   4.635   1.247
 5427SOL     OW17179   4.862   2.636   0.495
 5427SOL    HW117180   4.882   2.679   0.582
 5427SOL    HW217181   4.861   2.705   0.422
 5428SOL     OW17182   4.804   5.307   3.269
 5428SOL    HW117183   4.813   5.384   3.206
 5428SOL    HW217184   4.752   5.336   3.350
 5429SOL     OW17185   2.877   7.008   4.048
 5429SOL    HW117186   2.972   0.015   4.048
 5429SOL    HW217187   2.823   0.040   3.985
 5430SOL     OW17188   2.014   3.891   5.823
 5430SOL    HW117189   2.105   3.865   5.793
 5430SOL    HW217190   2.011   3.988   5.845
 5431SOL     OW17191   4.424   4.601   7.009
 5431SOL    HW117192   4.471   4.639   6.929
 5431SOL    HW217193   4.326   4.595   6.991
 5432SOL     OW17194   7.008   5.081   6.651
 5432SOL    HW117195   6.960   4.993   6.656
 5432SOL    HW217196   6.992   5.132   6.735
 5433SOL     OW17197   3.593   0.114   1.343
 5433SOL    HW117198   3.641   0.142   1.260
 5433SOL    HW217199   3.659   0.084   1.412
 5434SOL     OW17200   4.913   6.833   4.235
 5434SOL    HW117201   4.848   6.770   4.278
 5434SOL    HW217202   5.002   6.789   4.229
 5435SOL     OW17203   0.072   4.800   6.846
 5435SOL    HW117204   0.078   4.885   6.794
 5435SOL    HW217205   7.002   4.782   6.870
 5436SOL     OW17206   2.153   4.573   2.136
 5436SOL    HW117207   2.056   4.592   2.117
 5436SOL    HW217208   2.170   4.581   2.234
 5437SOL     OW17209   3.399   6.315   0.906
 5437SOL    HW117210   3.491   6.331   0.870
 5437SOL    HW217211   3.362   6.402   0.941
 5438SOL     OW17212   4.085   6.401   2.082
 5438SOL    HW117213   4.065   6.498   2.083
 5438SOL    HW217214   4.184   6.387   2.090
 5439SOL     OW17215   1.357   4.047   0.897
 5439SOL    HW117216   1.349   4.141   0.929
 5439SOL    HW217217   1.291   3.989   0.944
 5440SOL     OW17218   5.948   6.739   3.546
 5440SOL    HW117219   5.955   6.832   3.510
 5440SOL    HW217220   5.922   6.742   3.642
 5441SOL     OW17221   5.721   2.461   4.769
 5441SOL    HW117222   5.636   2.478   4.819
 5441SOL    HW217223   5.751   2.367   4.787
 5442SOL     OW17224   2.909   0.685   6.873
 5442SOL    HW117225   2.811   0.681   6.892
 5442SOL    HW217226   2.937   0.780   6.861
 5443SOL     OW17227   5.885   1.210   2.861
 5443SOL    HW117228   5.813   1.202   2.930
 5443SOL    HW217229   5.962   1.260   2.899
 5444SOL     OW17230   0.773   1.351   6.138
 5444SOL    HW117231   0.736   1.424   6.080
 5444SOL    HW217232   0.710   1.274   6.140
 5445SOL     OW17233   5.733   6.397   5.491
 5445SOL    HW117234   5.673   6.422   5.415
 5445SOL    HW217235   5.678   6.377   5.572
 5446SOL     OW17236   1.007   4.062   6.297
 5446SOL    HW117237   0.917   4.039   6.261
 5446SOL    HW217238   0.996   4.117   6.380
 5447SOL     OW17239   6.394   2.046   1.893
 5447SOL    HW117240   6.467   2.107   1.926
 5447SOL    HW217241   6.317   2.101   1.860
 5448SOL     OW17242   6.097   5.121   2.282
 5448SOL    HW117243   6.086   5.038   2.337
 5448SOL    HW217244   6.144   5.191   2.337
 5449SOL     OW17245   2.043   0.952   1.860
 5449SOL    HW117246   2.016   0.920   1.770
 5449SOL    HW217247   1.989   1.033   1.885
 5450SOL     OW17248   4.537   5.779   1.632
 5450SOL    HW117249   4.469   5.727   1.580
 5450SOL    HW217250   4.629   5.747   1.608
 5451SOL     OW17251   6.990   6.604   3.803
 5451SOL    HW117252   6.984   6.537   3.876
 5451SOL    HW217253   6.900   6.617   3.761
 5452SOL     OW17254   2.551   4.497   2.402
 5452SOL    HW117255   2.604   4.453   2.474
 5452SOL    HW217256   2.575   4.593   2.396
 5453SOL     OW17257   6.118   4.382   3.935
 5453SOL    HW117258   6.178   4.312   3.896
 5453SOL    HW217259   6.126   4.466   3.881
 5454SOL     OW17260   5.878   4.161   2.821
 5454SOL    HW117261   5.908   4.151   2.916
 5454SOL    HW217262   5.800   4.101   2.805
 5455SOL     OW17263   2.745   2.007   3.533
 5455SOL    HW117264   2.790   1.964   3.455
 5455SOL    HW217265   2.763   2.105   3.533
 5456SOL     OW17266   6.024   2.319   0.221
 5456SOL    HW117267   6.035   2.392   0.152
 5456SOL    HW217268   5.930   2.283   0.216
 5457SOL     OW17269   6.360   1.130   6.618
 5457SOL    HW117270   6.445   1.142   6.565
 5457SOL    HW217271   6.322   1.219   6.642
 5458SOL     OW17272   4.918   4.587   6.342
 5458SOL    HW117273   4.999   4.528   6.354
 5458SOL    HW217274   4.891   4.625   6.430
 5459SOL     OW17275   2.238   2.758   5.138
 5459SOL    HW117276   2.255   2.751   5.236
 5459SOL    HW217277   2.303   2.822   5.097
 5460SOL     OW17278   0.410   0.637   1.162
 5460SOL    HW117279   0.370   0.678   1.080
 5460SOL    HW217280   0.354   0.560   1.191
 5461SOL     OW17281   5.936   1.709   6.550
 5461SOL    HW117282   5.929   1.693   6.452
 5461SOL    HW217283   5.866   1.655   6.598
 5462SOL     OW17284   5.313   5.161   5.781
 5462SOL    HW117285   5.369   5.081   5.804
 5462SOL    HW217286   5.217   5.134   5.774
 5463SOL     OW17287   1.281   4.378   5.783
 5463SOL    HW117288   1.209   4.429   5.736
 5463SOL    HW217289   1.344   4.442   5.827
 5464SOL     OW17290   1.939   5.412   4.907
 5464SOL    HW117291   1.839   5.409   4.911
 5464SOL    HW217292   1.977   5.350   4.975
 5465SOL     OW17293   0.688   0.180   5.152
 5465SOL    HW117294   0.702   0.113   5.079
 5465SOL    HW217295   0.612   0.240   5.127
 5466SOL     OW17296   5.482   1.504   4.890
 5466SOL    HW117297   5.492   1.600   4.917
 5466SOL    HW217298   5.475   1.497   4.791
 5467SOL     OW17299   4.858   3.155   4.337
 5467SOL    HW117300   4.928   3.180   4.270
 5467SOL    HW217301   4.814   3.238   4.372
 5468SOL     OW17302   6.871   2.369   1.369
 5468SOL    HW117303   6.942   2.303   1.395
 5468SOL    HW217304   6.791   2.320   1.336
 5469SOL     OW17305   3.284   1.163   4.447
 5469SOL    HW117306   3.198   1.116   4.430
 5469SOL    HW217307   3.275   1.259   4.422
 5470SOL     OW17308   4.182   5.287   4.034
 5470SOL    HW117309   4.092   5.250   4.011
 5470SOL    HW217310   4.241   5.284   3.953
 5471SOL     OW17311   5.106   0.177   2.649
 5471SOL    HW117312   5.101   0.218   2.558
 5471SOL    HW217313   5.059   0.236   2.715
 5472SOL     OW17314   2.506   3.598   0.618
 5472SOL    HW117315   2.534   3.694   0.611
 5472SOL    HW217316   2.537   3.561   0.705
 5473SOL     OW17317   2.895   4.871   1.980
 5473SOL    HW117318   2.971   4.914   2.030
 5473SOL    HW217319   2.887   4.775   2.008
 5474SOL     OW17320   1.626   4.847   2.347
 5474SOL    HW117321   1.604   4.783   2.420
 5474SOL    HW217322   1.664   4.797   2.269
 5475SOL     OW17323   1.310   1.365   5.361
 5475SOL    HW117324   1.235   1.368   5.294
 5475SOL    HW217325   1.287   1.299   5.433
 5476SOL     OW17326   1.732   0.059   4.733
 5476SOL    HW117327   1.805   0.005   4.774
 5476SOL    HW217328   1.654   7.023   4.713
 5477SOL     OW17329   2.165   3.303   3.558
 5477SOL    HW117330   2.121   3.237   3.497
 5477SOL    HW217331   2.199   3.380   3.504
 5478SOL     OW17332   5.057   4.755   5.600
 5478SOL    HW117333   5.046   4.852   5.623
 5478SOL    HW217334   4.986   4.702   5.645
 5479SOL     OW17335   5.406   2.602   4.632
 5479SOL    HW117336   5.437   2.690   4.595
 5479SOL    HW217337   5.407   2.533   4.560
 5480SOL     OW17338   0.873   3.359   4.214
 5480SOL    HW117339   0.898   3.367   4.117
 5480SOL    HW217340   0.783   3.402   4.228
 5481SOL     OW17341   3.878   1.317   6.524
 5481SOL    HW117342   3.863   1.361   6.613
 5481SOL    HW217343   3.976   1.303   6.510
 5482SOL     OW17344   5.449   3.561   1.867
 5482SOL    HW117345   5.438   3.660   1.865
 5482SOL    HW217346   5.545   3.538   1.882
 5483SOL     OW17347   6.949   2.986   0.248
 5483SOL    HW117348   6.989   3.011   0.159
 5483SOL    HW217349   6.952   2.886   0.258
 5484SOL     OW17350   6.430   0.092   5.233
 5484SOL    HW117351   6.336   0.060   5.228
 5484SOL    HW217352   6.431   0.191   5.250
 5485SOL     OW17353   3.778   0.098   4.543
 5485SOL    HW117354   3.761   0.000   4.558
 5485SOL    HW217355   3.776   0.118   4.445
 5486SOL     OW17356   0.973   1.058   4.244
 5486SOL    HW117357   0.947   0.984   4.182
 5486SOL    HW217358   1.047   1.111   4.204
 5487SOL     OW17359   4.475   5.199   0.266
 5487SOL    HW117360   4.456   5.102   0.257
 5487SOL    HW217361   4.536   5.229   0.192
 5488SOL     OW17362   5.396   1.211   6.176
 5488SOL    HW117363   5.474   1.150   6.189
 5488SOL    HW217364   5.418   1.280   6.108
 5489SOL     OW17365   6.930   3.957   2.886
 5489SOL    HW117366   6.984   3.873   2.892
 5489SOL    HW217367   6.928   4.001   2.976
 5490SOL     OW17368   2.206   2.170   6.488
 5490SOL    HW117369   2.270   2.112   6.436
 5490SOL    HW217370   2.224   2.266   6.467
 5491SOL     OW17371   0.309   6.052   1.549
 5491SOL    HW117372   0.299   6.066   1.451
 5491SOL    HW217373   0.372   5.976   1.566
 5492SOL     OW17374   1.588   1.145   4.746
 5492SOL    HW117375   1.599   1.052   4.780
 5492SOL    HW217376   1.504   1.185   4.783
 5493SOL     OW17377   3.322   2.722   0.314
 5493SOL    HW117378   3.229   2.687   0.300
 5493SOL    HW217379   3.329   2.764   0.404
 5494SOL     OW17380   6.050   3.149   1.968
 5494SOL    HW117381   6.124   3.149   2.036
 5494SOL    HW217382   6.018   3.055   1.955
 5495SOL     OW17383   3.736   3.025   3.145
 5495SOL    HW117384   3.824   3.073   3.149
 5495SOL    HW217385   3.704   3.021   3.050
 5496SOL     OW17386   3.708   5.072   1.641
 5496SOL    HW117387   3.639   5.005   1.670
 5496SOL    HW217388   3.797   5.046   1.678
 5497SOL     OW17389   6.300   0.172   1.790
 5497SOL    HW117390   6.346   0.103   1.845
 5497SOL    HW217391   6.293   0.257   1.843
 5498SOL     OW17392   4.526   0.189   5.180
 5498SOL    HW117393   4.498   0.110   5.125
 5498SOL    HW217394   4.613   0.223   5.147
 5499SOL     OW17395   0.482   1.626   5.517
 5499SOL    HW117396   0.525   1.542   5.485
 5499SOL    HW217397   0.520   1.704   5.468
 5500SOL     OW17398   2.221   5.550   0.909
 5500SOL    HW117399   2.261   5.556   1.000
 5500SOL    HW217400   2.164   5.468   0.902
 5501SOL     OW17401   2.460   0.302   2.745
 5501SOL    HW117402   2.509   0.373   2.794
 5501SOL    HW217403   2.470   0.215   2.793
 5502SOL     OW17404   4.667   3.649   0.546
 5502SOL    HW117405   4.684   3.745   0.524
 5502SOL    HW217406   4.645   3.599   0.462
 5503SOL     OW17407   0.511   6.388   4.290
 5503SOL    HW117408   0.495   6.483   4.265
 5503SOL    HW217409   0.458   6.367   4.372
 5504SOL     OW17410   3.598   2.018   4.362
 5504SOL    HW117411   3.535   1.960   4.310
 5504SOL    HW217412   3.655   2.070   4.299
 5505SOL     OW17413   3.697   4.688   6.530
 5505SOL    HW117414   3.660   4.609   6.479
 5505SOL    HW217415   3.726   4.658   6.621
 5506SOL     OW17416   0.494   6.700   5.607
 5506SOL    HW117417   0.453   6.636   5.672
 5506SOL    HW217418   0.556   6.762   5.656
 5507SOL     OW17419   3.950   5.880   4.506
 5507SOL    HW117420   3.968   5.932   4.422
 5507SOL    HW217421   3.890   5.934   4.566
 5508SOL     OW17422   2.370   0.663   5.919
 5508SOL    HW117423   2.395   0.738   5.858
 5508SOL    HW217424   2.429   0.584   5.900
 5509SOL     OW17425   6.320   6.293   6.940
 5509SOL    HW117426   6.300   6.196   6.960
 5509SOL    HW217427   6.277   6.350   7.010
 5510SOL     OW17428   6.016   0.423   6.515
 5510SOL    HW117429   6.056   0.331   6.518
 5510SOL    HW217430   6.076   0.483   6.463
 5511SOL     OW17431   6.975   2.086   1.395
 5511SOL    HW117432   6.904   2.022   1.425
 5511SOL    HW217433   0.037   2.037   1.385
 5512SOL     OW17434   0.422   0.388   0.883
 5512SOL    HW117435   0.360   0.387   0.805
 5512SOL    HW217436   0.369   0.387   0.968
 5513SOL     OW17437   3.285   5.477   4.650
 5513SOL    HW117438   3.216   5.526   4.704
 5513SOL    HW217439   3.247   5.454   4.560
 5514SOL     OW17440   6.158   5.309   3.644
 5514SOL    HW117441   6.090   5.370   3.603
 5514SOL    HW217442   6.127   5.214   3.636
 5515SOL     OW17443   6.763   2.737   2.595
 5515SOL    HW117444   6.802   2.806   2.534
 5515SOL    HW217445   6.665   2.754   2.607
 5516SOL     OW17446   1.719   3.329   6.357
 5516SOL    HW117447   1.759   3.241   6.333
 5516SOL    HW217448   1.645   3.316   6.423
 5517SOL     OW17449   2.334   1.582   1.659
 5517SOL    HW117450   2.322   1.483   1.657
 5517SOL    HW217451   2.264   1.623   1.718
 5518SOL     OW17452   5.226   5.518   5.130
 5518SOL    HW117453   5.179   5.606   5.124
 5518SOL    HW217454   5.318   5.532   5.167
 5519SOL     OW17455   5.463   3.749   3.447
 5519SOL    HW117456   5.482   3.652   3.459
 5519SOL    HW217457   5.444   3.791   3.536
 5520SOL     OW17458   1.869   3.293   0.932
 5520SOL    HW117459   1.835   3.228   1.000
 5520SOL    HW217460   1.792   3.337   0.886
 5521SOL     OW17461   4.599   5.511   1.295
 5521SOL    HW117462   4.559   5.445   1.358
 5521SOL    HW217463   4.669   5.565   1.343
 5522SOL     OW17464   2.034   3.281   2.435
 5522SOL    HW117465   1.945   3.240   2.455
 5522SOL    HW217466   2.100   3.209   2.415
 5523SOL     OW17467   3.279   0.777   1.415
 5523SOL    HW117468   3.300   0.685   1.382
 5523SOL    HW217469   3.264   0.838   1.338
 5524SOL     OW17470   6.144   5.712   6.363
 5524SOL    HW117471   6.107   5.661   6.285
 5524SOL    HW217472   6.244   5.715   6.356
 5525SOL     OW17473   6.553   6.389   4.530
 5525SOL    HW117474   6.511   6.470   4.573
 5525SOL    HW217475   6.645   6.411   4.499
 5526SOL     OW17476   5.244   3.207   4.640
 5526SOL    HW117477   5.309   3.165   4.703
 5526SOL    HW217478   5.278   3.296   4.611
 5527SOL     OW17479   2.395   3.235   0.839
 5527SOL    HW117480   2.300   3.228   0.809
 5527SOL    HW217481   2.409   3.177   0.920
 5528SOL     OW17482   0.418   3.353   2.943
 5528SOL    HW117483   0.321   3.346   2.967
 5528SOL    HW217484   0.428   3.413   2.864
 5529SOL     OW17485   1.840   1.540   5.321
 5529SOL    HW117486   1.854   1.474   5.247
 5529SOL    HW217487   1.745   1.569   5.322
 5530SOL     OW17488   0.727   3.078   0.647
 5530SOL    HW117489   0.826   3.072   0.661
 5530SOL    HW217490   0.684   2.991   0.672
 5531SOL     OW17491   1.735   2.646   5.954
 5531SOL    HW117492   1.824   2.639   5.909
 5531SOL    HW217493   1.663   2.657   5.886
 5532SOL     OW17494   2.494   2.120   1.133
 5532SOL    HW117495   2.552   2.145   1.056
 5532SOL    HW217496   2.438   2.040   1.108
 5533SOL     OW17497   4.232   0.251   0.517
 5533SOL    HW117498   4.283   0.293   0.592
 5533SOL    HW217499   4.254   0.153   0.512
 5534SOL     OW17500   6.753   4.746   5.314
 5534SOL    HW117501   6.836   4.705   5.276
 5534SOL    HW217502   6.753   4.732   5.414
 5535SOL     OW17503   5.719   4.109   3.476
 5535SOL    HW117504   5.716   4.021   3.430
 5535SOL    HW217505   5.771   4.100   3.561
 5536SOL     OW17506   2.209   0.516   4.053
 5536SOL    HW117507   2.278   0.586   4.071
 5536SOL    HW217508   2.142   0.551   3.988
 5537SOL     OW17509   4.489   1.457   4.728
 5537SOL    HW117510   4.524   1.521   4.797
 5537SOL    HW217511   4.490   1.364   4.765
 5538SOL     OW17512   5.271   2.463   1.278
 5538SOL    HW117513   5.340   2.411   1.329
 5538SOL    HW217514   5.181   2.447   1.318
 5539SOL     OW17515   2.680   6.757   0.164
 5539SOL    HW117516   2.768   6.802   0.181
 5539SOL    HW217517   2.607   6.825   0.170
 5540SOL     OW17518   5.096   0.728   6.989
 5540SOL    HW117519   5.103   0.740   6.890
 5540SOL    HW217520   5.188   0.724   0.004
 5541SOL     OW17521   4.587   3.360   6.584
 5541SOL    HW117522   4.686   3.375   6.589
 5541SOL    HW217523   4.554   3.386   6.493
 5542SOL     OW17524   4.128   4.286   6.840
 5542SOL    HW117525   4.157   4.199   6.800
 5542SOL    HW217526   4.089   4.345   6.769
 5543SOL     OW17527   2.116   0.313   0.300
 5543SOL    HW117528   2.017   0.317   0.284
 5543SOL    HW217529   2.157   0.400   0.273
 5544SOL     OW17530   3.578   5.344   6.265
 5544SOL    HW117531   3.532   5.347   6.176
 5544SOL    HW217532   3.671   5.309   6.253
 5545SOL     OW17533   4.578   0.936   2.971
 5545SOL    HW117534   4.541   0.860   3.024
 5545SOL    HW217535   4.534   0.939   2.881
 5546SOL     OW17536   0.190   5.337   4.648
 5546SOL    HW117537   0.104   5.357   4.695
 5546SOL    HW217538   0.235   5.259   4.692
 5547SOL     OW17539   5.236   1.395   4.932
 5547SOL    HW117540   5.176   1.448   4.993
 5547SOL    HW217541   5.332   1.415   4.954
 5548SOL     OW17542   0.337   4.594   4.331
 5548SOL    HW117543   0.338   4.529   4.407
 5548SOL    HW217544   0.412   4.659   4.341
 5549SOL     OW17545   4.200   3.033   0.562
 5549SOL    HW117546   4.178   3.101   0.632
 5549SOL    HW217547   4.146   3.052   0.480
 5550SOL     OW17548   1.763   3.942   1.727
 5550SOL    HW117549   1.714   3.877   1.669
 5550SOL    HW217550   1.700   4.014   1.757
 5551SOL     OW17551   1.703   5.267   3.450
 5551SOL    HW117552   1.719   5.252   3.352
 5551SOL    HW217553   1.621   5.324   3.461
 5552SOL     OW17554   0.260   6.450   6.979
 5552SOL    HW117555   0.258   6.524   0.022
 5552SOL    HW217556   0.196   6.378   7.007
 5553SOL     OW17557   4.858   0.579   6.762
 5553SOL    HW117558   4.801   0.661   6.766
 5553SOL    HW217559   4.879   0.548   6.855
 5554SOL     OW17560   5.626   2.000   1.488
 5554SOL    HW117561   5.609   2.091   1.527
 5554SOL    HW217562   5.705   1.958   1.534
 5555SOL     OW17563   1.910   4.997   2.685
 5555SOL    HW117564   1.902   4.994   2.585
 5555SOL    HW217565   1.824   5.028   2.725
 5556SOL     OW17566   0.476   0.931   4.446
 5556SOL    HW117567   0.455   0.961   4.538
 5556SOL    HW217568   0.458   0.833   4.437
 5557SOL     OW17569   3.515   5.768   3.147
 5557SOL    HW117570   3.512   5.866   3.126
 5557SOL    HW217571   3.422   5.734   3.162
 5558SOL     OW17572   4.220   4.035   6.806
 5558SOL    HW117573   4.308   4.082   6.795
 5558SOL    HW217574   4.235   3.947   6.851
 5559SOL     OW17575   2.609   0.889   2.486
 5559SOL    HW117576   2.543   0.858   2.554
 5559SOL    HW217577   2.609   0.827   2.408
 5560SOL     OW17578   0.865   6.183   3.072
 5560SOL    HW117579   0.766   6.196   3.069
 5560SOL    HW217580   0.903   6.235   3.148
 5561SOL     OW17581   3.699   6.734   3.380
 5561SOL    HW117582   3.706   6.833   3.387
 5561SOL    HW217583   3.607   6.709   3.347
 5562SOL     OW17584   3.615   4.239   0.571
 5562SOL    HW117585   3.600   4.262   0.667
 5562SOL    HW217586   3.608   4.140   0.560
 5563SOL     OW17587   2.411   4.423   2.665
 5563SOL    HW117588   2.429   4.506   2.614
 5563SOL    HW217589   2.455   4.429   2.755
 5564SOL     OW17590   5.500   0.826   5.974
 5564SOL    HW117591   5.408   0.864   5.971
 5564SOL    HW217592   5.518   0.773   5.891
 5565SOL     OW17593   3.533   2.207   6.177
 5565SOL    HW117594   3.595   2.275   6.139
 5565SOL    HW217595   3.438   2.237   6.165
 5566SOL     OW17596   1.326   3.749   6.577
 5566SOL    HW117597   1.302   3.781   6.485
 5566SOL    HW217598   1.297   3.817   6.644
 5567SOL     OW17599   6.927   4.154   1.391
 5567SOL    HW117600   6.925   4.065   1.345
 5567SOL    HW217601   6.906   4.226   1.324
 5568SOL     OW17602   4.480   5.248   1.484
 5568SOL    HW117603   4.496   5.305   1.565
 5568SOL    HW217604   4.568   5.223   1.444
 5569SOL     OW17605   2.229   3.018   3.669
 5569SOL    HW117606   2.278   3.062   3.594
 5569SOL    HW217607   2.193   3.088   3.731
 5570SOL     OW17608   0.658   3.755   2.515
 5570SOL    HW117609   0.619   3.828   2.572
 5570SOL    HW217610   0.592   3.681   2.506
 5571SOL     OW17611   6.156   4.796   2.094
 5571SOL    HW117612   6.092   4.847   2.036
 5571SOL    HW217613   6.106   4.730   2.150
 5572SOL     OW17614   1.820   4.122   4.721
 5572SOL    HW117615   1.872   4.078   4.794
 5572SOL    HW217616   1.764   4.053   4.674
 5573SOL     OW17617   2.984   5.149   3.395
 5573SOL    HW117618   3.080   5.169   3.416
 5573SOL    HW217619   2.928   5.228   3.420
 5574SOL     OW17620   0.612   2.853   6.462
 5574SOL    HW117621   0.564   2.771   6.431
 5574SOL    HW217622   0.656   2.897   6.385
 5575SOL     OW17623   0.307   6.441   2.000
 5575SOL    HW117624   0.302   6.473   2.094
 5575SOL    HW217625   0.340   6.346   1.999
 5576SOL     OW17626   1.559   4.946   3.308
 5576SOL    HW117627   1.466   4.982   3.298
 5576SOL    HW217628   1.565   4.893   3.392
 5577SOL     OW17629   1.899   2.614   5.313
 5577SOL    HW117630   1.898   2.711   5.339
 5577SOL    HW217631   1.806   2.581   5.302
 5578SOL     OW17632   3.841   3.667   3.551
 5578SOL    HW117633   3.902   3.730   3.600
 5578SOL    HW217634   3.794   3.609   3.617
 5579SOL     OW17635   0.253   3.452   1.497
 5579SOL    HW117636   0.217   3.544   1.510
 5579SOL    HW217637   0.322   3.432   1.567
 5580SOL     OW17638   5.045   1.533   5.118
 5580SOL    HW117639   4.962   1.566   5.163
 5580SOL    HW217640   5.118   1.524   5.187
 5581SOL     OW17641   1.082   2.408   6.330
 5581SOL    HW117642   1.180   2.402   6.310
 5581SOL    HW217643   1.054   2.326   6.381
 5582SOL     OW17644   2.383   2.600   6.309
 5582SOL    HW117645   2.402   2.537   6.233
 5582SOL    HW217646   2.466   2.613   6.363
 5583SOL     OW17647   5.354   0.726   2.068
 5583SOL    HW117648   5.375   0.820   2.094
 5583SOL    HW217649   5.433   0.687   2.021
 5584SOL     OW17650   1.114   3.818   4.878
 5584SOL    HW117651   1.181   3.814   4.804
 5584SOL    HW217652   1.027   3.782   4.846
 5585SOL     OW17653   4.654   4.843   2.487
 5585SOL    HW117654   4.707   4.782   2.429
 5585SOL    HW217655   4.638   4.929   2.439
 5586SOL     OW17656   6.222   3.671   6.838
 5586SOL    HW117657   6.273   3.699   6.757
 5586SOL    HW217658   6.184   3.752   6.884
 5587SOL     OW17659   5.940   0.896   6.026
 5587SOL    HW117660   5.974   0.902   5.932
 5587SOL    HW217661   5.900   0.984   6.052
 5588SOL     OW17662   3.292   6.526   1.061
 5588SOL    HW117663   3.367   6.571   1.110
 5588SOL    HW217664   3.211   6.523   1.120
 5589SOL     OW17665   5.681   4.870   5.643
 5589SOL    HW117666   5.767   4.824   5.666
 5589SOL    HW217667   5.620   4.807   5.596
 5590SOL     OW17668   5.721   5.716   3.957
 5590SOL    HW117669   5.713   5.791   4.022
 5590SOL    HW217670   5.780   5.744   3.881
 5591SOL     OW17671   5.879   1.204   1.773
 5591SOL    HW117672   5.892   1.287   1.720
 5591SOL    HW217673   5.966   1.153   1.777
 5592SOL     OW17674   0.633   3.714   2.984
 5592SOL    HW117675   0.654   3.642   2.918
 5592SOL    HW217676   0.714   3.733   3.039
 5593SOL     OW17677   0.074   3.123   0.436
 5593SOL    HW117678   0.140   3.164   0.374
 5593SOL    HW217679   0.007   3.070   0.384
 5594SOL     OW17680   5.830   2.218   5.410
 5594SOL    HW117681   5.757   2.271   5.453
 5594SOL    HW217682   5.883   2.277   5.349
 5595SOL     OW17683   0.657   2.406   5.164
 5595SOL    HW117684   0.716   2.425   5.242
 5595SOL    HW217685   0.562   2.428   5.188
 5596SOL     OW17686   4.003   6.758   3.084
 5596SOL    HW117687   3.978   6.722   2.994
 5596SOL    HW217688   3.920   6.767   3.140
 5597SOL     OW17689   5.556   3.591   3.043
 5597SOL    HW117690   5.647   3.597   3.086
 5597SOL    HW217691   5.552   3.509   2.986
 5598SOL     OW17692   5.484   1.957   5.079
 5598SOL    HW117693   5.416   1.891   5.110
 5598SOL    HW217694   5.469   2.044   5.126
 5599SOL     OW17695   0.381   1.010   3.708
 5599SOL    HW117696   0.429   0.954   3.776
 5599SOL    HW217697   0.440   1.085   3.679
 5600SOL     OW17698   1.511   2.276   4.243
 5600SOL    HW117699   1.465   2.337   4.307
 5600SOL    HW217700   1.552   2.199   4.293
 5601SOL     OW17701   2.626   0.929   5.708
 5601SOL    HW117702   2.676   0.846   5.682
 5601SOL    HW217703   2.536   0.930   5.665
 5602SOL     OW17704   1.409   2.027   0.606
 5602SOL    HW117705   1.398   1.969   0.526
 5602SOL    HW217706   1.371   2.118   0.587
 5603SOL     OW17707   5.719   3.209   6.580
 5603SOL    HW117708   5.674   3.282   6.530
 5603SOL    HW217709   5.690   3.211   6.675
 5604SOL     OW17710   6.794   2.053   6.094
 5604SOL    HW117711   6.825   1.987   6.025
 5604SOL    HW217712   6.709   2.021   6.135
 5605SOL     OW17713   0.690   1.869   5.118
 5605SOL    HW117714   0.653   1.940   5.058
 5605SOL    HW217715   0.645   1.782   5.099
 5606SOL     OW17716   4.602   6.859   2.229
 5606SOL    HW117717   4.557   6.793   2.289
 5606SOL    HW217718   4.567   6.951   2.248
 5607SOL     OW17719   5.993   0.860   1.947
 5607SOL    HW117720   5.979   0.925   2.022
 5607SOL    HW217721   6.059   0.897   1.882
 5608SOL     OW17722   4.170   6.422   5.211
 5608SOL    HW117723   4.212   6.387   5.128
 5608SOL    HW217724   4.100   6.358   5.243
 5609SOL     OW17725   2.352   6.357   5.730
 5609SOL    HW117726   2.336   6.364   5.828
 5609SOL    HW217727   2.273   6.393   5.680
 5610SOL     OW17728   4.712   0.799   6.775
 5610SOL    HW117729   4.675   0.817   6.684
 5610SOL    HW217730   4.667   0.860   6.841
 5611SOL     OW17731   1.969   5.118   3.118
 5611SOL    HW117732   1.950   5.046   3.184
 5611SOL    HW217733   1.895   5.186   3.120
 5612SOL     OW17734   2.496   0.072   5.579
 5612SOL    HW117735   2.533   0.002   5.641
 5612SOL    HW217736   2.534   0.161   5.602
 5613SOL     OW17737   3.862   4.758   1.766
 5613SOL    HW117738   3.940   4.819   1.752
 5613SOL    HW217739   3.809   4.789   1.845
 5614SOL     OW17740   4.528   2.122   3.165
 5614SOL    HW117741   4.515   2.040   3.109
 5614SOL    HW217742   4.619   2.160   3.147
 5615SOL     OW17743   1.220   1.457   0.995
 5615SOL    HW117744   1.176   1.546   0.984
 5615SOL    HW217745   1.159   1.385   0.965
 5616SOL     OW17746   2.554   0.399   4.417
 5616SOL    HW117747   2.588   0.353   4.335
 5616SOL    HW217748   2.474   0.455   4.394
 5617SOL     OW17749   1.701   1.023   5.221
 5617SOL    HW117750   1.633   1.096   5.234
 5617SOL    HW217751   1.657   0.934   5.230
 5618SOL     OW17752   6.616   4.246   2.941
 5618SOL    HW117753   6.697   4.283   2.896
 5618SOL    HW217754   6.642   4.169   2.999
 5619SOL     OW17755   2.206   3.290   5.198
 5619SOL    HW117756   2.140   3.313   5.269
 5619SOL    HW217757   2.240   3.374   5.155
 5620SOL     OW17758   3.739   1.853   5.862
 5620SOL    HW117759   3.782   1.941   5.844
 5620SOL    HW217760   3.671   1.863   5.935
 5621SOL     OW17761   2.318   2.635   5.549
 5621SOL    HW117762   2.405   2.662   5.590
 5621SOL    HW217763   2.267   2.717   5.522
 5622SOL     OW17764   6.251   0.494   6.026
 5622SOL    HW117765   6.340   0.512   6.068
 5622SOL    HW217766   6.237   0.556   5.950
 5623SOL     OW17767   0.741   5.822   0.097
 5623SOL    HW117768   0.667   5.810   0.030
 5623SOL    HW217769   0.825   5.848   0.050
 5624SOL     OW17770   1.052   3.939   3.227
 5624SOL    HW117771   1.140   3.900   3.202
 5624SOL    HW217772   1.050   3.956   3.325
 5625SOL     OW17773   6.908   2.276   5.315
 5625SOL    HW117774   6.988   2.329   5.343
 5625SOL    HW217775   6.894   2.286   5.217
 5626SOL     OW17776   4.073   7.016   4.361
 5626SOL    HW117777   4.169   0.009   4.336
 5626SOL    HW217778   4.036   6.945   4.301
 5627SOL     OW17779   1.361   6.130   0.419
 5627SOL    HW117780   1.454   6.096   0.429
 5627SOL    HW217781   1.326   6.107   0.328
 5628SOL     OW17782   1.872   1.039   4.563
 5628SOL    HW117783   1.950   1.041   4.501
 5628SOL    HW217784   1.850   1.131   4.593
 5629SOL     OW17785   3.601   3.805   2.713
 5629SOL    HW117786   3.667   3.842   2.779
 5629SOL    HW217787   3.650   3.759   2.639
 5630SOL     OW17788   0.468   4.540   2.073
 5630SOL    HW117789   0.427   4.583   1.993
 5630SOL    HW217790   0.558   4.580   2.090
 5631SOL     OW17791   4.930   0.913   0.304
 5631SOL    HW117792   4.971   0.874   0.387
 5631SOL    HW217793   4.830   0.905   0.309
 5632SOL     OW17794   4.129   3.786   0.384
 5632SOL    HW117795   4.141   3.875   0.429
 5632SOL    HW217796   4.204   3.726   0.408
 5633SOL     OW17797   6.302   2.390   4.525
 5633SOL    HW117798   6.307   2.452   4.446
 5633SOL    HW217799   6.222   2.330   4.515
 5634SOL     OW17800   4.256   6.145   4.613
 5634SOL    HW117801   4.168   6.165   4.570
 5634SOL    HW217802   4.248   6.061   4.666
 5635SOL     OW17803   3.247   2.067   5.178
 5635SOL    HW117804   3.194   2.137   5.131
 5635SOL    HW217805   3.304   2.109   5.249
 5636SOL     OW17806   3.855   5.628   3.774
 5636SOL    HW117807   3.823   5.589   3.860
 5636SOL    HW217808   3.810   5.716   3.759
 5637SOL     OW17809   5.128   0.107   3.572
 5637SOL    HW117810   5.201   0.060   3.523
 5637SOL    HW217811   5.161   0.137   3.661
 5638SOL     OW17812   5.649   3.443   6.443
 5638SOL    HW117813   5.579   3.513   6.455
 5638SOL    HW217814   5.656   3.418   6.347
 5639SOL     OW17815   3.049   1.042   6.044
 5639SOL    HW117816   3.089   1.121   5.998
 5639SOL    HW217817   2.985   0.996   5.982
 5640SOL     OW17818   2.317   0.176   3.616
 5640SOL    HW117819   2.355   0.084   3.627
 5640SOL    HW217820   2.300   0.194   3.519
 5641SOL     OW17821   5.411   5.642   4.871
 5641SOL    HW117822   5.444   5.680   4.957
 5641SOL    HW217823   5.378   5.716   4.812
 5642SOL     OW17824   1.382   1.961   6.642
 5642SOL    HW117825   1.349   1.912   6.723
 5642SOL    HW217826   1.480   1.979   6.651
 5643SOL     OW17827   5.892   2.705   4.817
 5643SOL    HW117828   5.958   2.683   4.745
 5643SOL    HW217829   5.831   2.628   4.831
 5644SOL     OW17830   3.282   0.143   6.350
 5644SOL    HW117831   3.205   0.189   6.306
 5644SOL    HW217832   3.362   0.203   6.350
 5645SOL     OW17833   4.888   2.711   4.443
 5645SOL    HW117834   4.982   2.675   4.437
 5645SOL    HW217835   4.890   2.800   4.488
 5646SOL     OW17836   1.850   4.287   2.429
 5646SOL    HW117837   1.884   4.217   2.492
 5646SOL    HW217838   1.766   4.255   2.385
 5647SOL     OW17839   6.764   6.025   2.836
 5647SOL    HW117840   6.845   6.036   2.894
 5647SOL    HW217841   6.733   5.930   2.841
 5648SOL     OW17842   4.357   6.668   3.370
 5648SOL    HW117843   4.271   6.719   3.370
 5648SOL    HW217844   4.376   6.634   3.278
 5649SOL     OW17845   1.010   6.268   4.103
 5649SOL    HW117846   0.933   6.327   4.128
 5649SOL    HW217847   1.080   6.273   4.175
 5650SOL     OW17848   6.747   4.463   6.752
 5650SOL    HW117849   6.834   4.424   6.724
 5650SOL    HW217850   6.714   4.416   6.834
 5651SOL     OW17851   2.283   0.610   1.786
 5651SOL    HW117852   2.196   0.607   1.837
 5651SOL    HW217853   2.281   0.685   1.721
 5652SOL     OW17854   1.060   5.471   1.371
 5652SOL    HW117855   0.981   5.525   1.345
 5652SOL    HW217856   1.139   5.497   1.315
 5653SOL     OW17857   0.053   6.889   1.405
 5653SOL    HW117858   0.055   6.972   1.460
 5653SOL    HW217859   0.098   6.905   1.317
 5654SOL     OW17860   3.082   5.287   4.178
 5654SOL    HW117861   3.134   5.216   4.225
 5654SOL    HW217862   3.119   5.299   4.086
 5655SOL     OW17863   6.045   2.663   5.033
 5655SOL    HW117864   6.096   2.582   5.003
 5655SOL    HW217865   5.992   2.700   4.957
 5656SOL     OW17866   6.958   3.797   0.053
 5656SOL    HW117867   6.996   3.888   0.070
 5656SOL    HW217868   6.858   3.803   0.045
 5657SOL     OW17869   4.797   5.741   5.231
 5657SOL    HW117870   4.860   5.713   5.158
 5657SOL    HW217871   4.771   5.837   5.217
 5658SOL     OW17872   2.692   2.724   6.010
 5658SOL    HW117873   2.702   2.765   6.101
 5658SOL    HW217874   2.610   2.760   5.967
 5659SOL     OW17875   3.430   3.628   6.680
 5659SOL    HW117876   3.372   3.691   6.732
 5659SOL    HW217877   3.481   3.570   6.744
 5660SOL     OW17878   4.857   0.594   6.109
 5660SOL    HW117879   4.808   0.674   6.074
 5660SOL    HW217880   4.955   0.614   6.112
 5661SOL     OW17881   1.332   5.002   4.996
 5661SOL    HW117882   1.288   5.035   4.912
 5661SOL    HW217883   1.428   5.028   4.996
 5662SOL     OW17884   2.662   6.432   2.280
 5662SOL    HW117885   2.571   6.471   2.299
 5662SOL    HW217886   2.724   6.505   2.254
 5663SOL     OW17887   1.376   3.085   6.197
 5663SOL    HW117888   1.321   3.135   6.264
 5663SOL    HW217889   1.330   3.087   6.108
 5664SOL     OW17890   4.983   4.851   4.556
 5664SOL    HW117891   5.065   4.797   4.576
 5664SOL    HW217892   4.902   4.792   4.561
 5665SOL     OW17893   2.104   1.961   0.663
 5665SOL    HW117894   2.201   1.974   0.682
 5665SOL    HW217895   2.065   1.899   0.730
 5666SOL     OW17896   5.746   1.452   5.038
 5666SOL    HW117897   5.728   1.535   5.091
 5666SOL    HW217898   5.672   1.438   4.972
 5667SOL     OW17899   2.265   5.070   4.389
 5667SOL    HW117900   2.355   5.070   4.434
 5667SOL    HW217901   2.278   5.071   4.290
 5668SOL     OW17902   5.162   3.614   3.845
 5668SOL    HW117903   5.152   3.543   3.776
 5668SOL    HW217904   5.072   3.633   3.886
 5669SOL     OW17905   5.818   4.478   5.533
 5669SOL    HW117906   5.913   4.473   5.563
 5669SOL    HW217907   5.801   4.410   5.461
 5670SOL     OW17908   0.878   2.108   3.127
 5670SOL    HW117909   0.780   2.104   3.108
 5670SOL    HW217910   0.924   2.162   3.056
 5671SOL     OW17911   0.115   6.470   3.602
 5671SOL    HW117912   0.154   6.548   3.553
 5671SOL    HW217913   0.034   6.500   3.653
 5672SOL     OW17914   5.143   2.952   5.019
 5672SOL    HW117915   5.207   3.016   5.061
 5672SOL    HW217916   5.123   2.878   5.084
 5673SOL     OW17917   0.753   1.193   1.016
 5673SOL    HW117918   0.771   1.192   0.918
 5673SOL    HW217919   0.659   1.161   1.032
 5674SOL     OW17920   2.217   4.863   5.194
 5674SOL    HW117921   2.184   4.771   5.215
 5674SOL    HW217922   2.233   4.872   5.096
 5675SOL     OW17923   2.697   2.345   0.692
 5675SOL    HW117924   2.690   2.296   0.605
 5675SOL    HW217925   2.789   2.382   0.702
 5676SOL     OW17926   2.772   1.750   2.252
 5676SOL    HW117927   2.787   1.652   2.270
 5676SOL    HW217928   2.676   1.765   2.228
 5677SOL     OW17929   6.460   1.464   0.492
 5677SOL    HW117930   6.528   1.426   0.554
 5677SOL    HW217931   6.426   1.392   0.431
 5678SOL     OW17932   3.271   1.941   1.908
 5678SOL    HW117933   3.278   2.036   1.877
 5678SOL    HW217934   3.179   1.907   1.888
 5679SOL     OW17935   6.002   3.700   4.942
 5679SOL    HW117936   6.094   3.738   4.925
 5679SOL    HW217937   5.936   3.775   4.942
 5680SOL     OW17938   0.867   6.066   4.944
 5680SOL    HW117939   0.900   6.155   4.974
 5680SOL    HW217940   0.772   6.075   4.914
 5681SOL     OW17941   1.070   3.484   4.359
 5681SOL    HW117942   1.164   3.489   4.325
 5681SOL    HW217943   1.018   3.417   4.305
 5682SOL     OW17944   1.989   4.317   1.877
 5682SOL    HW117945   2.084   4.327   1.908
 5682SOL    HW217946   1.983   4.237   1.817
 5683SOL     OW17947   6.783   1.296   5.929
 5683SOL    HW117948   6.828   1.385   5.935
 5683SOL    HW217949   6.832   1.230   5.984
 5684SOL     OW17950   2.339   2.334   4.845
 5684SOL    HW117951   2.435   2.360   4.837
 5684SOL    HW217952   2.283   2.416   4.858
 5685SOL     OW17953   2.579   2.061   2.416
 5685SOL    HW117954   2.535   2.070   2.506
 5685SOL    HW217955   2.666   2.111   2.417
 5686SOL     OW17956   4.209   5.371   6.005
 5686SOL    HW117957   4.169   5.357   5.915
 5686SOL    HW217958   4.297   5.324   6.010
 5687SOL     OW17959   2.304   6.438   6.942
 5687SOL    HW117960   2.338   6.503   6.874
 5687SOL    HW217961   2.300   6.483   0.007
 5688SOL     OW17962   1.899   1.896   3.449
 5688SOL    HW117963   1.998   1.891   3.438
 5688SOL    HW217964   1.856   1.825   3.393
 5689SOL     OW17965   0.493   2.895   1.709
 5689SOL    HW117966   0.418   2.938   1.658
 5689SOL    HW217967   0.460   2.810   1.751
 5690SOL     OW17968   1.817   4.892   0.123
 5690SOL    HW117969   1.864   4.811   0.161
 5690SOL    HW217970   1.873   4.973   0.139
 5691SOL     OW17971   3.304   1.170   2.941
 5691SOL    HW117972   3.286   1.172   2.843
 5691SOL    HW217973   3.396   1.133   2.957
 5692SOL     OW17974   4.612   5.043   2.315
 5692SOL    HW117975   4.657   5.026   2.227
 5692SOL    HW217976   4.617   5.141   2.337
 5693SOL     OW17977   4.685   1.117   1.408
 5693SOL    HW117978   4.633   1.192   1.449
 5693SOL    HW217979   4.644   1.092   1.320
 5694SOL     OW17980   0.765   6.285   1.996
 5694SOL    HW117981   0.854   6.249   1.966
 5694SOL    HW217982   0.692   6.226   1.961
 5695SOL     OW17983   2.148   0.728   1.292
 5695SOL    HW117984   2.116   0.808   1.343
 5695SOL    HW217985   2.188   0.662   1.356
 5696SOL     OW17986   1.584   0.359   4.101
 5696SOL    HW117987   1.672   0.405   4.085
 5696SOL    HW217988   1.509   0.420   4.076
 5697SOL     OW17989   6.220   3.447   0.907
 5697SOL    HW117990   6.286   3.377   0.879
 5697SOL    HW217991   6.176   3.418   0.992
 5698SOL     OW17992   2.778   2.349   3.975
 5698SOL    HW117993   2.728   2.413   3.917
 5698SOL    HW217994   2.781   2.384   4.069
 5699SOL     OW17995   1.727   2.972   2.849
 5699SOL    HW117996   1.710   3.040   2.778
 5699SOL    HW217997   1.749   3.019   2.935
 5700SOL     OW17998   6.242   0.252   3.049
 5700SOL    HW117999   6.307   0.205   2.990
 5700SOL    HW218000   6.159   0.196   3.058
 5701SOL     OW18001   0.279   0.756   0.926
 5701SOL    HW118002   0.196   0.708   0.950
 5701SOL    HW218003   0.270   0.853   0.951
 5702SOL     OW18004   2.800   6.693   4.505
 5702SOL    HW118005   2.772   6.659   4.595
 5702SOL    HW218006   2.731   6.671   4.437
 5703SOL     OW18007   6.980   2.990   6.188
 5703SOL    HW118008   6.935   2.958   6.271
 5703SOL    HW218009   0.007   3.074   6.207
 5704SOL     OW18010   4.293   5.360   4.289
 5704SOL    HW118011   4.243   5.347   4.204
 5704SOL    HW218012   4.232   5.399   4.358
 5705SOL     OW18013   6.386   0.025   5.679
 5705SOL    HW118014   6.439   0.000   5.598
 5705SOL    HW218015   6.336   0.110   5.662
 5706SOL     OW18016   4.926   2.099   6.849
 5706SOL    HW118017   4.828   2.105   6.829
 5706SOL    HW218018   4.967   2.028   6.793
 5707SOL     OW18019   5.221   5.698   1.801
 5707SOL    HW118020   5.242   5.795   1.816
 5707SOL    HW218021   5.210   5.681   1.703
 5708SOL     OW18022   4.342   6.141   2.561
 5708SOL    HW118023   4.278   6.079   2.605
 5708SOL    HW218024   4.412   6.089   2.513
 5709SOL     OW18025   0.049   2.083   2.444
 5709SOL    HW118026   0.011   2.126   2.362
 5709SOL    HW218027   7.007   2.089   2.518
 5710SOL     OW18028   3.383   1.861   1.112
 5710SOL    HW118029   3.454   1.920   1.150
 5710SOL    HW218030   3.362   1.788   1.176
 5711SOL     OW18031   5.105   1.675   2.695
 5711SOL    HW118032   5.193   1.630   2.710
 5711SOL    HW218033   5.115   1.774   2.709
 5712SOL     OW18034   6.314   0.205   0.932
 5712SOL    HW118035   6.360   0.269   0.993
 5712SOL    HW218036   6.246   0.254   0.877
 5713SOL     OW18037   2.609   0.861   0.708
 5713SOL    HW118038   2.517   0.898   0.691
 5713SOL    HW218039   2.623   0.852   0.806
 5714SOL     OW18040   6.497   0.082   0.767
 5714SOL    HW118041   6.568   0.024   0.807
 5714SOL    HW218042   6.441   0.121   0.841
 5715SOL     OW18043   0.085   0.189   1.757
 5715SOL    HW118044   0.041   0.218   1.842
 5715SOL    HW218045   0.184   0.178   1.772
 5716SOL     OW18046   6.358   4.573   4.606
 5716SOL    HW118047   6.345   4.488   4.555
 5716SOL    HW218048   6.421   4.557   4.682
 5717SOL     OW18049   1.758   5.291   3.157
 5717SOL    HW118050   1.679   5.240   3.122
 5717SOL    HW218051   1.774   5.371   3.099
 5718SOL     OW18052   1.091   3.251   0.012
 5718SOL    HW118053   1.185   3.285   0.018
 5718SOL    HW218054   1.038   3.285   0.090
 5719SOL     OW18055   2.125   3.225   0.761
 5719SOL    HW118056   2.102   3.311   0.717
 5719SOL    HW218057   2.117   3.150   0.696
 5720SOL     OW18058   2.869   5.058   5.755
 5720SOL    HW118059   2.838   5.028   5.665
 5720SOL    HW218060   2.945   4.999   5.785
 5721SOL     OW18061   1.969   3.335   0.195
 5721SOL    HW118062   1.872   3.312   0.200
 5721SOL    HW218063   1.999   3.334   0.100
 5722SOL     OW18064   1.799   0.752   6.430
 5722SOL    HW118065   1.838   0.693   6.501
 5722SOL    HW218066   1.771   0.839   6.471
 5723SOL     OW18067   4.178   3.257   0.741
 5723SOL    HW118068   4.147   3.351   0.728
 5723SOL    HW218069   4.134   3.218   0.822
 5724SOL     OW18070   5.343   1.758   5.184
 5724SOL    HW118071   5.409   1.688   5.213
 5724SOL    HW218072   5.292   1.724   5.105
 5725SOL     OW18073   6.897   4.123   4.043
 5725SOL    HW118074   6.952   4.172   3.975
 5725SOL    HW218075   6.843   4.188   4.096
 5726SOL     OW18076   5.628   4.292   2.278
 5726SOL    HW118077   5.548   4.309   2.222
 5726SOL    HW218078   5.612   4.327   2.371
 5727SOL     OW18079   0.590   1.832   5.358
 5727SOL    HW118080   0.640   1.840   5.272
 5727SOL    HW218081   0.642   1.875   5.431
 5728SOL     OW18082   4.696   6.546   5.208
 5728SOL    HW118083   4.735   6.495   5.285
 5728SOL    HW218084   4.769   6.575   5.146
 5729SOL     OW18085   2.665   2.078   4.789
 5729SOL    HW118086   2.640   2.046   4.698
 5729SOL    HW218087   2.713   2.006   4.838
 5730SOL     OW18088   6.925   4.199   4.538
 5730SOL    HW118089   6.994   4.225   4.606
 5730SOL    HW218090   6.953   4.233   4.448
 5731SOL     OW18091   0.819   6.847   2.781
 5731SOL    HW118092   0.898   6.823   2.724
 5731SOL    HW218093   0.803   6.775   2.848
 5732SOL     OW18094   0.495   0.142   3.644
 5732SOL    HW118095   0.522   0.086   3.566
 5732SOL    HW218096   0.502   0.087   3.728
 5733SOL     OW18097   3.050   6.966   5.728
 5733SOL    HW118098   3.030   6.970   5.630
 5733SOL    HW218099   2.968   6.987   5.780
 5734SOL     OW18100   1.645   6.094   3.229
 5734SOL    HW118101   1.696   6.168   3.272
 5734SOL    HW218102   1.643   6.015   3.291
 5735SOL     OW18103   3.131   1.459   1.672
 5735SOL    HW118104   3.160   1.429   1.763
 5735SOL    HW218105   3.210   1.461   1.611
 5736SOL     OW18106   1.139   5.177   6.697
 5736SOL    HW118107   1.088   5.140   6.620
 5736SOL    HW218108   1.142   5.108   6.770
 5737SOL     OW18109   5.169   4.235   0.869
 5737SOL    HW118110   5.267   4.224   0.886
 5737SOL    HW218111   5.129   4.146   0.848
 5738SOL     OW18112   1.438   4.189   5.952
 5738SOL    HW118113   1.459   4.094   5.929
 5738SOL    HW218114   1.403   4.236   5.871
 5739SOL     OW18115   1.219   1.728   1.722
 5739SOL    HW118116   1.286   1.683   1.662
 5739SOL    HW218117   1.127   1.715   1.685
 5740SOL     OW18118   3.899   5.641   6.281
 5740SOL    HW118119   3.863   5.560   6.236
 5740SOL    HW218120   3.861   5.648   6.373
 5741SOL     OW18121   6.789   4.404   2.790
 5741SOL    HW118122   6.840   4.413   2.704
 5741SOL    HW218123   6.727   4.482   2.799
 5742SOL     OW18124   6.839   6.412   5.047
 5742SOL    HW118125   6.758   6.380   5.096
 5742SOL    HW218126   6.814   6.485   4.983
 5743SOL     OW18127   1.678   6.661   4.089
 5743SOL    HW118128   1.613   6.588   4.066
 5743SOL    HW218129   1.627   6.741   4.123
 5744SOL     OW18130   5.753   6.994   1.912
 5744SOL    HW118131   5.742   6.983   1.813
 5744SOL    HW218132   5.841   6.956   1.940
 5745SOL     OW18133   1.193   1.959   3.706
 5745SOL    HW118134   1.214   1.891   3.636
 5745SOL    HW218135   1.159   2.043   3.663
 5746SOL     OW18136   6.339   4.619   6.990
 5746SOL    HW118137   6.390   4.547   0.013
 5746SOL    HW218138   6.303   4.684   0.033
 5747SOL     OW18139   0.613   6.400   2.832
 5747SOL    HW118140   0.605   6.324   2.896
 5747SOL    HW218141   0.557   6.382   2.752
 5748SOL     OW18142   2.158   6.545   3.466
 5748SOL    HW118143   2.178   6.489   3.546
 5748SOL    HW218144   2.110   6.490   3.398
 5749SOL     OW18145   2.519   1.437   2.834
 5749SOL    HW118146   2.558   1.473   2.918
 5749SOL    HW218147   2.535   1.502   2.759
 5750SOL     OW18148   6.434   5.628   2.716
 5750SOL    HW118149   6.422   5.609   2.618
 5750SOL    HW218150   6.411   5.546   2.768
 5751SOL     OW18151   1.617   2.934   5.979
 5751SOL    HW118152   1.688   3.004   5.985
 5751SOL    HW218153   1.660   2.844   5.970
 5752SOL     OW18154   0.362   1.421   0.070
 5752SOL    HW118155   0.430   1.380   0.008
 5752SOL    HW218156   0.274   1.375   0.058
 5753SOL     OW18157   4.408   2.230   0.308
 5753SOL    HW118158   4.485   2.200   0.364
 5753SOL    HW218159   4.324   2.188   0.341
 5754SOL     OW18160   6.206   4.942   0.744
 5754SOL    HW118161   6.299   4.978   0.732
 5754SOL    HW218162   6.186   4.878   0.670
 5755SOL     OW18163   3.174   3.542   1.492
 5755SOL    HW118164   3.265   3.562   1.456
 5755SOL    HW218165   3.182   3.503   1.583
 5756SOL     OW18166   6.881   6.818   4.529
 5756SOL    HW118167   6.944   6.894   4.539
 5756SOL    HW218168   6.910   6.741   4.586
 5757SOL     OW18169   6.979   6.149   1.824
 5757SOL    HW118170   6.969   6.088   1.746
 5757SOL    HW218171   6.996   6.242   1.790
 5758SOL     OW18172   1.791   1.311   5.917
 5758SOL    HW118173   1.767   1.223   5.876
 5758SOL    HW218174   1.781   1.305   6.016
 5759SOL     OW18175   6.331   1.675   5.371
 5759SOL    HW118176   6.331   1.772   5.392
 5759SOL    HW218177   6.280   1.626   5.442
 5760SOL     OW18178   1.394   5.266   1.636
 5760SOL    HW118179   1.375   5.361   1.612
 5760SOL    HW218180   1.329   5.236   1.706
 5761SOL     OW18181   5.169   0.864   5.144
 5761SOL    HW118182   5.239   0.804   5.106
 5761SOL    HW218183   5.202   0.958   5.144
 5762SOL     OW18184   5.617   6.189   1.546
 5762SOL    HW118185   5.641   6.136   1.465
 5762SOL    HW218186   5.670   6.275   1.546
 5763SOL     OW18187   1.242   1.561   1.227
 5763SOL    HW118188   1.224   1.500   1.150
 5763SOL    HW218189   1.311   1.629   1.200
 5764SOL     OW18190   4.504   3.230   5.614
 5764SOL    HW118191   4.485   3.194   5.523
 5764SOL    HW218192   4.530   3.326   5.608
 5765SOL     OW18193   6.199   5.252   0.457
 5765SOL    HW118194   6.185   5.317   0.383
 5765SOL    HW218195   6.146   5.280   0.537
 5766SOL     OW18196   2.857   0.914   3.776
 5766SOL    HW118197   2.907   0.844   3.726
 5766SOL    HW218198   2.870   0.902   3.874
 5767SOL     OW18199   6.684   0.344   0.917
 5767SOL    HW118200   6.784   0.340   0.913
 5767SOL    HW218201   6.646   0.286   0.845
 5768SOL     OW18202   6.136   0.296   2.577
 5768SOL    HW118203   6.059   0.246   2.617
 5768SOL    HW218204   6.115   0.394   2.576
 5769SOL     OW18205   2.075   5.767   3.401
 5769SOL    HW118206   2.105   5.682   3.357
 5769SOL    HW218207   2.154   5.815   3.438
 5770SOL     OW18208   5.935   1.461   1.607
 5770SOL    HW118209   5.945   1.554   1.643
 5770SOL    HW218210   5.895   1.465   1.515
 5771SOL     OW18211   0.416   1.335   2.018
 5771SOL    HW118212   0.396   1.260   1.955
 5771SOL    HW218213   0.425   1.420   1.967
 5772SOL     OW18214   6.976   4.351   6.673
 5772SOL    HW118215   7.000   4.270   6.619
 5772SOL    HW218216   6.985   4.432   6.616
 5773SOL     OW18217   4.902   6.030   4.608
 5773SOL    HW118218   4.819   5.988   4.572
 5773SOL    HW218219   4.970   6.038   4.534
 5774SOL     OW18220   3.149   4.947   2.737
 5774SOL    HW118221   3.067   4.962   2.792
 5774SOL    HW218222   3.155   5.018   2.667
 5775SOL     OW18223   0.936   0.766   0.295
 5775SOL    HW118224   1.020   0.719   0.320
 5775SOL    HW218225   0.890   0.716   0.221
 5776SOL     OW18226   4.770   1.396   6.151
 5776SOL    HW118227   4.714   1.475   6.177
 5776SOL    HW218228   4.864   1.411   6.179
 5777SOL     OW18229   5.664   1.053   5.740
 5777SOL    HW118230   5.715   1.138   5.732
 5777SOL    HW218231   5.566   1.072   5.736
 5778SOL     OW18232   2.541   6.697   3.654
 5778SOL    HW118233   2.474   6.770   3.645
 5778SOL    HW218234   2.527   6.648   3.740
 5779SOL     OW18235   4.381   0.550   1.616
 5779SOL    HW118236   4.384   0.468   1.558
 5779SOL    HW218237   4.429   0.532   1.702
 5780SOL     OW18238   5.735   3.497   1.454
 5780SOL    HW118239   5.712   3.569   1.389
 5780SOL    HW218240   5.662   3.488   1.522
 5781SOL     OW18241   2.854   4.732   5.313
 5781SOL    HW118242   2.827   4.697   5.403
 5781SOL    HW218243   2.894   4.658   5.259
 5782SOL     OW18244   4.047   1.590   3.432
 5782SOL    HW118245   4.090   1.680   3.433
 5782SOL    HW218246   4.117   1.519   3.431
 5783SOL     OW18247   2.616   6.592   1.493
 5783SOL    HW118248   2.655   6.662   1.553
 5783SOL    HW218249   2.589   6.512   1.548
 5784SOL     OW18250   1.131   5.435   0.380
 5784SOL    HW118251   1.125   5.424   0.281
 5784SOL    HW218252   1.131   5.345   0.424
 5785SOL     OW18253   2.779   1.255   0.321
 5785SOL    HW118254   2.807   1.347   0.294
 5785SOL    HW218255   2.756   1.202   0.239
 5786SOL     OW18256   0.535   3.137   6.686
 5786SOL    HW118257   0.536   3.064   6.755
 5786SOL    HW218258   0.628   3.155   6.655
 5787SOL     OW18259   0.025   3.134   5.243
 5787SOL    HW118260   6.970   3.105   5.191
 5787SOL    HW218261   0.018   3.102   5.337
 5788SOL     OW18262   1.618   2.389   2.230
 5788SOL    HW118263   1.562   2.455   2.180
 5788SOL    HW218264   1.582   2.297   2.215
 5789SOL     OW18265   2.875   4.967   6.964
 5789SOL    HW118266   2.874   5.023   0.022
 5789SOL    HW218267   2.968   4.935   6.946
 5790SOL     OW18268   6.489   6.530   2.768
 5790SOL    HW118269   6.463   6.583   2.687
 5790SOL    HW218270   6.558   6.462   2.742
 5791SOL     OW18271   4.219   1.110   1.182
 5791SOL    HW118272   4.237   1.055   1.264
 5791SOL    HW218273   4.264   1.199   1.191
 5792SOL     OW18274   4.092   2.218   3.214
 5792SOL    HW118275   4.124   2.186   3.125
 5792SOL    HW218276   4.162   2.277   3.255
 5793SOL     OW18277   3.880   2.474   6.861
 5793SOL    HW118278   3.914   2.437   6.948
 5793SOL    HW218279   3.910   2.416   6.786
 5794SOL     OW18280   3.775   6.028   0.048
 5794SOL    HW118281   3.744   5.946   0.097
 5794SOL    HW218282   3.861   6.008   0.001
 5795SOL     OW18283   1.882   7.014   1.740
 5795SOL    HW118284   1.852   0.084   1.727
 5795SOL    HW218285   1.813   6.965   1.794
 5796SOL     OW18286   4.951   1.026   6.859
 5796SOL    HW118287   4.882   1.005   6.928
 5796SOL    HW218288   4.963   0.946   6.799
 5797SOL     OW18289   0.116   2.769   0.490
 5797SOL    HW118290   0.055   2.754   0.568
 5797SOL    HW218291   0.211   2.761   0.520
 5798SOL     OW18292   1.809   3.363   3.927
 5798SOL    HW118293   1.892   3.342   3.874
 5798SOL    HW218294   1.828   3.439   3.989
 5799SOL     OW18295   2.715   0.226   3.474
 5799SOL    HW118296   2.687   0.195   3.565
 5799SOL    HW218297   2.805   0.188   3.452
 5800SOL     OW18298   0.913   6.969   2.243
 5800SOL    HW118299   0.976   6.904   2.286
 5800SOL    HW218300   0.889   0.016   2.308
 5801SOL     OW18301   1.854   1.282   2.456
 5801SOL    HW118302   1.916   1.212   2.492
 5801SOL    HW218303   1.781   1.239   2.404
 5802SOL     OW18304   0.897   0.213   2.800
 5802SOL    HW118305   0.950   0.152   2.859
 5802SOL    HW218306   0.837   0.159   2.741
 5803SOL     OW18307   0.396   6.432   4.557
 5803SOL    HW118308   0.401   6.340   4.596
 5803SOL    HW218309   0.301   6.450   4.529
 5804SOL     OW18310   6.573   1.850   3.147
 5804SOL    HW118311   6.487   1.849   3.097
 5804SOL    HW218312   6.618   1.938   3.134
 5805SOL     OW18313   1.013   2.765   2.009
 5805SOL    HW118314   1.039   2.839   1.948
 5805SOL    HW218315   1.078   2.689   1.999
 5806SOL     OW18316   6.601   3.586   2.663
 5806SOL    HW118317   6.623   3.663   2.723
 5806SOL    HW218318   6.530   3.614   2.598
 5807SOL     OW18319   1.202   0.983   2.354
 5807SOL    HW118320   1.189   0.900   2.408
 5807SOL    HW218321   1.123   1.043   2.365
 5808SOL     OW18322   0.379   0.639   5.706
 5808SOL    HW118323   0.405   0.543   5.723
 5808SOL    HW218324   0.288   0.642   5.666
 5809SOL     OW18325   0.411   3.732   4.864
 5809SOL    HW118326   0.494   3.762   4.817
 5809SOL    HW218327   0.424   3.735   4.963
 5810SOL     OW18328   2.668   6.159   5.103
 5810SOL    HW118329   2.606   6.138   5.179
 5810SOL    HW218330   2.682   6.258   5.098
 5811SOL     OW18331   4.012   4.422   6.657
 5811SOL    HW118332   3.957   4.361   6.600
 5811SOL    HW218333   3.953   4.491   6.699
 5812SOL     OW18334   5.525   2.794   6.576
 5812SOL    HW118335   5.576   2.880   6.574
 5812SOL    HW218336   5.577   2.724   6.527
 5813SOL     OW18337   4.998   4.989   0.761
 5813SOL    HW118338   4.960   4.898   0.781
 5813SOL    HW218339   5.054   4.983   0.678
 5814SOL     OW18340   6.350   0.995   2.130
 5814SOL    HW118341   6.448   0.983   2.144
 5814SOL    HW218342   6.331   1.091   2.109
 5815SOL     OW18343   6.282   3.188   4.527
 5815SOL    HW118344   6.296   3.266   4.588
 5815SOL    HW218345   6.364   3.131   4.525
 5816SOL     OW18346   6.779   3.832   1.766
 5816SOL    HW118347   6.844   3.795   1.700
 5816SOL    HW218348   6.738   3.757   1.818
 5817SOL     OW18349   6.294   2.808   3.553
 5817SOL    HW118350   6.390   2.779   3.545
 5817SOL    HW218351   6.290   2.894   3.603
 5818SOL     OW18352   2.283   0.334   4.647
 5818SOL    HW118353   2.333   0.251   4.621
 5818SOL    HW218354   2.265   0.389   4.566
 5819SOL     OW18355   3.982   3.944   0.599
 5819SOL    HW118356   3.926   4.000   0.660
 5819SOL    HW218357   4.068   3.991   0.580
 5820SOL     OW18358   6.466   0.119   3.187
 5820SOL    HW118359   6.552   0.093   3.144
 5820SOL    HW218360   6.402   0.151   3.117
 5821SOL     OW18361   6.675   6.874   2.121
 5821SOL    HW118362   6.648   6.779   2.104
 5821SOL    HW218363   6.739   6.904   2.050
 5822SOL     OW18364   0.906   4.071   2.645
 5822SOL    HW118365   0.923   3.990   2.590
 5822SOL    HW218366   0.981   4.136   2.634
 5823SOL     OW18367   2.562   6.692   4.316
 5823SOL    HW118368   2.570   6.765   4.384
 5823SOL    HW218369   2.559   6.732   4.224
 5824SOL     OW18370   1.928   6.958   2.421
 5824SOL    HW118371   1.847   6.917   2.380
 5824SOL    HW218372   1.950   0.019   2.373
 5825SOL     OW18373   4.853   1.579   4.181
 5825SOL    HW118374   4.901   1.631   4.110
 5825SOL    HW218375   4.763   1.551   4.148
 5826SOL     OW18376   1.570   6.316   5.061
 5826SOL    HW118377   1.652   6.328   5.006
 5826SOL    HW218378   1.572   6.226   5.104
 5827SOL     OW18379   2.031   3.781   3.261
 5827SOL    HW118380   2.061   3.862   3.311
 5827SOL    HW218381   2.047   3.795   3.163
 5828SOL     OW18382   5.189   0.785   5.742
 5828SOL    HW118383   5.137   0.722   5.684
 5828SOL    HW218384   5.180   0.877   5.706
 5829SOL     OW18385   2.252   0.730   3.239
 5829SOL    HW118386   2.207   0.776   3.162
 5829SOL    HW218387   2.219   0.770   3.325
 5830SOL     OW18388   4.087   5.017   4.489
 5830SOL    HW118389   4.173   5.057   4.456
 5830SOL    HW218390   4.105   4.957   4.567
 5831SOL     OW18391   2.535   2.615   4.666
 5831SOL    HW118392   2.509   2.595   4.760
 5831SOL    HW218393   2.570   2.708   4.660
 5832SOL     OW18394   3.164   5.692   2.860
 5832SOL    HW118395   3.108   5.772   2.840
 5832SOL    HW218396   3.247   5.694   2.803
 5833SOL     OW18397   3.737   5.628   0.356
 5833SOL    HW118398   3.638   5.637   0.349
 5833SOL    HW218399   3.763   5.623   0.453
 5834SOL     OW18400   6.548   3.005   5.745
 5834SOL    HW118401   6.601   3.070   5.799
 5834SOL    HW218402   6.456   2.997   5.784
 5835SOL     OW18403   4.547   1.322   3.201
 5835SOL    HW118404   4.496   1.367   3.275
 5835SOL    HW218405   4.489   1.253   3.158
 5836SOL     OW18406   4.551   6.011   1.400
 5836SOL    HW118407   4.514   5.934   1.451
 5836SOL    HW218408   4.651   6.010   1.406
 5837SOL     OW18409   3.353   4.494   6.388
 5837SOL    HW118410   3.410   4.522   6.310
 5837SOL    HW218411   3.323   4.399   6.375
 5838SOL     OW18412   3.433   3.335   0.188
 5838SOL    HW118413   3.426   3.410   0.254
 5838SOL    HW218414   3.510   3.277   0.212
 5839SOL     OW18415   2.070   1.845   0.334
 5839SOL    HW118416   2.101   1.774   0.397
 5839SOL    HW218417   2.029   1.920   0.386
 5840SOL     OW18418   0.839   3.654   3.419
 5840SOL    HW118419   0.900   3.596   3.473
 5840SOL    HW218420   0.865   3.750   3.429
 5841SOL     OW18421   5.560   1.795   0.323
 5841SOL    HW118422   5.592   1.700   0.320
 5841SOL    HW218423   5.578   1.838   0.235
 5842SOL     OW18424   3.610   1.930   1.655
 5842SOL    HW118425   3.574   2.020   1.629
 5842SOL    HW218426   3.705   1.940   1.685
 5843SOL     OW18427   3.843   3.342   0.236
 5843SOL    HW118428   3.813   3.430   0.273
 5843SOL    HW218429   3.927   3.356   0.182
 5844SOL     OW18430   0.618   5.502   5.220
 5844SOL    HW118431   0.711   5.478   5.193
 5844SOL    HW218432   0.552   5.441   5.175
 5845SOL     OW18433   2.052   0.186   2.702
 5845SOL    HW118434   1.958   0.168   2.674
 5845SOL    HW218435   2.054   0.213   2.799
 5846SOL     OW18436   0.581   4.493   4.942
 5846SOL    HW118437   0.485   4.523   4.935
 5846SOL    HW218438   0.585   4.393   4.937
 5847SOL     OW18439   1.681   3.991   6.500
 5847SOL    HW118440   1.681   4.027   6.406
 5847SOL    HW218441   1.597   4.018   6.546
 5848SOL     OW18442   2.297   6.297   1.425
 5848SOL    HW118443   2.267   6.202   1.431
 5848SOL    HW218444   2.268   6.336   1.337
 5849SOL     OW18445   2.958   5.457   6.699
 5849SOL    HW118446   2.993   5.420   6.614
 5849SOL    HW218447   2.878   5.514   6.680
 5850SOL     OW18448   6.967   1.607   1.467
 5850SOL    HW118449   0.037   1.617   1.437
 5850SOL    HW218450   6.910   1.585   1.388
 5851SOL     OW18451   6.697   3.502   4.400
 5851SOL    HW118452   6.614   3.509   4.455
 5851SOL    HW218453   6.697   3.416   4.350
 5852SOL     OW18454   4.749   4.209   2.238
 5852SOL    HW118455   4.656   4.209   2.202
 5852SOL    HW218456   4.746   4.208   2.338
 5853SOL     OW18457   4.516   4.743   6.803
 5853SOL    HW118458   4.591   4.801   6.771
 5853SOL    HW218459   4.429   4.790   6.789
 5854SOL     OW18460   3.059   4.893   5.406
 5854SOL    HW118461   3.089   4.855   5.493
 5854SOL    HW218462   2.995   4.830   5.363
 5855SOL     OW18463   2.390   2.652   3.307
 5855SOL    HW118464   2.433   2.664   3.397
 5855SOL    HW218465   2.387   2.555   3.285
 5856SOL     OW18466   1.192   6.822   2.832
 5856SOL    HW118467   1.267   6.811   2.897
 5856SOL    HW218468   1.203   6.909   2.783
 5857SOL     OW18469   5.524   4.814   6.531
 5857SOL    HW118470   5.588   4.854   6.596
 5857SOL    HW218471   5.521   4.715   6.543
 5858SOL     OW18472   2.183   1.421   2.594
 5858SOL    HW118473   2.187   1.463   2.504
 5858SOL    HW218474   2.105   1.458   2.645
 5859SOL     OW18475   5.368   5.521   1.924
 5859SOL    HW118476   5.332   5.601   1.877
 5859SOL    HW218477   5.373   5.540   2.022
 5860SOL     OW18478   0.956   4.347   2.448
 5860SOL    HW118479   0.997   4.338   2.539
 5860SOL    HW218480   0.922   4.258   2.417
 5861SOL     OW18481   4.764   0.852   6.012
 5861SOL    HW118482   4.749   0.942   6.052
 5861SOL    HW218483   4.754   0.858   5.912
 5862SOL     OW18484   6.740   4.922   3.566
 5862SOL    HW118485   6.693   4.876   3.641
 5862SOL    HW218486   6.764   5.015   3.594
 5863SOL     OW18487   3.930   0.182   6.114
 5863SOL    HW118488   3.865   0.131   6.171
 5863SOL    HW218489   4.003   0.121   6.084
 5864SOL     OW18490   4.050   3.515   2.514
 5864SOL    HW118491   4.006   3.598   2.479
 5864SOL    HW218492   4.074   3.528   2.610
 5865SOL     OW18493   6.662   0.331   0.103
 5865SOL    HW118494   6.692   0.356   0.195
 5865SOL    HW218495   6.655   0.413   0.046
 5866SOL     OW18496   3.471   3.173   2.710
 5866SOL    HW118497   3.438   3.116   2.785
 5866SOL    HW218498   3.571   3.177   2.712
 5867SOL     OW18499   3.367   1.624   1.277
 5867SOL    HW118500   3.285   1.566   1.271
 5867SOL    HW218501   3.366   1.676   1.362
 5868SOL     OW18502   0.869   0.947   0.820
 5868SOL    HW118503   0.870   0.949   0.720
 5868SOL    HW218504   0.776   0.963   0.853
 5869SOL     OW18505   1.388   5.783   3.195
 5869SOL    HW118506   1.427   5.758   3.283
 5869SOL    HW218507   1.288   5.777   3.199
 5870SOL     OW18508   4.116   0.348   3.782
 5870SOL    HW118509   4.169   0.424   3.744
 5870SOL    HW218510   4.130   0.344   3.881
 5871SOL     OW18511   4.148   3.417   4.063
 5871SOL    HW118512   4.136   3.318   4.077
 5871SOL    HW218513   4.146   3.437   3.965
 5872SOL     OW18514   4.172   6.386   0.588
 5872SOL    HW118515   4.178   6.297   0.633
 5872SOL    HW218516   4.078   6.403   0.559
 5873SOL     OW18517   3.459   5.899   1.657
 5873SOL    HW118518   3.500   5.809   1.644
 5873SOL    HW218519   3.374   5.904   1.604
 5874SOL     OW18520   0.940   4.062   5.117
 5874SOL    HW118521   0.949   4.078   5.215
 5874SOL    HW218522   1.030   4.068   5.073
 5875SOL     OW18523   3.970   1.891   1.017
 5875SOL    HW118524   3.966   1.973   1.074
 5875SOL    HW218525   4.045   1.832   1.047
 5876SOL     OW18526   2.981   3.817   2.182
 5876SOL    HW118527   3.043   3.883   2.141
 5876SOL    HW218528   2.936   3.765   2.110
 5877SOL     OW18529   5.361   4.642   1.614
 5877SOL    HW118530   5.309   4.567   1.572
 5877SOL    HW218531   5.455   4.612   1.629
 5878SOL     OW18532   1.776   3.676   2.661
 5878SOL    HW118533   1.823   3.745   2.714
 5878SOL    HW218534   1.842   3.624   2.606
 5879SOL     OW18535   1.161   4.297   3.728
 5879SOL    HW118536   1.119   4.207   3.740
 5879SOL    HW218537   1.258   4.292   3.752
 5880SOL     OW18538   3.761   6.287   0.160
 5880SOL    HW118539   3.763   6.202   0.108
 5880SOL    HW218540   3.826   6.282   0.235
 5881SOL     OW18541   0.849   6.050   4.202
 5881SOL    HW118542   0.825   5.979   4.135
 5881SOL    HW218543   0.913   6.115   4.160
 5882SOL     OW18544   4.767   0.455   2.861
 5882SOL    HW118545   4.746   0.547   2.893
 5882SOL    HW218546   4.826   0.410   2.929
 5883SOL     OW18547   0.866   3.750   5.332
 5883SOL    HW118548   0.925   3.669   5.333
 5883SOL    HW218549   0.844   3.774   5.237
 5884SOL     OW18550   0.990   0.554   3.826
 5884SOL    HW118551   0.995   0.652   3.805
 5884SOL    HW218552   0.898   0.521   3.806
 5885SOL     OW18553   6.155   6.190   1.503
 5885SOL    HW118554   6.100   6.121   1.549
 5885SOL    HW218555   6.117   6.209   1.413
 5886SOL     OW18556   7.002   0.969   6.340
 5886SOL    HW118557   7.002   0.924   6.429
 5886SOL    HW218558   0.058   1.027   6.331
 5887SOL     OW18559   3.921   6.067   3.012
 5887SOL    HW118560   3.865   6.094   3.090
 5887SOL    HW218561   3.870   6.002   2.955
 5888SOL     OW18562   0.789   0.927   2.809
 5888SOL    HW118563   0.806   1.016   2.851
 5888SOL    HW218564   0.834   0.855   2.863
 5889SOL     OW18565   2.479   6.853   6.678
 5889SOL    HW118566   2.557   6.874   6.619
 5889SOL    HW218567   2.404   6.817   6.622
 5890SOL     OW18568   3.588   4.624   5.754
 5890SOL    HW118569   3.512   4.689   5.752
 5890SOL    HW218570   3.674   4.673   5.737
 5891SOL     OW18571   1.935   3.648   6.364
 5891SOL    HW118572   1.844   3.689   6.364
 5891SOL    HW218573   1.941   3.579   6.435
 5892SOL     OW18574   2.383   6.585   1.975
 5892SOL    HW118575   2.353   6.587   1.879
 5892SOL    HW218576   2.403   6.491   2.002
 5893SOL     OW18577   2.235   1.130   3.465
 5893SOL    HW118578   2.328   1.113   3.499
 5893SOL    HW218579   2.240   1.170   3.374
 5894SOL     OW18580   0.762   3.115   3.612
 5894SOL    HW118581   0.765   3.037   3.674
 5894SOL    HW218582   0.824   3.099   3.535
 5895SOL     OW18583   5.630   4.284   3.284
 5895SOL    HW118584   5.656   4.215   3.351
 5895SOL    HW218585   5.626   4.243   3.193
 5896SOL     OW18586   4.842   2.843   5.297
 5896SOL    HW118587   4.911   2.806   5.235
 5896SOL    HW218588   4.884   2.865   5.385
 5897SOL     OW18589   4.492   6.274   1.329
 5897SOL    HW118590   4.393   6.271   1.341
 5897SOL    HW218591   4.532   6.186   1.355
 5898SOL     OW18592   2.822   6.407   2.851
 5898SOL    HW118593   2.834   6.454   2.763
 5898SOL    HW218594   2.912   6.384   2.888
 5899SOL     OW18595   5.575   0.584   3.344
 5899SOL    HW118596   5.659   0.634   3.366
 5899SOL    HW218597   5.541   0.613   3.255
 5900SOL     OW18598   3.786   4.828   2.567
 5900SOL    HW118599   3.792   4.924   2.595
 5900SOL    HW218600   3.691   4.798   2.570
 5901SOL     OW18601   3.196   6.279   4.144
 5901SOL    HW118602   3.273   6.327   4.186
 5901SOL    HW218603   3.122   6.345   4.126
 5902SOL     OW18604   5.945   2.060   6.799
 5902SOL    HW118605   5.921   2.155   6.775
 5902SOL    HW218606   5.969   2.010   6.715
 5903SOL     OW18607   6.927   3.636   6.423
 5903SOL    HW118608   6.871   3.564   6.465
 5903SOL    HW218609   6.867   3.706   6.384
 5904SOL     OW18610   0.616   3.633   2.131
 5904SOL    HW118611   0.590   3.567   2.061
 5904SOL    HW218612   0.538   3.650   2.192
 5905SOL     OW18613   6.656   4.585   2.534
 5905SOL    HW118614   6.619   4.494   2.516
 5905SOL    HW218615   6.722   4.610   2.462
 5906SOL     OW18616   0.824   0.882   3.498
 5906SOL    HW118617   0.886   0.865   3.422
 5906SOL    HW218618   0.810   0.980   3.509
 5907SOL     OW18619   2.120   0.333   2.266
 5907SOL    HW118620   2.182   0.360   2.193
 5907SOL    HW218621   2.172   0.295   2.343
 5908SOL     OW18622   0.074   3.221   5.954
 5908SOL    HW118623   0.122   3.184   6.033
 5908SOL    HW218624   0.053   3.317   5.971
 5909SOL     OW18625   6.474   4.183   0.568
 5909SOL    HW118626   6.555   4.126   0.579
 5909SOL    HW218627   6.487   4.270   0.616
 5910SOL     OW18628   2.023   1.597   3.605
 5910SOL    HW118629   1.966   1.627   3.682
 5910SOL    HW218630   2.026   1.497   3.603
 5911SOL     OW18631   6.376   5.957   6.727
 5911SOL    HW118632   6.447   6.017   6.762
 5911SOL    HW218633   6.419   5.880   6.679
 5912SOL     OW18634   0.816   0.217   4.060
 5912SOL    HW118635   0.844   0.300   4.107
 5912SOL    HW218636   0.716   0.217   4.050
 5913SOL     OW18637   6.068   2.072   0.378
 5913SOL    HW118638   6.018   2.018   0.446
 5913SOL    HW218639   6.009   2.143   0.340
 5914SOL     OW18640   1.263   6.017   0.201
 5914SOL    HW118641   1.331   6.062   0.143
 5914SOL    HW218642   1.171   6.037   0.166
 5915SOL     OW18643   3.607   1.584   5.861
 5915SOL    HW118644   3.657   1.512   5.813
 5915SOL    HW218645   3.655   1.671   5.852
 5916SOL     OW18646   1.160   6.869   1.814
 5916SOL    HW118647   1.211   6.789   1.846
 5916SOL    HW218648   1.086   6.839   1.753
 5917SOL     OW18649   3.294   3.925   7.014
 5917SOL    HW118650   3.365   3.861   6.987
 5917SOL    HW218651   3.285   3.924   0.089
 5918SOL     OW18652   3.130   6.859   4.775
 5918SOL    HW118653   3.152   6.791   4.706
 5918SOL    HW218654   3.168   6.831   4.863
 5919SOL     OW18655   3.619   3.202   4.566
 5919SOL    HW118656   3.525   3.235   4.565
 5919SOL    HW218657   3.667   3.236   4.647
 5920SOL     OW18658   6.797   0.365   5.799
 5920SOL    HW118659   6.859   0.290   5.774
 5920SOL    HW218660   6.703   0.331   5.797
 5921SOL     OW18661   2.514   4.164   6.416
 5921SOL    HW118662   2.479   4.075   6.446
 5921SOL    HW218663   2.589   4.192   6.476
 5922SOL     OW18664   5.088   3.049   2.554
 5922SOL    HW118665   5.163   3.095   2.505
 5922SOL    HW218666   5.121   2.964   2.593
 5923SOL     OW18667   5.793   1.360   3.596
 5923SOL    HW118668   5.843   1.441   3.566
 5923SOL    HW218669   5.757   1.376   3.688
 5924SOL     OW18670   5.301   6.593   3.829
 5924SOL    HW118671   5.267   6.668   3.772
 5924SOL    HW218672   5.345   6.525   3.771
 5925SOL     OW18673   4.627   1.265   1.121
 5925SOL    HW118674   4.692   1.314   1.063
 5925SOL    HW218675   4.652   1.279   1.217
 5926SOL     OW18676   5.557   4.563   3.304
 5926SOL    HW118677   5.493   4.605   3.367
 5926SOL    HW218678   5.583   4.472   3.338
 5927SOL     OW18679   0.177   5.458   2.141
 5927SOL    HW118680   0.214   5.368   2.120
 5927SOL    HW218681   0.250   5.518   2.172
 5928SOL     OW18682   2.948   6.869   6.802
 5928SOL    HW118683   2.937   6.787   6.747
 5928SOL    HW218684   2.882   6.869   6.877
 5929SOL     OW18685   1.447   0.614   0.196
 5929SOL    HW118686   1.404   0.550   0.133
 5929SOL    HW218687   1.545   0.621   0.176
 5930SOL     OW18688   1.929   3.910   2.347
 5930SOL    HW118689   2.023   3.938   2.327
 5930SOL    HW218690   1.897   3.955   2.430
 5931SOL     OW18691   5.216   6.408   2.443
 5931SOL    HW118692   5.289   6.411   2.375
 5931SOL    HW218693   5.146   6.476   2.421
 5932SOL     OW18694   2.838   0.414   6.897
 5932SOL    HW118695   2.879   0.505   6.903
 5932SOL    HW218696   2.897   0.355   6.842
 5933SOL     OW18697   5.914   6.389   4.628
 5933SOL    HW118698   5.993   6.432   4.584
 5933SOL    HW218699   5.944   6.345   4.713
 5934SOL     OW18700   2.365   3.644   0.027
 5934SOL    HW118701   2.408   3.726   7.014
 5934SOL    HW218702   2.330   3.664   0.119
 5935SOL     OW18703   1.226   6.183   5.951
 5935SOL    HW118704   1.172   6.113   5.904
 5935SOL    HW218705   1.323   6.161   5.945
 5936SOL     OW18706   4.103   3.175   2.570
 5936SOL    HW118707   4.128   3.244   2.501
 5936SOL    HW218708   4.028   3.119   2.535
 5937SOL     OW18709   0.076   2.976   1.243
 5937SOL    HW118710   0.083   2.922   1.327
 5937SOL    HW218711   0.144   3.050   1.246
 5938SOL     OW18712   0.499   4.368   3.964
 5938SOL    HW118713   0.442   4.289   3.984
 5938SOL    HW218714   0.459   4.419   3.887
 5939SOL     OW18715   3.648   1.253   5.392
 5939SOL    HW118716   3.581   1.239   5.465
 5939SOL    HW218717   3.712   1.177   5.391
 5940SOL     OW18718   4.826   5.542   1.672
 5940SOL    HW118719   4.892   5.534   1.746
 5940SOL    HW218720   4.796   5.451   1.644
 5941SOL     OW18721   0.125   2.234   2.716
 5941SOL    HW118722   0.092   2.167   2.782
 5941SOL    HW218723   0.202   2.196   2.665
 5942SOL     OW18724   5.033   2.894   6.031
 5942SOL    HW118725   5.098   2.872   5.958
 5942SOL    HW218726   5.083   2.933   6.108
 5943SOL     OW18727   2.636   4.251   1.634
 5943SOL    HW118728   2.570   4.242   1.708
 5943SOL    HW218729   2.651   4.348   1.614
 5944SOL     OW18730   6.392   2.972   5.413
 5944SOL    HW118731   6.353   2.982   5.321
 5944SOL    HW218732   6.462   3.042   5.427
 5945SOL     OW18733   6.760   6.842   5.003
 5945SOL    HW118734   6.667   6.829   5.036
 5945SOL    HW218735   6.783   6.769   4.938
 5946SOL     OW18736   2.273   4.161   6.712
 5946SOL    HW118737   2.194   4.109   6.678
 5946SOL    HW218738   2.241   4.248   6.750
 5947SOL     OW18739   4.088   3.315   4.339
 5947SOL    HW118740   4.176   3.334   4.295
 5947SOL    HW218741   4.063   3.220   4.322
 5948SOL     OW18742   4.811   3.459   1.875
 5948SOL    HW118743   4.811   3.549   1.918
 5948SOL    HW218744   4.760   3.463   1.790
 5949SOL     OW18745   0.627   4.587   2.964
 5949SOL    HW118746   0.544   4.574   3.018
 5949SOL    HW218747   0.697   4.629   3.020
 5950SOL     OW18748   4.037   0.273   4.482
 5950SOL    HW118749   4.132   0.242   4.480
 5950SOL    HW218750   3.976   0.193   4.485
 5951SOL     OW18751   6.996   4.082   0.100
 5951SOL    HW118752   7.015   4.160   0.039
 5951SOL    HW218753   0.028   4.090   0.182
 5952SOL     OW18754   4.093   4.535   1.432
 5952SOL    HW118755   4.014   4.542   1.493
 5952SOL    HW218756   4.080   4.597   1.354
 5953SOL     OW18757   6.903   2.935   4.983
 5953SOL    HW118758   6.961   2.878   4.924
 5953SOL    HW218759   6.896   2.892   5.074
 5954SOL     OW18760   1.696   6.021   4.014
 5954SOL    HW118761   1.635   5.980   4.082
 5954SOL    HW218762   1.787   5.982   4.022
 5955SOL     OW18763   5.122   3.454   0.409
 5955SOL    HW118764   5.201   3.515   0.411
 5955SOL    HW218765   5.068   3.467   0.492
 5956SOL     OW18766   5.046   2.728   5.169
 5956SOL    HW118767   5.093   2.677   5.241
 5956SOL    HW218768   5.021   2.665   5.095
 5957SOL     OW18769   6.981   1.395   3.486
 5957SOL    HW118770   0.014   1.437   3.557
 5957SOL    HW218771   6.901   1.352   3.528
 5958SOL     OW18772   2.868   6.634   3.052
 5958SOL    HW118773   2.889   6.593   3.141
 5958SOL    HW218774   2.820   6.566   2.995
 5959SOL     OW18775   5.053   2.219   3.702
 5959SOL    HW118776   5.032   2.134   3.751
 5959SOL    HW218777   5.009   2.296   3.750
 5960SOL     OW18778   4.552   0.448   6.118
 5960SOL    HW118779   4.484   0.397   6.065
 5960SOL    HW218780   4.643   0.409   6.101
 5961SOL     OW18781   2.832   2.275   3.526
 5961SOL    HW118782   2.911   2.272   3.465
 5961SOL    HW218783   2.860   2.254   3.619
 5962SOL     OW18784   4.975   5.836   0.218
 5962SOL    HW118785   4.881   5.828   0.252
 5962SOL    HW218786   4.979   5.801   0.124
 5963SOL     OW18787   2.541   4.064   0.370
 5963SOL    HW118788   2.535   3.967   0.344
 5963SOL    HW218789   2.505   4.075   0.463
 5964SOL     OW18790   2.406   6.515   2.358
 5964SOL    HW118791   2.451   6.581   2.418
 5964SOL    HW218792   2.330   6.472   2.407
 5965SOL     OW18793   2.718   0.083   0.644
 5965SOL    HW118794   2.798   0.040   0.686
 5965SOL    HW218795   2.745   0.126   0.557
 5966SOL     OW18796   3.038   1.718   4.992
 5966SOL    HW118797   3.065   1.622   4.991
 5966SOL    HW218798   2.983   1.736   5.074
 5967SOL     OW18799   4.373   2.047   4.783
 5967SOL    HW118800   4.406   2.022   4.873
 5967SOL    HW218801   4.386   1.970   4.720
 5968SOL     OW18802   5.697   2.544   1.765
 5968SOL    HW118803   5.646   2.458   1.767
 5968SOL    HW218804   5.660   2.603   1.694
 5969SOL     OW18805   5.607   0.389   0.486
 5969SOL    HW118806   5.611   0.344   0.575
 5969SOL    HW218807   5.511   0.395   0.456
 5970SOL     OW18808   6.981   3.746   0.605
 5970SOL    HW118809   6.998   3.732   0.508
 5970SOL    HW218810   0.038   3.719   0.657
 5971SOL     OW18811   6.651   6.521   4.102
 5971SOL    HW118812   6.708   6.603   4.104
 5971SOL    HW218813   6.691   6.451   4.161
 5972SOL     OW18814   5.824   5.162   0.482
 5972SOL    HW118815   5.881   5.209   0.414
 5972SOL    HW218816   5.778   5.085   0.438
 5973SOL     OW18817   3.049   1.494   2.412
 5973SOL    HW118818   3.109   1.414   2.408
 5973SOL    HW218819   3.087   1.568   2.356
 5974SOL     OW18820   5.776   1.671   5.228
 5974SOL    HW118821   5.860   1.629   5.195
 5974SOL    HW218822   5.792   1.768   5.247
 5975SOL     OW18823   4.359   4.667   1.184
 5975SOL    HW118824   4.370   4.618   1.271
 5975SOL    HW218825   4.443   4.659   1.131
 5976SOL     OW18826   2.189   3.609   5.535
 5976SOL    HW118827   2.201   3.541   5.462
 5976SOL    HW218828   2.096   3.645   5.532
 5977SOL     OW18829   6.801   4.324   0.795
 5977SOL    HW118830   6.769   4.391   0.728
 5977SOL    HW218831   6.749   4.334   0.880
 5978SOL     OW18832   2.617   3.822   6.265
 5978SOL    HW118833   2.648   3.760   6.193
 5978SOL    HW218834   2.644   3.916   6.242
 5979SOL     OW18835   6.041   0.451   2.070
 5979SOL    HW118836   5.951   0.421   2.038
 5979SOL    HW218837   6.032   0.536   2.121
 5980SOL     OW18838   2.667   2.997   1.290
 5980SOL    HW118839   2.754   2.986   1.241
 5980SOL    HW218840   2.685   3.021   1.385
 5981SOL     OW18841   2.938   1.739   0.448
 5981SOL    HW118842   3.023   1.749   0.395
 5981SOL    HW218843   2.944   1.793   0.531
 5982SOL     OW18844   4.865   3.147   1.033
 5982SOL    HW118845   4.932   3.138   0.960
 5982SOL    HW218846   4.909   3.179   1.116
 5983SOL     OW18847   6.847   0.771   3.585
 5983SOL    HW118848   6.859   0.811   3.494
 5983SOL    HW218849   6.934   0.736   3.618
 5984SOL     OW18850   6.003   6.786   4.303
 5984SOL    HW118851   5.990   6.715   4.372
 5984SOL    HW218852   5.952   6.868   4.329
 5985SOL     OW18853   6.180   2.980   2.372
 5985SOL    HW118854   6.193   2.886   2.341
 5985SOL    HW218855   6.210   3.044   2.300
 5986SOL     OW18856   3.807   3.378   4.265
 5986SOL    HW118857   3.902   3.370   4.297
 5986SOL    HW218858   3.800   3.336   4.174
 5987SOL     OW18859   0.308   6.138   5.629
 5987SOL    HW118860   0.321   6.168   5.535
 5987SOL    HW218861   0.397   6.117   5.670
 5988SOL     OW18862   0.884   2.820   6.525
 5988SOL    HW118863   0.948   2.896   6.511
 5988SOL    HW218864   0.790   2.854   6.525
 5989SOL     OW18865   0.433   6.290   6.092
 5989SOL    HW118866   0.514   6.306   6.036
 5989SOL    HW218867   0.419   6.368   6.154
 5990SOL     OW18868   2.557   4.533   1.882
 5990SOL    HW118869   2.651   4.568   1.890
 5990SOL    HW218870   2.521   4.514   1.973
 5991SOL     OW18871   4.605   0.692   0.882
 5991SOL    HW118872   4.684   0.723   0.828
 5991SOL    HW218873   4.521   0.732   0.845
 5992SOL     OW18874   3.767   5.910   2.568
 5992SOL    HW118875   3.860   5.943   2.550
 5992SOL    HW218876   3.732   5.863   2.487
 5993SOL     OW18877   5.582   1.927   0.072
 5993SOL    HW118878   5.614   1.854   0.012
 5993SOL    HW218879   5.649   2.001   0.075
 5994SOL     OW18880   0.070   3.061   7.007
 5994SOL    HW118881   0.148   3.039   6.949
 5994SOL    HW218882   0.061   3.161   7.015
 5995SOL     OW18883   4.795   3.497   1.383
 5995SOL    HW118884   4.808   3.521   1.287
 5995SOL    HW218885   4.854   3.554   1.440
 5996SOL     OW18886   2.625   6.113   1.432
 5996SOL    HW118887   2.661   6.123   1.525
 5996SOL    HW218888   2.530   6.083   1.437
 5997SOL     OW18889   6.304   0.327   4.023
 5997SOL    HW118890   6.306   0.410   3.968
 5997SOL    HW218891   6.393   0.315   4.068
 5998SOL     OW18892   6.220   5.715   0.098
 5998SOL    HW118893   6.272   5.637   0.061
 5998SOL    HW218894   6.262   5.745   0.183
 5999SOL     OW18895   5.046   3.303   1.571
 5999SOL    HW118896   5.140   3.331   1.588
 5999SOL    HW218897   5.042   3.204   1.559
 6000SOL     OW18898   0.303   4.038   0.998
 6000SOL    HW118899   0.290   4.125   0.949
 6000SOL    HW218900   0.390   3.997   0.970
 6001SOL     OW18901   6.205   5.619   6.046
 6001SOL    HW118902   6.127   5.681   6.047
 6001SOL    HW218903   6.182   5.538   5.992
 6002SOL     OW18904   5.502   4.908   5.388
 6002SOL    HW118905   5.503   5.003   5.418
 6002SOL    HW218906   5.448   4.853   5.451
 6003SOL     OW18907   2.208   2.582   4.670
 6003SOL    HW118908   2.275   2.644   4.712
 6003SOL    HW218909   2.194   2.503   4.730
 6004SOL     OW18910   5.405   2.404   4.450
 6004SOL    HW118911   5.498   2.367   4.460
 6004SOL    HW218912   5.381   2.406   4.353
 6005SOL     OW18913   4.370   4.231   6.504
 6005SOL    HW118914   4.327   4.313   6.542
 6005SOL    HW218915   4.386   4.244   6.406
 6006SOL     OW18916   3.595   6.031   6.825
 6006SOL    HW118917   3.587   6.127   6.799
 6006SOL    HW218918   3.652   6.023   6.907
 6007SOL     OW18919   2.171   5.989   5.454
 6007SOL    HW118920   2.184   6.059   5.384
 6007SOL    HW218921   2.209   5.902   5.420
 6008SOL     OW18922   2.947   4.015   6.499
 6008SOL    HW118923   2.872   3.961   6.536
 6008SOL    HW218924   3.031   3.962   6.501
 6009SOL     OW18925   4.059   5.304   2.792
 6009SOL    HW118926   4.158   5.300   2.800
 6009SOL    HW218927   4.021   5.212   2.795
 6010SOL     OW18928   0.580   4.681   4.039
 6010SOL    HW118929   0.569   4.581   4.044
 6010SOL    HW218930   0.649   4.711   4.105
 6011SOL     OW18931   6.008   1.601   2.633
 6011SOL    HW118932   6.103   1.630   2.626
 6011SOL    HW218933   5.984   1.546   2.553
 6012SOL     OW18934   6.830   0.466   6.157
 6012SOL    HW118935   6.759   0.499   6.095
 6012SOL    HW218936   6.863   0.543   6.213
 6013SOL     OW18937   6.057   1.418   2.170
 6013SOL    HW118938   6.048   1.508   2.127
 6013SOL    HW218939   6.008   1.419   2.257
 6014SOL     OW18940   3.123   3.819   3.951
 6014SOL    HW118941   3.164   3.730   3.969
 6014SOL    HW218942   3.118   3.872   4.036
 6015SOL     OW18943   6.322   0.589   3.930
 6015SOL    HW118944   6.227   0.597   3.960
 6015SOL    HW218945   6.373   0.669   3.962
 6016SOL     OW18946   4.576   1.784   4.132
 6016SOL    HW118947   4.511   1.837   4.078
 6016SOL    HW218948   4.564   1.806   4.229
 6017SOL     OW18949   0.962   1.236   5.773
 6017SOL    HW118950   1.031   1.190   5.718
 6017SOL    HW218951   0.871   1.213   5.739
 6018SOL     OW18952   2.884   1.223   4.432
 6018SOL    HW118953   2.959   1.261   4.378
 6018SOL    HW218954   2.809   1.290   4.436
 6019SOL     OW18955   6.542   4.548   6.575
 6019SOL    HW118956   6.527   4.639   6.614
 6019SOL    HW218957   6.619   4.505   6.622
 6020SOL     OW18958   0.886   4.919   5.764
 6020SOL    HW118959   0.881   4.842   5.701
 6020SOL    HW218960   0.794   4.956   5.779
 6021SOL     OW18961   5.938   0.003   3.500
 6021SOL    HW118962   5.947   0.046   3.590
 6021SOL    HW218963   5.916   0.072   3.431
 6022SOL     OW18964   6.722   2.592   1.288
 6022SOL    HW118965   6.739   2.642   1.373
 6022SOL    HW218966   6.786   2.516   1.281
 6023SOL     OW18967   3.770   0.060   1.570
 6023SOL    HW118968   3.703   7.021   1.609
 6023SOL    HW218969   3.772   0.144   1.625
 6024SOL     OW18970   1.277   5.790   6.938
 6024SOL    HW118971   1.334   5.750   7.009
 6024SOL    HW218972   1.197   5.731   6.922
 6025SOL     OW18973   3.155   0.364   4.647
 6025SOL    HW118974   3.124   0.285   4.699
 6025SOL    HW218975   3.076   0.418   4.618
 6026SOL     OW18976   5.697   6.204   4.545
 6026SOL    HW118977   5.771   6.240   4.602
 6026SOL    HW218978   5.728   6.120   4.500
 6027SOL     OW18979   5.343   4.939   6.344
 6027SOL    HW118980   5.431   4.916   6.386
 6027SOL    HW218981   5.270   4.886   6.387
 6028SOL     OW18982   5.672   5.267   6.104
 6028SOL    HW118983   5.649   5.301   6.195
 6028SOL    HW218984   5.598   5.289   6.040
 6029SOL     OW18985   2.796   1.096   2.836
 6029SOL    HW118986   2.867   1.116   2.904
 6029SOL    HW218987   2.795   1.168   2.767
 6030SOL     OW18988   5.919   2.932   4.475
 6030SOL    HW118989   5.998   2.885   4.513
 6030SOL    HW218990   5.946   2.984   4.394
 6031SOL     OW18991   0.039   6.014   5.250
 6031SOL    HW118992   0.112   5.947   5.231
 6031SOL    HW218993   0.065   6.103   5.213
 6032SOL     OW18994   3.744   6.217   3.488
 6032SOL    HW118995   3.755   6.290   3.422
 6032SOL    HW218996   3.811   6.227   3.562
 6033SOL     OW18997   1.388   1.468   2.287
 6033SOL    HW118998   1.294   1.442   2.310
 6033SOL    HW218999   1.421   1.534   2.353
 6034SOL     OW19000   0.832   6.697   1.198
 6034SOL    HW119001   0.875   6.668   1.284
 6034SOL    HW219002   0.826   6.797   1.197
 6035SOL     OW19003   2.590   0.271   2.522
 6035SOL    HW119004   2.670   0.326   2.545
 6035SOL    HW219005   2.520   0.282   2.593
 6036SOL     OW19006   6.450   3.292   1.205
 6036SOL    HW119007   6.361   3.311   1.246
 6036SOL    HW219008   6.467   3.193   1.206
 6037SOL     OW19009   4.917   1.844   6.628
 6037SOL    HW119010   4.866   1.799   6.702
 6037SOL    HW219011   4.861   1.845   6.546
 6038SOL     OW19012   1.480   1.630   6.051
 6038SOL    HW119013   1.394   1.625   6.103
 6038SOL    HW219014   1.536   1.550   6.071
 6039SOL     OW19015   4.029   3.775   3.962
 6039SOL    HW119016   4.092   3.762   3.886
 6039SOL    HW219017   4.076   3.750   4.048
 6040SOL     OW19018   0.378   1.808   0.579
 6040SOL    HW119019   0.446   1.849   0.641
 6040SOL    HW219020   0.414   1.722   0.542
 6041SOL     OW19021   2.768   3.839   5.617
 6041SOL    HW119022   2.854   3.786   5.617
 6041SOL    HW219023   2.752   3.876   5.708
 6042SOL     OW19024   3.158   5.600   3.890
 6042SOL    HW119025   3.159   5.606   3.990
 6042SOL    HW219026   3.063   5.592   3.859
 6043SOL     OW19027   2.443   0.503   3.069
 6043SOL    HW119028   2.393   0.421   3.096
 6043SOL    HW219029   2.510   0.479   2.999
 6044SOL     OW19030   0.896   3.024   0.928
 6044SOL    HW119031   0.951   3.051   1.007
 6044SOL    HW219032   0.939   3.057   0.844
 6045SOL     OW19033   5.368   2.141   3.310
 6045SOL    HW119034   5.293   2.077   3.330
 6045SOL    HW219035   5.347   2.192   3.226
 6046SOL     OW19036   3.626   2.870   2.879
 6046SOL    HW119037   3.646   2.785   2.929
 6046SOL    HW219038   3.625   2.851   2.781
 6047SOL     OW19039   0.138   1.857   0.495
 6047SOL    HW119040   0.236   1.851   0.513
 6047SOL    HW219041   0.089   1.802   0.561
 6048SOL     OW19042   5.803   5.837   3.731
 6048SOL    HW119043   5.841   5.796   3.648
 6048SOL    HW219044   5.725   5.895   3.707
 6049SOL     OW19045   4.663   4.997   6.061
 6049SOL    HW119046   4.731   4.955   6.001
 6049SOL    HW219047   4.571   4.980   6.026
 6050SOL     OW19048   3.049   6.048   2.114
 6050SOL    HW119049   3.120   6.046   2.044
 6050SOL    HW219050   2.993   6.131   2.102
 6051SOL     OW19051   0.647   1.350   3.277
 6051SOL    HW119052   0.659   1.285   3.202
 6051SOL    HW219053   0.662   1.443   3.243
 6052SOL     OW19054   4.920   5.529   0.583
 6052SOL    HW119055   4.822   5.518   0.599
 6052SOL    HW219056   4.969   5.515   0.669
 6053SOL     OW19057   4.028   2.213   5.902
 6053SOL    HW119058   4.075   2.208   5.990
 6053SOL    HW219059   4.027   2.308   5.870
 6054SOL     OW19060   3.856   4.089   0.782
 6054SOL    HW119061   3.809   4.051   0.862
 6054SOL    HW219062   3.866   4.188   0.793
 6055SOL     OW19063   2.961   3.887   0.985
 6055SOL    HW119064   2.975   3.942   0.902
 6055SOL    HW219065   3.031   3.910   1.052
 6056SOL     OW19066   5.080   5.901   3.474
 6056SOL    HW119067   5.001   5.918   3.532
 6056SOL    HW219068   5.053   5.902   3.378
 6057SOL     OW19069   5.263   0.767   4.253
 6057SOL    HW119070   5.183   0.752   4.311
 6057SOL    HW219071   5.263   0.702   4.178
 6058SOL     OW19072   6.745   2.664   5.488
 6058SOL    HW119073   6.804   2.592   5.524
 6058SOL    HW219074   6.752   2.745   5.546
 6059SOL     OW19075   4.275   2.811   0.168
 6059SOL    HW119076   4.238   2.881   0.228
 6059SOL    HW219077   4.360   2.774   0.206
 6060SOL     OW19078   2.139   3.346   6.960
 6060SOL    HW119079   2.237   3.331   6.971
 6060SOL    HW219080   2.113   3.336   6.864
 6061SOL     OW19081   3.171   4.355   6.820
 6061SOL    HW119082   3.163   4.301   6.904
 6061SOL    HW219083   3.206   4.298   6.747
 6062SOL     OW19084   2.061   1.864   6.680
 6062SOL    HW119085   1.999   1.943   6.672
 6062SOL    HW219086   2.155   1.897   6.694
 6063SOL     OW19087   4.718   3.909   6.584
 6063SOL    HW119088   4.706   3.814   6.614
 6063SOL    HW219089   4.815   3.931   6.581
 6064SOL     OW19090   6.286   5.338   1.002
 6064SOL    HW119091   6.325   5.247   1.014
 6064SOL    HW219092   6.333   5.403   1.063
 6065SOL     OW19093   1.509   0.443   2.315
 6065SOL    HW119094   1.559   0.366   2.275
 6065SOL    HW219095   1.559   0.528   2.296
 6066SOL     OW19096   5.292   5.789   3.584
 6066SOL    HW119097   5.371   5.795   3.522
 6066SOL    HW219098   5.209   5.817   3.535
 6067SOL     OW19099   6.488   6.551   6.469
 6067SOL    HW119100   6.451   6.592   6.385
 6067SOL    HW219101   6.533   6.622   6.523
 6068SOL     OW19102   4.778   2.444   4.198
 6068SOL    HW119103   4.721   2.524   4.180
 6068SOL    HW219104   4.862   2.472   4.245
 6069SOL     OW19105   0.309   4.380   5.959
 6069SOL    HW119106   0.385   4.381   5.894
 6069SOL    HW219107   0.340   4.421   6.045
 6070SOL     OW19108   2.409   1.313   0.535
 6070SOL    HW119109   2.478   1.268   0.478
 6070SOL    HW219110   2.455   1.355   0.614
 6071SOL     OW19111   5.982   1.187   5.684
 6071SOL    HW119112   6.049   1.234   5.742
 6071SOL    HW219113   6.014   1.186   5.589
 6072SOL     OW19114   0.173   2.739   0.219
 6072SOL    HW119115   0.128   2.657   0.187
 6072SOL    HW219116   0.149   2.756   0.314
 6073SOL     OW19117   5.014   3.031   0.529
 6073SOL    HW119118   5.090   3.073   0.479
 6073SOL    HW219119   5.042   2.940   0.562
 6074SOL     OW19120   1.005   6.494   2.454
 6074SOL    HW119121   1.028   6.547   2.536
 6074SOL    HW219122   1.080   6.432   2.433
 6075SOL     OW19123   5.442   0.582   6.794
 6075SOL    HW119124   5.465   0.517   6.722
 6075SOL    HW219125   5.406   0.666   6.753
 6076SOL     OW19126   0.894   5.977   2.775
 6076SOL    HW119127   0.847   6.041   2.714
 6076SOL    HW219128   0.986   5.959   2.741
 6077SOL     OW19129   5.581   6.879   2.952
 6077SOL    HW119130   5.575   6.962   3.007
 6077SOL    HW219131   5.495   6.828   2.960
 6078SOL     OW19132   4.100   4.294   0.701
 6078SOL    HW119133   4.056   4.254   0.620
 6078SOL    HW219134   4.159   4.225   0.744
 6079SOL     OW19135   2.689   2.998   0.342
 6079SOL    HW119136   2.668   2.910   0.301
 6079SOL    HW219137   2.604   3.050   0.355
 6080SOL     OW19138   6.790   4.698   6.424
 6080SOL    HW119139   6.718   4.638   6.459
 6080SOL    HW219140   6.876   4.675   6.468
 6081SOL     OW19141   1.466   3.938   3.490
 6081SOL    HW119142   1.403   3.881   3.541
 6081SOL    HW219143   1.416   4.013   3.446
 6082SOL     OW19144   5.105   1.356   1.400
 6082SOL    HW119145   5.077   1.378   1.307
 6082SOL    HW219146   5.025   1.356   1.460
 6083SOL     OW19147   4.860   0.841   6.512
 6083SOL    HW119148   4.887   0.938   6.510
 6083SOL    HW219149   4.765   0.833   6.484
 6084SOL     OW19150   6.943   5.680   2.687
 6084SOL    HW119151   6.848   5.662   2.659
 6084SOL    HW219152   7.005   5.641   2.619
 6085SOL     OW19153   0.460   6.952   0.614
 6085SOL    HW119154   0.503   6.951   0.704
 6085SOL    HW219155   0.467   6.861   0.573
 6086SOL     OW19156   3.735   4.201   6.942
 6086SOL    HW119157   3.723   4.284   6.997
 6086SOL    HW219158   3.723   4.224   6.845
 6087SOL     OW19159   5.368   0.297   0.804
 6087SOL    HW119160   5.343   0.379   0.856
 6087SOL    HW219161   5.465   0.303   0.777
 6088SOL     OW19162   5.043   5.924   3.209
 6088SOL    HW119163   5.123   5.864   3.214
 6088SOL    HW219164   5.037   5.964   3.118
 6089SOL     OW19165   6.294   3.679   3.964
 6089SOL    HW119166   6.238   3.672   4.047
 6089SOL    HW219167   6.390   3.664   3.987
 6090SOL     OW19168   4.262   5.836   3.963
 6090SOL    HW119169   4.168   5.807   3.941
 6090SOL    HW219170   4.321   5.755   3.964
 6091SOL     OW19171   1.514   1.625   1.942
 6091SOL    HW119172   1.414   1.625   1.949
 6091SOL    HW219173   1.548   1.532   1.952
 6092SOL     OW19174   2.673   6.454   0.717
 6092SOL    HW119175   2.591   6.507   0.737
 6092SOL    HW219176   2.704   6.407   0.799
 6093SOL     OW19177   2.615   2.403   2.533
 6093SOL    HW119178   2.621   2.462   2.613
 6093SOL    HW219179   2.550   2.328   2.552
 6094SOL     OW19180   0.378   5.956   5.259
 6094SOL    HW119181   0.421   6.000   5.180
 6094SOL    HW219182   0.361   6.025   5.330
 6095SOL     OW19183   4.720   4.988   2.043
 6095SOL    HW119184   4.654   4.920   2.013
 6095SOL    HW219185   4.805   4.943   2.072
 6096SOL     OW19186   5.435   6.065   3.228
 6096SOL    HW119187   5.348   6.104   3.259
 6096SOL    HW219188   5.510   6.126   3.253
 6097SOL     OW19189   1.825   5.126   2.080
 6097SOL    HW119190   1.867   5.065   2.012
 6097SOL    HW219191   1.734   5.093   2.103
 6098SOL     OW19192   6.871   0.429   4.884
 6098SOL    HW119193   6.883   0.528   4.895
 6098SOL    HW219194   6.784   0.411   4.837
 6099SOL     OW19195   3.495   0.677   5.745
 6099SOL    HW119196   3.487   0.720   5.655
 6099SOL    HW219197   3.570   0.719   5.795
 6100SOL     OW19198   0.126   5.834   4.941
 6100SOL    HW119199   0.044   5.822   4.996
 6100SOL    HW219200   0.185   5.755   4.951
 6101SOL     OW19201   0.094   3.556   1.749
 6101SOL    HW119202   0.183   3.564   1.793
 6101SOL    HW219203   0.091   3.616   1.669
 6102SOL     OW19204   3.694   0.392   2.600
 6102SOL    HW119205   3.765   0.383   2.670
 6102SOL    HW219206   3.605   0.372   2.640
 6103SOL     OW19207   6.114   1.670   2.027
 6103SOL    HW119208   6.207   1.640   2.049
 6103SOL    HW219209   6.077   1.722   2.104
 6104SOL     OW19210   0.228   1.003   4.557
 6104SOL    HW119211   0.207   0.912   4.519
 6104SOL    HW219212   0.231   1.070   4.483
 6105SOL     OW19213   2.810   4.682   5.596
 6105SOL    HW119214   2.760   4.768   5.581
 6105SOL    HW219215   2.746   4.606   5.595
 6106SOL     OW19216   6.064   4.981   5.182
 6106SOL    HW119217   6.043   5.056   5.120
 6106SOL    HW219218   5.985   4.963   5.240
 6107SOL     OW19219   5.361   5.707   5.341
 6107SOL    HW119220   5.348   5.650   5.422
 6107SOL    HW219221   5.423   5.782   5.363
 6108SOL     OW19222   2.199   1.260   0.180
 6108SOL    HW119223   2.220   1.356   0.162
 6108SOL    HW219224   2.278   1.203   0.156
 6109SOL     OW19225   6.560   6.946   3.767
 6109SOL    HW119226   6.495   7.015   3.800
 6109SOL    HW219227   6.642   6.948   3.823
 6110SOL     OW19228   1.648   1.521   4.640
 6110SOL    HW119229   1.551   1.500   4.625
 6110SOL    HW219230   1.682   1.578   4.566
 6111SOL     OW19231   1.843   4.251   0.758
 6111SOL    HW119232   1.770   4.219   0.818
 6111SOL    HW219233   1.864   4.181   0.690
 6112SOL     OW19234   4.578   6.367   3.253
 6112SOL    HW119235   4.562   6.466   3.248
 6112SOL    HW219236   4.541   6.332   3.339
 6113SOL     OW19237   2.995   5.160   0.954
 6113SOL    HW119238   3.029   5.245   0.914
 6113SOL    HW219239   3.056   5.132   1.029
 6114SOL     OW19240   5.654   2.370   0.374
 6114SOL    HW119241   5.636   2.338   0.467
 6114SOL    HW219242   5.570   2.368   0.321
 6115SOL     OW19243   1.093   0.300   5.962
 6115SOL    HW119244   1.108   0.270   5.867
 6115SOL    HW219245   1.156   0.374   5.984
 6116SOL     OW19246   5.705   2.613   6.458
 6116SOL    HW119247   5.669   2.529   6.497
 6116SOL    HW219248   5.658   2.632   6.371
 6117SOL     OW19249   1.703   2.137   1.281
 6117SOL    HW119250   1.646   2.122   1.201
 6117SOL    HW219251   1.685   2.065   1.349
 6118SOL     OW19252   6.004   0.811   1.154
 6118SOL    HW119253   6.051   0.824   1.066
 6118SOL    HW219254   5.920   0.865   1.156
 6119SOL     OW19255   0.240   1.616   6.763
 6119SOL    HW119256   0.203   1.526   6.742
 6119SOL    HW219257   0.340   1.613   6.760
 6120SOL     OW19258   2.827   0.822   4.603
 6120SOL    HW119259   2.823   0.921   4.616
 6120SOL    HW219260   2.796   0.799   4.511
 6121SOL     OW19261   0.711   2.443   5.439
 6121SOL    HW119262   0.802   2.483   5.434
 6121SOL    HW219263   0.717   2.344   5.428
 6122SOL     OW19264   4.876   4.866   5.308
 6122SOL    HW119265   4.961   4.914   5.328
 6122SOL    HW219266   4.815   4.872   5.387
 6123SOL     OW19267   5.303   1.429   5.197
 6123SOL    HW119268   5.289   1.330   5.191
 6123SOL    HW219269   5.400   1.449   5.206
 6124SOL     OW19270   2.398   5.891   4.009
 6124SOL    HW119271   2.340   5.972   3.999
 6124SOL    HW219272   2.376   5.826   3.936
 6125SOL     OW19273   2.783   2.009   6.428
 6125SOL    HW119274   2.847   2.063   6.481
 6125SOL    HW219275   2.826   1.922   6.402
 6126SOL     OW19276   5.969   3.289   5.358
 6126SOL    HW119277   5.921   3.254   5.438
 6126SOL    HW219278   5.923   3.372   5.325
 6127SOL     OW19279   4.147   1.903   2.043
 6127SOL    HW119280   4.181   1.989   2.080
 6127SOL    HW219281   4.096   1.854   2.114
 6128SOL     OW19282   5.447   5.583   0.233
 6128SOL    HW119283   5.451   5.672   0.279
 6128SOL    HW219284   5.387   5.589   0.154
 6129SOL     OW19285   1.620   5.869   2.356
 6129SOL    HW119286   1.549   5.877   2.286
 6129SOL    HW219287   1.631   5.772   2.380
 6130SOL     OW19288   6.296   2.448   6.993
 6130SOL    HW119289   6.244   2.376   6.947
 6130SOL    HW219290   6.237   2.496   0.033
 6131SOL     OW19291   6.512   1.456   2.668
 6131SOL    HW119292   6.516   1.427   2.764
 6131SOL    HW219293   6.422   1.434   2.631
 6132SOL     OW19294   3.955   1.563   6.191
 6132SOL    HW119295   3.871   1.533   6.238
 6132SOL    HW219296   3.971   1.504   6.112
 6133SOL     OW19297   1.317   2.059   3.282
 6133SOL    HW119298   1.270   2.113   3.353
 6133SOL    HW219299   1.250   2.030   3.213
 6134SOL     OW19300   6.517   6.889   6.092
 6134SOL    HW119301   6.514   6.967   6.155
 6134SOL    HW219302   6.439   6.895   6.029
 6135SOL     OW19303   6.936   0.031   6.751
 6135SOL    HW119304   6.911   0.060   6.844
 6135SOL    HW219305   6.970   0.110   6.700
 6136SOL     OW19306   0.955   2.658   2.247
 6136SOL    HW119307   0.997   2.701   2.167
 6136SOL    HW219308   0.924   2.728   2.311
 6137SOL     OW19309   6.505   4.110   1.885
 6137SOL    HW119310   6.569   4.123   1.960
 6137SOL    HW219311   6.511   4.188   1.822
 6138SOL     OW19312   4.221   0.117   2.085
 6138SOL    HW119313   4.306   0.098   2.036
 6138SOL    HW219314   4.219   0.214   2.110
 6139SOL     OW19315   1.057   0.318   5.188
 6139SOL    HW119316   1.099   0.333   5.098
 6139SOL    HW219317   0.968   0.274   5.175
 6140SOL     OW19318   1.610   0.184   3.329
 6140SOL    HW119319   1.623   0.127   3.410
 6140SOL    HW219320   1.554   0.136   3.262
 6141SOL     OW19321   0.694   0.951   6.027
 6141SOL    HW119322   0.787   0.988   6.018
 6141SOL    HW219323   0.645   1.002   6.098
 6142SOL     OW19324   0.156   0.612   1.498
 6142SOL    HW119325   0.096   0.614   1.578
 6142SOL    HW219326   0.251   0.604   1.528
 6143SOL     OW19327   6.895   3.998   5.575
 6143SOL    HW119328   6.861   4.063   5.507
 6143SOL    HW219329   6.884   4.036   5.667
 6144SOL     OW19330   3.987   5.019   2.766
 6144SOL    HW119331   3.983   5.041   2.668
 6144SOL    HW219332   4.009   4.923   2.778
 6145SOL     OW19333   4.913   3.709   3.953
 6145SOL    HW119334   4.877   3.772   4.022
 6145SOL    HW219335   4.893   3.615   3.981
 6146SOL     OW19336   5.360   0.058   5.204
 6146SOL    HW119337   5.375   6.999   5.256
 6146SOL    HW219338   5.335   0.034   5.110
 6147SOL     OW19339   1.768   2.552   4.498
 6147SOL    HW119340   1.861   2.522   4.478
 6147SOL    HW219341   1.730   2.600   4.419
 6148SOL     OW19342   2.965   5.818   6.942
 6148SOL    HW119343   2.923   5.909   6.944
 6148SOL    HW219344   3.063   5.828   6.925
 6149SOL     OW19345   2.980   1.204   1.399
 6149SOL    HW119346   2.913   1.272   1.371
 6149SOL    HW219347   3.016   1.228   1.489
 6150SOL     OW19348   0.821   4.315   5.410
 6150SOL    HW119349   0.759   4.249   5.451
 6150SOL    HW219350   0.903   4.324   5.466
 6151SOL     OW19351   4.349   5.567   3.942
 6151SOL    HW119352   4.263   5.543   3.897
 6151SOL    HW219353   4.425   5.521   3.897
 6152SOL     OW19354   1.416   4.566   4.299
 6152SOL    HW119355   1.451   4.486   4.350
 6152SOL    HW219356   1.479   4.588   4.225
 6153SOL     OW19357   5.599   5.066   1.329
 6153SOL    HW119358   5.513   5.051   1.376
 6153SOL    HW219359   5.615   5.164   1.319
 6154SOL     OW19360   5.134   3.197   2.236
 6154SOL    HW119361   5.196   3.165   2.164
 6154SOL    HW219362   5.054   3.137   2.241
 6155SOL     OW19363   2.098   1.221   3.212
 6155SOL    HW119364   2.177   1.180   3.166
 6155SOL    HW219365   2.019   1.160   3.201
 6156SOL     OW19366   4.972   5.147   1.519
 6156SOL    HW119367   5.022   5.087   1.581
 6156SOL    HW219368   5.005   5.240   1.529
 6157SOL     OW19369   1.453   2.610   2.132
 6157SOL    HW119370   1.374   2.616   2.192
 6157SOL    HW219371   1.428   2.640   2.040
 6158SOL     OW19372   3.092   2.177   4.600
 6158SOL    HW119373   3.099   2.276   4.612
 6158SOL    HW219374   3.180   2.141   4.569
 6159SOL     OW19375   6.454   2.981   1.021
 6159SOL    HW119376   6.481   2.885   1.030
 6159SOL    HW219377   6.523   3.040   1.063
 6160SOL     OW19378   1.581   0.747   0.964
 6160SOL    HW119379   1.488   0.765   0.930
 6160SOL    HW219380   1.640   0.722   0.887
 6161SOL     OW19381   4.109   3.202   6.683
 6161SOL    HW119382   4.107   3.195   6.783
 6161SOL    HW219383   4.118   3.298   6.656
 6162SOL     OW19384   6.324   5.208   3.045
 6162SOL    HW119385   6.327   5.118   3.000
 6162SOL    HW219386   6.232   5.245   3.037
 6163SOL     OW19387   5.605   6.037   3.682
 6163SOL    HW119388   5.579   6.046   3.779
 6163SOL    HW219389   5.632   6.127   3.647
 6164SOL     OW19390   2.890   3.397   4.915
 6164SOL    HW119391   2.928   3.348   4.836
 6164SOL    HW219392   2.798   3.364   4.932
 6165SOL     OW19393   3.883   1.282   0.220
 6165SOL    HW119394   3.936   1.294   0.136
 6165SOL    HW219395   3.935   1.226   0.284
 6166SOL     OW19396   1.639   3.113   6.633
 6166SOL    HW119397   1.712   3.098   6.699
 6166SOL    HW219398   1.674   3.100   6.541
 6167SOL     OW19399   1.776   3.819   3.132
 6167SOL    HW119400   1.707   3.750   3.110
 6167SOL    HW219401   1.849   3.778   3.186
 6168SOL     OW19402   0.830   4.082   3.683
 6168SOL    HW119403   0.754   4.023   3.657
 6168SOL    HW219404   0.812   4.176   3.655
 6169SOL     OW19405   2.161   0.568   0.216
 6169SOL    HW119406   2.080   0.627   0.215
 6169SOL    HW219407   2.220   0.592   0.140
 6170SOL     OW19408   2.913   3.820   6.747
 6170SOL    HW119409   2.838   3.800   6.683
 6170SOL    HW219410   2.882   3.886   6.815
 6171SOL     OW19411   2.165   4.034   2.288
 6171SOL    HW119412   2.096   4.092   2.332
 6171SOL    HW219413   2.237   4.091   2.249
 6172SOL     OW19414   2.003   6.290   2.489
 6172SOL    HW119415   1.925   6.236   2.521
 6172SOL    HW219416   1.971   6.380   2.460
 6173SOL     OW19417   1.228   5.824   2.203
 6173SOL    HW119418   1.140   5.844   2.161
 6173SOL    HW219419   1.220   5.744   2.263
 6174SOL     OW19420   5.597   5.275   2.563
 6174SOL    HW119421   5.608   5.179   2.539
 6174SOL    HW219422   5.684   5.323   2.552
 6175SOL     OW19423   4.898   0.627   3.231
 6175SOL    HW119424   4.948   0.602   3.149
 6175SOL    HW219425   4.818   0.567   3.241
 6176SOL     OW19426   6.573   3.202   5.513
 6176SOL    HW119427   6.588   3.297   5.487
 6176SOL    HW219428   6.506   3.198   5.587
 6177SOL     OW19429   6.439   2.567   0.364
 6177SOL    HW119430   6.482   2.541   0.277
 6177SOL    HW219431   6.398   2.486   0.407
 6178SOL     OW19432   5.887   3.239   1.448
 6178SOL    HW119433   5.839   3.326   1.440
 6178SOL    HW219434   5.939   3.236   1.533
 6179SOL     OW19435   0.504   1.637   5.830
 6179SOL    HW119436   0.432   1.581   5.872
 6179SOL    HW219437   0.462   1.718   5.790
 6180SOL     OW19438   3.453   7.020   6.804
 6180SOL    HW119439   3.454   0.067   6.734
 6180SOL    HW219440   3.368   0.003   6.858
 6181SOL     OW19441   5.157   6.645   6.911
 6181SOL    HW119442   5.113   6.577   6.970
 6181SOL    HW219443   5.246   6.611   6.882
 6182SOL     OW19444   4.597   6.201   6.789
 6182SOL    HW119445   4.581   6.176   6.885
 6182SOL    HW219446   4.515   6.244   6.752
 6183SOL     OW19447   3.537   0.469   3.216
 6183SOL    HW119448   3.626   0.423   3.215
 6183SOL    HW219449   3.510   0.492   3.123
 6184SOL     OW19450   0.503   0.147   6.632
 6184SOL    HW119451   0.577   0.146   6.699
 6184SOL    HW219452   0.530   0.200   6.552
 6185SOL     OW19453   0.614   3.425   6.246
 6185SOL    HW119454   0.674   3.416   6.326
 6185SOL    HW219455   0.566   3.513   6.250
 6186SOL     OW19456   5.753   0.165   4.816
 6186SOL    HW119457   5.842   0.125   4.795
 6186SOL    HW219458   5.681   0.099   4.794
 6187SOL     OW19459   4.006   4.882   4.257
 6187SOL    HW119460   4.018   4.924   4.346
 6187SOL    HW219461   4.036   4.787   4.260
 6188SOL     OW19462   2.809   6.246   1.206
 6188SOL    HW119463   2.833   6.339   1.235
 6188SOL    HW219464   2.766   6.198   1.282
 6189SOL     OW19465   6.162   4.687   3.042
 6189SOL    HW119466   6.121   4.775   3.065
 6189SOL    HW219467   6.233   4.665   3.109
 6190SOL     OW19468   5.663   2.335   6.955
 6190SOL    HW119469   5.586   2.310   6.896
 6190SOL    HW219470   5.702   2.421   6.925
 6191SOL     OW19471   6.413   2.691   6.830
 6191SOL    HW119472   6.380   2.605   6.871
 6191SOL    HW219473   6.336   2.743   6.795
 6192SOL     OW19474   3.121   2.853   6.932
 6192SOL    HW119475   3.136   2.837   0.005
 6192SOL    HW219476   3.205   2.887   6.890
 6193SOL     OW19477   6.283   7.015   1.112
 6193SOL    HW119478   6.188   0.012   1.134
 6193SOL    HW219479   6.317   0.057   1.045
 6194SOL     OW19480   2.021   0.627   0.618
 6194SOL    HW119481   2.117   0.640   0.594
 6194SOL    HW219482   2.005   0.657   0.712
 6195SOL     OW19483   3.530   0.272   6.349
 6195SOL    HW119484   3.545   0.363   6.389
 6195SOL    HW219485   3.611   0.216   6.362
 6196SOL     OW19486   0.416   1.188   6.411
 6196SOL    HW119487   0.400   1.120   6.483
 6196SOL    HW219488   0.399   1.279   6.449
 6197SOL     OW19489   2.324   3.436   0.504
 6197SOL    HW119490   2.393   3.480   0.562
 6197SOL    HW219491   2.364   3.354   0.461
 6198SOL     OW19492   4.044   4.764   2.663
 6198SOL    HW119493   4.108   4.758   2.587
 6198SOL    HW219494   3.951   4.774   2.627
 6199SOL     OW19495   1.624   6.807   6.373
 6199SOL    HW119496   1.613   6.747   6.294
 6199SOL    HW219497   1.589   6.762   6.455
 6200SOL     OW19498   4.231   0.255   6.152
 6200SOL    HW119499   4.260   0.246   6.247
 6200SOL    HW219500   4.206   0.350   6.133
 6201SOL     OW19501   2.102   4.614   5.216
 6201SOL    HW119502   2.136   4.521   5.201
 6201SOL    HW219503   2.002   4.614   5.213
 6202SOL     OW19504   2.967   1.841   1.361
 6202SOL    HW119505   3.060   1.859   1.394
 6202SOL    HW219506   2.919   1.783   1.427
 6203SOL     OW19507   4.287   1.479   5.193
 6203SOL    HW119508   4.215   1.423   5.234
 6203SOL    HW219509   4.375   1.431   5.201
 6204SOL     OW19510   1.657   6.461   5.837
 6204SOL    HW119511   1.717   6.392   5.797
 6204SOL    HW219512   1.629   6.433   5.928
 6205SOL     OW19513   5.572   6.281   6.979
 6205SOL    HW119514   5.584   6.185   6.953
 6205SOL    HW219515   5.475   6.304   6.978
 6206SOL     OW19516   5.169   0.216   3.010
 6206SOL    HW119517   5.230   0.151   2.963
 6206SOL    HW219518   5.218   0.260   3.085
 6207SOL     OW19519   1.940   3.862   4.470
 6207SOL    HW119520   1.842   3.881   4.481
 6207SOL    HW219521   1.989   3.891   4.552
 6208SOL     OW19522   5.816   6.568   6.076
 6208SOL    HW119523   5.908   6.554   6.113
 6208SOL    HW219524   5.810   6.525   5.986
 6209SOL     OW19525   3.691   5.341   1.084
 6209SOL    HW119526   3.617   5.354   1.019
 6209SOL    HW219527   3.725   5.429   1.116
 6210SOL     OW19528   5.842   4.435   3.805
 6210SOL    HW119529   5.753   4.480   3.810
 6210SOL    HW219530   5.909   4.487   3.858
 6211SOL     OW19531   3.046   0.113   4.740
 6211SOL    HW119532   3.083   0.037   4.794
 6211SOL    HW219533   2.997   0.076   4.661
 6212SOL     OW19534   6.769   6.530   3.680
 6212SOL    HW119535   6.688   6.505   3.732
 6212SOL    HW219536   6.809   6.447   3.640
 6213SOL     OW19537   0.192   6.497   6.417
 6213SOL    HW119538   0.280   6.497   6.464
 6213SOL    HW219539   0.140   6.416   6.442
 6214SOL     OW19540   6.322   4.623   2.836
 6214SOL    HW119541   6.268   4.674   2.903
 6214SOL    HW219542   6.337   4.529   2.870
 6215SOL     OW19543   3.164   3.405   0.845
 6215SOL    HW119544   3.169   3.360   0.756
 6215SOL    HW219545   3.095   3.478   0.841
 6216SOL     OW19546   5.686   1.518   2.713
 6216SOL    HW119547   5.778   1.538   2.745
 6216SOL    HW219548   5.639   1.603   2.690
 6217SOL     OW19549   5.278   3.029   1.724
 6217SOL    HW119550   5.191   3.047   1.679
 6217SOL    HW219551   5.266   3.031   1.824
 6218SOL     OW19552   3.484   5.332   5.684
 6218SOL    HW119553   3.537   5.309   5.602
 6218SOL    HW219554   3.387   5.319   5.666
 6219SOL     OW19555   0.537   1.741   4.700
 6219SOL    HW119556   0.619   1.796   4.690
 6219SOL    HW219557   0.547   1.655   4.650
 6220SOL     OW19558   1.884   4.323   5.096
 6220SOL    HW119559   1.959   4.258   5.099
 6220SOL    HW219560   1.881   4.366   5.006
 6221SOL     OW19561   3.445   5.276   4.737
 6221SOL    HW119562   3.386   5.354   4.715
 6221SOL    HW219563   3.390   5.193   4.743
 6222SOL     OW19564   0.052   1.205   0.743
 6222SOL    HW119565   0.097   1.255   0.817
 6222SOL    HW219566   6.983   1.181   0.771
 6223SOL     OW19567   4.879   2.956   4.573
 6223SOL    HW119568   4.901   2.982   4.667
 6223SOL    HW219569   4.917   3.024   4.510
 6224SOL     OW19570   2.829   1.181   5.387
 6224SOL    HW119571   2.811   1.139   5.476
 6224SOL    HW219572   2.745   1.223   5.353
 6225SOL     OW19573   3.580   2.700   0.516
 6225SOL    HW119574   3.660   2.743   0.556
 6225SOL    HW219575   3.561   2.742   0.427
 6226SOL     OW19576   5.676   0.467   4.713
 6226SOL    HW119577   5.630   0.547   4.752
 6226SOL    HW219578   5.728   0.420   4.785
 6227SOL     OW19579   3.164   4.737   6.202
 6227SOL    HW119580   3.121   4.674   6.266
 6227SOL    HW219581   3.137   4.831   6.225
 6228SOL     OW19582   6.673   0.600   3.713
 6228SOL    HW119583   6.720   0.668   3.657
 6228SOL    HW219584   6.583   0.634   3.738
 6229SOL     OW19585   2.392   2.705   1.943
 6229SOL    HW119586   2.441   2.618   1.939
 6229SOL    HW219587   2.380   2.741   1.850
 6230SOL     OW19588   2.398   2.098   3.512
 6230SOL    HW119589   2.376   2.058   3.602
 6230SOL    HW219590   2.397   2.026   3.443
 6231SOL     OW19591   0.161   4.853   1.516
 6231SOL    HW119592   0.083   4.878   1.572
 6231SOL    HW219593   0.246   4.872   1.566
 6232SOL     OW19594   1.126   0.955   6.609
 6232SOL    HW119595   1.104   1.004   6.693
 6232SOL    HW219596   1.122   1.018   6.531
 6233SOL     OW19597   4.631   2.255   0.049
 6233SOL    HW119598   4.635   2.228   0.145
 6233SOL    HW219599   4.660   2.179   7.016
 6234SOL     OW19600   2.451   2.242   3.752
 6234SOL    HW119601   2.502   2.303   3.690
 6234SOL    HW219602   2.354   2.245   3.729
 6235SOL     OW19603   2.443   6.551   3.449
 6235SOL    HW119604   2.345   6.531   3.449
 6235SOL    HW219605   2.470   6.589   3.537
 6236SOL     OW19606   6.712   4.079   0.649
 6236SOL    HW119607   6.749   3.998   0.694
 6236SOL    HW219608   6.741   4.161   0.699
 6237SOL     OW19609   4.487   6.968   0.814
 6237SOL    HW119610   4.402   6.920   0.797
 6237SOL    HW219611   4.561   6.926   0.761
 6238SOL     OW19612   4.706   4.698   1.320
 6238SOL    HW119613   4.768   4.707   1.242
 6238SOL    HW219614   4.703   4.785   1.370
 6239SOL     OW19615   2.562   0.264   3.719
 6239SOL    HW119616   2.589   0.355   3.687
 6239SOL    HW219617   2.479   0.235   3.672
 6240SOL     OW19618   1.900   4.044   0.592
 6240SOL    HW119619   1.906   4.073   0.496
 6240SOL    HW219620   1.813   3.998   0.608
 6241SOL     OW19621   4.568   0.316   1.444
 6241SOL    HW119622   4.571   0.403   1.395
 6241SOL    HW219623   4.586   0.241   1.381
 6242SOL     OW19624   4.788   2.266   3.421
 6242SOL    HW119625   4.791   2.293   3.325
 6242SOL    HW219626   4.718   2.196   3.434
 6243SOL     OW19627   6.392   5.873   3.764
 6243SOL    HW119628   6.488   5.848   3.777
 6243SOL    HW219629   6.385   5.972   3.754
 6244SOL     OW19630   2.552   1.378   2.124
 6244SOL    HW119631   2.528   1.297   2.176
 6244SOL    HW219632   2.504   1.458   2.162
 6245SOL     OW19633   2.968   3.997   0.510
 6245SOL    HW119634   2.911   4.010   0.430
 6245SOL    HW219635   3.050   3.945   0.485
 6246SOL     OW19636   2.860   0.904   5.862
 6246SOL    HW119637   2.907   0.869   5.781
 6246SOL    HW219638   2.782   0.959   5.835
 6247SOL     OW19639   0.264   5.916   2.629
 6247SOL    HW119640   0.260   5.866   2.715
 6247SOL    HW219641   0.290   5.853   2.555
 6248SOL     OW19642   0.172   4.672   1.323
 6248SOL    HW119643   0.270   4.653   1.333
 6248SOL    HW219644   0.141   4.729   1.399
 6249SOL     OW19645   5.720   4.155   6.328
 6249SOL    HW119646   5.640   4.196   6.284
 6249SOL    HW219647   5.691   4.106   6.411
 6250SOL     OW19648   5.615   6.035   6.879
 6250SOL    HW119649   5.586   6.010   6.787
 6250SOL    HW219650   5.711   6.010   6.892
 6251SOL     OW19651   4.346   1.722   0.705
 6251SOL    HW119652   4.374   1.787   0.635
 6251SOL    HW219653   4.285   1.653   0.665
 6252SOL     OW19654   2.483   6.133   5.309
 6252SOL    HW119655   2.490   6.122   5.408
 6252SOL    HW219656   2.390   6.158   5.284
 6253SOL     OW19657   1.616   3.730   1.280
 6253SOL    HW119658   1.698   3.674   1.269
 6253SOL    HW219659   1.542   3.693   1.224
 6254SOL     OW19660   5.309   0.541   0.410
 6254SOL    HW119661   5.296   0.511   0.315
 6254SOL    HW219662   5.280   0.468   0.472
 6255SOL     OW19663   0.586   1.381   2.239
 6255SOL    HW119664   0.541   1.369   2.151
 6255SOL    HW219665   0.595   1.478   2.260
 6256SOL     OW19666   3.412   4.850   2.750
 6256SOL    HW119667   3.412   4.766   2.695
 6256SOL    HW219668   3.319   4.888   2.753
 6257SOL     OW19669   5.232   2.401   6.557
 6257SOL    HW119670   5.152   2.453   6.525
 6257SOL    HW219671   5.202   2.313   6.592
 6258SOL     OW19672   5.128   1.426   2.339
 6258SOL    HW119673   5.065   1.500   2.364
 6258SOL    HW219674   5.076   1.341   2.329
 6259SOL     OW19675   2.942   2.525   1.559
 6259SOL    HW119676   2.890   2.441   1.544
 6259SOL    HW219677   2.984   2.522   1.650
 6260SOL     OW19678   3.738   3.560   0.028
 6260SOL    HW119679   3.702   3.552   0.121
 6260SOL    HW219680   3.838   3.569   0.032
 6261SOL     OW19681   4.270   1.250   0.544
 6261SOL    HW119682   4.191   1.219   0.598
 6261SOL    HW219683   4.349   1.262   0.604
 6262SOL     OW19684   0.322   5.129   6.076
 6262SOL    HW119685   0.332   5.154   5.980
 6262SOL    HW219686   0.365   5.200   6.133
 6263SOL     OW19687   6.452   0.542   0.723
 6263SOL    HW119688   6.479   0.450   0.693
 6263SOL    HW219689   6.369   0.536   0.778
 6264SOL     OW19690   2.541   1.751   0.349
 6264SOL    HW119691   2.466   1.764   0.285
 6264SOL    HW219692   2.504   1.742   0.442
 6265SOL     OW19693   3.663   2.780   1.240
 6265SOL    HW119694   3.688   2.798   1.335
 6265SOL    HW219695   3.650   2.682   1.226
 6266SOL     OW19696   2.515   0.209   3.087
 6266SOL    HW119697   2.506   0.139   3.017
 6266SOL    HW219698   2.611   0.230   3.102
 6267SOL     OW19699   3.199   0.162   6.618
 6267SOL    HW119700   3.181   0.070   6.651
 6267SOL    HW219701   3.206   0.162   6.518
 6268SOL     OW19702   3.488   5.106   2.592
 6268SOL    HW119703   3.481   5.036   2.663
 6268SOL    HW219704   3.453   5.193   2.626
 6269SOL     OW19705   6.136   4.309   1.011
 6269SOL    HW119706   6.191   4.345   1.086
 6269SOL    HW219707   6.190   4.309   0.927
 6270SOL     OW19708   0.321   0.612   4.834
 6270SOL    HW119709   0.294   0.708   4.830
 6270SOL    HW219710   0.412   0.605   4.876
 6271SOL     OW19711   5.742   1.465   0.742
 6271SOL    HW119712   5.677   1.541   0.744
 6271SOL    HW219713   5.735   1.417   0.655
 6272SOL     OW19714   1.492   1.941   3.428
 6272SOL    HW119715   1.430   2.003   3.379
 6272SOL    HW219716   1.578   1.988   3.449
 6273SOL     OW19717   3.570   0.939   1.765
 6273SOL    HW119718   3.563   0.873   1.840
 6273SOL    HW219719   3.485   0.939   1.713
 6274SOL     OW19720   3.754   0.123   6.356
 6274SOL    HW119721   3.774   0.102   6.452
 6274SOL    HW219722   3.713   0.043   6.313
 6275SOL     OW19723   2.355   0.933   4.767
 6275SOL    HW119724   2.354   0.925   4.866
 6275SOL    HW219725   2.265   0.964   4.735
 6276SOL     OW19726   1.361   6.008   3.970
 6276SOL    HW119727   1.341   6.032   3.874
 6276SOL    HW219728   1.285   5.957   4.008
 6277SOL     OW19729   5.771   3.315   3.076
 6277SOL    HW119730   5.819   3.374   3.011
 6277SOL    HW219731   5.725   3.241   3.027
 6278SOL     OW19732   5.499   0.666   4.372
 6278SOL    HW119733   5.424   0.721   4.335
 6278SOL    HW219734   5.553   0.723   4.435
 6279SOL     OW19735   4.847   2.043   0.200
 6279SOL    HW119736   4.836   1.969   0.134
 6279SOL    HW219737   4.847   2.006   0.293
 6280SOL     OW19738   0.580   4.684   5.827
 6280SOL    HW119739   0.533   4.740   5.895
 6280SOL    HW219740   0.571   4.725   5.737
 6281SOL     OW19741   2.837   6.772   5.382
 6281SOL    HW119742   2.784   6.720   5.449
 6281SOL    HW219743   2.784   6.779   5.297
 6282SOL     OW19744   1.602   6.879   3.823
 6282SOL    HW119745   1.614   6.964   3.874
 6282SOL    HW219746   1.537   6.820   3.871
 6283SOL     OW19747   0.130   2.104   5.187
 6283SOL    HW119748   0.141   2.119   5.285
 6283SOL    HW219749   0.112   2.191   5.142
 6284SOL     OW19750   2.094   4.237   6.148
 6284SOL    HW119751   2.190   4.234   6.174
 6284SOL    HW219752   2.043   4.292   6.214
 6285SOL     OW19753   1.858   4.529   1.996
 6285SOL    HW119754   1.760   4.526   1.974
 6285SOL    HW219755   1.903   4.449   1.958
 6286SOL     OW19756   5.798   1.090   4.244
 6286SOL    HW119757   5.885   1.100   4.196
 6286SOL    HW219758   5.775   1.175   4.290
 6287SOL     OW19759   4.759   4.282   1.856
 6287SOL    HW119760   4.672   4.233   1.867
 6287SOL    HW219761   4.801   4.296   1.946
 6288SOL     OW19762   5.276   3.400   0.970
 6288SOL    HW119763   5.338   3.477   0.981
 6288SOL    HW219764   5.186   3.434   0.940
 6289SOL     OW19765   1.630   1.134   3.662
 6289SOL    HW119766   1.707   1.139   3.598
 6289SOL    HW219767   1.576   1.218   3.656
 6290SOL     OW19768   5.766   3.770   3.397
 6290SOL    HW119769   5.838   3.733   3.457
 6290SOL    HW219770   5.692   3.703   3.389
 6291SOL     OW19771   3.570   4.127   2.993
 6291SOL    HW119772   3.505   4.139   2.918
 6291SOL    HW219773   3.524   4.079   3.068
 6292SOL     OW19774   1.202   2.050   1.975
 6292SOL    HW119775   1.212   2.149   1.967
 6292SOL    HW219776   1.131   2.029   2.042
 6293SOL     OW19777   4.647   0.228   0.585
 6293SOL    HW119778   4.693   0.264   0.504
 6293SOL    HW219779   4.615   0.305   0.641
 6294SOL     OW19780   4.438   5.320   2.735
 6294SOL    HW119781   4.460   5.224   2.753
 6294SOL    HW219782   4.401   5.329   2.643
 6295SOL     OW19783   5.970   6.794   6.346
 6295SOL    HW119784   5.993   6.882   6.305
 6295SOL    HW219785   5.978   6.722   6.277
 6296SOL     OW19786   6.167   0.872   3.699
 6296SOL    HW119787   6.155   0.796   3.634
 6296SOL    HW219788   6.088   0.876   3.760
 6297SOL     OW19789   5.628   0.199   5.724
 6297SOL    HW119790   5.653   0.192   5.628
 6297SOL    HW219791   5.580   0.285   5.740
 6298SOL     OW19792   1.309   1.825   5.092
 6298SOL    HW119793   1.254   1.889   5.038
 6298SOL    HW219794   1.312   1.855   5.187
 6299SOL     OW19795   6.126   3.119   0.208
 6299SOL    HW119796   6.091   3.198   0.158
 6299SOL    HW219797   6.154   3.148   0.300
 6300SOL     OW19798   5.269   0.271   3.780
 6300SOL    HW119799   5.293   0.367   3.778
 6300SOL    HW219800   5.254   0.242   3.875
 6301SOL     OW19801   3.010   6.794   0.571
 6301SOL    HW119802   2.955   6.826   0.648
 6301SOL    HW219803   3.012   6.694   0.571
 6302SOL     OW19804   1.326   0.871   3.561
 6302SOL    HW119805   1.360   0.778   3.568
 6302SOL    HW219806   1.372   0.929   3.628
 6303SOL     OW19807   1.665   5.995   5.506
 6303SOL    HW119808   1.615   5.909   5.520
 6303SOL    HW219809   1.695   6.001   5.411
 6304SOL     OW19810   3.265   1.208   6.493
 6304SOL    HW119811   3.239   1.111   6.495
 6304SOL    HW219812   3.274   1.238   6.398
 6305SOL     OW19813   6.042   1.001   1.468
 6305SOL    HW119814   6.070   1.029   1.377
 6305SOL    HW219815   5.947   0.968   1.464
 6306SOL     OW19816   6.154   2.792   4.114
 6306SOL    HW119817   6.118   2.718   4.171
 6306SOL    HW219818   6.101   2.796   4.029
 6307SOL     OW19819   2.672   4.860   0.874
 6307SOL    HW119820   2.650   4.923   0.949
 6307SOL    HW219821   2.680   4.912   0.789
 6308SOL     OW19822   3.039   2.257   5.350
 6308SOL    HW119823   3.007   2.228   5.260
 6308SOL    HW219824   3.095   2.339   5.341
 6309SOL     OW19825   5.871   2.131   4.249
 6309SOL    HW119826   5.884   2.040   4.289
 6309SOL    HW219827   5.804   2.182   4.303
 6310SOL     OW19828   1.490   4.759   4.933
 6310SOL    HW119829   1.487   4.747   5.032
 6310SOL    HW219830   1.425   4.697   4.890
 6311SOL     OW19831   5.887   0.402   4.903
 6311SOL    HW119832   5.969   0.425   4.850
 6311SOL    HW219833   5.849   0.316   4.869
 6312SOL     OW19834   4.414   4.956   5.796
 6312SOL    HW119835   4.449   4.863   5.810
 6312SOL    HW219836   4.383   4.993   5.883
 6313SOL     OW19837   2.675   5.281   3.085
 6313SOL    HW119838   2.581   5.246   3.089
 6313SOL    HW219839   2.706   5.282   2.990
 6314SOL     OW19840   3.452   6.036   3.407
 6314SOL    HW119841   3.373   5.995   3.360
 6314SOL    HW219842   3.497   5.966   3.463
 6315SOL     OW19843   3.202   3.314   0.586
 6315SOL    HW119844   3.114   3.301   0.541
 6315SOL    HW219845   3.275   3.281   0.526
 6316SOL     OW19846   5.511   1.855   6.177
 6316SOL    HW119847   5.456   1.930   6.138
 6316SOL    HW219848   5.450   1.788   6.219
 6317SOL     OW19849   6.412   6.154   4.398
 6317SOL    HW119850   6.451   6.208   4.473
 6317SOL    HW219851   6.469   6.164   4.317
 6318SOL     OW19852   2.690   1.618   4.702
 6318SOL    HW119853   2.749   1.691   4.739
 6318SOL    HW219854   2.595   1.648   4.705
 6319SOL     OW19855   0.456   1.774   2.979
 6319SOL    HW119856   0.550   1.805   2.992
 6319SOL    HW219857   0.395   1.829   3.037
 6320SOL     OW19858   6.592   2.785   3.632
 6320SOL    HW119859   6.635   2.699   3.601
 6320SOL    HW219860   6.561   2.774   3.726
 6321SOL     OW19861   2.247   3.877   0.525
 6321SOL    HW119862   2.216   3.796   0.573
 6321SOL    HW219863   2.307   3.931   0.585
 6322SOL     OW19864   1.181   1.297   6.996
 6322SOL    HW119865   1.197   1.199   6.989
 6322SOL    HW219866   1.141   1.318   0.061
 6323SOL     OW19867   3.675   2.350   0.826
 6323SOL    HW119868   3.647   2.441   0.856
 6323SOL    HW219869   3.595   2.293   0.808
 6324SOL     OW19870   4.653   1.207   6.370
 6324SOL    HW119871   4.673   1.298   6.333
 6324SOL    HW219872   4.574   1.168   6.322
 6325SOL     OW19873   1.176   2.210   2.376
 6325SOL    HW119874   1.096   2.265   2.401
 6325SOL    HW219875   1.227   2.257   2.304
 6326SOL     OW19876   4.784   5.794   1.165
 6326SOL    HW119877   4.842   5.776   1.085
 6326SOL    HW219878   4.688   5.792   1.138
 6327SOL     OW19879   4.809   5.476   6.066
 6327SOL    HW119880   4.896   5.514   6.098
 6327SOL    HW219881   4.766   5.541   6.004
 6328SOL     OW19882   2.939   4.169   6.282
 6328SOL    HW119883   2.858   4.140   6.232
 6328SOL    HW219884   2.958   4.104   6.356
 6329SOL     OW19885   0.972   1.735   3.187
 6329SOL    HW119886   1.002   1.643   3.165
 6329SOL    HW219887   1.032   1.773   3.259
 6330SOL     OW19888   3.408   1.721   0.329
 6330SOL    HW119889   3.482   1.789   0.336
 6330SOL    HW219890   3.398   1.674   0.416
 6331SOL     OW19891   6.272   3.127   1.703
 6331SOL    HW119892   6.357   3.180   1.708
 6331SOL    HW219893   6.282   3.045   1.760
 6332SOL     OW19894   5.524   6.437   1.762
 6332SOL    HW119895   5.547   6.367   1.829
 6332SOL    HW219896   5.573   6.419   1.677
 6333SOL     OW19897   2.528   4.956   2.884
 6333SOL    HW119898   2.438   4.997   2.871
 6333SOL    HW219899   2.598   5.026   2.870
 6334SOL     OW19900   2.421   1.898   2.630
 6334SOL    HW119901   2.452   1.840   2.705
 6334SOL    HW219902   2.410   1.992   2.663
 6335SOL     OW19903   6.770   1.419   6.902
 6335SOL    HW119904   6.849   1.396   6.958
 6335SOL    HW219905   6.721   1.496   6.943
 6336SOL     OW19906   0.679   2.678   4.713
 6336SOL    HW119907   0.678   2.760   4.769
 6336SOL    HW219908   0.696   2.598   4.770
 6337SOL     OW19909   6.358   4.506   5.375
 6337SOL    HW119910   6.258   4.507   5.364
 6337SOL    HW219911   6.383   4.443   5.449
 6338SOL     OW19912   3.997   1.252   3.466
 6338SOL    HW119913   3.927   1.276   3.399
 6338SOL    HW219914   4.088   1.273   3.429
 6339SOL     OW19915   6.672   2.097   4.592
 6339SOL    HW119916   6.631   2.116   4.682
 6339SOL    HW219917   6.754   2.154   4.581
 6340SOL     OW19918   1.936   5.293   3.916
 6340SOL    HW119919   1.901   5.280   3.823
 6340SOL    HW219920   1.899   5.222   3.975
 6341SOL     OW19921   0.027   4.148   2.714
 6341SOL    HW119922   7.009   4.075   2.767
 6341SOL    HW219923   6.980   4.207   2.676
 6342SOL     OW19924   1.633   2.851   0.727
 6342SOL    HW119925   1.709   2.915   0.742
 6342SOL    HW219926   1.569   2.857   0.804
 6343SOL     OW19927   4.032   1.043   6.789
 6343SOL    HW119928   3.942   1.044   6.744
 6343SOL    HW219929   4.037   1.120   6.854
 6344SOL     OW19930   0.732   3.907   4.210
 6344SOL    HW119931   0.689   3.962   4.138
 6344SOL    HW219932   0.827   3.889   4.186
 6345SOL     OW19933   3.400   1.823   2.235
 6345SOL    HW119934   3.463   1.843   2.160
 6345SOL    HW219935   3.333   1.896   2.244
 6346SOL     OW19936   1.127   4.914   3.767
 6346SOL    HW119937   1.184   4.834   3.745
 6346SOL    HW219938   1.035   4.884   3.792
 6347SOL     OW19939   3.546   0.626   1.556
 6347SOL    HW119940   3.553   0.613   1.655
 6347SOL    HW219941   3.606   0.701   1.528
 6348SOL     OW19942   1.607   2.879   4.102
 6348SOL    HW119943   1.521   2.854   4.057
 6348SOL    HW219944   1.632   2.972   4.076
 6349SOL     OW19945   2.495   0.302   0.376
 6349SOL    HW119946   2.579   0.246   0.376
 6349SOL    HW219947   2.428   0.261   0.438
 6350SOL     OW19948   1.556   6.197   2.202
 6350SOL    HW119949   1.500   6.217   2.282
 6350SOL    HW219950   1.498   6.163   2.128
 6351SOL     OW19951   0.166   1.101   2.899
 6351SOL    HW119952   0.262   1.105   2.927
 6351SOL    HW219953   0.158   1.045   2.817
 6352SOL     OW19954   0.143   5.649   1.944
 6352SOL    HW119955   0.062   5.699   1.975
 6352SOL    HW219956   0.171   5.584   2.014
 6353SOL     OW19957   0.217   6.761   2.052
 6353SOL    HW119958   0.163   6.683   2.021
 6353SOL    HW219959   0.299   6.769   1.996
 6354SOL     OW19960   0.472   6.902   3.842
 6354SOL    HW119961   0.459   6.814   3.796
 6354SOL    HW219962   0.555   6.898   3.897
 6355SOL     OW19963   2.017   2.520   3.152
 6355SOL    HW119964   2.055   2.525   3.245
 6355SOL    HW219965   2.089   2.489   3.090
 6356SOL     OW19966   3.409   3.336   1.310
 6356SOL    HW119967   3.335   3.371   1.252
 6356SOL    HW219968   3.441   3.410   1.370
 6357SOL     OW19969   4.291   2.308   0.056
 6357SOL    HW119970   4.340   2.393   0.038
 6357SOL    HW219971   4.330   2.263   0.136
 6358SOL     OW19972   0.512   2.230   3.527
 6358SOL    HW119973   0.434   2.220   3.465
 6358SOL    HW219974   0.522   2.148   3.582
 6359SOL     OW19975   0.186   1.001   6.904
 6359SOL    HW119976   0.181   1.082   6.962
 6359SOL    HW219977   0.095   0.980   6.867
 6360SOL     OW19978   3.243   5.636   4.186
 6360SOL    HW119979   3.277   5.720   4.142
 6360SOL    HW219980   3.188   5.661   4.266
 6361SOL     OW19981   3.716   5.935   6.118
 6361SOL    HW119982   3.805   5.921   6.161
 6361SOL    HW219983   3.650   5.870   6.156
 6362SOL     OW19984   6.384   5.343   6.411
 6362SOL    HW119985   6.383   5.406   6.489
 6362SOL    HW219986   6.407   5.393   6.328
 6363SOL     OW19987   0.835   5.985   3.828
 6363SOL    HW119988   0.845   5.927   3.909
 6363SOL    HW219989   0.925   5.998   3.786
 6364SOL     OW19990   2.694   2.256   6.054
 6364SOL    HW119991   2.673   2.189   5.983
 6364SOL    HW219992   2.776   2.307   6.029
 6365SOL     OW19993   5.298   6.108   2.437
 6365SOL    HW119994   5.209   6.149   2.457
 6365SOL    HW219995   5.332   6.060   2.518
 6366SOL     OW19996   0.017   4.849   5.913
 6366SOL    HW119997   7.000   4.759   5.915
 6366SOL    HW219998   7.009   4.900   5.834
 6367SOL     OW19999   5.842   6.061   3.522
 6367SOL    HW120000   5.893   6.093   3.602
 6367SOL    HW220001   5.881   5.975   3.490
 6368SOL     OW20002   2.472   0.087   4.111
 6368SOL    HW120003   2.491   0.070   4.014
 6368SOL    HW220004   2.387   0.138   4.119
 6369SOL     OW20005   2.330   5.504   4.508
 6369SOL    HW120006   2.249   5.531   4.560
 6369SOL    HW220007   2.406   5.566   4.530
 6370SOL     OW20008   6.267   2.639   1.543
 6370SOL    HW120009   6.222   2.636   1.454
 6370SOL    HW220010   6.225   2.710   1.600
 6371SOL     OW20011   5.056   2.122   3.199
 6371SOL    HW120012   5.125   2.149   3.131
 6371SOL    HW220013   5.049   2.192   3.269
 6372SOL     OW20014   3.180   6.428   2.538
 6372SOL    HW120015   3.088   6.430   2.499
 6372SOL    HW220016   3.199   6.513   2.587
 6373SOL     OW20017   3.421   4.703   0.236
 6373SOL    HW120018   3.403   4.607   0.213
 6373SOL    HW220019   3.480   4.707   0.317
 6374SOL     OW20020   3.514   2.854   2.345
 6374SOL    HW120021   3.525   2.798   2.262
 6374SOL    HW220022   3.425   2.899   2.342
 6375SOL     OW20023   1.931   6.541   2.322
 6375SOL    HW120024   1.904   6.637   2.318
 6375SOL    HW220025   1.987   6.518   2.242
 6376SOL     OW20026   0.336   2.436   5.557
 6376SOL    HW120027   0.426   2.404   5.588
 6376SOL    HW220028   0.286   2.473   5.636
 6377SOL     OW20029   0.773   0.848   4.362
 6377SOL    HW120030   0.792   0.829   4.458
 6377SOL    HW220031   0.714   0.929   4.356
 6378SOL     OW20032   4.604   4.343   3.509
 6378SOL    HW120033   4.572   4.355   3.603
 6378SOL    HW220034   4.559   4.410   3.450
 6379SOL     OW20035   2.531   4.467   2.924
 6379SOL    HW120036   2.573   4.384   2.961
 6379SOL    HW220037   2.599   4.540   2.921
 6380SOL     OW20038   0.864   0.314   6.117
 6380SOL    HW120039   0.805   0.371   6.060
 6380SOL    HW220040   0.950   0.296   6.069
 6381SOL     OW20041   2.942   3.836   2.809
 6381SOL    HW120042   3.009   3.905   2.781
 6381SOL    HW220043   2.905   3.791   2.728
 6382SOL     OW20044   1.033   3.976   5.684
 6382SOL    HW120045   1.020   4.057   5.741
 6382SOL    HW220046   0.946   3.926   5.678
 6383SOL     OW20047   3.595   1.252   3.900
 6383SOL    HW120048   3.653   1.331   3.879
 6383SOL    HW220049   3.599   1.187   3.823
 6384SOL     OW20050   6.430   4.351   3.471
 6384SOL    HW120051   6.341   4.324   3.433
 6384SOL    HW220052   6.420   4.436   3.522
 6385SOL     OW20053   0.398   5.995   4.935
 6385SOL    HW120054   0.317   5.944   4.965
 6385SOL    HW220055   0.448   5.941   4.868
 6386SOL     OW20056   2.697   5.665   1.255
 6386SOL    HW120057   2.740   5.668   1.165
 6386SOL    HW220058   2.753   5.612   1.318
 6387SOL     OW20059   6.706   1.112   5.335
 6387SOL    HW120060   6.657   1.070   5.258
 6387SOL    HW220061   6.786   1.057   5.357
 6388SOL     OW20062   2.422   4.691   2.574
 6388SOL    HW120063   2.502   4.743   2.545
 6388SOL    HW220064   2.366   4.747   2.636
 6389SOL     OW20065   1.072   5.018   2.652
 6389SOL    HW120066   1.018   5.102   2.653
 6389SOL    HW220067   1.076   4.982   2.559
 6390SOL     OW20068   0.529   3.235   3.723
 6390SOL    HW120069   0.602   3.221   3.657
 6390SOL    HW220070   0.564   3.222   3.816
 6391SOL     OW20071   3.284   1.180   0.235
 6391SOL    HW120072   3.352   1.206   0.166
 6391SOL    HW220073   3.208   1.244   0.231
 6392SOL     OW20074   1.515   6.638   3.715
 6392SOL    HW120075   1.445   6.630   3.785
 6392SOL    HW220076   1.583   6.705   3.743
 6393SOL     OW20077   5.743   0.630   0.425
 6393SOL    HW120078   5.679   0.555   0.446
 6393SOL    HW220079   5.725   0.707   0.486
 6394SOL     OW20080   3.104   4.762   1.226
 6394SOL    HW120081   3.060   4.676   1.202
 6394SOL    HW220082   3.083   4.786   1.321
 6395SOL     OW20083   5.641   1.636   1.045
 6395SOL    HW120084   5.588   1.558   1.080
 6395SOL    HW220085   5.594   1.675   0.966
 6396SOL     OW20086   5.523   4.321   5.446
 6396SOL    HW120087   5.521   4.404   5.502
 6396SOL    HW220088   5.592   4.333   5.373
 6397SOL     OW20089   0.251   1.037   0.659
 6397SOL    HW120090   0.162   1.062   0.696
 6397SOL    HW220091   0.240   0.965   0.591
 6398SOL     OW20092   3.780   1.684   1.247
 6398SOL    HW120093   3.728   1.760   1.209
 6398SOL    HW220094   3.753   1.670   1.342
 6399SOL     OW20095   2.332   5.521   7.006
 6399SOL    HW120096   2.312   5.563   6.918
 6399SOL    HW220097   2.431   5.512   7.016
 6400SOL     OW20098   2.569   5.621   3.880
 6400SOL    HW120099   2.654   5.668   3.906
 6400SOL    HW220100   2.532   5.573   3.960
 6401SOL     OW20101   0.828   5.094   3.891
 6401SOL    HW120102   0.883   5.023   3.936
 6401SOL    HW220103   0.876   5.181   3.895
 6402SOL     OW20104   2.043   1.748   3.110
 6402SOL    HW120105   1.973   1.707   3.169
 6402SOL    HW220106   2.132   1.707   3.130
 6403SOL     OW20107   0.005   6.337   0.716
 6403SOL    HW120108   6.990   6.376   0.799
 6403SOL    HW220109   0.100   6.368   0.706
 6404SOL     OW20110   5.036   0.711   2.892
 6404SOL    HW120111   4.973   0.788   2.903
 6404SOL    HW220112   5.123   0.733   2.935
 6405SOL     OW20113   2.976   1.125   2.331
 6405SOL    HW120114   2.903   1.113   2.398
 6405SOL    HW220115   2.937   1.149   2.243
 6406SOL     OW20116   2.474   1.719   3.738
 6406SOL    HW120117   2.543   1.649   3.755
 6406SOL    HW220118   2.384   1.685   3.766
 6407SOL     OW20119   3.867   5.385   6.186
 6407SOL    HW120120   3.957   5.368   6.226
 6407SOL    HW220121   3.869   5.365   6.088
 6408SOL     OW20122   6.184   2.017   0.082
 6408SOL    HW120123   6.102   1.990   0.133
 6408SOL    HW220124   6.159   2.089   0.016
 6409SOL     OW20125   1.100   4.897   2.410
 6409SOL    HW120126   1.168   4.840   2.362
 6409SOL    HW220127   1.011   4.885   2.367
 6410SOL     OW20128   0.957   1.812   1.547
 6410SOL    HW120129   1.023   1.873   1.503
 6410SOL    HW220130   0.919   1.857   1.628
 6411SOL     OW20131   1.512   0.838   4.040
 6411SOL    HW120132   1.550   0.832   3.948
 6411SOL    HW220133   1.536   0.755   4.091
 6412SOL     OW20134   0.047   2.046   4.554
 6412SOL    HW120135   0.004   1.971   4.605
 6412SOL    HW220136   0.062   2.018   4.459
 6413SOL     OW20137   6.912   4.724   0.640
 6413SOL    HW120138   6.993   4.698   0.693
 6413SOL    HW220139   6.850   4.646   0.634
 6414SOL     OW20140   5.851   0.174   2.231
 6414SOL    HW120141   5.936   0.193   2.280
 6414SOL    HW220142   5.814   0.087   2.261
 6415SOL     OW20143   1.503   1.868   2.066
 6415SOL    HW120144   1.514   1.780   2.020
 6415SOL    HW220145   1.406   1.884   2.084
 6416SOL     OW20146   1.907   6.965   6.573
 6416SOL    HW120147   1.850   0.014   6.536
 6416SOL    HW220148   1.969   6.932   6.502
 6417SOL     OW20149   1.118   0.067   2.971
 6417SOL    HW120150   1.177   0.072   2.891
 6417SOL    HW220151   1.125   7.001   3.012
 6418SOL     OW20152   6.213   5.989   2.332
 6418SOL    HW120153   6.197   5.969   2.235
 6418SOL    HW220154   6.306   6.025   2.343
 6419SOL     OW20155   3.049   4.796   1.524
 6419SOL    HW120156   3.067   4.736   1.602
 6419SOL    HW220157   3.053   4.891   1.552
 6420SOL     OW20158   1.178   3.505   6.621
 6420SOL    HW120159   1.238   3.583   6.603
 6420SOL    HW220160   1.127   3.482   6.538
 6421SOL     OW20161   5.249   1.986   0.911
 6421SOL    HW120162   5.344   1.956   0.916
 6421SOL    HW220163   5.196   1.943   0.985
 6422SOL     OW20164   6.080   1.791   3.031
 6422SOL    HW120165   6.056   1.727   2.958
 6422SOL    HW220166   5.999   1.843   3.059
 6423SOL     OW20167   4.935   4.297   0.327
 6423SOL    HW120168   4.885   4.374   0.365
 6423SOL    HW220169   4.882   4.256   0.253
 6424SOL     OW20170   6.586   5.373   4.922
 6424SOL    HW120171   6.531   5.456   4.918
 6424SOL    HW220172   6.528   5.296   4.950
 6425SOL     OW20173   0.329   4.981   1.677
 6425SOL    HW120174   0.327   5.043   1.599
 6425SOL    HW220175   0.419   4.982   1.719
 6426SOL     OW20176   6.636   3.033   3.558
 6426SOL    HW120177   6.607   3.052   3.464
 6426SOL    HW220178   6.622   2.935   3.577
 6427SOL     OW20179   1.894   3.561   5.225
 6427SOL    HW120180   1.937   3.530   5.140
 6427SOL    HW220181   1.950   3.532   5.302
 6428SOL     OW20182   6.141   2.680   2.735
 6428SOL    HW120183   6.205   2.603   2.732
 6428SOL    HW220184   6.190   2.765   2.712
 6429SOL     OW20185   1.003   0.715   4.669
 6429SOL    HW120186   0.937   0.663   4.616
 6429SOL    HW220187   0.959   0.797   4.707
 6430SOL     OW20188   5.979   3.711   0.720
 6430SOL    HW120189   5.919   3.676   0.792
 6430SOL    HW220190   5.949   3.675   0.631
 6431SOL     OW20191   5.381   0.360   3.138
 6431SOL    HW120192   5.432   0.374   3.222
 6431SOL    HW220193   5.430   0.402   3.062
 6432SOL     OW20194   5.604   3.210   0.392
 6432SOL    HW120195   5.529   3.147   0.375
 6432SOL    HW220196   5.682   3.186   0.334
 6433SOL     OW20197   2.415   3.867   1.614
 6433SOL    HW120198   2.394   3.912   1.527
 6433SOL    HW220199   2.384   3.772   1.611
 6434SOL     OW20200   1.617   4.799   0.899
 6434SOL    HW120201   1.640   4.871   0.833
 6434SOL    HW220202   1.524   4.814   0.933
 6435SOL     OW20203   4.834   4.190   0.080
 6435SOL    HW120204   4.854   4.093   0.082
 6435SOL    HW220205   4.826   4.220   7.009
 6436SOL     OW20206   1.593   2.751   2.525
 6436SOL    HW120207   1.597   2.779   2.621
 6436SOL    HW220208   1.565   2.655   2.519
 6437SOL     OW20209   1.026   0.875   6.941
 6437SOL    HW120210   0.940   0.889   6.990
 6437SOL    HW220211   1.007   0.823   6.857
 6438SOL     OW20212   1.331   3.205   3.346
 6438SOL    HW120213   1.290   3.293   3.372
 6438SOL    HW220214   1.407   3.221   3.284
 6439SOL     OW20215   0.274   0.341   2.144
 6439SOL    HW120216   0.361   0.385   2.166
 6439SOL    HW220217   0.280   0.297   2.055
 6440SOL     OW20218   1.052   1.313   2.701
 6440SOL    HW120219   1.054   1.400   2.751
 6440SOL    HW220220   1.022   1.330   2.607
 6441SOL     OW20221   3.500   1.537   3.622
 6441SOL    HW120222   3.446   1.459   3.654
 6441SOL    HW220223   3.561   1.507   3.549
 6442SOL     OW20224   3.316   0.953   3.396
 6442SOL    HW120225   3.381   0.878   3.406
 6442SOL    HW220226   3.237   0.922   3.343
 6443SOL     OW20227   2.850   1.354   0.546
 6443SOL    HW120228   2.931   1.405   0.516
 6443SOL    HW220229   2.806   1.313   0.466
 6444SOL     OW20230   0.535   0.861   3.359
 6444SOL    HW120231   0.558   0.844   3.263
 6444SOL    HW220232   0.618   0.879   3.411
 6445SOL     OW20233   3.978   3.174   5.176
 6445SOL    HW120234   3.902   3.204   5.234
 6445SOL    HW220235   3.993   3.076   5.188
 6446SOL     OW20236   6.219   1.837   0.424
 6446SOL    HW120237   6.257   1.825   0.515
 6446SOL    HW220238   6.161   1.918   0.423
 6447SOL     OW20239   1.942   0.641   3.082
 6447SOL    HW120240   1.997   0.709   3.034
 6447SOL    HW220241   2.001   0.567   3.114
 6448SOL     OW20242   5.881   2.042   2.869
 6448SOL    HW120243   5.981   2.047   2.871
 6448SOL    HW220244   5.850   2.028   2.775
 6449SOL     OW20245   3.635   3.025   1.115
 6449SOL    HW120246   3.611   2.940   1.162
 6449SOL    HW220247   3.617   3.103   1.176
 6450SOL     OW20248   6.755   3.427   6.921
 6450SOL    HW120249   6.691   3.399   6.993
 6450SOL    HW220250   6.724   3.514   6.881
 6451SOL     OW20251   2.132   6.729   4.219
 6451SOL    HW120252   2.194   6.650   4.222
 6451SOL    HW220253   2.050   6.709   4.271
 6452SOL     OW20254   4.441   6.583   3.121
 6452SOL    HW120255   4.463   6.648   3.048
 6452SOL    HW220256   4.400   6.501   3.081
 6453SOL     OW20257   1.827   5.332   6.410
 6453SOL    HW120258   1.787   5.271   6.478
 6453SOL    HW220259   1.892   5.281   6.354
 6454SOL     OW20260   3.254   1.452   4.453
 6454SOL    HW120261   3.197   1.484   4.528
 6454SOL    HW220262   3.350   1.455   4.480
 6455SOL     OW20263   6.436   2.800   5.072
 6455SOL    HW120264   6.473   2.776   5.162
 6455SOL    HW220265   6.336   2.801   5.076
 6456SOL     OW20266   6.764   1.053   4.519
 6456SOL    HW120267   6.802   1.114   4.589
 6456SOL    HW220268   6.698   0.991   4.562
 6457SOL     OW20269   6.671   3.171   1.530
 6457SOL    HW120270   6.705   3.156   1.623
 6457SOL    HW220271   6.736   3.228   1.479
 6458SOL     OW20272   1.224   5.644   2.394
 6458SOL    HW120273   1.308   5.589   2.396
 6458SOL    HW220274   1.181   5.642   2.484
 6459SOL     OW20275   5.156   4.706   0.585
 6459SOL    HW120276   5.134   4.648   0.664
 6459SOL    HW220277   5.073   4.721   0.531
 6460SOL     OW20278   3.294   5.038   6.450
 6460SOL    HW120279   3.355   4.962   6.471
 6460SOL    HW220280   3.248   5.068   6.533
 6461SOL     OW20281   3.646   5.687   4.761
 6461SOL    HW120282   3.654   5.600   4.808
 6461SOL    HW220283   3.736   5.729   4.753
 6462SOL     OW20284   2.076   3.330   3.834
 6462SOL    HW120285   2.092   3.253   3.895
 6462SOL    HW220286   2.108   3.306   3.742
 6463SOL     OW20287   1.390   4.327   5.164
 6463SOL    HW120288   1.318   4.348   5.097
 6463SOL    HW220289   1.454   4.261   5.125
 6464SOL     OW20290   0.798   5.272   3.155
 6464SOL    HW120291   0.705   5.245   3.130
 6464SOL    HW220292   0.863   5.201   3.130
 6465SOL     OW20293   6.227   0.513   3.052
 6465SOL    HW120294   6.219   0.414   3.066
 6465SOL    HW220295   6.156   0.543   2.988
 6466SOL     OW20296   0.114   2.302   5.021
 6466SOL    HW120297   0.183   2.272   4.956
 6466SOL    HW220298   0.135   2.395   5.051
 6467SOL     OW20299   2.554   0.820   6.520
 6467SOL    HW120300   2.576   0.838   6.424
 6467SOL    HW220301   2.463   0.779   6.527
 6468SOL     OW20302   4.749   4.858   0.954
 6468SOL    HW120303   4.773   4.825   0.863
 6468SOL    HW220304   4.751   4.958   0.955
 6469SOL     OW20305   0.131   1.390   5.726
 6469SOL    HW120306   0.119   1.407   5.629
 6469SOL    HW220307   0.093   1.301   5.749
 6470SOL     OW20308   6.558   6.367   5.625
 6470SOL    HW120309   6.459   6.361   5.609
 6470SOL    HW220310   6.576   6.440   5.691
 6471SOL     OW20311   5.765   5.133   5.592
 6471SOL    HW120312   5.705   5.053   5.602
 6471SOL    HW220313   5.859   5.107   5.615
 6472SOL     OW20314   1.228   5.834   0.879
 6472SOL    HW120315   1.270   5.806   0.792
 6472SOL    HW220316   1.129   5.823   0.873
 6473SOL     OW20317   2.635   1.669   5.705
 6473SOL    HW120318   2.729   1.699   5.719
 6473SOL    HW220319   2.602   1.620   5.786
 6474SOL     OW20320   2.038   3.371   5.416
 6474SOL    HW120321   1.959   3.312   5.403
 6474SOL    HW220322   2.092   3.338   5.494
 6475SOL     OW20323   4.425   6.474   3.924
 6475SOL    HW120324   4.473   6.389   3.905
 6475SOL    HW220325   4.349   6.485   3.859
 6476SOL     OW20326   4.685   5.514   3.131
 6476SOL    HW120327   4.740   5.571   3.070
 6476SOL    HW220328   4.625   5.455   3.077
 6477SOL     OW20329   0.039   5.924   6.887
 6477SOL    HW120330   0.050   5.987   6.811
 6477SOL    HW220331   0.067   5.968   6.972
 6478SOL     OW20332   5.196   6.645   1.265
 6478SOL    HW120333   5.279   6.640   1.209
 6478SOL    HW220334   5.160   6.552   1.278
 6479SOL     OW20335   3.616   5.451   2.628
 6479SOL    HW120336   3.648   5.384   2.695
 6479SOL    HW220337   3.546   5.509   2.669
 6480SOL     OW20338   3.194   2.447   6.657
 6480SOL    HW120339   3.196   2.547   6.669
 6480SOL    HW220340   3.200   2.403   6.746
 6481SOL     OW20341   5.036   0.734   1.458
 6481SOL    HW120342   5.082   0.685   1.384
 6481SOL    HW220343   5.099   0.748   1.533
 6482SOL     OW20344   0.491   0.703   6.760
 6482SOL    HW120345   0.498   0.615   6.713
 6482SOL    HW220346   0.418   0.697   6.829
 6483SOL     OW20347   2.101   6.430   2.121
 6483SOL    HW120348   2.085   6.344   2.170
 6483SOL    HW220349   2.197   6.434   2.092
 6484SOL     OW20350   5.630   6.571   3.590
 6484SOL    HW120351   5.717   6.526   3.571
 6484SOL    HW220352   5.645   6.669   3.606
 6485SOL     OW20353   1.505   2.494   3.271
 6485SOL    HW120354   1.546   2.449   3.350
 6485SOL    HW220355   1.563   2.479   3.191
 6486SOL     OW20356   1.648   2.763   3.113
 6486SOL    HW120357   1.612   2.816   3.036
 6486SOL    HW220358   1.668   2.669   3.083
 6487SOL     OW20359   5.995   6.028   3.751
 6487SOL    HW120360   5.948   5.949   3.791
 6487SOL    HW220361   6.014   6.095   3.822
 6488SOL     OW20362   3.268   5.731   6.012
 6488SOL    HW120363   3.195   5.700   6.073
 6488SOL    HW220364   3.237   5.724   5.917
 6489SOL     OW20365   1.882   1.710   5.604
 6489SOL    HW120366   1.904   1.615   5.582
 6489SOL    HW220367   1.806   1.712   5.670
 6490SOL     OW20368   3.242   1.106   0.492
 6490SOL    HW120369   3.245   1.136   0.396
 6490SOL    HW220370   3.148   1.084   0.517
 6491SOL     OW20371   3.464   1.799   6.312
 6491SOL    HW120372   3.457   1.832   6.406
 6491SOL    HW220373   3.423   1.708   6.306
 6492SOL     OW20374   5.970   5.607   6.989
 6492SOL    HW120375   6.021   5.659   0.033
 6492SOL    HW220376   5.886   5.571   0.006
 6493SOL     OW20377   0.852   6.608   6.083
 6493SOL    HW120378   0.828   6.556   6.165
 6493SOL    HW220379   0.927   6.563   6.035
 6494SOL     OW20380   1.570   0.046   3.613
 6494SOL    HW120381   1.561   6.985   3.665
 6494SOL    HW220382   1.480   0.075   3.581
 6495SOL     OW20383   5.411   5.063   2.720
 6495SOL    HW120384   5.361   4.997   2.777
 6495SOL    HW220385   5.361   5.150   2.718
 6496SOL     OW20386   2.296   0.053   2.370
 6496SOL    HW120387   2.294   0.123   2.442
 6496SOL    HW220388   2.256   6.993   2.405
 6497SOL     OW20389   0.839   4.678   6.787
 6497SOL    HW120390   0.866   4.719   6.874
 6497SOL    HW220391   0.749   4.637   6.796
 6498SOL     OW20392   1.617   4.600   4.130
 6498SOL    HW120393   1.674   4.601   4.213
 6498SOL    HW220394   1.675   4.582   4.050
 6499SOL     OW20395   5.965   1.370   4.105
 6499SOL    HW120396   5.943   1.292   4.047
 6499SOL    HW220397   5.965   1.454   4.050
 6500SOL     OW20398   5.351   4.763   3.751
 6500SOL    HW120399   5.385   4.783   3.659
 6500SOL    HW220400   5.315   4.669   3.754
 6501SOL     OW20401   6.959   3.923   1.205
 6501SOL    HW120402   6.907   3.838   1.217
 6501SOL    HW220403   7.020   3.913   1.126
 6502SOL     OW20404   1.529   5.475   2.717
 6502SOL    HW120405   1.561   5.442   2.628
 6502SOL    HW220406   1.608   5.500   2.773
 6503SOL     OW20407   4.562   0.230   4.683
 6503SOL    HW120408   4.465   0.213   4.702
 6503SOL    HW220409   4.602   0.149   4.640
 6504SOL     OW20410   2.801   1.094   0.910
 6504SOL    HW120411   2.856   1.104   0.827
 6504SOL    HW220412   2.834   1.159   0.980
 6505SOL     OW20413   5.612   4.831   0.664
 6505SOL    HW120414   5.588   4.765   0.735
 6505SOL    HW220415   5.533   4.845   0.604
 6506SOL     OW20416   2.121   2.355   0.539
 6506SOL    HW120417   2.182   2.332   0.463
 6506SOL    HW220418   2.127   2.453   0.559
 6507SOL     OW20419   2.749   0.934   2.055
 6507SOL    HW120420   2.720   1.030   2.057
 6507SOL    HW220421   2.733   0.897   1.964
 6508SOL     OW20422   2.121   1.785   2.498
 6508SOL    HW120423   2.094   1.750   2.409
 6508SOL    HW220424   2.074   1.734   2.570
 6509SOL     OW20425   0.542   2.159   4.355
 6509SOL    HW120426   0.584   2.248   4.343
 6509SOL    HW220427   0.542   2.135   4.453
 6510SOL     OW20428   5.765   4.803   6.089
 6510SOL    HW120429   5.749   4.890   6.043
 6510SOL    HW220430   5.836   4.752   6.041
 6511SOL     OW20431   6.308   6.148   6.094
 6511SOL    HW120432   6.365   6.120   6.172
 6511SOL    HW220433   6.233   6.083   6.082
 6512SOL     OW20434   4.941   6.610   3.740
 6512SOL    HW120435   4.957   6.706   3.719
 6512SOL    HW220436   4.843   6.591   3.737
 6513SOL     OW20437   3.210   0.054   2.710
 6513SOL    HW120438   3.140   0.008   2.655
 6513SOL    HW220439   3.285   0.084   2.650
 6514SOL     OW20440   3.570   6.992   3.360
 6514SOL    HW120441   3.477   7.022   3.384
 6514SOL    HW220442   3.637   0.022   3.410
 6515SOL     OW20443   1.350   0.774   5.175
 6515SOL    HW120444   1.326   0.811   5.265
 6515SOL    HW220445   1.436   0.815   5.145
 6516SOL     OW20446   1.381   1.258   5.950
 6516SOL    HW120447   1.337   1.321   5.886
 6516SOL    HW220448   1.323   1.177   5.962
 6517SOL     OW20449   1.163   2.145   6.539
 6517SOL    HW120450   1.259   2.117   6.537
 6517SOL    HW220451   1.120   2.109   6.622
 6518SOL     OW20452   6.240   6.136   0.883
 6518SOL    HW120453   6.320   6.134   0.824
 6518SOL    HW220454   6.262   6.094   0.971
 6519SOL     OW20455   2.314   1.959   3.741
 6519SOL    HW120456   2.261   1.997   3.816
 6519SOL    HW220457   2.373   1.886   3.775
 6520SOL     OW20458   5.515   5.300   1.539
 6520SOL    HW120459   5.506   5.325   1.635
 6520SOL    HW220460   5.603   5.334   1.504
 6521SOL     OW20461   1.179   1.948   5.622
 6521SOL    HW120462   1.132   1.863   5.596
 6521SOL    HW220463   1.230   1.933   5.706
 6522SOL     OW20464   1.925   5.358   5.376
 6522SOL    HW120465   2.019   5.350   5.411
 6522SOL    HW220466   1.860   5.346   5.451
 6523SOL     OW20467   1.680   2.006   6.568
 6523SOL    HW120468   1.715   2.088   6.613
 6523SOL    HW220469   1.705   2.007   6.471
 6524SOL     OW20470   3.613   3.648   4.130
 6524SOL    HW120471   3.691   3.688   4.176
 6524SOL    HW220472   3.539   3.631   4.196
 6525SOL     OW20473   0.213   2.504   4.280
 6525SOL    HW120474   0.178   2.461   4.196
 6525SOL    HW220475   0.216   2.435   4.353
 6526SOL     OW20476   1.718   6.355   4.823
 6526SOL    HW120477   1.663   6.427   4.780
 6526SOL    HW220478   1.727   6.279   4.759
 6527SOL     OW20479   1.760   1.646   4.448
 6527SOL    HW120480   1.807   1.720   4.495
 6527SOL    HW220481   1.761   1.664   4.349
 6528SOL     OW20482   6.386   0.409   3.728
 6528SOL    HW120483   6.364   0.480   3.795
 6528SOL    HW220484   6.482   0.383   3.738
 6529SOL     OW20485   6.682   2.251   1.941
 6529SOL    HW120486   6.723   2.201   2.017
 6529SOL    HW220487   6.751   2.309   1.897
 6530SOL     OW20488   0.113   2.118   0.625
 6530SOL    HW120489   0.037   2.179   0.602
 6530SOL    HW220490   0.108   2.036   0.568
 6531SOL     OW20491   4.839   2.953   4.152
 6531SOL    HW120492   4.816   2.996   4.065
 6531SOL    HW220493   4.830   3.020   4.226
 6532SOL     OW20494   0.612   1.738   6.669
 6532SOL    HW120495   0.627   1.742   6.768
 6532SOL    HW220496   0.671   1.804   6.623
 6533SOL     OW20497   5.008   0.895   0.940
 6533SOL    HW120498   4.938   0.963   0.960
 6533SOL    HW220499   4.984   0.808   0.983
 6534SOL     OW20500   1.991   3.761   1.038
 6534SOL    HW120501   2.057   3.828   1.004
 6534SOL    HW220502   1.984   3.685   0.974
 6535SOL     OW20503   1.672   3.735   5.589
 6535SOL    HW120504   1.676   3.832   5.615
 6535SOL    HW220505   1.762   3.705   5.559
 6536SOL     OW20506   0.081   2.497   0.109
 6536SOL    HW120507   7.016   2.457   0.088
 6536SOL    HW220508   0.131   2.435   0.170
 6537SOL     OW20509   0.674   0.055   0.318
 6537SOL    HW120510   0.605   0.100   0.376
 6537SOL    HW220511   0.752   0.116   0.306
 6538SOL     OW20512   2.227   3.220   5.836
 6538SOL    HW120513   2.190   3.159   5.766
 6538SOL    HW220514   2.180   3.308   5.831
 6539SOL     OW20515   2.511   1.523   6.980
 6539SOL    HW120516   2.586   1.468   6.945
 6539SOL    HW220517   2.532   1.554   0.048
 6540SOL     OW20518   3.418   0.957   3.907
 6540SOL    HW120519   3.329   0.997   3.885
 6540SOL    HW220520   3.485   0.987   3.839
 6541SOL     OW20521   2.519   2.317   5.602
 6541SOL    HW120522   2.525   2.382   5.527
 6541SOL    HW220523   2.426   2.281   5.607
 6542SOL     OW20524   6.163   4.263   3.502
 6542SOL    HW120525   6.141   4.210   3.420
 6542SOL    HW220526   6.141   4.208   3.584
 6543SOL     OW20527   6.826   6.040   0.082
 6543SOL    HW120528   6.922   6.021   0.057
 6543SOL    HW220529   6.800   6.130   0.048
 6544SOL     OW20530   6.287   6.453   4.326
 6544SOL    HW120531   6.357   6.520   4.349
 6544SOL    HW220532   6.273   6.451   4.227
 6545SOL     OW20533   5.451   2.461   5.653
 6545SOL    HW120534   5.354   2.469   5.675
 6545SOL    HW220535   5.484   2.370   5.680
 6546SOL     OW20536   3.073   4.319   6.056
 6546SOL    HW120537   3.027   4.297   6.142
 6546SOL    HW220538   3.013   4.376   6.000
 6547SOL     OW20539   4.631   2.056   6.573
 6547SOL    HW120540   4.550   2.096   6.530
 6547SOL    HW220541   4.678   1.998   6.506
 6548SOL     OW20542   6.348   4.950   5.172
 6548SOL    HW120543   6.249   4.962   5.169
 6548SOL    HW220544   6.373   4.887   5.244
 6549SOL     OW20545   3.544   1.401   1.264
 6549SOL    HW120546   3.517   1.491   1.301
 6549SOL    HW220547   3.539   1.404   1.164
 6550SOL     OW20548   0.796   5.609   3.436
 6550SOL    HW120549   0.806   5.517   3.400
 6550SOL    HW220550   0.878   5.634   3.488
 6551SOL     OW20551   2.306   5.249   2.361
 6551SOL    HW120552   2.380   5.209   2.307
 6551SOL    HW220553   2.343   5.294   2.442
 6552SOL     OW20554   4.201   4.817   6.210
 6552SOL    HW120555   4.163   4.877   6.280
 6552SOL    HW220556   4.207   4.724   6.244
 6553SOL     OW20557   0.056   2.667   2.686
 6553SOL    HW120558   0.152   2.691   2.697
 6553SOL    HW220559   0.003   2.706   2.761
 6554SOL     OW20560   0.335   2.848   4.903
 6554SOL    HW120561   0.313   2.908   4.980
 6554SOL    HW220562   0.435   2.839   4.895
 6555SOL     OW20563   0.174   1.672   2.201
 6555SOL    HW120564   0.146   1.582   2.168
 6555SOL    HW220565   0.093   1.730   2.213
 6556SOL     OW20566   3.846   0.094   4.283
 6556SOL    HW120567   3.789   0.026   4.238
 6556SOL    HW220568   3.943   0.069   4.274
 6557SOL     OW20569   6.527   6.126   0.838
 6557SOL    HW120570   6.515   6.107   0.935
 6557SOL    HW220571   6.595   6.064   0.800
 6558SOL     OW20572   6.523   5.262   6.759
 6558SOL    HW120573   6.463   5.341   6.761
 6558SOL    HW220574   6.569   5.256   6.670
 6559SOL     OW20575   3.426   3.488   0.794
 6559SOL    HW120576   3.328   3.470   0.788
 6559SOL    HW220577   3.474   3.433   0.725
 6560SOL     OW20578   3.814   2.096   0.376
 6560SOL    HW120579   3.844   2.191   0.371
 6560SOL    HW220580   3.779   2.077   0.469
 6561SOL     OW20581   3.848   3.938   4.726
 6561SOL    HW120582   3.877   3.970   4.636
 6561SOL    HW220583   3.757   3.897   4.719
 6562SOL     OW20584   6.005   3.819   5.669
 6562SOL    HW120585   6.048   3.861   5.589
 6562SOL    HW220586   6.027   3.873   5.750
 6563SOL     OW20587   1.878   5.299   2.287
 6563SOL    HW120588   1.855   5.214   2.239
 6563SOL    HW220589   1.972   5.324   2.266
 6564SOL     OW20590   1.131   5.672   2.644
 6564SOL    HW120591   1.156   5.759   2.687
 6564SOL    HW220592   1.137   5.599   2.712
 6565SOL     OW20593   6.340   3.104   5.160
 6565SOL    HW120594   6.298   3.022   5.122
 6565SOL    HW220595   6.435   3.111   5.128
 6566SOL     OW20596   3.525   6.781   0.545
 6566SOL    HW120597   3.517   6.846   0.469
 6566SOL    HW220598   3.596   6.715   0.525
 6567SOL     OW20599   5.748   2.966   1.501
 6567SOL    HW120600   5.838   3.004   1.478
 6567SOL    HW220601   5.677   3.011   1.447
 6568SOL     OW20602   3.834   4.223   1.521
 6568SOL    HW120603   3.834   4.138   1.467
 6568SOL    HW220604   3.929   4.251   1.538
 6569SOL     OW20605   0.666   4.311   6.239
 6569SOL    HW120606   0.624   4.270   6.158
 6569SOL    HW220607   0.755   4.350   6.214
 6570SOL     OW20608   6.296   2.789   0.752
 6570SOL    HW120609   6.260   2.736   0.676
 6570SOL    HW220610   6.264   2.748   0.838
 6571SOL     OW20611   2.598   6.090   3.527
 6571SOL    HW120612   2.601   6.078   3.428
 6571SOL    HW220613   2.688   6.071   3.566
 6572SOL     OW20614   1.079   3.736   6.318
 6572SOL    HW120615   1.062   3.768   6.225
 6572SOL    HW220616   1.050   3.806   6.383
 6573SOL     OW20617   2.142   2.270   2.406
 6573SOL    HW120618   2.055   2.270   2.455
 6573SOL    HW220619   2.184   2.180   2.414
 6574SOL     OW20620   2.368   4.903   3.215
 6574SOL    HW120621   2.344   4.999   3.221
 6574SOL    HW220622   2.377   4.876   3.119
 6575SOL     OW20623   1.042   1.058   3.064
 6575SOL    HW120624   1.141   1.048   3.054
 6575SOL    HW220625   1.004   1.091   2.977
 6576SOL     OW20626   0.887   6.094   5.553
 6576SOL    HW120627   0.981   6.118   5.577
 6576SOL    HW220628   0.877   6.098   5.454
 6577SOL     OW20629   6.180   1.944   4.120
 6577SOL    HW120630   6.218   1.981   4.204
 6577SOL    HW220631   6.119   1.868   4.141
 6578SOL     OW20632   6.233   5.334   3.285
 6578SOL    HW120633   6.303   5.268   3.311
 6578SOL    HW220634   6.210   5.391   3.365
 6579SOL     OW20635   0.495   3.548   2.494
 6579SOL    HW120636   0.450   3.564   2.405
 6579SOL    HW220637   0.521   3.452   2.501
 6580SOL     OW20638   6.329   2.534   1.150
 6580SOL    HW120639   6.249   2.550   1.208
 6580SOL    HW220640   6.384   2.460   1.189
 6581SOL     OW20641   2.704   2.127   5.433
 6581SOL    HW120642   2.716   2.103   5.337
 6581SOL    HW220643   2.611   2.104   5.461
 6582SOL     OW20644   0.137   6.753   2.571
 6582SOL    HW120645   0.053   6.742   2.517
 6582SOL    HW220646   0.123   6.826   2.637
 6583SOL     OW20647   6.299   1.924   5.455
 6583SOL    HW120648   6.211   1.968   5.467
 6583SOL    HW220649   6.343   1.910   5.544
 6584SOL     OW20650   5.958   1.522   6.901
 6584SOL    HW120651   5.996   1.448   6.957
 6584SOL    HW220652   5.963   1.608   6.952
 6585SOL     OW20653   1.796   1.088   0.292
 6585SOL    HW120654   1.876   1.058   0.240
 6585SOL    HW220655   1.713   1.052   0.249
 6586SOL     OW20656   0.103   2.344   6.695
 6586SOL    HW120657   0.048   2.414   6.739
 6586SOL    HW220658   0.146   2.382   6.613
 6587SOL     OW20659   2.184   6.875   2.550
 6587SOL    HW120660   2.197   6.806   2.622
 6587SOL    HW220661   2.089   6.875   2.520
 6588SOL     OW20662   2.421   3.061   6.713
 6588SOL    HW120663   2.403   3.132   6.645
 6588SOL    HW220664   2.519   3.060   6.734
 6589SOL     OW20665   4.545   1.710   5.757
 6589SOL    HW120666   4.502   1.628   5.795
 6589SOL    HW220667   4.631   1.728   5.804
 6590SOL     OW20668   6.869   1.356   5.322
 6590SOL    HW120669   6.818   1.293   5.380
 6590SOL    HW220670   6.963   1.363   5.355
 6591SOL     OW20671   5.462   0.884   2.369
 6591SOL    HW120672   5.368   0.916   2.380
 6591SOL    HW220673   5.521   0.927   2.437
 6592SOL     OW20674   5.007   5.708   4.319
 6592SOL    HW120675   4.984   5.629   4.263
 6592SOL    HW220676   5.024   5.679   4.413
 6593SOL     OW20677   3.925   0.887   2.555
 6593SOL    HW120678   3.926   0.922   2.462
 6593SOL    HW220679   3.878   0.799   2.557
 6594SOL     OW20680   5.792   0.798   6.369
 6594SOL    HW120681   5.839   0.855   6.302
 6594SOL    HW220682   5.700   0.777   6.336
 6595SOL     OW20683   1.150   3.871   1.007
 6595SOL    HW120684   1.114   3.860   0.914
 6595SOL    HW220685   1.147   3.783   1.054
 6596SOL     OW20686   3.904   6.984   4.775
 6596SOL    HW120687   3.984   6.963   4.719
 6596SOL    HW220688   3.821   6.957   4.726
 6597SOL     OW20689   6.924   4.515   5.560
 6597SOL    HW120690   6.971   4.517   5.648
 6597SOL    HW220691   6.972   4.574   5.495
 6598SOL     OW20692   1.835   5.648   5.567
 6598SOL    HW120693   1.827   5.590   5.648
 6598SOL    HW220694   1.896   5.725   5.587
 6599SOL     OW20695   4.450   4.261   5.874
 6599SOL    HW120696   4.406   4.344   5.909
 6599SOL    HW220697   4.544   4.257   5.908
 6600SOL     OW20698   4.543   5.770   4.547
 6600SOL    HW120699   4.608   5.836   4.508
 6600SOL    HW220700   4.549   5.773   4.647
 6601SOL     OW20701   1.539   0.291   1.242
 6601SOL    HW120702   1.628   0.313   1.203
 6601SOL    HW220703   1.470   0.290   1.169
 6602SOL     OW20704   6.453   1.821   1.535
 6602SOL    HW120705   6.536   1.765   1.528
 6602SOL    HW220706   6.472   1.913   1.501
 6603SOL     OW20707   2.122   3.166   3.123
 6603SOL    HW120708   2.095   3.142   3.030
 6603SOL    HW220709   2.185   3.097   3.158
 6604SOL     OW20710   3.703   6.117   3.224
 6604SOL    HW120711   3.680   6.136   3.320
 6604SOL    HW220712   3.626   6.075   3.178
 6605SOL     OW20713   5.679   6.658   0.338
 6605SOL    HW120714   5.582   6.636   0.331
 6605SOL    HW220715   5.708   6.710   0.258
 6606SOL     OW20716   5.277   1.357   2.893
 6606SOL    HW120717   5.320   1.268   2.909
 6606SOL    HW220718   5.255   1.400   2.980
 6607SOL     OW20719   1.329   2.544   3.619
 6607SOL    HW120720   1.392   2.481   3.665
 6607SOL    HW220721   1.255   2.570   3.682
 6608SOL     OW20722   5.849   3.509   4.461
 6608SOL    HW120723   5.894   3.426   4.428
 6608SOL    HW220724   5.880   3.587   4.407
 6609SOL     OW20725   6.114   1.801   6.760
 6609SOL    HW120726   6.040   1.778   6.695
 6609SOL    HW220727   6.074   1.829   6.847
 6610SOL     OW20728   3.069   0.987   0.220
 6610SOL    HW120729   3.165   1.014   0.226
 6610SOL    HW220730   3.014   1.065   0.189
 6611SOL     OW20731   5.737   2.903   3.092
 6611SOL    HW120732   5.804   2.830   3.085
 6611SOL    HW220733   5.759   2.961   3.170
 6612SOL     OW20734   1.162   6.006   6.614
 6612SOL    HW120735   1.155   5.912   6.581
 6612SOL    HW220736   1.229   6.010   6.689
 6613SOL     OW20737   4.746   5.293   1.629
 6613SOL    HW120738   4.790   5.232   1.564
 6613SOL    HW220739   4.762   5.260   1.722
 6614SOL     OW20740   5.548   6.088   5.844
 6614SOL    HW120741   5.512   6.063   5.934
 6614SOL    HW220742   5.496   6.040   5.773
 6615SOL     OW20743   1.253   3.982   5.272
 6615SOL    HW120744   1.165   3.967   5.316
 6615SOL    HW220745   1.238   4.007   5.176
 6616SOL     OW20746   4.729   0.432   4.722
 6616SOL    HW120747   4.675   0.361   4.678
 6616SOL    HW220748   4.690   0.522   4.701
 6617SOL     OW20749   4.330   6.828   5.115
 6617SOL    HW120750   4.382   6.805   5.197
 6617SOL    HW220751   4.262   6.757   5.097
 6618SOL     OW20752   0.943   4.404   1.518
 6618SOL    HW120753   1.007   4.378   1.446
 6618SOL    HW220754   0.947   4.337   1.592
 6619SOL     OW20755   5.360   5.767   2.535
 6619SOL    HW120756   5.298   5.708   2.587
 6619SOL    HW220757   5.399   5.836   2.596
 6620SOL     OW20758   2.873   2.891   5.552
 6620SOL    HW120759   2.892   2.799   5.588
 6620SOL    HW220760   2.821   2.943   5.620
 6621SOL     OW20761   2.656   4.270   6.637
 6621SOL    HW120762   2.725   4.298   6.703
 6621SOL    HW220763   2.585   4.217   6.683
 6622SOL     OW20764   6.316   6.988   0.367
 6622SOL    HW120765   6.277   6.961   0.278
 6622SOL    HW220766   6.414   6.973   0.367
 6623SOL     OW20767   3.429   3.673   2.026
 6623SOL    HW120768   3.482   3.600   1.982
 6623SOL    HW220769   3.352   3.633   2.076
 6624SOL     OW20770   4.316   4.774   4.342
 6624SOL    HW120771   4.324   4.758   4.440
 6624SOL    HW220772   4.351   4.865   4.319
 6625SOL     OW20773   6.670   0.257   0.594
 6625SOL    HW120774   6.623   0.302   0.519
 6625SOL    HW220775   6.618   0.176   0.623
 6626SOL     OW20776   3.056   4.849   3.357
 6626SOL    HW120777   3.156   4.842   3.362
 6626SOL    HW220778   3.016   4.812   3.441
 6627SOL     OW20779   1.969   6.381   1.495
 6627SOL    HW120780   1.940   6.305   1.552
 6627SOL    HW220781   2.055   6.359   1.450
 6628SOL     OW20782   4.089   6.273   2.855
 6628SOL    HW120783   4.014   6.255   2.918
 6628SOL    HW220784   4.058   6.334   2.782
 6629SOL     OW20785   3.135   4.140   0.022
 6629SOL    HW120786   3.186   4.063   7.008
 6629SOL    HW220787   3.160   4.152   0.118
 6630SOL     OW20788   2.950   2.133   5.877
 6630SOL    HW120789   2.995   2.222   5.872
 6630SOL    HW220790   2.935   2.097   5.785
 6631SOL     OW20791   3.890   0.616   2.171
 6631SOL    HW120792   3.816   0.615   2.239
 6631SOL    HW220793   3.972   0.658   2.212
 6632SOL     OW20794   0.078   2.329   2.051
 6632SOL    HW120795   0.043   2.296   2.138
 6632SOL    HW220796   0.148   2.266   2.017
 6633SOL     OW20797   0.334   6.878   1.373
 6633SOL    HW120798   0.277   6.804   1.409
 6633SOL    HW220799   0.392   6.914   1.446
 6634SOL     OW20800   6.750   2.857   5.684
 6634SOL    HW120801   6.669   2.915   5.689
 6634SOL    HW220802   6.803   2.867   5.768
 6635SOL     OW20803   4.440   4.595   3.682
 6635SOL    HW120804   4.446   4.685   3.638
 6635SOL    HW220805   4.353   4.587   3.730
 6636SOL     OW20806   1.351   2.759   4.419
 6636SOL    HW120807   1.440   2.802   4.437
 6636SOL    HW220808   1.355   2.708   4.334
 6637SOL     OW20809   6.454   1.388   1.316
 6637SOL    HW120810   6.504   1.442   1.248
 6637SOL    HW220811   6.357   1.386   1.293
 6638SOL     OW20812   1.920   5.896   5.602
 6638SOL    HW120813   2.012   5.922   5.572
 6638SOL    HW220814   1.852   5.937   5.541
 6639SOL     OW20815   5.333   5.559   7.009
 6639SOL    HW120816   5.389   5.488   6.965
 6639SOL    HW220817   5.343   5.645   6.959
 6640SOL     OW20818   6.076   2.963   3.437
 6640SOL    HW120819   6.152   3.022   3.468
 6640SOL    HW220820   6.097   2.868   3.461
 6641SOL     OW20821   1.944   4.319   6.502
 6641SOL    HW120822   1.935   4.222   6.523
 6641SOL    HW220823   1.855   4.355   6.471
 6642SOL     OW20824   0.256   6.532   0.359
 6642SOL    HW120825   0.261   6.599   0.434
 6642SOL    HW220826   0.183   6.467   0.378
 6643SOL     OW20827   4.297   5.158   6.757
 6643SOL    HW120828   4.231   5.184   6.828
 6643SOL    HW220829   4.389   5.184   6.787
 6644SOL     OW20830   2.712   4.739   2.212
 6644SOL    HW120831   2.618   4.741   2.177
 6644SOL    HW220832   2.767   4.677   2.157
 6645SOL     OW20833   6.852   5.019   5.221
 6645SOL    HW120834   6.792   5.026   5.301
 6645SOL    HW220835   6.839   4.930   5.177
 6646SOL     OW20836   1.948   5.975   3.649
 6646SOL    HW120837   1.970   5.934   3.737
 6646SOL    HW220838   1.961   5.907   3.577
 6647SOL     OW20839   3.312   2.105   2.290
 6647SOL    HW120840   3.219   2.141   2.282
 6647SOL    HW220841   3.357   2.110   2.200
 6648SOL     OW20842   4.956   5.849   2.610
 6648SOL    HW120843   4.948   5.764   2.558
 6648SOL    HW220844   4.964   5.926   2.547
 6649SOL     OW20845   3.817   2.599   6.200
 6649SOL    HW120846   3.745   2.570   6.137
 6649SOL    HW220847   3.821   2.535   6.278
 6650SOL     OW20848   3.050   2.210   3.336
 6650SOL    HW120849   3.139   2.167   3.348
 6650SOL    HW220850   3.019   2.198   3.242
 6651SOL     OW20851   0.854   2.584   6.376
 6651SOL    HW120852   0.933   2.526   6.356
 6651SOL    HW220853   0.877   2.649   6.448
 6652SOL     OW20854   7.003   5.305   3.061
 6652SOL    HW120855   7.005   5.343   2.968
 6652SOL    HW220856   6.955   5.217   3.060
 6653SOL     OW20857   3.381   3.531   3.723
 6653SOL    HW120858   3.372   3.472   3.803
 6653SOL    HW220859   3.425   3.617   3.749
 6654SOL     OW20860   2.048   3.393   1.787
 6654SOL    HW120861   1.979   3.437   1.845
 6654SOL    HW220862   2.138   3.428   1.812
 6655SOL     OW20863   2.328   0.266   0.922
 6655SOL    HW120864   2.353   0.345   0.978
 6655SOL    HW220865   2.410   0.214   0.900
 6656SOL     OW20866   5.802   2.448   1.477
 6656SOL    HW120867   5.818   2.537   1.433
 6656SOL    HW220868   5.875   2.385   1.452
 6657SOL     OW20869   2.693   6.223   5.826
 6657SOL    HW120870   2.610   6.192   5.873
 6657SOL    HW220871   2.703   6.174   5.740
 6658SOL     OW20872   5.142   1.200   5.811
 6658SOL    HW120873   5.042   1.206   5.800
 6658SOL    HW220874   5.163   1.149   5.894
 6659SOL     OW20875   1.374   3.138   6.620
 6659SOL    HW120876   1.473   3.138   6.630
 6659SOL    HW220877   1.344   3.050   6.582
 6660SOL     OW20878   0.123   6.706   3.020
 6660SOL    HW120879   0.099   6.725   2.924
 6660SOL    HW220880   0.053   6.647   3.061
 6661SOL     OW20881   7.006   6.236   3.763
 6661SOL    HW120882   0.015   6.235   3.669
 6661SOL    HW220883   6.956   6.151   3.781
 6662SOL     OW20884   0.798   3.422   6.427
 6662SOL    HW120885   0.891   3.457   6.426
 6662SOL    HW220886   0.798   3.331   6.469
 6663SOL     OW20887   0.425   5.717   1.861
 6663SOL    HW120888   0.463   5.643   1.917
 6663SOL    HW220889   0.325   5.715   1.867
 6664SOL     OW20890   1.102   1.526   3.060
 6664SOL    HW120891   1.139   1.436   3.080
 6664SOL    HW220892   1.177   1.587   3.032
 6665SOL     OW20893   2.588   6.680   2.477
 6665SOL    HW120894   2.567   6.773   2.508
 6665SOL    HW220895   2.645   6.685   2.395
 6666SOL     OW20896   6.753   0.420   0.349
 6666SOL    HW120897   6.804   0.380   0.424
 6666SOL    HW220898   6.754   0.520   0.357
 6667SOL     OW20899   6.697   5.327   4.669
 6667SOL    HW120900   6.752   5.244   4.662
 6667SOL    HW220901   6.646   5.326   4.755
 6668SOL     OW20902   0.694   5.396   1.705
 6668SOL    HW120903   0.751   5.456   1.761
 6668SOL    HW220904   0.600   5.398   1.738
 6669SOL     OW20905   2.149   5.933   2.556
 6669SOL    HW120906   2.189   5.844   2.535
 6669SOL    HW220907   2.223   6.001   2.566
 6670SOL     OW20908   3.647   4.726   6.984
 6670SOL    HW120909   3.713   4.750   0.030
 6670SOL    HW220910   3.555   4.729   7.022
 6671SOL     OW20911   0.363   2.378   4.873
 6671SOL    HW120912   0.323   2.463   4.906
 6671SOL    HW220913   0.357   2.375   4.773
 6672SOL     OW20914   1.774   0.839   5.519
 6672SOL    HW120915   1.835   0.912   5.490
 6672SOL    HW220916   1.809   0.798   5.603
 6673SOL     OW20917   4.559   4.799   1.626
 6673SOL    HW120918   4.612   4.862   1.569
 6673SOL    HW220919   4.520   4.727   1.569
 6674SOL     OW20920   0.723   0.137   4.335
 6674SOL    HW120921   0.757   0.136   4.241
 6674SOL    HW220922   0.798   0.113   4.397
 6675SOL     OW20923   6.110   5.703   0.395
 6675SOL    HW120924   6.134   5.744   0.483
 6675SOL    HW220925   6.013   5.718   0.376
 6676SOL     OW20926   1.128   2.549   6.098
 6676SOL    HW120927   1.126   2.644   6.128
 6676SOL    HW220928   1.105   2.489   6.175
 6677SOL     OW20929   0.243   3.592   0.238
 6677SOL    HW120930   0.255   3.550   0.148
 6677SOL    HW220931   0.333   3.607   0.279
 6678SOL     OW20932   1.266   3.077   5.179
 6678SOL    HW120933   1.348   3.087   5.122
 6678SOL    HW220934   1.292   3.082   5.275
 6679SOL     OW20935   1.308   2.068   4.671
 6679SOL    HW120936   1.387   2.101   4.723
 6679SOL    HW220937   1.333   1.987   4.619
 6680SOL     OW20938   2.927   6.693   6.611
 6680SOL    HW120939   2.890   6.603   6.634
 6680SOL    HW220940   3.013   6.682   6.560
 6681SOL     OW20941   5.600   5.274   0.111
 6681SOL    HW120942   5.669   5.317   0.052
 6681SOL    HW220943   5.616   5.176   0.115
 6682SOL     OW20944   6.894   5.957   2.581
 6682SOL    HW120945   6.847   5.876   2.616
 6682SOL    HW220946   6.849   6.039   2.616
 6683SOL     OW20947   5.392   1.934   4.133
 6683SOL    HW120948   5.343   1.951   4.047
 6683SOL    HW220949   5.357   1.995   4.204
 6684SOL     OW20950   1.645   0.146   2.360
 6684SOL    HW120951   1.672   0.192   2.444
 6684SOL    HW220952   1.699   0.181   2.283
 6685SOL     OW20953   5.130   3.448   6.389
 6685SOL    HW120954   5.187   3.435   6.470
 6685SOL    HW220955   5.187   3.456   6.308
 6686SOL     OW20956   6.005   3.748   4.011
 6686SOL    HW120957   5.957   3.817   3.956
 6686SOL    HW220958   6.058   3.689   3.950
 6687SOL     OW20959   1.743   1.483   0.074
 6687SOL    HW120960   1.705   1.413   0.134
 6687SOL    HW220961   1.839   1.464   0.056
 6688SOL     OW20962   0.548   4.901   3.133
 6688SOL    HW120963   0.614   4.930   3.203
 6688SOL    HW220964   0.593   4.839   3.069
 6689SOL     OW20965   4.133   4.526   6.995
 6689SOL    HW120966   4.117   4.501   0.066
 6689SOL    HW220967   4.141   4.443   6.939
 6690SOL     OW20968   1.831   2.470   0.784
 6690SOL    HW120969   1.788   2.485   0.873
 6690SOL    HW220970   1.889   2.388   0.788
 6691SOL     OW20971   1.878   4.997   1.553
 6691SOL    HW120972   1.857   5.061   1.479
 6691SOL    HW220973   1.975   4.971   1.547
 6692SOL     OW20974   3.320   4.001   5.861
 6692SOL    HW120975   3.395   4.053   5.822
 6692SOL    HW220976   3.279   4.052   5.936
 6693SOL     OW20977   4.029   3.711   4.849
 6693SOL    HW120978   3.974   3.794   4.853
 6693SOL    HW220979   3.985   3.645   4.787
 6694SOL     OW20980   2.728   6.408   0.445
 6694SOL    HW120981   2.689   6.427   0.535
 6694SOL    HW220982   2.802   6.343   0.454
 6695SOL     OW20983   1.553   1.781   0.234
 6695SOL    HW120984   1.545   1.797   0.136
 6695SOL    HW220985   1.634   1.828   0.269
 6696SOL     OW20986   2.122   3.222   2.119
 6696SOL    HW120987   2.022   3.218   2.118
 6696SOL    HW220988   2.153   3.315   2.103
 6697SOL     OW20989   4.971   1.424   3.139
 6697SOL    HW120990   4.937   1.447   3.230
 6697SOL    HW220991   5.005   1.506   3.093
 6698SOL     OW20992   3.773   3.571   0.362
 6698SOL    HW120993   3.850   3.565   0.426
 6698SOL    HW220994   3.762   3.666   0.331
 6699SOL     OW20995   1.159   3.628   6.950
 6699SOL    HW120996   1.061   3.628   6.933
 6699SOL    HW220997   1.207   3.594   6.869
 6700SOL     OW20998   6.761   6.280   7.024
 6700SOL    HW120999   6.720   6.358   0.048
 6700SOL    HW221000   6.720   6.272   6.933
 6701SOL     OW21001   0.783   1.929   0.870
 6701SOL    HW121002   0.879   1.912   0.846
 6701SOL    HW221003   0.776   1.953   0.966
 6702SOL     OW21004   2.348   2.399   0.866
 6702SOL    HW121005   2.390   2.399   0.775
 6702SOL    HW221006   2.311   2.308   0.886
 6703SOL     OW21007   0.535   2.153   6.659
 6703SOL    HW121008   0.471   2.094   6.709
 6703SOL    HW221009   0.516   2.146   6.561
 6704SOL     OW21010   5.231   1.874   2.858
 6704SOL    HW121011   5.289   1.950   2.826
 6704SOL    HW221012   5.283   1.818   2.923
 6705SOL     OW21013   5.629   1.508   0.342
 6705SOL    HW121014   5.642   1.428   0.401
 6705SOL    HW221015   5.707   1.570   0.352
 6706SOL     OW21016   0.405   4.924   6.351
 6706SOL    HW121017   0.491   4.878   6.369
 6706SOL    HW221018   0.385   4.987   6.427
 6707SOL     OW21019   1.790   6.149   2.579
 6707SOL    HW121020   1.710   6.145   2.639
 6707SOL    HW221021   1.858   6.084   2.610
 6708SOL     OW21022   2.216   5.977   1.148
 6708SOL    HW121023   2.164   5.941   1.226
 6708SOL    HW221024   2.298   5.922   1.133
 6709SOL     OW21025   4.739   1.362   2.770
 6709SOL    HW121026   4.833   1.395   2.762
 6709SOL    HW221027   4.719   1.342   2.866
 6710SOL     OW21028   2.298   2.537   1.269
 6710SOL    HW121029   2.370   2.606   1.272
 6710SOL    HW221030   2.338   2.445   1.277
 6711SOL     OW21031   3.695   3.698   0.950
 6711SOL    HW121032   3.748   3.638   0.890
 6711SOL    HW221033   3.635   3.642   1.008
 6712SOL     OW21034   3.239   5.835   0.515
 6712SOL    HW121035   3.158   5.793   0.555
 6712SOL    HW221036   3.277   5.774   0.445
 6713SOL     OW21037   2.205   1.834   2.063
 6713SOL    HW121038   2.292   1.792   2.088
 6713SOL    HW221039   2.219   1.931   2.044
 6714SOL     OW21040   6.607   0.303   4.079
 6714SOL    HW121041   6.635   0.308   3.983
 6714SOL    HW221042   6.647   0.221   4.121
 6715SOL     OW21043   0.942   1.798   1.153
 6715SOL    HW121044   0.919   1.728   1.221
 6715SOL    HW221045   1.003   1.866   1.194
 6716SOL     OW21046   2.017   5.850   0.743
 6716SOL    HW121047   1.963   5.766   0.739
 6716SOL    HW221048   2.002   5.902   0.659
 6717SOL     OW21049   3.827   1.672   6.524
 6717SOL    HW121050   3.908   1.684   6.467
 6717SOL    HW221051   3.757   1.624   6.472
 6718SOL     OW21052   3.606   0.009   0.034
 6718SOL    HW121053   3.590   0.102   0.068
 6718SOL    HW221054   3.565   0.000   6.967
 6719SOL     OW21055   0.668   0.584   5.318
 6719SOL    HW121056   0.691   0.601   5.414
 6719SOL    HW221057   0.569   0.585   5.307
 6720SOL     OW21058   1.869   4.749   1.671
 6720SOL    HW121059   1.951   4.697   1.651
 6720SOL    HW221060   1.874   4.838   1.626
 6721SOL     OW21061   6.349   6.768   3.821
 6721SOL    HW121062   6.437   6.803   3.789
 6721SOL    HW221063   6.310   6.707   3.752
 6722SOL     OW21064   4.787   3.777   0.041
 6722SOL    HW121065   4.836   3.835   7.000
 6722SOL    HW221066   4.700   3.820   0.065
 6723SOL     OW21067   3.638   6.638   1.517
 6723SOL    HW121068   3.610   6.731   1.537
 6723SOL    HW221069   3.636   6.584   1.601
 6724SOL     OW21070   3.379   4.632   5.452
 6724SOL    HW121071   3.294   4.601   5.411
 6724SOL    HW221072   3.359   4.685   5.535
 6725SOL     OW21073   0.577   4.665   2.708
 6725SOL    HW121074   0.606   4.623   2.794
 6725SOL    HW221075   0.653   4.665   2.643
 6726SOL     OW21076   2.539   2.447   2.194
 6726SOL    HW121077   2.606   2.376   2.172
 6726SOL    HW221078   2.564   2.490   2.281
 6727SOL     OW21079   3.794   4.029   0.116
 6727SOL    HW121080   3.881   3.999   0.077
 6727SOL    HW221081   3.755   4.102   0.060
 6728SOL     OW21082   4.925   1.077   3.998
 6728SOL    HW121083   4.950   1.169   4.028
 6728SOL    HW221084   4.968   1.058   3.910
 6729SOL     OW21085   6.139   0.009   2.991
 6729SOL    HW121086   6.082   6.966   2.944
 6729SOL    HW221087   6.233   6.999   2.997
 6730SOL     OW21088   1.730   0.350   1.024
 6730SOL    HW121089   1.696   0.341   0.930
 6730SOL    HW221090   1.795   0.277   1.043
 6731SOL     OW21091   2.439   4.524   2.166
 6731SOL    HW121092   2.487   4.496   2.250
 6731SOL    HW221093   2.340   4.521   2.182
 6732SOL     OW21094   2.021   4.440   0.675
 6732SOL    HW121095   1.981   4.520   0.720
 6732SOL    HW221096   1.974   4.357   0.705
 6733SOL     OW21097   5.365   5.970   5.681
 6733SOL    HW121098   5.292   5.986   5.748
 6733SOL    HW221099   5.394   5.874   5.686
 6734SOL     OW21100   2.509   3.761   5.501
 6734SOL    HW121101   2.487   3.667   5.529
 6734SOL    HW221102   2.588   3.793   5.554
 6735SOL     OW21103   6.971   5.064   6.363
 6735SOL    HW121104   0.015   5.054   6.291
 6735SOL    HW221105   7.016   5.091   6.448
 6736SOL     OW21106   2.104   3.702   2.688
 6736SOL    HW121107   2.036   3.654   2.634
 6736SOL    HW221108   2.110   3.660   2.779
 6737SOL     OW21109   1.879   1.130   1.180
 6737SOL    HW121110   1.833   1.211   1.216
 6737SOL    HW221111   1.965   1.116   1.228
 6738SOL     OW21112   3.909   1.853   2.168
 6738SOL    HW121113   3.833   1.819   2.112
 6738SOL    HW221114   3.882   1.938   2.213
 6739SOL     OW21115   4.278   6.501   4.827
 6739SOL    HW121116   4.365   6.539   4.859
 6739SOL    HW221117   4.214   6.575   4.806
 6740SOL     OW21118   6.059   2.613   4.562
 6740SOL    HW121119   6.089   2.519   4.577
 6740SOL    HW221120   6.034   2.625   4.466
 6741SOL     OW21121   6.985   6.978   5.941
 6741SOL    HW121122   7.012   6.885   5.920
 6741SOL    HW221123   0.031   7.022   5.997
 6742SOL     OW21124   6.486   5.950   5.793
 6742SOL    HW121125   6.453   6.044   5.784
 6742SOL    HW221126   6.461   5.914   5.883
 6743SOL     OW21127   4.928   3.443   0.646
 6743SOL    HW121128   4.869   3.518   0.614
 6743SOL    HW221129   4.874   3.359   0.650
 6744SOL     OW21130   5.766   5.401   5.616
 6744SOL    HW121131   5.860   5.420   5.646
 6744SOL    HW221132   5.750   5.303   5.614
 6745SOL     OW21133   7.009   3.951   3.631
 6745SOL    HW121134   0.011   3.919   3.722
 6745SOL    HW221135   6.914   3.981   3.632
 6746SOL     OW21136   6.992   1.618   1.106
 6746SOL    HW121137   6.976   1.712   1.138
 6746SOL    HW221138   0.064   1.606   1.084
 6747SOL     OW21139   5.288   6.308   6.132
 6747SOL    HW121140   5.298   6.381   6.200
 6747SOL    HW221141   5.378   6.283   6.097
 6748SOL     OW21142   6.630   6.606   2.068
 6748SOL    HW121143   6.535   6.598   2.098
 6748SOL    HW221144   6.684   6.533   2.108
 6749SOL     OW21145   3.495   6.029   0.767
 6749SOL    HW121146   3.541   6.015   0.679
 6749SOL    HW221147   3.452   6.119   0.768
 6750SOL     OW21148   2.672   3.172   5.323
 6750SOL    HW121149   2.619   3.233   5.383
 6750SOL    HW221150   2.609   3.115   5.271
 6751SOL     OW21151   3.283   2.280   5.583
 6751SOL    HW121152   3.202   2.339   5.583
 6751SOL    HW221153   3.321   2.275   5.491
 6752SOL     OW21154   6.200   2.165   0.610
 6752SOL    HW121155   6.149   2.158   0.524
 6752SOL    HW221156   6.250   2.251   0.612
 6753SOL     OW21157   5.380   2.061   6.015
 6753SOL    HW121158   5.367   2.006   5.932
 6753SOL    HW221159   5.291   2.093   6.048
 6754SOL     OW21160   5.271   1.139   0.302
 6754SOL    HW121161   5.361   1.104   0.278
 6754SOL    HW221162   5.204   1.107   0.234
 6755SOL     OW21163   5.425   1.518   3.375
 6755SOL    HW121164   5.476   1.502   3.290
 6755SOL    HW221165   5.366   1.597   3.364
 6756SOL     OW21166   4.967   4.368   4.087
 6756SOL    HW121167   4.936   4.382   3.993
 6756SOL    HW221168   5.066   4.358   4.089
 6757SOL     OW21169   5.102   4.895   2.289
 6757SOL    HW121170   5.184   4.926   2.240
 6757SOL    HW221171   5.077   4.963   2.358
 6758SOL     OW21172   5.743   1.664   3.000
 6758SOL    HW121173   5.835   1.631   2.981
 6758SOL    HW221174   5.694   1.678   2.914
 6759SOL     OW21175   0.867   4.394   3.146
 6759SOL    HW121176   0.840   4.304   3.180
 6759SOL    HW221177   0.881   4.389   3.047
 6760SOL     OW21178   0.128   4.250   4.676
 6760SOL    HW121179   0.179   4.203   4.748
 6760SOL    HW221180   0.187   4.317   4.631
 6761SOL     OW21181   5.848   3.563   6.597
 6761SOL    HW121182   5.934   3.533   6.555
 6761SOL    HW221183   5.772   3.515   6.555
 6762SOL     OW21184   5.583   5.015   3.375
 6762SOL    HW121185   5.535   5.082   3.431
 6762SOL    HW221186   5.525   4.934   3.362
 6763SOL     OW21187   5.837   6.448   5.831
 6763SOL    HW121188   5.910   6.379   5.820
 6763SOL    HW221189   5.761   6.426   5.770
 6764SOL     OW21190   2.296   3.662   0.285
 6764SOL    HW121191   2.202   3.686   0.263
 6764SOL    HW221192   2.297   3.580   0.343
 6765SOL     OW21193   5.182   5.236   2.805
 6765SOL    HW121194   5.182   5.212   2.902
 6765SOL    HW221195   5.089   5.260   2.776
 6766SOL     OW21196   1.309   1.398   5.735
 6766SOL    HW121197   1.333   1.303   5.714
 6766SOL    HW221198   1.383   1.458   5.704
 6767SOL     OW21199   1.094   2.746   5.500
 6767SOL    HW121200   1.190   2.773   5.509
 6767SOL    HW221201   1.037   2.828   5.492
 6768SOL     OW21202   0.363   0.439   5.455
 6768SOL    HW121203   0.274   0.397   5.471
 6768SOL    HW221204   0.430   0.403   5.520
 6769SOL     OW21205   1.280   2.874   6.555
 6769SOL    HW121206   1.338   2.820   6.494
 6769SOL    HW221207   1.316   2.868   6.648
 6770SOL     OW21208   6.780   1.240   4.304
 6770SOL    HW121209   6.750   1.310   4.368
 6770SOL    HW221210   6.757   1.149   4.339
 6771SOL     OW21211   4.044   1.560   1.984
 6771SOL    HW121212   4.059   1.607   2.071
 6771SOL    HW221213   3.948   1.571   1.957
 6772SOL     OW21214   0.452   0.918   1.583
 6772SOL    HW121215   0.445   0.847   1.654
 6772SOL    HW221216   0.531   0.976   1.604
 6773SOL     OW21217   1.013   0.669   2.140
 6773SOL    HW121218   0.979   0.577   2.159
 6773SOL    HW221219   0.935   0.728   2.118
 6774SOL     OW21220   3.239   0.976   5.319
 6774SOL    HW121221   3.235   0.989   5.418
 6774SOL    HW221222   3.313   1.032   5.281
 6775SOL     OW21223   0.729   3.066   5.056
 6775SOL    HW121224   0.774   3.125   4.988
 6775SOL    HW221225   0.746   3.102   5.148
 6776SOL     OW21226   3.424   4.001   3.182
 6776SOL    HW121227   3.345   4.031   3.129
 6776SOL    HW221228   3.401   4.002   3.279
 6777SOL     OW21229   0.027   6.769   6.494
 6777SOL    HW121230   0.091   6.699   6.463
 6777SOL    HW221231   0.075   6.856   6.503
 6778SOL     OW21232   5.962   6.079   2.328
 6778SOL    HW121233   5.961   6.127   2.240
 6778SOL    HW221234   6.056   6.070   2.359
 6779SOL     OW21235   5.140   4.448   6.465
 6779SOL    HW121236   5.173   4.459   6.559
 6779SOL    HW221237   5.059   4.388   6.466
 6780SOL     OW21238   3.894   1.301   2.116
 6780SOL    HW121239   3.829   1.284   2.042
 6780SOL    HW221240   3.980   1.335   2.078
 6781SOL     OW21241   6.089   2.370   3.129
 6781SOL    HW121242   6.104   2.271   3.123
 6781SOL    HW221243   6.029   2.390   3.206
 6782SOL     OW21244   0.019   1.399   3.197
 6782SOL    HW121245   7.019   1.388   3.294
 6782SOL    HW221246   0.080   1.477   3.187
 6783SOL     OW21247   0.700   6.067   5.971
 6783SOL    HW121248   0.636   6.026   6.035
 6783SOL    HW221249   0.690   6.025   5.881
 6784SOL     OW21250   1.554   4.649   1.377
 6784SOL    HW121251   1.532   4.712   1.302
 6784SOL    HW221252   1.524   4.688   1.464
 6785SOL     OW21253   5.373   4.821   3.481
 6785SOL    HW121254   5.311   4.897   3.462
 6785SOL    HW221255   5.321   4.736   3.490
 6786SOL     OW21256   6.570   2.302   5.924
 6786SOL    HW121257   6.608   2.292   6.016
 6786SOL    HW221258   6.561   2.399   5.902
 6787SOL     OW21259   3.217   1.416   0.875
 6787SOL    HW121260   3.233   1.430   0.777
 6787SOL    HW221261   3.141   1.474   0.905
 6788SOL     OW21262   0.743   4.393   1.339
 6788SOL    HW121263   0.652   4.383   1.378
 6788SOL    HW221264   0.806   4.427   1.409
 6789SOL     OW21265   5.905   4.718   2.653
 6789SOL    HW121266   5.863   4.649   2.712
 6789SOL    HW221267   5.873   4.704   2.559
 6790SOL     OW21268   0.496   6.127   1.070
 6790SOL    HW121269   0.498   6.027   1.076
 6790SOL    HW221270   0.581   6.164   1.107
 6791SOL     OW21271   2.088   6.169   3.512
 6791SOL    HW121272   2.060   6.084   3.558
 6791SOL    HW221273   2.180   6.194   3.542
 6792SOL     OW21274   3.585   6.744   5.982
 6792SOL    HW121275   3.494   6.737   6.022
 6792SOL    HW221276   3.651   6.697   6.041
 6793SOL     OW21277   2.426   3.391   5.881
 6793SOL    HW121278   2.431   3.395   5.981
 6793SOL    HW221279   2.367   3.315   5.853
 6794SOL     OW21280   5.019   2.565   4.947
 6794SOL    HW121281   5.055   2.474   4.964
 6794SOL    HW221282   4.957   2.562   4.869
 6795SOL     OW21283   0.590   0.542   1.781
 6795SOL    HW121284   0.614   0.639   1.791
 6795SOL    HW221285   0.672   0.490   1.756
 6796SOL     OW21286   6.722   1.845   2.503
 6796SOL    HW121287   6.751   1.782   2.575
 6796SOL    HW221288   6.743   1.939   2.531
 6797SOL     OW21289   1.405   3.000   0.899
 6797SOL    HW121290   1.355   2.942   0.962
 6797SOL    HW221291   1.439   3.081   0.947
 6798SOL     OW21292   4.540   1.255   1.943
 6798SOL    HW121293   4.565   1.351   1.932
 6798SOL    HW221294   4.610   1.198   1.900
 6799SOL     OW21295   6.944   6.839   2.827
 6799SOL    HW121296   6.883   6.855   2.749
 6799SOL    HW221297   6.949   6.923   2.882
 6800SOL     OW21298   6.367   2.881   1.891
 6800SOL    HW121299   6.287   2.837   1.932
 6800SOL    HW221300   6.443   2.817   1.889
 6801SOL     OW21301   1.227   5.753   6.164
 6801SOL    HW121302   1.247   5.655   6.165
 6801SOL    HW221303   1.307   5.804   6.198
 6802SOL     OW21304   3.065   4.591   1.695
 6802SOL    HW121305   3.083   4.502   1.652
 6802SOL    HW221306   2.989   4.582   1.759
 6803SOL     OW21307   5.441   5.347   6.273
 6803SOL    HW121308   5.377   5.285   6.229
 6803SOL    HW221309   5.493   5.298   6.342
 6804SOL     OW21310   3.564   5.377   2.176
 6804SOL    HW121311   3.467   5.399   2.166
 6804SOL    HW221312   3.598   5.335   2.092
 6805SOL     OW21313   0.930   4.022   3.960
 6805SOL    HW121314   0.913   4.034   3.862
 6805SOL    HW221315   0.910   4.107   4.009
 6806SOL     OW21316   5.917   3.518   2.609
 6806SOL    HW121317   5.942   3.491   2.516
 6806SOL    HW221318   5.948   3.449   2.673
 6807SOL     OW21319   3.140   4.030   2.675
 6807SOL    HW121320   3.131   3.970   2.595
 6807SOL    HW221321   3.098   4.118   2.655
 6808SOL     OW21322   3.678   0.201   3.488
 6808SOL    HW121323   3.752   0.253   3.531
 6808SOL    HW221324   3.590   0.238   3.517
 6809SOL     OW21325   5.890   2.672   0.680
 6809SOL    HW121326   5.801   2.635   0.709
 6809SOL    HW221327   5.946   2.598   0.642
 6810SOL     OW21328   2.634   0.742   5.016
 6810SOL    HW121329   2.673   0.829   4.986
 6810SOL    HW221330   2.695   0.667   4.991
 6811SOL     OW21331   6.832   1.844   1.457
 6811SOL    HW121332   6.883   1.767   1.494
 6811SOL    HW221333   6.790   1.895   1.533
 6812SOL     OW21334   3.139   4.537   5.370
 6812SOL    HW121335   3.144   4.460   5.434
 6812SOL    HW221336   3.066   4.520   5.303
 6813SOL     OW21337   6.966   3.948   1.925
 6813SOL    HW121338   6.881   3.940   1.872
 6813SOL    HW221339   6.991   4.044   1.934
 6814SOL     OW21340   5.696   1.314   1.195
 6814SOL    HW121341   5.724   1.234   1.248
 6814SOL    HW221342   5.597   1.325   1.200
 6815SOL     OW21343   0.421   5.789   6.792
 6815SOL    HW121344   0.427   5.868   6.854
 6815SOL    HW221345   0.509   5.742   6.789
 6816SOL     OW21346   6.603   6.739   4.697
 6816SOL    HW121347   6.523   6.754   4.755
 6816SOL    HW221348   6.607   6.811   4.627
 6817SOL     OW21349   5.159   2.107   1.660
 6817SOL    HW121350   5.135   2.204   1.672
 6817SOL    HW221351   5.100   2.051   1.718
 6818SOL     OW21352   0.970   0.062   5.299
 6818SOL    HW121353   0.873   0.086   5.292
 6818SOL    HW221354   1.008   0.103   5.382
 6819SOL     OW21355   4.743   4.403   1.607
 6819SOL    HW121356   4.805   4.469   1.567
 6819SOL    HW221357   4.778   4.373   1.696
 6820SOL     OW21358   2.708   5.284   1.433
 6820SOL    HW121359   2.764   5.234   1.367
 6820SOL    HW221360   2.740   5.379   1.439
 6821SOL     OW21361   2.969   2.805   6.201
 6821SOL    HW121362   3.015   2.867   6.137
 6821SOL    HW221363   3.036   2.742   6.240
 6822SOL     OW21364   5.764   3.725   5.571
 6822SOL    HW121365   5.785   3.631   5.598
 6822SOL    HW221366   5.847   3.781   5.579
 6823SOL     OW21367   0.449   2.971   6.072
 6823SOL    HW121368   0.469   2.973   5.974
 6823SOL    HW221369   0.405   2.884   6.095
 6824SOL     OW21370   1.342   0.502   5.219
 6824SOL    HW121371   1.332   0.600   5.205
 6824SOL    HW221372   1.331   0.455   5.131
 6825SOL     OW21373   4.188   4.329   1.283
 6825SOL    HW121374   4.182   4.343   1.184
 6825SOL    HW221375   4.151   4.408   1.330
 6826SOL     OW21376   5.567   0.177   3.354
 6826SOL    HW121377   5.499   0.115   3.316
 6826SOL    HW221378   5.553   0.185   3.453
 6827SOL     OW21379   4.467   5.646   5.405
 6827SOL    HW121380   4.444   5.740   5.378
 6827SOL    HW221381   4.393   5.585   5.375
 6828SOL     OW21382   3.466   2.071   2.055
 6828SOL    HW121383   3.425   1.996   2.004
 6828SOL    HW221384   3.529   2.121   1.996
 6829SOL     OW21385   4.531   6.867   3.787
 6829SOL    HW121386   4.476   6.816   3.721
 6829SOL    HW221387   4.522   6.825   3.877
 6830SOL     OW21388   3.918   5.317   1.914
 6830SOL    HW121389   3.899   5.317   2.013
 6830SOL    HW221390   3.879   5.235   1.873
 6831SOL     OW21391   1.904   1.230   6.417
 6831SOL    HW121392   1.842   1.265   6.487
 6831SOL    HW221393   1.967   1.164   6.457
 6832SOL     OW21394   2.832   2.433   6.805
 6832SOL    HW121395   2.876   2.514   6.844
 6832SOL    HW221396   2.813   2.449   6.708
 6833SOL     OW21397   4.116   4.986   6.430
 6833SOL    HW121398   4.025   5.001   6.468
 6833SOL    HW221399   4.180   5.054   6.466
 6834SOL     OW21400   6.445   6.237   6.532
 6834SOL    HW121401   6.403   6.179   6.462
 6834SOL    HW221402   6.462   6.328   6.494
 6835SOL     OW21403   3.804   0.723   3.829
 6835SOL    HW121404   3.795   0.624   3.822
 6835SOL    HW221405   3.726   0.767   3.785
 6836SOL     OW21406   0.216   4.079   6.169
 6836SOL    HW121407   0.223   4.064   6.267
 6836SOL    HW221408   0.148   4.150   6.150
 6837SOL     OW21409   6.249   0.751   2.216
 6837SOL    HW121410   6.257   0.838   2.167
 6837SOL    HW221411   6.153   0.728   2.228
 6838SOL     OW21412   2.920   3.882   6.000
 6838SOL    HW121413   2.864   3.964   5.989
 6838SOL    HW221414   2.972   3.866   5.916
 6839SOL     OW21415   5.670   3.062   4.474
 6839SOL    HW121416   5.696   3.147   4.520
 6839SOL    HW221417   5.749   3.001   4.471
 6840SOL     OW21418   2.420   6.279   4.554
 6840SOL    HW121419   2.390   6.243   4.465
 6840SOL    HW221420   2.391   6.374   4.562
 6841SOL     OW21421   4.818   6.857   1.161
 6841SOL    HW121422   4.746   6.793   1.189
 6841SOL    HW221423   4.883   6.810   1.101
 6842SOL     OW21424   0.416   4.083   4.106
 6842SOL    HW121425   0.368   4.001   4.136
 6842SOL    HW221426   0.417   4.150   4.180
 6843SOL     OW21427   4.532   2.839   1.734
 6843SOL    HW121428   4.559   2.918   1.790
 6843SOL    HW221429   4.529   2.866   1.637
 6844SOL     OW21430   3.155   5.810   4.397
 6844SOL    HW121431   3.085   5.793   4.466
 6844SOL    HW221432   3.238   5.845   4.441
 6845SOL     OW21433   3.979   4.223   0.473
 6845SOL    HW121434   4.023   4.191   0.389
 6845SOL    HW221435   3.898   4.166   0.491
 6846SOL     OW21436   4.160   3.455   2.934
 6846SOL    HW121437   4.236   3.393   2.954
 6846SOL    HW221438   4.092   3.448   3.007
 6847SOL     OW21439   6.581   3.526   1.499
 6847SOL    HW121440   6.572   3.528   1.399
 6847SOL    HW221441   6.546   3.612   1.536
 6848SOL     OW21442   0.127   5.955   4.055
 6848SOL    HW121443   0.224   5.974   4.070
 6848SOL    HW221444   0.105   5.966   3.958
 6849SOL     OW21445   3.398   6.720   4.288
 6849SOL    HW121446   3.487   6.749   4.323
 6849SOL    HW221447   3.325   6.770   4.336
 6850SOL     OW21448   5.485   3.457   1.595
 6850SOL    HW121449   5.496   3.466   1.695
 6850SOL    HW221450   5.410   3.516   1.565
 6851SOL     OW21451   1.204   5.118   5.212
 6851SOL    HW121452   1.236   5.070   5.130
 6851SOL    HW221453   1.250   5.206   5.219
 6852SOL     OW21454   6.841   5.247   2.415
 6852SOL    HW121455   6.843   5.282   2.321
 6852SOL    HW221456   6.749   5.211   2.435
 6853SOL     OW21457   6.510   4.091   5.296
 6853SOL    HW121458   6.602   4.097   5.258
 6853SOL    HW221459   6.479   3.996   5.295
 6854SOL     OW21460   0.088   1.867   6.737
 6854SOL    HW121461   0.005   1.811   6.743
 6854SOL    HW221462   0.167   1.806   6.730
 6855SOL     OW21463   2.918   6.313   1.992
 6855SOL    HW121464   2.988   6.384   1.994
 6855SOL    HW221465   2.881   6.299   2.084
 6856SOL     OW21466   0.301   4.823   5.398
 6856SOL    HW121467   0.314   4.922   5.385
 6856SOL    HW221468   0.301   4.802   5.495
 6857SOL     OW21469   3.560   1.325   6.121
 6857SOL    HW121470   3.638   1.314   6.183
 6857SOL    HW221471   3.587   1.383   6.044
 6858SOL     OW21472   3.966   2.971   5.479
 6858SOL    HW121473   3.991   2.919   5.561
 6858SOL    HW221474   3.944   3.065   5.505
 6859SOL     OW21475   3.485   0.777   0.702
 6859SOL    HW121476   3.457   0.682   0.717
 6859SOL    HW221477   3.551   0.805   0.772
 6860SOL     OW21478   4.474   4.125   6.718
 6860SOL    HW121479   4.485   4.204   6.778
 6860SOL    HW221480   4.445   4.155   6.627
 6861SOL     OW21481   5.779   4.261   0.734
 6861SOL    HW121482   5.864   4.212   0.715
 6861SOL    HW221483   5.701   4.204   0.708
 6862SOL     OW21484   2.718   5.108   3.943
 6862SOL    HW121485   2.781   5.034   3.969
 6862SOL    HW221486   2.733   5.186   4.003
 6863SOL     OW21487   0.463   2.785   3.922
 6863SOL    HW121488   0.553   2.766   3.960
 6863SOL    HW221489   0.393   2.765   3.991
 6864SOL     OW21490   4.733   5.670   5.895
 6864SOL    HW121491   4.716   5.760   5.935
 6864SOL    HW221492   4.674   5.657   5.816
 6865SOL     OW21493   6.856   3.207   4.487
 6865SOL    HW121494   6.922   3.132   4.481
 6865SOL    HW221495   6.839   3.243   4.395
 6866SOL     OW21496   0.449   3.031   2.278
 6866SOL    HW121497   0.506   3.096   2.229
 6866SOL    HW221498   0.426   2.954   2.219
 6867SOL     OW21499   2.800   5.369   2.835
 6867SOL    HW121500   2.734   5.438   2.806
 6867SOL    HW221501   2.852   5.403   2.913
 6868SOL     OW21502   1.485   5.423   4.557
 6868SOL    HW121503   1.560   5.427   4.491
 6868SOL    HW221504   1.461   5.516   4.586
 6869SOL     OW21505   6.317   3.393   4.762
 6869SOL    HW121506   6.234   3.417   4.811
 6869SOL    HW221507   6.366   3.322   4.811
 6870SOL     OW21508   5.459   3.500   2.416
 6870SOL    HW121509   5.439   3.595   2.395
 6870SOL    HW221510   5.543   3.472   2.369
 6871SOL     OW21511   4.744   6.950   1.621
 6871SOL    HW121512   4.720   0.021   1.634
 6871SOL    HW221513   4.826   6.943   1.564
 6872SOL     OW21514   2.627   3.341   6.542
 6872SOL    HW121515   2.598   3.424   6.494
 6872SOL    HW221516   2.697   3.365   6.610
 6873SOL     OW21517   5.210   3.850   5.610
 6873SOL    HW121518   5.308   3.869   5.613
 6873SOL    HW221519   5.159   3.936   5.617
 6874SOL     OW21520   1.295   2.690   5.307
 6874SOL    HW121521   1.367   2.755   5.283
 6874SOL    HW221522   1.333   2.598   5.312
 6875SOL     OW21523   3.313   1.992   4.001
 6875SOL    HW121524   3.244   2.032   4.061
 6875SOL    HW221525   3.313   2.041   3.913
 6876SOL     OW21526   3.412   6.338   4.798
 6876SOL    HW121527   3.416   6.358   4.896
 6876SOL    HW221528   3.491   6.379   4.752
 6877SOL     OW21529   2.223   3.675   6.508
 6877SOL    HW121530   2.211   3.690   6.606
 6877SOL    HW221531   2.138   3.698   6.460
 6878SOL     OW21532   1.830   2.150   4.891
 6878SOL    HW121533   1.777   2.229   4.922
 6878SOL    HW221534   1.927   2.167   4.908
 6879SOL     OW21535   1.246   1.006   5.899
 6879SOL    HW121536   1.180   0.951   5.848
 6879SOL    HW221537   1.308   0.945   5.949
 6880SOL     OW21538   2.112   3.949   4.732
 6880SOL    HW121539   2.190   3.990   4.779
 6880SOL    HW221540   2.110   3.851   4.753
 6881SOL     OW21541   5.891   5.520   2.000
 6881SOL    HW121542   5.916   5.424   2.017
 6881SOL    HW221543   5.867   5.531   1.904
 6882SOL     OW21544   2.749   6.442   5.086
 6882SOL    HW121545   2.820   6.464   5.019
 6882SOL    HW221546   2.692   6.522   5.102
 6883SOL     OW21547   3.041   6.168   1.127
 6883SOL    HW121548   2.944   6.183   1.144
 6883SOL    HW221549   3.055   6.076   1.091
 6884SOL     OW21550   2.300   5.106   2.831
 6884SOL    HW121551   2.274   5.038   2.763
 6884SOL    HW221552   2.226   5.172   2.842
 6885SOL     OW21553   3.645   5.629   5.264
 6885SOL    HW121554   3.672   5.689   5.189
 6885SOL    HW221555   3.565   5.667   5.310
 6886SOL     OW21556   5.362   1.625   2.286
 6886SOL    HW121557   5.401   1.569   2.213
 6886SOL    HW221558   5.269   1.652   2.262
 6887SOL     OW21559   4.863   0.690   5.135
 6887SOL    HW121560   4.765   0.668   5.143
 6887SOL    HW221561   4.883   0.719   5.041
 6888SOL     OW21562   5.671   6.765   5.405
 6888SOL    HW121563   5.734   6.782   5.481
 6888SOL    HW221564   5.686   6.672   5.370
 6889SOL     OW21565   1.415   4.266   6.220
 6889SOL    HW121566   1.413   4.237   6.124
 6889SOL    HW221567   1.331   4.316   6.242
 6890SOL     OW21568   1.978   0.721   0.889
 6890SOL    HW121569   1.938   0.665   0.962
 6890SOL    HW221570   2.004   0.810   0.925
 6891SOL     OW21571   3.770   5.108   5.156
 6891SOL    HW121572   3.705   5.062   5.095
 6891SOL    HW221573   3.766   5.207   5.141
 6892SOL     OW21574   3.676   1.247   4.440
 6892SOL    HW121575   3.633   1.158   4.453
 6892SOL    HW221576   3.744   1.242   4.368
 6893SOL     OW21577   6.061   6.770   1.670
 6893SOL    HW121578   6.103   6.811   1.589
 6893SOL    HW221579   6.031   6.677   1.649
 6894SOL     OW21580   6.140   4.733   5.493
 6894SOL    HW121581   6.141   4.655   5.430
 6894SOL    HW221582   6.079   4.804   5.457
 6895SOL     OW21583   3.666   5.022   6.345
 6895SOL    HW121584   3.698   4.933   6.314
 6895SOL    HW221585   3.742   5.072   6.388
 6896SOL     OW21586   4.714   0.680   2.978
 6896SOL    HW121587   4.782   0.753   2.981
 6896SOL    HW221588   4.663   0.679   3.064
 6897SOL     OW21589   3.428   1.741   0.665
 6897SOL    HW121590   3.408   1.813   0.732
 6897SOL    HW221591   3.525   1.718   0.669
 6898SOL     OW21592   3.606   1.643   3.280
 6898SOL    HW121593   3.602   1.742   3.291
 6898SOL    HW221594   3.515   1.604   3.294
 6899SOL     OW21595   5.746   6.427   6.764
 6899SOL    HW121596   5.725   6.352   6.826
 6899SOL    HW221597   5.741   6.514   6.814
 6900SOL     OW21598   4.052   1.269   5.698
 6900SOL    HW121599   3.998   1.352   5.684
 6900SOL    HW221600   4.106   1.278   5.782
 6901SOL     OW21601   1.300   0.644   0.609
 6901SOL    HW121602   1.344   0.560   0.639
 6901SOL    HW221603   1.216   0.622   0.560
 6902SOL     OW21604   6.356   5.360   1.662
 6902SOL    HW121605   6.324   5.306   1.741
 6902SOL    HW221606   6.451   5.386   1.676
 6903SOL     OW21607   4.154   4.544   0.767
 6903SOL    HW121608   4.247   4.561   0.734
 6903SOL    HW221609   4.131   4.447   0.754
 6904SOL     OW21610   0.738   1.816   3.079
 6904SOL    HW121611   0.732   1.900   3.026
 6904SOL    HW221612   0.821   1.817   3.135
 6905SOL     OW21613   4.090   4.971   1.045
 6905SOL    HW121614   4.093   5.057   1.096
 6905SOL    HW221615   4.171   4.964   0.987
 6906SOL     OW21616   4.800   6.045   3.523
 6906SOL    HW121617   4.807   6.140   3.490
 6906SOL    HW221618   4.770   5.987   3.448
 6907SOL     OW21619   3.522   1.063   1.228
 6907SOL    HW121620   3.544   1.157   1.254
 6907SOL    HW221621   3.587   1.000   1.272
 6908SOL     OW21622   0.132   6.998   6.512
 6908SOL    HW121623   0.116   0.068   6.481
 6908SOL    HW221624   0.225   6.989   6.545
 6909SOL     OW21625   4.046   3.153   6.936
 6909SOL    HW121626   3.951   3.125   6.926
 6909SOL    HW221627   4.105   3.073   6.941
 6910SOL     OW21628   6.500   1.316   1.578
 6910SOL    HW121629   6.547   1.228   1.590
 6910SOL    HW221630   6.477   1.328   1.482
 6911SOL     OW21631   4.551   0.653   5.163
 6911SOL    HW121632   4.456   0.640   5.191
 6911SOL    HW221633   4.576   0.582   5.097
 6912SOL     OW21634   4.453   4.906   1.852
 6912SOL    HW121635   4.446   4.840   1.927
 6912SOL    HW221636   4.497   4.862   1.774
 6913SOL     OW21637   4.462   5.822   6.009
 6913SOL    HW121638   4.473   5.796   5.913
 6913SOL    HW221639   4.445   5.920   6.016
 6914SOL     OW21640   6.311   4.866   0.155
 6914SOL    HW121641   6.410   4.864   0.143
 6914SOL    HW221642   6.286   4.936   0.222
 6915SOL     OW21643   1.113   5.400   1.047
 6915SOL    HW121644   1.038   5.344   1.012
 6915SOL    HW221645   1.187   5.402   0.980
 6916SOL     OW21646   6.544   0.990   6.246
 6916SOL    HW121647   6.568   1.036   6.160
 6916SOL    HW221648   6.571   0.894   6.242
 6917SOL     OW21649   4.888   0.275   0.038
 6917SOL    HW121650   4.790   0.295   0.032
 6917SOL    HW221651   4.928   0.331   0.111
 6918SOL     OW21652   1.895   2.996   3.888
 6918SOL    HW121653   1.799   3.019   3.903
 6918SOL    HW221654   1.900   2.915   3.830
 6919SOL     OW21655   1.112   6.395   2.980
 6919SOL    HW121656   1.041   6.354   2.922
 6919SOL    HW221657   1.148   6.326   3.044
 6920SOL     OW21658   4.891   6.778   4.693
 6920SOL    HW121659   4.903   6.742   4.600
 6920SOL    HW221660   4.824   6.723   4.742
 6921SOL     OW21661   0.273   6.485   3.301
 6921SOL    HW121662   0.329   6.522   3.227
 6921SOL    HW221663   0.255   6.558   3.367
 6922SOL     OW21664   1.632   5.768   6.843
 6922SOL    HW121665   1.687   5.684   6.852
 6922SOL    HW221666   1.547   5.746   6.796
 6923SOL     OW21667   4.240   6.979   3.976
 6923SOL    HW121668   4.290   6.895   3.998
 6923SOL    HW221669   4.227   6.985   3.877
 6924SOL     OW21670   6.802   5.872   1.343
 6924SOL    HW121671   6.875   5.940   1.342
 6924SOL    HW221672   6.765   5.861   1.251
 6925SOL     OW21673   6.248   5.507   3.044
 6925SOL    HW121674   6.292   5.419   3.066
 6925SOL    HW221675   6.233   5.558   3.128
 6926SOL     OW21676   3.144   4.148   5.262
 6926SOL    HW121677   3.222   4.178   5.207
 6926SOL    HW221678   3.177   4.113   5.349
 6927SOL     OW21679   4.103   3.352   0.157
 6927SOL    HW121680   4.076   3.316   0.067
 6927SOL    HW221681   4.122   3.450   0.149
 6928SOL     OW21682   6.806   6.932   6.534
 6928SOL    HW121683   6.850   6.941   6.444
 6928SOL    HW221684   6.869   6.964   6.605
 6929SOL     OW21685   3.812   5.168   0.812
 6929SOL    HW121686   3.793   5.251   0.760
 6929SOL    HW221687   3.743   5.157   0.884
 6930SOL     OW21688   1.046   0.333   3.342
 6930SOL    HW121689   1.034   0.417   3.394
 6930SOL    HW221690   0.988   0.261   3.380
 6931SOL     OW21691   1.724   0.886   1.852
 6931SOL    HW121692   1.765   0.842   1.932
 6931SOL    HW221693   1.684   0.974   1.879
 6932SOL     OW21694   2.454   2.088   0.261
 6932SOL    HW121695   2.509   2.107   0.179
 6932SOL    HW221696   2.432   1.991   0.265
 6933SOL     OW21697   2.843   6.337   6.767
 6933SOL    HW121698   2.865   6.254   6.817
 6933SOL    HW221699   2.868   6.417   6.823
 6934SOL     OW21700   5.537   4.315   6.157
 6934SOL    HW121701   5.466   4.318   6.228
 6934SOL    HW221702   5.549   4.407   6.120
 6935SOL     OW21703   4.145   5.816   3.518
 6935SOL    HW121704   4.108   5.867   3.440
 6935SOL    HW221705   4.209   5.874   3.568
 6936SOL     OW21706   0.917   4.989   1.174
 6936SOL    HW121707   0.954   4.897   1.173
 6936SOL    HW221708   0.817   4.985   1.181
 6937SOL     OW21709   4.506   6.374   6.253
 6937SOL    HW121710   4.570   6.321   6.309
 6937SOL    HW221711   4.501   6.468   6.289
 6938SOL     OW21712   5.880   1.887   4.992
 6938SOL    HW121713   5.810   1.958   4.983
 6938SOL    HW221714   5.970   1.930   4.992
 6939SOL     OW21715   0.040   4.850   2.207
 6939SOL    HW121716   0.104   4.776   2.185
 6939SOL    HW221717   0.090   4.925   2.249
 6940SOL     OW21718   4.056   0.723   5.110
 6940SOL    HW121719   4.073   0.690   5.017
 6940SOL    HW221720   3.962   0.701   5.136
 6941SOL     OW21721   3.846   2.965   3.673
 6941SOL    HW121722   3.751   2.986   3.698
 6941SOL    HW221723   3.854   2.963   3.573
 6942SOL     OW21724   6.771   1.864   0.402
 6942SOL    HW121725   6.693   1.918   0.372
 6942SOL    HW221726   6.800   1.894   0.493
 6943SOL     OW21727   5.744   6.284   0.169
 6943SOL    HW121728   5.671   6.295   0.102
 6943SOL    HW221729   5.705   6.255   0.257
 6944SOL     OW21730   1.187   6.246   6.518
 6944SOL    HW121731   1.205   6.234   6.421
 6944SOL    HW221732   1.152   6.160   6.556
 6945SOL     OW21733   4.591   1.973   5.495
 6945SOL    HW121734   4.587   1.875   5.476
 6945SOL    HW221735   4.622   1.987   5.589
 6946SOL     OW21736   5.841   3.831   3.757
 6946SOL    HW121737   5.747   3.865   3.751
 6946SOL    HW221738   5.903   3.895   3.713
 6947SOL     OW21739   3.589   0.174   2.760
 6947SOL    HW121740   3.666   0.182   2.824
 6947SOL    HW221741   3.503   0.188   2.810
 6948SOL     OW21742   3.820   2.092   4.710
 6948SOL    HW121743   3.866   2.163   4.657
 6948SOL    HW221744   3.755   2.044   4.651
 6949SOL     OW21745   4.897   0.725   2.281
 6949SOL    HW121746   4.948   0.799   2.238
 6949SOL    HW221747   4.915   0.724   2.379
 6950SOL     OW21748   2.442   1.114   3.832
 6950SOL    HW121749   2.419   1.209   3.815
 6950SOL    HW221750   2.467   1.102   3.928
 6951SOL     OW21751   5.675   5.524   5.389
 6951SOL    HW121752   5.712   5.483   5.472
 6951SOL    HW221753   5.590   5.477   5.364
 6952SOL     OW21754   0.568   5.159   4.795
 6952SOL    HW121755   0.531   5.071   4.826
 6952SOL    HW221756   0.651   5.179   4.846
 6953SOL     OW21757   5.625   2.372   5.434
 6953SOL    HW121758   5.649   2.435   5.361
 6953SOL    HW221759   5.558   2.416   5.495
 6954SOL     OW21760   0.591   5.408   2.468
 6954SOL    HW121761   0.575   5.309   2.468
 6954SOL    HW221762   0.539   5.450   2.542
 6955SOL     OW21763   6.678   6.209   3.241
 6955SOL    HW121764   6.773   6.226   3.264
 6955SOL    HW221765   6.643   6.284   3.184
 6956SOL     OW21766   3.513   4.961   1.053
 6956SOL    HW121767   3.593   4.924   1.005
 6956SOL    HW221768   3.468   4.888   1.105
 6957SOL     OW21769   0.755   3.633   0.504
 6957SOL    HW121770   0.695   3.637   0.584
 6957SOL    HW221771   0.811   3.550   0.508
 6958SOL     OW21772   2.159   3.633   6.091
 6958SOL    HW121773   2.234   3.698   6.090
 6958SOL    HW221774   2.075   3.679   6.122
 6959SOL     OW21775   3.576   1.067   3.695
 6959SOL    HW121776   3.609   0.984   3.649
 6959SOL    HW221777   3.573   1.142   3.629
 6960SOL     OW21778   6.828   4.778   0.163
 6960SOL    HW121779   6.882   4.708   0.210
 6960SOL    HW221780   6.847   4.867   0.204
 6961SOL     OW21781   6.800   1.064   3.165
 6961SOL    HW121782   6.874   1.122   3.133
 6961SOL    HW221783   6.736   1.046   3.090
 6962SOL     OW21784   3.879   3.509   0.883
 6962SOL    HW121785   3.851   3.475   0.793
 6962SOL    HW221786   3.977   3.494   0.895
 6963SOL     OW21787   5.953   5.812   2.373
 6963SOL    HW121788   5.964   5.911   2.370
 6963SOL    HW221789   5.981   5.772   2.286
 6964SOL     OW21790   3.407   6.028   4.813
 6964SOL    HW121791   3.373   6.121   4.831
 6964SOL    HW221792   3.409   6.011   4.715
 6965SOL     OW21793   6.743   3.009   5.410
 6965SOL    HW121794   6.830   3.036   5.453
 6965SOL    HW221795   6.672   3.073   5.438
 6966SOL     OW21796   4.929   2.707   3.639
 6966SOL    HW121797   4.912   2.776   3.569
 6966SOL    HW221798   4.856   2.638   3.636
 6967SOL     OW21799   2.002   2.088   6.319
 6967SOL    HW121800   2.060   2.152   6.368
 6967SOL    HW221801   2.024   1.995   6.348
 6968SOL     OW21802   4.481   6.652   2.382
 6968SOL    HW121803   4.452   6.557   2.393
 6968SOL    HW221804   4.528   6.682   2.464
 6969SOL     OW21805   2.940   2.052   1.205
 6969SOL    HW121806   2.979   2.143   1.222
 6969SOL    HW221807   3.001   1.982   1.241
 6970SOL     OW21808   4.761   3.919   0.421
 6970SOL    HW121809   4.772   3.995   0.486
 6970SOL    HW221810   4.850   3.875   0.407
 6971SOL     OW21811   5.600   0.671   2.467
 6971SOL    HW121812   5.560   0.751   2.424
 6971SOL    HW221813   5.533   0.630   2.530
 6972SOL     OW21814   5.588   4.918   4.819
 6972SOL    HW121815   5.500   4.953   4.849
 6972SOL    HW221816   5.655   4.993   4.817
 6973SOL     OW21817   1.747   4.589   3.508
 6973SOL    HW121818   1.802   4.508   3.489
 6973SOL    HW221819   1.716   4.586   3.603
 6974SOL     OW21820   3.273   4.135   4.501
 6974SOL    HW121821   3.260   4.038   4.523
 6974SOL    HW221822   3.278   4.147   4.402
 6975SOL     OW21823   3.423   0.995   5.895
 6975SOL    HW121824   3.376   0.936   5.829
 6975SOL    HW221825   3.518   1.006   5.868
 6976SOL     OW21826   2.001   5.362   0.201
 6976SOL    HW121827   1.973   5.434   0.264
 6976SOL    HW221828   1.991   5.394   0.106
 6977SOL     OW21829   4.151   2.120   2.950
 6977SOL    HW121830   4.113   2.177   2.878
 6977SOL    HW221831   4.244   2.091   2.925
 6978SOL     OW21832   6.247   0.859   2.886
 6978SOL    HW121833   6.281   0.849   2.980
 6978SOL    HW221834   6.322   0.842   2.822
 6979SOL     OW21835   0.546   4.284   3.571
 6979SOL    HW121836   0.513   4.207   3.517
 6979SOL    HW221837   0.521   4.370   3.526
 6980SOL     OW21838   3.570   1.642   4.258
 6980SOL    HW121839   3.545   1.738   4.247
 6980SOL    HW221840   3.659   1.626   4.215
 6981SOL     OW21841   2.575   4.800   6.478
 6981SOL    HW121842   2.611   4.787   6.386
 6981SOL    HW221843   2.595   4.893   6.509
 6982SOL     OW21844   0.277   6.813   4.746
 6982SOL    HW121845   0.256   6.766   4.660
 6982SOL    HW221846   0.338   6.757   4.801
 6983SOL     OW21847   6.072   0.587   4.282
 6983SOL    HW121848   6.029   0.632   4.204
 6983SOL    HW221849   6.008   0.583   4.359
 6984SOL     OW21850   2.619   1.036   6.152
 6984SOL    HW121851   2.548   1.015   6.219
 6984SOL    HW221852   2.709   1.033   6.196
 6985SOL     OW21853   4.608   6.078   2.456
 6985SOL    HW121854   4.620   6.173   2.429
 6985SOL    HW221855   4.663   6.060   2.538
 6986SOL     OW21856   2.088   0.009   4.627
 6986SOL    HW121857   2.027   0.068   4.574
 6986SOL    HW221858   2.051   7.021   4.719
 6987SOL     OW21859   6.662   3.661   6.804
 6987SOL    HW121860   6.693   3.725   6.733
 6987SOL    HW221861   6.626   3.712   6.882
 6988SOL     OW21862   5.193   1.286   5.527
 6988SOL    HW121863   5.163   1.195   5.554
 6988SOL    HW221864   5.281   1.280   5.479
 6989SOL     OW21865   1.308   2.860   4.055
 6989SOL    HW121866   1.244   2.913   4.110
 6989SOL    HW221867   1.259   2.815   3.980
 6990SOL     OW21868   3.829   3.094   0.699
 6990SOL    HW121869   3.824   3.190   0.725
 6990SOL    HW221870   3.853   3.039   0.779
 6991SOL     OW21871   4.371   4.579   5.334
 6991SOL    HW121872   4.343   4.517   5.260
 6991SOL    HW221873   4.397   4.526   5.414
 6992SOL     OW21874   6.011   5.899   5.492
 6992SOL    HW121875   6.020   5.836   5.414
 6992SOL    HW221876   5.968   5.851   5.568
 6993SOL     OW21877   0.567   6.552   3.339
 6993SOL    HW121878   0.609   6.638   3.370
 6993SOL    HW221879   0.559   6.554   3.239
 6994SOL     OW21880   1.594   2.939   0.184
 6994SOL    HW121881   1.594   2.994   0.267
 6994SOL    HW221882   1.526   2.975   0.120
 6995SOL     OW21883   0.586   4.976   3.501
 6995SOL    HW121884   0.599   5.072   3.475
 6995SOL    HW221885   0.507   4.968   3.562
 6996SOL     OW21886   2.366   6.798   5.613
 6996SOL    HW121887   2.315   6.871   5.567
 6996SOL    HW221888   2.435   6.838   5.673
 6997SOL     OW21889   5.119   0.172   4.385
 6997SOL    HW121890   5.205   0.223   4.385
 6997SOL    HW221891   5.129   0.088   4.437
 6998SOL     OW21892   1.525   2.285   3.518
 6998SOL    HW121893   1.604   2.223   3.513
 6998SOL    HW221894   1.531   2.340   3.601
 6999SOL     OW21895   4.172   1.699   6.637
 6999SOL    HW121896   4.224   1.707   6.552
 6999SOL    HW221897   4.103   1.771   6.641
 7000SOL     OW21898   6.618   6.479   1.040
 7000SOL    HW121899   6.532   6.428   1.038
 7000SOL    HW221900   6.604   6.569   0.997
 7001SOL     OW21901   2.863   2.048   5.635
 7001SOL    HW121902   2.795   2.064   5.563
 7001SOL    HW221903   2.946   2.011   5.594
 7002SOL     OW21904   2.031   5.211   2.854
 7002SOL    HW121905   1.966   5.167   2.792
 7002SOL    HW221906   2.030   5.165   2.943
 7003SOL     OW21907   2.382   6.183   7.001
 7003SOL    HW121908   2.420   6.198   0.068
 7003SOL    HW221909   2.330   6.263   6.972
 7004SOL     OW21910   1.050   4.992   0.922
 7004SOL    HW121911   1.024   4.922   0.855
 7004SOL    HW221912   1.023   4.963   1.013
 7005SOL     OW21913   5.717   6.812   5.781
 7005SOL    HW121914   5.807   6.769   5.778
 7005SOL    HW221915   5.709   6.878   5.706
 7006SOL     OW21916   4.364   4.845   4.919
 7006SOL    HW121917   4.334   4.758   4.960
 7006SOL    HW221918   4.463   4.843   4.905
 7007SOL     OW21919   5.371   5.129   2.280
 7007SOL    HW121920   5.413   5.219   2.290
 7007SOL    HW221921   5.323   5.124   2.192
 7008SOL     OW21922   1.129   4.852   4.140
 7008SOL    HW121923   1.163   4.777   4.196
 7008SOL    HW221924   1.203   4.918   4.124
 7009SOL     OW21925   0.194   4.366   2.541
 7009SOL    HW121926   0.284   4.405   2.519
 7009SOL    HW221927   0.186   4.275   2.500
 7010SOL     OW21928   4.227   4.454   6.507
 7010SOL    HW121929   4.148   4.421   6.559
 7010SOL    HW221930   4.214   4.551   6.484
 7011SOL     OW21931   2.059   1.300   4.810
 7011SOL    HW121932   2.032   1.394   4.830
 7011SOL    HW221933   1.983   1.239   4.831
 7012SOL     OW21934   1.126   1.330   1.742
 7012SOL    HW121935   1.089   1.298   1.830
 7012SOL    HW221936   1.063   1.397   1.702
 7013SOL     OW21937   0.881   1.084   2.524
 7013SOL    HW121938   0.901   0.986   2.520
 7013SOL    HW221939   0.810   1.101   2.591
 7014SOL     OW21940   2.124   4.989   1.278
 7014SOL    HW121941   2.148   5.029   1.190
 7014SOL    HW221942   2.025   4.995   1.292
 7015SOL     OW21943   4.948   2.374   1.969
 7015SOL    HW121944   4.899   2.384   2.056
 7015SOL    HW221945   4.954   2.464   1.924
 7016SOL     OW21946   3.199   4.527   0.931
 7016SOL    HW121947   3.109   4.494   0.957
 7016SOL    HW221948   3.227   4.601   0.992
 7017SOL     OW21949   4.328   1.300   4.056
 7017SOL    HW121950   4.374   1.317   4.143
 7017SOL    HW221951   4.360   1.366   3.988
 7018SOL     OW21952   0.264   4.831   3.189
 7018SOL    HW121953   0.338   4.895   3.169
 7018SOL    HW221954   0.266   4.807   3.286
 7019SOL     OW21955   1.916   6.314   1.012
 7019SOL    HW121956   1.981   6.386   0.988
 7019SOL    HW221957   1.826   6.354   1.026
 7020SOL     OW21958   0.111   6.322   6.111
 7020SOL    HW121959   0.207   6.347   6.100
 7020SOL    HW221960   0.100   6.223   6.103
 7021SOL     OW21961   3.692   6.945   5.418
 7021SOL    HW121962   3.689   0.013   5.381
 7021SOL    HW221963   3.605   6.923   5.461
 7022SOL     OW21964   4.954   5.230   6.074
 7022SOL    HW121965   4.933   5.220   6.171
 7022SOL    HW221966   4.908   5.311   6.037
 7023SOL     OW21967   5.991   4.151   3.066
 7023SOL    HW121968   6.003   4.075   3.129
 7023SOL    HW221969   6.048   4.228   3.096
 7024SOL     OW21970   0.166   6.088   1.046
 7024SOL    HW121971   0.163   6.037   1.133
 7024SOL    HW221972   0.073   6.113   1.019
 7025SOL     OW21973   2.825   0.618   6.475
 7025SOL    HW121974   2.819   0.718   6.474
 7025SOL    HW221975   2.868   0.587   6.390
 7026SOL     OW21976   3.819   1.665   0.900
 7026SOL    HW121977   3.728   1.685   0.934
 7026SOL    HW221978   3.884   1.732   0.936
 7027SOL     OW21979   4.543   6.931   4.405
 7027SOL    HW121980   4.560   6.943   4.502
 7027SOL    HW221981   4.485   6.851   4.390
 7028SOL     OW21982   3.298   6.789   4.035
 7028SOL    HW121983   3.343   6.752   4.116
 7028SOL    HW221984   3.354   6.771   3.955
 7029SOL     OW21985   3.722   0.105   4.949
 7029SOL    HW121986   3.710   0.203   4.932
 7029SOL    HW221987   3.797   0.070   4.892
 7030SOL     OW21988   2.090   3.549   3.404
 7030SOL    HW121989   2.011   3.517   3.457
 7030SOL    HW221990   2.069   3.638   3.364
 7031SOL     OW21991   1.822   0.072   5.065
 7031SOL    HW121992   1.864   0.067   5.155
 7031SOL    HW221993   1.759   0.150   5.061
 7032SOL     OW21994   6.569   2.224   2.717
 7032SOL    HW121995   6.624   2.307   2.706
 7032SOL    HW221996   6.627   2.149   2.749
 7033SOL     OW21997   6.802   0.038   4.761
 7033SOL    HW121998   6.832   7.001   4.834
 7033SOL    HW221999   6.872   0.041   4.689
 7034SOL     OW22000   6.809   5.713   3.036
 7034SOL    HW122001   6.882   5.757   2.984
 7034SOL    HW222002   6.806   5.751   3.129
 7035SOL     OW22003   6.576   5.175   2.039
 7035SOL    HW122004   6.520   5.093   2.046
 7035SOL    HW222005   6.518   5.256   2.046
 7036SOL     OW22006   6.649   4.063   1.285
 7036SOL    HW122007   6.574   4.060   1.219
 7036SOL    HW222008   6.668   4.158   1.310
 7037SOL     OW22009   0.913   0.202   0.287
 7037SOL    HW122010   0.969   0.120   0.273
 7037SOL    HW222011   0.890   0.241   0.198
 7038SOL     OW22012   1.559   3.758   4.367
 7038SOL    HW122013   1.594   3.727   4.278
 7038SOL    HW222014   1.465   3.726   4.378
 7039SOL     OW22015   4.277   1.976   6.207
 7039SOL    HW122016   4.368   2.017   6.192
 7039SOL    HW222017   4.246   1.932   6.123
 7040SOL     OW22018   4.894   2.688   6.284
 7040SOL    HW122019   4.811   2.685   6.341
 7040SOL    HW222020   4.908   2.781   6.249
 7041SOL     OW22021   2.724   1.321   2.677
 7041SOL    HW122022   2.686   1.265   2.604
 7041SOL    HW222023   2.651   1.363   2.730
 7042SOL     OW22024   1.810   0.479   6.864
 7042SOL    HW122025   1.906   0.494   6.888
 7042SOL    HW222026   1.758   0.563   6.880
 7043SOL     OW22027   1.506   2.497   2.898
 7043SOL    HW122028   1.562   2.576   2.873
 7043SOL    HW222029   1.415   2.529   2.924
 7044SOL     OW22030   4.842   6.153   2.224
 7044SOL    HW122031   4.773   6.080   2.215
 7044SOL    HW222032   4.796   6.242   2.229
 7045SOL     OW22033   5.991   5.033   1.242
 7045SOL    HW122034   5.993   4.946   1.193
 7045SOL    HW222035   5.994   5.108   1.175
 7046SOL     OW22036   2.683   0.779   4.360
 7046SOL    HW122037   2.672   0.700   4.299
 7046SOL    HW222038   2.611   0.776   4.430
 7047SOL     OW22039   2.028   1.495   3.866
 7047SOL    HW122040   2.046   1.410   3.817
 7047SOL    HW222041   1.966   1.477   3.943
 7048SOL     OW22042   6.864   6.489   0.402
 7048SOL    HW122043   6.941   6.460   0.345
 7048SOL    HW222044   6.819   6.408   0.440
 7049SOL     OW22045   1.646   1.025   0.515
 7049SOL    HW122046   1.714   0.995   0.581
 7049SOL    HW222047   1.689   1.086   0.448
 7050SOL     OW22048   4.229   3.549   5.254
 7050SOL    HW122049   4.250   3.451   5.259
 7050SOL    HW222050   4.314   3.601   5.250
 7051SOL     OW22051   6.755   6.378   2.236
 7051SOL    HW122052   6.709   6.289   2.238
 7051SOL    HW222053   6.843   6.369   2.189
 7052SOL     OW22054   6.779   1.709   3.784
 7052SOL    HW122055   6.686   1.684   3.812
 7052SOL    HW222056   6.774   1.771   3.706
 7053SOL     OW22057   6.432   4.212   5.867
 7053SOL    HW122058   6.509   4.251   5.817
 7053SOL    HW222059   6.369   4.285   5.893
 7054SOL     OW22060   6.663   0.152   1.885
 7054SOL    HW122061   6.668   0.156   1.786
 7054SOL    HW222062   6.596   0.219   1.918
 7055SOL     OW22063   3.803   6.802   5.229
 7055SOL    HW122064   3.714   6.782   5.189
 7055SOL    HW222065   3.791   6.859   5.310
 7056SOL     OW22066   5.057   5.026   4.356
 7056SOL    HW122067   5.011   4.975   4.428
 7056SOL    HW222068   5.008   5.013   4.270
 7057SOL     OW22069   0.604   6.212   3.073
 7057SOL    HW122070   0.593   6.115   3.097
 7057SOL    HW222071   0.538   6.266   3.125
 7058SOL     OW22072   6.797   5.431   5.169
 7058SOL    HW122073   6.740   5.434   5.251
 7058SOL    HW222074   6.809   5.523   5.133
 7059SOL     OW22075   2.257   0.930   2.510
 7059SOL    HW122076   2.277   0.850   2.453
 7059SOL    HW222077   2.319   1.005   2.485
 7060SOL     OW22078   3.230   0.069   1.267
 7060SOL    HW122079   3.192   0.066   1.359
 7060SOL    HW222080   3.230   7.002   1.227
 7061SOL     OW22081   0.378   0.874   2.885
 7061SOL    HW122082   0.437   0.866   2.805
 7061SOL    HW222083   0.364   0.784   2.926
 7062SOL     OW22084   6.436   1.421   5.318
 7062SOL    HW122085   6.447   1.418   5.219
 7062SOL    HW222086   6.421   1.516   5.346
 7063SOL     OW22087   2.517   0.147   1.342
 7063SOL    HW122088   2.507   0.048   1.347
 7063SOL    HW222089   2.513   0.185   1.435
 7064SOL     OW22090   4.432   2.503   0.254
 7064SOL    HW122091   4.392   2.413   0.272
 7064SOL    HW222092   4.439   2.555   0.339
 7065SOL     OW22093   4.261   4.153   1.728
 7065SOL    HW122094   4.260   4.064   1.683
 7065SOL    HW222095   4.336   4.156   1.794
 7066SOL     OW22096   3.038   6.532   0.637
 7066SOL    HW122097   3.038   6.592   0.717
 7066SOL    HW222098   2.987   6.449   0.657
 7067SOL     OW22099   0.170   3.906   4.243
 7067SOL    HW122100   0.138   4.000   4.255
 7067SOL    HW222101   0.172   3.860   4.332
 7068SOL     OW22102   1.124   0.797   2.749
 7068SOL    HW122103   1.107   0.894   2.732
 7068SOL    HW222104   1.154   0.753   2.665
 7069SOL     OW22105   1.638   3.827   4.872
 7069SOL    HW122106   1.714   3.890   4.883
 7069SOL    HW222107   1.671   3.733   4.878
 7070SOL     OW22108   5.103   6.006   4.437
 7070SOL    HW122109   5.140   5.923   4.396
 7070SOL    HW222110   5.150   6.086   4.399
 7071SOL     OW22111   1.555   6.426   5.404
 7071SOL    HW122112   1.489   6.500   5.411
 7071SOL    HW222113   1.509   6.342   5.374
 7072SOL     OW22114   6.672   6.365   6.399
 7072SOL    HW122115   6.738   6.386   6.326
 7072SOL    HW222116   6.624   6.449   6.425
 7073SOL     OW22117   1.335   1.383   6.570
 7073SOL    HW122118   1.351   1.468   6.620
 7073SOL    HW222119   1.246   1.346   6.596
 7074SOL     OW22120   3.042   2.112   0.694
 7074SOL    HW122121   3.120   2.075   0.644
 7074SOL    HW222122   2.960   2.058   0.672
 7075SOL     OW22123   1.086   5.749   3.160
 7075SOL    HW122124   1.095   5.829   3.101
 7075SOL    HW222125   1.018   5.686   3.120
 7076SOL     OW22126   3.468   2.728   6.863
 7076SOL    HW122127   3.542   2.691   6.808
 7076SOL    HW222128   3.448   2.666   6.939
 7077SOL     OW22129   1.600   4.926   5.584
 7077SOL    HW122130   1.695   4.955   5.599
 7077SOL    HW222131   1.595   4.869   5.501
 7078SOL     OW22132   6.700   0.360   3.085
 7078SOL    HW122133   6.651   0.279   3.051
 7078SOL    HW222134   6.715   0.423   3.009
 7079SOL     OW22135   5.304   5.485   5.524
 7079SOL    HW122136   5.208   5.459   5.530
 7079SOL    HW222137   5.348   5.435   5.450
 7080SOL     OW22138   5.665   0.304   4.097
 7080SOL    HW122139   5.720   0.230   4.058
 7080SOL    HW222140   5.578   0.268   4.130
 7081SOL     OW22141   3.456   1.107   5.203
 7081SOL    HW122142   3.512   1.051   5.264
 7081SOL    HW222143   3.506   1.189   5.178
 7082SOL     OW22144   5.569   1.169   6.506
 7082SOL    HW122145   5.490   1.115   6.478
 7082SOL    HW222146   5.653   1.121   6.481
 7083SOL     OW22147   3.653   6.723   5.689
 7083SOL    HW122148   3.621   6.780   5.613
 7083SOL    HW222149   3.601   6.746   5.772
 7084SOL     OW22150   6.241   6.468   0.382
 7084SOL    HW122151   6.215   6.544   0.442
 7084SOL    HW222152   6.237   6.382   0.433
 7085SOL     OW22153   2.714   2.614   0.945
 7085SOL    HW122154   2.635   2.556   0.927
 7085SOL    HW222155   2.693   2.708   0.916
 7086SOL     OW22156   6.783   0.657   6.701
 7086SOL    HW122157   6.730   0.733   6.738
 7086SOL    HW222158   6.739   0.571   6.726
 7087SOL     OW22159   2.079   2.742   4.267
 7087SOL    HW122160   2.148   2.798   4.312
 7087SOL    HW222161   1.995   2.795   4.255
 7088SOL     OW22162   0.429   2.210   5.310
 7088SOL    HW122163   0.402   2.302   5.283
 7088SOL    HW222164   0.437   2.153   5.228
 7089SOL     OW22165   2.913   2.100   0.231
 7089SOL    HW122166   2.862   2.015   0.223
 7089SOL    HW222167   2.907   2.151   0.146
 7090SOL     OW22168   2.311   2.931   4.652
 7090SOL    HW122169   2.323   2.862   4.723
 7090SOL    HW222170   2.241   2.996   4.681
 7091SOL     OW22171   0.350   6.264   0.285
 7091SOL    HW122172   0.298   6.348   0.273
 7091SOL    HW222173   0.415   6.275   0.360
 7092SOL     OW22174   3.100   3.445   6.801
 7092SOL    HW122175   3.178   3.498   6.770
 7092SOL    HW222176   3.131   3.355   6.832
 7093SOL     OW22177   3.865   3.046   4.938
 7093SOL    HW122178   3.945   3.093   4.902
 7093SOL    HW222179   3.887   3.003   5.025
 7094SOL     OW22180   0.895   0.665   6.285
 7094SOL    HW122181   0.872   0.671   6.188
 7094SOL    HW222182   0.900   0.569   6.312
 7095SOL     OW22183   0.208   3.368   6.627
 7095SOL    HW122184   0.199   3.271   6.605
 7095SOL    HW222185   0.305   3.392   6.632
 7096SOL     OW22186   5.207   0.965   2.197
 7096SOL    HW122187   5.223   1.045   2.253
 7096SOL    HW222188   5.223   0.987   2.101
 7097SOL     OW22189   0.669   0.795   1.795
 7097SOL    HW122190   0.750   0.843   1.763
 7097SOL    HW222191   0.604   0.860   1.835
 7098SOL     OW22192   1.656   6.711   6.024
 7098SOL    HW122193   1.578   6.688   6.083
 7098SOL    HW222194   1.733   6.652   6.047
 7099SOL     OW22195   0.322   0.883   6.227
 7099SOL    HW122196   0.358   0.883   6.320
 7099SOL    HW222197   0.387   0.838   6.166
 7100SOL     OW22198   5.534   2.696   0.945
 7100SOL    HW122199   5.565   2.628   0.878
 7100SOL    HW222200   5.453   2.662   0.992
 7101SOL     OW22201   1.903   0.145   4.444
 7101SOL    HW122202   1.865   0.230   4.483
 7101SOL    HW222203   1.832   0.097   4.393
 7102SOL     OW22204   4.556   2.620   0.505
 7102SOL    HW122205   4.531   2.640   0.600
 7102SOL    HW222206   4.652   2.643   0.489
 7103SOL     OW22207   3.388   6.603   6.325
 7103SOL    HW122208   3.455   6.634   6.392
 7103SOL    HW222209   3.404   6.507   6.303
 7104SOL     OW22210   1.109   1.876   2.632
 7104SOL    HW122211   1.069   1.954   2.680
 7104SOL    HW222212   1.152   1.907   2.547
 7105SOL     OW22213   2.491   4.119   5.332
 7105SOL    HW122214   2.581   4.089   5.364
 7105SOL    HW222215   2.453   4.049   5.271
 7106SOL     OW22216   3.085   2.632   5.326
 7106SOL    HW122217   2.988   2.615   5.338
 7106SOL    HW222218   3.126   2.556   5.275
 7107SOL     OW22219   2.761   0.857   0.037
 7107SOL    HW122220   2.831   0.785   0.043
 7107SOL    HW222221   2.678   0.826   0.083
 7108SOL     OW22222   4.583   6.738   1.561
 7108SOL    HW122223   4.644   6.817   1.556
 7108SOL    HW222224   4.494   6.767   1.598
 7109SOL     OW22225   3.558   6.098   6.440
 7109SOL    HW122226   3.658   6.107   6.432
 7109SOL    HW222227   3.532   6.003   6.424
 7110SOL     OW22228   3.833   4.894   3.432
 7110SOL    HW122229   3.888   4.813   3.448
 7110SOL    HW222230   3.782   4.917   3.514
 7111SOL     OW22231   1.412   2.743   3.440
 7111SOL    HW122232   1.367   2.697   3.517
 7111SOL    HW222233   1.441   2.675   3.372
 7112SOL     OW22234   1.448   6.801   2.684
 7112SOL    HW122235   1.456   6.833   2.778
 7112SOL    HW222236   1.445   6.880   2.622
 7113SOL     OW22237   3.567   4.153   4.618
 7113SOL    HW122238   3.473   4.186   4.609
 7113SOL    HW222239   3.586   4.131   4.714
 7114SOL     OW22240   4.131   0.624   1.189
 7114SOL    HW122241   4.090   0.546   1.142
 7114SOL    HW222242   4.169   0.687   1.122
 7115SOL     OW22243   4.248   2.069   1.415
 7115SOL    HW122244   4.172   2.134   1.425
 7115SOL    HW222245   4.230   1.989   1.472
 7116SOL     OW22246   5.929   3.531   2.960
 7116SOL    HW122247   5.872   3.595   2.910
 7116SOL    HW222248   5.991   3.485   2.896
 7117SOL     OW22249   6.057   6.416   1.701
 7117SOL    HW122250   5.973   6.416   1.756
 7117SOL    HW222251   6.080   6.322   1.676
 7118SOL     OW22252   6.751   3.206   1.774
 7118SOL    HW122253   6.720   3.185   1.867
 7118SOL    HW222254   6.839   3.252   1.778
 7119SOL     OW22255   6.584   1.387   2.933
 7119SOL    HW122256   6.673   1.360   2.897
 7119SOL    HW222257   6.539   1.308   2.974
 7120SOL     OW22258   5.026   0.183   3.337
 7120SOL    HW122259   4.931   0.156   3.324
 7120SOL    HW222260   5.054   0.166   3.431
 7121SOL     OW22261   3.736   6.181   1.874
 7121SOL    HW122262   3.829   6.148   1.889
 7121SOL    HW222263   3.726   6.273   1.913
 7122SOL     OW22264   6.636   0.601   0.019
 7122SOL    HW122265   6.701   0.653   6.989
 7122SOL    HW222266   6.544   0.613   7.007
 7123SOL     OW22267   2.478   4.601   1.252
 7123SOL    HW122268   2.413   4.557   1.190
 7123SOL    HW222269   2.462   4.570   1.345
 7124SOL     OW22270   0.702   5.332   1.376
 7124SOL    HW122271   0.794   5.299   1.397
 7124SOL    HW222272   0.659   5.365   1.460
 7125SOL     OW22273   6.607   6.396   2.477
 7125SOL    HW122274   6.647   6.361   2.562
 7125SOL    HW222275   6.673   6.388   2.403
 7126SOL     OW22276   0.695   4.514   0.635
 7126SOL    HW122277   0.627   4.469   0.693
 7126SOL    HW222278   0.768   4.449   0.613
 7127SOL     OW22279   3.689   6.879   4.613
 7127SOL    HW122280   3.633   6.817   4.668
 7127SOL    HW222281   3.704   6.839   4.523
 7128SOL     OW22282   2.722   4.527   1.591
 7128SOL    HW122283   2.761   4.503   1.680
 7128SOL    HW222284   2.655   4.600   1.603
 7129SOL     OW22285   2.651   1.448   1.730
 7129SOL    HW122286   2.553   1.450   1.747
 7129SOL    HW222287   2.686   1.541   1.728
 7130SOL     OW22288   2.379   5.812   2.193
 7130SOL    HW122289   2.331   5.734   2.152
 7130SOL    HW222290   2.331   5.897   2.172
 7131SOL     OW22291   2.880   1.231   3.156
 7131SOL    HW122292   2.921   1.273   3.236
 7131SOL    HW222293   2.916   1.273   3.073
 7132SOL     OW22294   3.202   4.083   3.054
 7132SOL    HW122295   3.233   4.066   2.960
 7132SOL    HW222296   3.162   4.000   3.092
 7133SOL     OW22297   5.090   5.081   2.474
 7133SOL    HW122298   5.150   5.093   2.553
 7133SOL    HW222299   5.014   5.147   2.479
 7134SOL     OW22300   5.147   3.871   3.742
 7134SOL    HW122301   5.053   3.891   3.714
 7134SOL    HW222302   5.156   3.773   3.763
 7135SOL     OW22303   1.071   1.662   5.135
 7135SOL    HW122304   1.144   1.644   5.201
 7135SOL    HW222305   1.038   1.755   5.146
 7136SOL     OW22306   2.316   1.843   0.194
 7136SOL    HW122307   2.319   1.837   0.094
 7136SOL    HW222308   2.220   1.852   0.223
 7137SOL     OW22309   4.160   0.974   4.822
 7137SOL    HW122310   4.124   1.042   4.759
 7137SOL    HW222311   4.175   1.017   4.912
 7138SOL     OW22312   2.310   4.012   0.028
 7138SOL    HW122313   2.252   3.985   0.105
 7138SOL    HW222314   2.257   4.008   6.968
 7139SOL     OW22315   3.405   2.222   0.776
 7139SOL    HW122316   3.415   2.262   0.867
 7139SOL    HW222317   3.369   2.130   0.783
 7140SOL     OW22318   6.194   3.644   5.239
 7140SOL    HW122319   6.218   3.598   5.153
 7140SOL    HW222320   6.097   3.669   5.237
 7141SOL     OW22321   2.710   6.744   0.510
 7141SOL    HW122322   2.760   6.658   0.502
 7141SOL    HW222323   2.770   6.820   0.488
 7142SOL     OW22324   3.866   6.542   4.309
 7142SOL    HW122325   3.790   6.491   4.268
 7142SOL    HW222326   3.879   6.513   4.403
 7143SOL     OW22327   1.802   3.561   4.713
 7143SOL    HW122328   1.872   3.626   4.683
 7143SOL    HW222329   1.835   3.513   4.795
 7144SOL     OW22330   0.711   2.675   4.059
 7144SOL    HW122331   0.685   2.600   4.119
 7144SOL    HW222332   0.723   2.758   4.113
 7145SOL     OW22333   4.074   0.241   6.460
 7145SOL    HW122334   3.995   0.232   6.521
 7145SOL    HW222335   4.066   0.175   6.385
 7146SOL     OW22336   2.996   4.398   0.470
 7146SOL    HW122337   2.982   4.382   0.373
 7146SOL    HW222338   3.070   4.338   0.503
 7147SOL     OW22339   0.192   0.491   4.199
 7147SOL    HW122340   0.151   0.499   4.290
 7147SOL    HW222341   0.153   0.412   4.152
 7148SOL     OW22342   0.987   1.264   0.630
 7148SOL    HW122343   0.951   1.340   0.684
 7148SOL    HW222344   0.939   1.260   0.542
 7149SOL     OW22345   6.287   1.132   3.703
 7149SOL    HW122346   6.217   1.188   3.657
 7149SOL    HW222347   6.253   1.039   3.714
 7150SOL     OW22348   5.567   3.458   7.008
 7150SOL    HW122349   5.471   3.437   0.000
 7150SOL    HW222350   5.609   3.494   0.067
 7151SOL     OW22351   2.432   6.341   1.067
 7151SOL    HW122352   2.336   6.326   1.092
 7151SOL    HW222353   2.472   6.255   1.034
 7152SOL     OW22354   1.266   2.463   3.924
 7152SOL    HW122355   1.248   2.445   4.021
 7152SOL    HW222356   1.347   2.412   3.895
 7153SOL     OW22357   3.698   1.492   3.842
 7153SOL    HW122358   3.669   1.517   3.750
 7153SOL    HW222359   3.780   1.543   3.867
 7154SOL     OW22360   4.711   6.211   4.755
 7154SOL    HW122361   4.790   6.162   4.716
 7154SOL    HW222362   4.627   6.173   4.718
 7155SOL     OW22363   3.009   0.557   1.630
 7155SOL    HW122364   2.916   0.535   1.603
 7155SOL    HW222365   3.009   0.596   1.722
 7156SOL     OW22366   0.224   5.897   4.401
 7156SOL    HW122367   0.215   5.798   4.386
 7156SOL    HW222368   0.307   5.929   4.357
 7157SOL     OW22369   4.898   4.511   1.407
 7157SOL    HW122370   4.814   4.553   1.373
 7157SOL    HW222371   4.958   4.489   1.330
 7158SOL     OW22372   5.557   6.565   4.659
 7158SOL    HW122373   5.566   6.501   4.582
 7158SOL    HW222374   5.617   6.644   4.643
 7159SOL     OW22375   0.489   5.552   0.187
 7159SOL    HW122376   0.434   5.583   0.109
 7159SOL    HW222377   0.448   5.585   0.272
 7160SOL     OW22378   5.991   0.649   2.258
 7160SOL    HW122379   5.957   0.595   2.335
 7160SOL    HW222380   5.929   0.726   2.241
 7161SOL     OW22381   3.856   4.003   3.430
 7161SOL    HW122382   3.805   4.027   3.347
 7161SOL    HW222383   3.797   4.015   3.510
 7162SOL     OW22384   2.544   4.762   3.588
 7162SOL    HW122385   2.609   4.821   3.541
 7162SOL    HW222386   2.454   4.770   3.544
 7163SOL     OW22387   2.418   0.041   3.311
 7163SOL    HW122388   2.479   0.099   3.256
 7163SOL    HW222389   2.454   6.973   3.313
 7164SOL     OW22390   2.497   1.737   3.251
 7164SOL    HW122391   2.411   1.786   3.262
 7164SOL    HW222392   2.533   1.751   3.159
 7165SOL     OW22393   5.185   0.335   1.611
 7165SOL    HW122394   5.118   0.409   1.604
 7165SOL    HW222395   5.206   0.301   1.519
 7166SOL     OW22396   5.106   5.483   2.275
 7166SOL    HW122397   5.199   5.515   2.288
 7166SOL    HW222398   5.104   5.414   2.202
 7167SOL     OW22399   4.595   2.923   5.208
 7167SOL    HW122400   4.692   2.922   5.234
 7167SOL    HW222401   4.580   2.856   5.135
 7168SOL     OW22402   1.030   1.299   4.584
 7168SOL    HW122403   1.092   1.282   4.508
 7168SOL    HW222404   1.080   1.341   4.660
 7169SOL     OW22405   1.847   2.653   6.192
 7169SOL    HW122406   1.939   2.683   6.168
 7169SOL    HW222407   1.791   2.649   6.109
 7170SOL     OW22408   6.859   5.120   4.597
 7170SOL    HW122409   6.853   5.055   4.672
 7170SOL    HW222410   6.916   5.082   4.524
 7171SOL     OW22411   3.899   2.915   5.151
 7171SOL    HW122412   3.831   2.878   5.214
 7171SOL    HW222413   3.952   2.840   5.111
 7172SOL     OW22414   1.328   0.017   0.987
 7172SOL    HW122415   1.242   0.016   1.038
 7172SOL    HW222416   1.367   0.109   0.991
 7173SOL     OW22417   6.001   6.215   5.722
 7173SOL    HW122418   6.010   6.208   5.623
 7173SOL    HW222419   5.947   6.138   5.756
 7174SOL     OW22420   0.693   5.529   0.014
 7174SOL    HW122421   0.625   5.536   0.087
 7174SOL    HW222422   0.678   5.445   6.986
 7175SOL     OW22423   6.509   3.225   4.865
 7175SOL    HW122424   6.589   3.263   4.818
 7175SOL    HW222425   6.535   3.140   4.912
 7176SOL     OW22426   6.144   3.899   1.292
 7176SOL    HW122427   6.186   3.826   1.239
 7176SOL    HW222428   6.214   3.969   1.313
 7177SOL     OW22429   1.207   6.025   1.786
 7177SOL    HW122430   1.143   6.088   1.830
 7177SOL    HW222431   1.301   6.055   1.803
 7178SOL     OW22432   0.228   2.863   6.453
 7178SOL    HW122433   0.259   2.862   6.358
 7178SOL    HW222434   0.129   2.848   6.455
 7179SOL     OW22435   2.360   4.687   6.313
 7179SOL    HW122436   2.412   4.604   6.331
 7179SOL    HW222437   2.401   4.763   6.363
 7180SOL     OW22438   1.031   6.655   2.686
 7180SOL    HW122439   0.978   6.592   2.743
 7180SOL    HW222440   1.086   6.715   2.744
 7181SOL     OW22441   4.953   0.350   2.431
 7181SOL    HW122442   4.883   0.297   2.384
 7181SOL    HW222443   4.910   0.417   2.492
 7182SOL     OW22444   2.876   3.668   5.307
 7182SOL    HW122445   2.857   3.586   5.362
 7182SOL    HW222446   2.810   3.739   5.331
 7183SOL     OW22447   1.236   5.461   3.159
 7183SOL    HW122448   1.139   5.485   3.159
 7183SOL    HW222449   1.262   5.425   3.070
 7184SOL     OW22450   1.703   6.404   3.133
 7184SOL    HW122451   1.702   6.504   3.126
 7184SOL    HW222452   1.782   6.376   3.188
 7185SOL     OW22453   4.071   2.255   6.722
 7185SOL    HW122454   4.034   2.165   6.747
 7185SOL    HW222455   4.072   2.264   6.623
 7186SOL     OW22456   0.633   6.819   4.292
 7186SOL    HW122457   0.664   6.733   4.332
 7186SOL    HW222458   0.711   6.881   4.284
 7187SOL     OW22459   2.378   5.321   1.343
 7187SOL    HW122460   2.431   5.236   1.337
 7187SOL    HW222461   2.401   5.380   1.266
 7188SOL     OW22462   5.568   0.850   1.827
 7188SOL    HW122463   5.534   0.905   1.903
 7188SOL    HW222464   5.614   0.909   1.761
 7189SOL     OW22465   6.498   0.679   4.817
 7189SOL    HW122466   6.484   0.650   4.912
 7189SOL    HW222467   6.409   0.692   4.774
 7190SOL     OW22468   4.833   5.273   3.880
 7190SOL    HW122469   4.867   5.346   3.821
 7190SOL    HW222470   4.745   5.240   3.845
 7191SOL     OW22471   1.252   2.959   2.212
 7191SOL    HW122472   1.313   2.995   2.282
 7191SOL    HW222473   1.171   3.017   2.205
 7192SOL     OW22474   4.101   5.299   5.769
 7192SOL    HW122475   4.079   5.202   5.759
 7192SOL    HW222476   4.091   5.345   5.681
 7193SOL     OW22477   4.760   1.269   3.053
 7193SOL    HW122478   4.836   1.332   3.071
 7193SOL    HW222479   4.684   1.291   3.114
 7194SOL     OW22480   3.177   1.778   1.578
 7194SOL    HW122481   3.211   1.684   1.582
 7194SOL    HW222482   3.127   1.799   1.662
 7195SOL     OW22483   0.509   5.269   1.982
 7195SOL    HW122484   0.474   5.270   1.889
 7195SOL    HW222485   0.505   5.361   2.021
 7196SOL     OW22486   3.879   3.273   1.656
 7196SOL    HW122487   3.910   3.292   1.563
 7196SOL    HW222488   3.951   3.225   1.707
 7197SOL     OW22489   1.542   1.536   5.322
 7197SOL    HW122490   1.535   1.601   5.398
 7197SOL    HW222491   1.489   1.454   5.343
 7198SOL     OW22492   1.084   5.635   6.809
 7198SOL    HW122493   1.096   5.550   6.756
 7198SOL    HW222494   1.028   5.699   6.757
 7199SOL     OW22495   6.261   6.706   2.738
 7199SOL    HW122496   6.320   6.636   2.777
 7199SOL    HW222497   6.314   6.762   2.674
 7200SOL     OW22498   2.037   1.899   1.321
 7200SOL    HW122499   2.131   1.863   1.322
 7200SOL    HW222500   2.032   1.975   1.255
 7201SOL     OW22501   2.508   4.477   3.553
 7201SOL    HW122502   2.505   4.570   3.589
 7201SOL    HW222503   2.587   4.467   3.492
 7202SOL     OW22504   3.941   0.418   5.964
 7202SOL    HW122505   3.846   0.441   5.985
 7202SOL    HW222506   3.961   0.326   5.999
 7203SOL     OW22507   6.297   0.590   6.668
 7203SOL    HW122508   6.348   0.662   6.620
 7203SOL    HW222509   6.237   0.633   6.737
 7204SOL     OW22510   5.670   1.397   2.184
 7204SOL    HW122511   5.667   1.302   2.151
 7204SOL    HW222512   5.755   1.440   2.152
 7205SOL     OW22513   2.135   4.601   1.782
 7205SOL    HW122514   2.162   4.567   1.872
 7205SOL    HW222515   2.111   4.523   1.723
 7206SOL     OW22516   5.662   1.507   1.824
 7206SOL    HW122517   5.615   1.496   1.736
 7206SOL    HW222518   5.760   1.501   1.810
 7207SOL     OW22519   4.641   0.185   1.702
 7207SOL    HW122520   4.600   0.239   1.775
 7207SOL    HW222521   4.619   0.227   1.614
 7208SOL     OW22522   2.871   6.916   4.869
 7208SOL    HW122523   2.937   6.880   4.803
 7208SOL    HW222524   2.796   6.960   4.820
 7209SOL     OW22525   3.872   3.588   4.640
 7209SOL    HW122526   3.814   3.556   4.565
 7209SOL    HW222527   3.933   3.660   4.607
 7210SOL     OW22528   4.274   0.584   4.093
 7210SOL    HW122529   4.222   0.668   4.080
 7210SOL    HW222530   4.219   0.517   4.143
 7211SOL     OW22531   1.716   5.336   2.516
 7211SOL    HW122532   1.742   5.433   2.522
 7211SOL    HW222533   1.786   5.286   2.465
 7212SOL     OW22534   5.066   6.943   4.493
 7212SOL    HW122535   5.071   6.911   4.398
 7212SOL    HW222536   5.090   6.868   4.555
 7213SOL     OW22537   5.391   0.515   5.449
 7213SOL    HW122538   5.491   0.513   5.453
 7213SOL    HW222539   5.358   0.429   5.410
 7214SOL     OW22540   0.727   4.770   4.829
 7214SOL    HW122541   0.752   4.690   4.774
 7214SOL    HW222542   0.640   4.752   4.876
 7215SOL     OW22543   0.876   3.414   3.021
 7215SOL    HW122544   0.910   3.321   3.007
 7215SOL    HW222545   0.807   3.435   2.951
 7216SOL     OW22546   2.106   1.434   1.445
 7216SOL    HW122547   2.135   1.512   1.390
 7216SOL    HW222548   2.011   1.446   1.473
 7217SOL     OW22549   0.982   3.086   2.216
 7217SOL    HW122550   0.976   2.995   2.257
 7217SOL    HW222551   0.898   3.136   2.236
 7218SOL     OW22552   6.142   2.481   5.769
 7218SOL    HW122553   6.167   2.551   5.836
 7218SOL    HW222554   6.077   2.519   5.703
 7219SOL     OW22555   4.006   1.143   1.439
 7219SOL    HW122556   3.931   1.166   1.377
 7219SOL    HW222557   4.018   1.044   1.442
 7220SOL     OW22558   6.858   0.831   2.867
 7220SOL    HW122559   6.794   0.846   2.943
 7220SOL    HW222560   6.867   0.914   2.813
 7221SOL     OW22561   5.727   5.088   5.061
 7221SOL    HW122562   5.734   5.143   5.144
 7221SOL    HW222563   5.770   5.136   4.985
 7222SOL     OW22564   5.981   6.773   2.715
 7222SOL    HW122565   6.081   6.786   2.712
 7222SOL    HW222566   5.951   6.767   2.810
 7223SOL     OW22567   3.867   0.466   5.300
 7223SOL    HW122568   3.951   0.448   5.351
 7223SOL    HW222569   3.883   0.448   5.203
 7224SOL     OW22570   4.747   0.301   4.417
 7224SOL    HW122571   4.756   0.235   4.492
 7224SOL    HW222572   4.798   0.268   4.338
 7225SOL     OW22573   2.044   6.987   0.337
 7225SOL    HW122574   1.950   7.019   0.322
 7225SOL    HW222575   2.108   0.029   0.298
 7226SOL     OW22576   5.821   6.814   0.140
 7226SOL    HW122577   5.728   6.851   0.134
 7226SOL    HW222578   5.862   6.812   0.049
 7227SOL     OW22579   6.579   2.869   6.197
 7227SOL    HW122580   6.604   2.963   6.176
 7227SOL    HW222581   6.596   2.849   6.293
 7228SOL     OW22582   1.756   0.858   2.752
 7228SOL    HW122583   1.657   0.871   2.748
 7228SOL    HW222584   1.776   0.761   2.767
 7229SOL     OW22585   0.616   0.537   3.946
 7229SOL    HW122586   0.592   0.588   4.029
 7229SOL    HW222587   0.607   0.439   3.963
 7230SOL     OW22588   5.703   4.823   2.869
 7230SOL    HW122589   5.673   4.734   2.902
 7230SOL    HW222590   5.682   4.831   2.772
 7231SOL     OW22591   5.673   1.437   6.495
 7231SOL    HW122592   5.660   1.499   6.572
 7231SOL    HW222593   5.628   1.350   6.514
 7232SOL     OW22594   3.620   4.305   0.837
 7232SOL    HW122595   3.602   4.253   0.920
 7232SOL    HW222596   3.708   4.351   0.844
 7233SOL     OW22597   0.267   2.539   5.797
 7233SOL    HW122598   0.318   2.606   5.851
 7233SOL    HW222599   0.240   2.463   5.857
 7234SOL     OW22600   5.573   1.776   2.684
 7234SOL    HW122601   5.482   1.737   2.694
 7234SOL    HW222602   5.574   1.869   2.720
 7235SOL     OW22603   6.360   2.905   4.770
 7235SOL    HW122604   6.445   2.860   4.741
 7235SOL    HW222605   6.381   2.997   4.803
 7236SOL     OW22606   3.481   1.175   3.320
 7236SOL    HW122607   3.501   1.161   3.223
 7236SOL    HW222608   3.400   1.122   3.345
 7237SOL     OW22609   6.435   5.791   6.006
 7237SOL    HW122610   6.491   5.709   6.013
 7237SOL    HW222611   6.339   5.767   6.017
 7238SOL     OW22612   0.665   1.385   1.587
 7238SOL    HW122613   0.580   1.432   1.610
 7238SOL    HW222614   0.731   1.450   1.550
 7239SOL     OW22615   4.716   0.857   1.988
 7239SOL    HW122616   4.795   0.889   2.041
 7239SOL    HW222617   4.744   0.840   1.894
 7240SOL     OW22618   2.996   3.631   0.798
 7240SOL    HW122619   2.973   3.648   0.702
 7240SOL    HW222620   2.980   3.714   0.852
 7241SOL     OW22621   4.043   6.964   5.033
 7241SOL    HW122622   4.078   0.032   5.041
 7241SOL    HW222623   3.994   6.954   4.947
 7242SOL     OW22624   4.755   4.985   0.520
 7242SOL    HW122625   4.676   4.941   0.562
 7242SOL    HW222626   4.788   4.928   0.444
 7243SOL     OW22627   0.427   6.076   0.581
 7243SOL    HW122628   0.359   6.078   0.654
 7243SOL    HW222629   0.460   6.169   0.564
 7244SOL     OW22630   5.539   1.719   0.795
 7244SOL    HW122631   5.501   1.742   0.705
 7244SOL    HW222632   5.516   1.792   0.860
 7245SOL     OW22633   6.627   2.012   4.352
 7245SOL    HW122634   6.656   1.916   4.353
 7245SOL    HW222635   6.648   2.054   4.440
 7246SOL     OW22636   1.278   5.856   5.156
 7246SOL    HW122637   1.291   5.914   5.076
 7246SOL    HW222638   1.183   5.859   5.185
 7247SOL     OW22639   3.395   5.638   2.635
 7247SOL    HW122640   3.380   5.548   2.595
 7247SOL    HW222641   3.382   5.708   2.565
 7248SOL     OW22642   3.581   0.622   4.880
 7248SOL    HW122643   3.502   0.588   4.930
 7248SOL    HW222644   3.580   0.585   4.787
 7249SOL     OW22645   6.195   4.831   6.580
 7249SOL    HW122646   6.108   4.880   6.585
 7249SOL    HW222647   6.270   4.897   6.589
 7250SOL     OW22648   3.216   4.172   6.606
 7250SOL    HW122649   3.305   4.157   6.563
 7250SOL    HW222650   3.161   4.089   6.599
 7251SOL     OW22651   5.658   0.535   5.485
 7251SOL    HW122652   5.721   0.457   5.493
 7251SOL    HW222653   5.707   0.613   5.447
 7252SOL     OW22654   4.456   3.744   5.292
 7252SOL    HW122655   4.529   3.701   5.239
 7252SOL    HW222656   4.484   3.835   5.322
 7253SOL     OW22657   5.091   5.149   0.975
 7253SOL    HW122658   5.167   5.202   0.938
 7253SOL    HW222659   5.063   5.079   0.910
 7254SOL     OW22660   5.240   6.733   5.294
 7254SOL    HW122661   5.250   6.639   5.329
 7254SOL    HW222662   5.297   6.795   5.349
 7255SOL     OW22663   3.695   3.857   1.810
 7255SOL    HW122664   3.709   3.954   1.829
 7255SOL    HW222665   3.773   3.804   1.843
 7256SOL     OW22666   4.344   5.044   3.894
 7256SOL    HW122667   4.340   5.038   3.794
 7256SOL    HW222668   4.254   5.025   3.932
 7257SOL     OW22669   6.296   3.778   3.411
 7257SOL    HW122670   6.271   3.712   3.482
 7257SOL    HW222671   6.319   3.730   3.326
 7258SOL     OW22672   2.725   6.552   5.506
 7258SOL    HW122673   2.767   6.559   5.597
 7258SOL    HW222674   2.627   6.532   5.516
 7259SOL     OW22675   1.979   5.313   6.059
 7259SOL    HW122676   1.984   5.233   5.999
 7259SOL    HW222677   1.998   5.286   6.153
 7260SOL     OW22678   4.309   1.981   2.404
 7260SOL    HW122679   4.378   2.041   2.446
 7260SOL    HW222680   4.219   2.024   2.411
 7261SOL     OW22681   1.739   4.262   1.356
 7261SOL    HW122682   1.808   4.209   1.405
 7261SOL    HW222683   1.766   4.358   1.356
 7262SOL     OW22684   6.294   1.652   5.867
 7262SOL    HW122685   6.300   1.736   5.922
 7262SOL    HW222686   6.375   1.596   5.883
 7263SOL     OW22687   5.119   6.234   1.890
 7263SOL    HW122688   5.082   6.285   1.813
 7263SOL    HW222689   5.174   6.295   1.947
 7264SOL     OW22690   1.332   6.852   4.511
 7264SOL    HW122691   1.282   6.791   4.450
 7264SOL    HW222692   1.430   6.837   4.501
 7265SOL     OW22693   4.264   3.640   6.275
 7265SOL    HW122694   4.324   3.563   6.256
 7265SOL    HW222695   4.311   3.726   6.253
 7266SOL     OW22696   4.763   1.464   1.312
 7266SOL    HW122697   4.799   1.424   1.396
 7266SOL    HW222698   4.815   1.546   1.288
 7267SOL     OW22699   6.978   2.961   4.209
 7267SOL    HW122700   0.042   2.932   4.171
 7267SOL    HW222701   6.987   2.973   4.308
 7268SOL     OW22702   3.348   0.254   0.638
 7268SOL    HW122703   3.342   0.194   0.717
 7268SOL    HW222704   3.273   0.321   0.641
 7269SOL     OW22705   1.453   6.683   2.267
 7269SOL    HW122706   1.414   6.705   2.357
 7269SOL    HW222707   1.477   6.768   2.220
 7270SOL     OW22708   3.149   1.668   2.248
 7270SOL    HW122709   3.100   1.746   2.209
 7270SOL    HW222710   3.246   1.692   2.259
 7271SOL     OW22711   6.163   4.679   4.206
 7271SOL    HW122712   6.159   4.772   4.169
 7271SOL    HW222713   6.153   4.681   4.305
 7272SOL     OW22714   6.217   1.674   1.381
 7272SOL    HW122715   6.310   1.708   1.399
 7272SOL    HW222716   6.155   1.751   1.369
 7273SOL     OW22717   5.576   6.265   6.109
 7273SOL    HW122718   5.639   6.304   6.176
 7273SOL    HW222719   5.628   6.238   6.027
 7274SOL     OW22720   6.767   4.622   4.770
 7274SOL    HW122721   6.753   4.544   4.832
 7274SOL    HW222722   6.679   4.663   4.749
 7275SOL     OW22723   5.312   6.350   1.186
 7275SOL    HW122724   5.379   6.423   1.172
 7275SOL    HW222725   5.341   6.294   1.264
 7276SOL     OW22726   2.751   1.712   4.037
 7276SOL    HW122727   2.787   1.758   3.956
 7276SOL    HW222728   2.826   1.667   4.085
 7277SOL     OW22729   5.362   1.714   3.903
 7277SOL    HW122730   5.326   1.806   3.914
 7277SOL    HW222731   5.410   1.686   3.986
 7278SOL     OW22732   2.617   1.694   3.500
 7278SOL    HW122733   2.576   1.740   3.579
 7278SOL    HW222734   2.599   1.746   3.417
 7279SOL     OW22735   4.037   4.057   1.110
 7279SOL    HW122736   4.058   4.135   1.051
 7279SOL    HW222737   4.020   3.976   1.054
 7280SOL     OW22738   6.808   2.205   5.752
 7280SOL    HW122739   6.892   2.182   5.702
 7280SOL    HW222740   6.791   2.135   5.822
 7281SOL     OW22741   4.016   5.738   2.393
 7281SOL    HW122742   4.060   5.662   2.441
 7281SOL    HW222743   3.918   5.722   2.387
 7282SOL     OW22744   6.736   4.154   2.107
 7282SOL    HW122745   6.787   4.105   2.178
 7282SOL    HW222746   6.796   4.223   2.065
 7283SOL     OW22747   4.225   5.248   3.426
 7283SOL    HW122748   4.308   5.193   3.434
 7283SOL    HW222749   4.247   5.344   3.444
 7284SOL     OW22750   0.864   1.423   2.508
 7284SOL    HW122751   0.829   1.453   2.420
 7284SOL    HW222752   0.801   1.449   2.581
 7285SOL     OW22753   4.780   3.052   1.646
 7285SOL    HW122754   4.746   3.052   1.740
 7285SOL    HW222755   4.703   3.050   1.582
 7286SOL     OW22756   6.341   1.529   3.594
 7286SOL    HW122757   6.365   1.432   3.592
 7286SOL    HW222758   6.381   1.575   3.515
 7287SOL     OW22759   2.993   1.133   3.458
 7287SOL    HW122760   3.087   1.102   3.452
 7287SOL    HW222761   2.976   1.174   3.548
 7288SOL     OW22762   2.857   1.634   1.833
 7288SOL    HW122763   2.778   1.663   1.887
 7288SOL    HW222764   2.921   1.585   1.892
 7289SOL     OW22765   6.531   2.552   1.636
 7289SOL    HW122766   6.565   2.619   1.703
 7289SOL    HW222767   6.451   2.590   1.589
 7290SOL     OW22768   4.219   1.344   4.967
 7290SOL    HW122769   4.182   1.387   4.885
 7290SOL    HW222770   4.238   1.415   5.035
 7291SOL     OW22771   2.015   1.059   0.632
 7291SOL    HW122772   1.950   0.987   0.656
 7291SOL    HW222773   1.977   1.148   0.659
 7292SOL     OW22774   2.433   0.795   2.683
 7292SOL    HW122775   2.406   0.709   2.639
 7292SOL    HW222776   2.360   0.863   2.671
 7293SOL     OW22777   6.273   1.612   4.007
 7293SOL    HW122778   6.287   1.519   4.042
 7293SOL    HW222779   6.190   1.650   4.047
 7294SOL     OW22780   3.668   6.583   2.261
 7294SOL    HW122781   3.569   6.599   2.258
 7294SOL    HW222782   3.686   6.497   2.310
 7295SOL     OW22783   5.169   4.024   1.501
 7295SOL    HW122784   5.198   4.098   1.562
 7295SOL    HW222785   5.212   4.036   1.411
 7296SOL     OW22786   4.129   5.804   1.782
 7296SOL    HW122787   4.204   5.868   1.802
 7296SOL    HW222788   4.155   5.712   1.812
 7297SOL     OW22789   4.260   6.829   0.726
 7297SOL    HW122790   4.161   6.833   0.714
 7297SOL    HW222791   4.289   6.733   0.728
 7298SOL     OW22792   4.300   5.274   0.722
 7298SOL    HW122793   4.350   5.197   0.760
 7298SOL    HW222794   4.361   5.328   0.664
 7299SOL     OW22795   0.913   2.959   5.518
 7299SOL    HW122796   0.816   2.980   5.508
 7299SOL    HW222797   0.949   3.008   5.598
 7300SOL     OW22798   0.215   5.054   2.312
 7300SOL    HW122799   0.311   5.062   2.339
 7300SOL    HW222800   0.200   5.105   2.227
 7301SOL     OW22801   4.098   2.174   6.174
 7301SOL    HW122802   4.007   2.135   6.183
 7301SOL    HW222803   4.166   2.101   6.184
 7302SOL     OW22804   5.717   2.232   6.227
 7302SOL    HW122805   5.758   2.290   6.298
 7302SOL    HW222806   5.706   2.139   6.262
 7303SOL     OW22807   3.275   1.984   1.465
 7303SOL    HW122808   3.233   1.911   1.519
 7303SOL    HW222809   3.348   2.027   1.518
 7304SOL     OW22810   2.325   5.170   0.687
 7304SOL    HW122811   2.260   5.115   0.634
 7304SOL    HW222812   2.274   5.234   0.745
 7305SOL     OW22813   6.088   1.038   6.689
 7305SOL    HW122814   6.078   0.947   6.648
 7305SOL    HW222815   6.167   1.084   6.648
 7306SOL     OW22816   1.405   3.043   1.367
 7306SOL    HW122817   1.364   3.091   1.444
 7306SOL    HW222818   1.365   2.952   1.358
 7307SOL     OW22819   2.037   0.586   1.912
 7307SOL    HW122820   2.030   0.486   1.908
 7307SOL    HW222821   1.984   0.626   1.838
 7308SOL     OW22822   3.515   1.443   3.037
 7308SOL    HW122823   3.418   1.448   3.013
 7308SOL    HW222824   3.535   1.509   3.110
 7309SOL     OW22825   1.733   5.166   3.694
 7309SOL    HW122826   1.677   5.231   3.745
 7309SOL    HW222827   1.736   5.192   3.598
 7310SOL     OW22828   2.792   2.469   6.531
 7310SOL    HW122829   2.751   2.394   6.481
 7310SOL    HW222830   2.805   2.547   6.470
 7311SOL     OW22831   0.367   5.816   5.863
 7311SOL    HW122832   0.404   5.889   5.804
 7311SOL    HW222833   0.326   5.858   5.944
 7312SOL     OW22834   6.119   2.076   3.883
 7312SOL    HW122835   6.146   2.026   3.966
 7312SOL    HW222836   6.063   2.154   3.907
 7313SOL     OW22837   2.700   0.747   2.815
 7313SOL    HW122838   2.788   0.791   2.796
 7313SOL    HW222839   2.628   0.796   2.766
 7314SOL     OW22840   1.430   4.547   5.939
 7314SOL    HW122841   1.479   4.611   5.881
 7314SOL    HW222842   1.394   4.596   6.019
 7315SOL     OW22843   2.667   5.291   2.586
 7315SOL    HW122844   2.571   5.305   2.607
 7315SOL    HW222845   2.705   5.224   2.650
 7316SOL     OW22846   4.029   1.478   1.475
 7316SOL    HW122847   4.045   1.549   1.543
 7316SOL    HW222848   3.989   1.398   1.519
 7317SOL     OW22849   4.162   2.037   0.298
 7317SOL    HW122850   4.205   1.987   0.223
 7317SOL    HW222851   4.090   2.097   0.261
 7318SOL     OW22852   5.136   6.885   0.536
 7318SOL    HW122853   5.074   6.841   0.601
 7318SOL    HW222854   5.209   6.932   0.586
 7319SOL     OW22855   5.449   6.606   6.977
 7319SOL    HW122856   5.455   6.521   6.925
 7319SOL    HW222857   5.489   6.681   6.923
 7320SOL     OW22858   0.607   2.832   0.664
 7320SOL    HW122859   0.624   2.734   0.669
 7320SOL    HW222860   0.615   2.863   0.569
 7321SOL     OW22861   2.513   2.008   6.536
 7321SOL    HW122862   2.587   1.980   6.474
 7321SOL    HW222863   2.548   2.074   6.603
 7322SOL     OW22864   1.138   3.082   3.591
 7322SOL    HW122865   1.166   3.177   3.578
 7322SOL    HW222866   1.055   3.064   3.538
 7323SOL     OW22867   1.587   2.685   0.285
 7323SOL    HW122868   1.566   2.776   0.250
 7323SOL    HW222869   1.616   2.691   0.381
 7324SOL     OW22870   4.861   3.955   3.488
 7324SOL    HW122871   4.821   4.042   3.459
 7324SOL    HW222872   4.850   3.945   3.587
 7325SOL     OW22873   3.801   1.285   6.248
 7325SOL    HW122874   3.877   1.253   6.192
 7325SOL    HW222875   3.830   1.291   6.343
 7326SOL     OW22876   3.660   0.276   0.759
 7326SOL    HW122877   3.706   0.344   0.703
 7326SOL    HW222878   3.629   0.200   0.702
 7327SOL     OW22879   1.708   4.281   3.364
 7327SOL    HW122880   1.802   4.250   3.347
 7327SOL    HW222881   1.686   4.355   3.301
 7328SOL     OW22882   4.715   5.083   5.546
 7328SOL    HW122883   4.742   5.132   5.463
 7328SOL    HW222884   4.623   5.113   5.573
 7329SOL     OW22885   2.685   3.445   0.435
 7329SOL    HW122886   2.628   3.491   0.503
 7329SOL    HW222887   2.629   3.416   0.357
 7330SOL     OW22888   2.031   2.923   0.862
 7330SOL    HW122889   2.125   2.948   0.839
 7330SOL    HW222890   1.997   2.855   0.797
 7331SOL     OW22891   5.190   1.995   2.569
 7331SOL    HW122892   5.187   1.939   2.487
 7331SOL    HW222893   5.146   2.083   2.551
 7332SOL     OW22894   2.986   6.546   6.204
 7332SOL    HW122895   3.044   6.592   6.271
 7332SOL    HW222896   3.040   6.480   6.153
 7333SOL     OW22897   0.561   0.799   1.337
 7333SOL    HW122898   0.485   0.751   1.292
 7333SOL    HW222899   0.524   0.858   1.409
 7334SOL     OW22900   1.351   5.031   4.162
 7334SOL    HW122901   1.435   4.981   4.184
 7334SOL    HW222902   1.374   5.125   4.136
 7335SOL     OW22903   0.144   3.595   2.226
 7335SOL    HW122904   0.096   3.680   2.203
 7335SOL    HW222905   0.099   3.518   2.182
 7336SOL     OW22906   2.607   7.014   1.062
 7336SOL    HW122907   2.595   6.926   1.017
 7336SOL    HW222908   2.634   7.000   1.157
 7337SOL     OW22909   3.250   1.025   3.684
 7337SOL    HW122910   3.273   0.992   3.592
 7337SOL    HW222911   3.273   1.122   3.691
 7338SOL     OW22912   4.994   4.229   1.278
 7338SOL    HW122913   4.914   4.194   1.228
 7338SOL    HW222914   4.986   4.205   1.374
 7339SOL     OW22915   0.032   6.292   5.145
 7339SOL    HW122916   6.982   6.344   5.104
 7339SOL    HW222917   0.058   6.332   5.232
 7340SOL     OW22918   3.109   5.927   0.285
 7340SOL    HW122919   3.052   5.846   0.302
 7340SOL    HW222920   3.199   5.897   0.251
 7341SOL     OW22921   6.651   6.165   5.081
 7341SOL    HW122922   6.554   6.147   5.100
 7341SOL    HW222923   6.705   6.142   5.162
 7342SOL     OW22924   0.945   5.220   1.368
 7342SOL    HW122925   0.948   5.158   1.290
 7342SOL    HW222926   1.020   5.286   1.362
 7343SOL     OW22927   5.550   2.307   3.088
 7343SOL    HW122928   5.610   2.229   3.068
 7343SOL    HW222929   5.511   2.341   3.003
 7344SOL     OW22930   2.433   1.136   0.179
 7344SOL    HW122931   2.455   1.080   0.259
 7344SOL    HW222932   2.517   1.176   0.142
 7345SOL     OW22933   2.709   6.245   0.057
 7345SOL    HW122934   2.724   6.343   0.043
 7345SOL    HW222935   2.793   6.204   0.092
 7346SOL     OW22936   3.889   5.031   1.863
 7346SOL    HW122937   3.985   5.011   1.841
 7346SOL    HW222938   3.864   4.983   1.947
 7347SOL     OW22939   6.309   2.762   2.162
 7347SOL    HW122940   6.265   2.674   2.178
 7347SOL    HW222941   6.402   2.760   2.198
 7348SOL     OW22942   0.099   1.316   4.896
 7348SOL    HW122943   0.110   1.318   4.797
 7348SOL    HW222944   0.142   1.234   4.934
 7349SOL     OW22945   3.637   1.296   0.737
 7349SOL    HW122946   3.564   1.258   0.679
 7349SOL    HW222947   3.600   1.368   0.795
 7350SOL     OW22948   2.282   1.301   2.822
 7350SOL    HW122949   2.367   1.347   2.851
 7350SOL    HW222950   2.240   1.353   2.748
 7351SOL     OW22951   4.194   5.034   0.197
 7351SOL    HW122952   4.183   5.131   0.179
 7351SOL    HW222953   4.291   5.014   0.216
 7352SOL     OW22954   6.152   0.694   3.240
 7352SOL    HW122955   6.182   0.639   3.162
 7352SOL    HW222956   6.114   0.634   3.310
 7353SOL     OW22957   5.228   2.315   4.632
 7353SOL    HW122958   5.301   2.356   4.576
 7353SOL    HW222959   5.180   2.246   4.578
 7354SOL     OW22960   6.569   4.119   4.812
 7354SOL    HW122961   6.563   4.205   4.863
 7354SOL    HW222962   6.554   4.042   4.874
 7355SOL     OW22963   0.826   4.983   1.512
 7355SOL    HW122964   0.825   5.002   1.610
 7355SOL    HW222965   0.850   5.066   1.462
 7356SOL     OW22966   0.295   2.301   6.297
 7356SOL    HW122967   0.362   2.243   6.345
 7356SOL    HW222968   0.324   2.314   6.202
 7357SOL     OW22969   0.850   1.404   0.373
 7357SOL    HW122970   0.879   1.483   0.426
 7357SOL    HW222971   0.760   1.422   0.334
 7358SOL     OW22972   3.452   0.561   3.762
 7358SOL    HW122973   3.368   0.615   3.759
 7358SOL    HW222974   3.470   0.523   3.672
 7359SOL     OW22975   3.510   3.423   3.316
 7359SOL    HW122976   3.451   3.405   3.237
 7359SOL    HW222977   3.498   3.517   3.346
 7360SOL     OW22978   0.264   3.671   5.990
 7360SOL    HW122979   0.337   3.604   5.996
 7360SOL    HW222980   0.257   3.705   5.896
 7361SOL     OW22981   5.125   6.180   1.518
 7361SOL    HW122982   5.057   6.247   1.549
 7361SOL    HW222983   5.088   6.087   1.530
 7362SOL     OW22984   1.784   6.532   6.525
 7362SOL    HW122985   1.874   6.575   6.522
 7362SOL    HW222986   1.786   6.457   6.592
 7363SOL     OW22987   5.164   2.993   6.251
 7363SOL    HW122988   5.240   2.936   6.282
 7363SOL    HW222989   5.144   3.063   6.319
 7364SOL     OW22990   5.489   0.835   1.492
 7364SOL    HW122991   5.577   0.795   1.519
 7364SOL    HW222992   5.443   0.773   1.428
 7365SOL     OW22993   3.607   0.621   1.831
 7365SOL    HW122994   3.584   0.608   1.928
 7365SOL    HW222995   3.703   0.645   1.823
 7366SOL     OW22996   0.964   5.568   0.048
 7366SOL    HW122997   0.868   5.541   0.055
 7366SOL    HW222998   0.990   5.577   6.977
 7367SOL     OW22999   4.494   3.167   0.018
 7367SOL    HW123000   4.519   3.176   6.946
 7367SOL    HW223001   4.398   3.139   0.025
 7368SOL     OW23002   2.892   3.446   3.343
 7368SOL    HW123003   2.891   3.421   3.246
 7368SOL    HW223004   2.910   3.543   3.352
 7369SOL     OW23005   5.134   2.120   6.119
 7369SOL    HW123006   5.049   2.172   6.121
 7369SOL    HW223007   5.130   2.046   6.186
 7370SOL     OW23008   1.766   5.523   1.083
 7370SOL    HW123009   1.684   5.518   1.139
 7370SOL    HW223010   1.826   5.446   1.105
 7371SOL     OW23011   2.345   5.389   3.848
 7371SOL    HW123012   2.363   5.427   3.938
 7371SOL    HW223013   2.278   5.315   3.856
 7372SOL     OW23014   2.995   6.149   5.596
 7372SOL    HW123015   3.019   6.198   5.680
 7372SOL    HW223016   2.899   6.122   5.599
 7373SOL     OW23017   4.121   0.111   1.818
 7373SOL    HW123018   4.036   0.163   1.827
 7373SOL    HW223019   4.149   0.076   1.907
 7374SOL     OW23020   2.114   3.328   6.676
 7374SOL    HW123021   2.046   3.360   6.610
 7374SOL    HW223022   2.194   3.294   6.626
 7375SOL     OW23023   2.063   6.581   2.939
 7375SOL    HW123024   2.148   6.610   2.894
 7375SOL    HW223025   2.035   6.651   3.005
 7376SOL     OW23026   3.434   4.426   5.873
 7376SOL    HW123027   3.500   4.485   5.827
 7376SOL    HW223028   3.452   4.331   5.848
 7377SOL     OW23029   5.384   4.854   2.326
 7377SOL    HW123030   5.375   4.954   2.329
 7377SOL    HW223031   5.431   4.823   2.408
 7378SOL     OW23032   6.834   2.855   5.982
 7378SOL    HW123033   6.747   2.875   6.026
 7378SOL    HW223034   6.909   2.885   6.041
 7379SOL     OW23035   4.289   1.054   0.926
 7379SOL    HW123036   4.213   1.052   0.861
 7379SOL    HW223037   4.254   1.059   1.019
 7380SOL     OW23038   6.537   2.447   5.239
 7380SOL    HW123039   6.497   2.538   5.240
 7380SOL    HW223040   6.499   2.395   5.162
 7381SOL     OW23041   4.894   2.400   6.836
 7381SOL    HW123042   4.905   2.301   6.843
 7381SOL    HW223043   4.984   2.444   6.832
 7382SOL     OW23044   0.211   5.784   3.626
 7382SOL    HW123045   0.228   5.697   3.674
 7382SOL    HW223046   0.115   5.808   3.633
 7383SOL     OW23047   6.991   5.198   3.388
 7383SOL    HW123048   0.053   5.177   3.434
 7383SOL    HW223049   7.006   5.206   3.290
 7384SOL     OW23050   6.165   1.896   1.611
 7384SOL    HW123051   6.251   1.848   1.596
 7384SOL    HW223052   6.102   1.837   1.660
 7385SOL     OW23053   5.475   0.448   1.565
 7385SOL    HW123054   5.480   0.519   1.636
 7385SOL    HW223055   5.401   0.384   1.588
 7386SOL     OW23056   0.164   3.085   5.759
 7386SOL    HW123057   0.137   3.151   5.830
 7386SOL    HW223058   0.229   3.128   5.696
 7387SOL     OW23059   4.879   5.899   3.748
 7387SOL    HW123060   4.853   5.971   3.683
 7387SOL    HW223061   4.835   5.813   3.723
 7388SOL     OW23062   5.586   4.369   4.612
 7388SOL    HW123063   5.578   4.466   4.590
 7388SOL    HW223064   5.495   4.327   4.612
 7389SOL     OW23065   0.563   4.415   4.577
 7389SOL    HW123066   0.623   4.491   4.600
 7389SOL    HW223067   0.610   4.329   4.593
 7390SOL     OW23068   2.813   0.368   5.897
 7390SOL    HW123069   2.803   0.464   5.925
 7390SOL    HW223070   2.899   0.332   5.933
 7391SOL     OW23071   6.815   4.357   0.270
 7391SOL    HW123072   6.794   4.265   0.304
 7391SOL    HW223073   6.899   4.390   0.314
 7392SOL     OW23074   2.300   4.506   3.005
 7392SOL    HW123075   2.397   4.497   2.982
 7392SOL    HW223076   2.256   4.570   2.942
 7393SOL     OW23077   0.378   3.253   0.011
 7393SOL    HW123078   0.468   3.295   0.001
 7393SOL    HW223079   0.380   3.162   6.994
 7394SOL     OW23080   2.939   3.174   6.574
 7394SOL    HW123081   2.893   3.251   6.617
 7394SOL    HW223082   2.989   3.206   6.493
 7395SOL     OW23083   1.765   6.507   0.142
 7395SOL    HW123084   1.753   6.601   0.110
 7395SOL    HW223085   1.863   6.487   0.151
 7396SOL     OW23086   0.122   6.720   1.682
 7396SOL    HW123087   0.033   6.752   1.650
 7396SOL    HW223088   0.174   6.682   1.605
 7397SOL     OW23089   5.744   4.334   4.404
 7397SOL    HW123090   5.680   4.358   4.331
 7397SOL    HW223091   5.693   4.325   4.490
 7398SOL     OW23092   4.288   6.403   2.991
 7398SOL    HW123093   4.217   6.347   2.947
 7398SOL    HW223094   4.378   6.367   2.965
 7399SOL     OW23095   5.329   4.392   4.984
 7399SOL    HW123096   5.356   4.488   4.975
 7399SOL    HW223097   5.242   4.386   5.033
 7400SOL     OW23098   2.166   5.091   6.691
 7400SOL    HW123099   2.230   5.026   6.651
 7400SOL    HW223100   2.216   5.172   6.723
 7401SOL     OW23101   5.864   1.637   4.874
 7401SOL    HW123102   5.886   1.720   4.925
 7401SOL    HW223103   5.852   1.560   4.937
 7402SOL     OW23104   2.548   6.413   4.208
 7402SOL    HW123105   2.576   6.491   4.263
 7402SOL    HW223106   2.608   6.336   4.226
 7403SOL     OW23107   1.997   3.202   1.385
 7403SOL    HW123108   1.929   3.275   1.393
 7403SOL    HW223109   2.045   3.210   1.298
 7404SOL     OW23110   1.393   1.628   2.502
 7404SOL    HW123111   1.302   1.621   2.543
 7404SOL    HW223112   1.462   1.630   2.574
 7405SOL     OW23113   3.332   5.280   6.341
 7405SOL    HW123114   3.308   5.200   6.396
 7405SOL    HW223115   3.431   5.293   6.342
 7406SOL     OW23116   0.646   6.027   1.889
 7406SOL    HW123117   0.669   5.950   1.830
 7406SOL    HW223118   0.661   6.001   1.985
 7407SOL     OW23119   2.348   0.879   5.665
 7407SOL    HW123120   2.335   0.979   5.669
 7407SOL    HW223121   2.277   0.839   5.608
 7408SOL     OW23122   0.494   3.904   5.306
 7408SOL    HW123123   0.531   3.887   5.397
 7408SOL    HW223124   0.418   3.969   5.312
 7409SOL     OW23125   3.183   6.515   5.658
 7409SOL    HW123126   3.142   6.584   5.718
 7409SOL    HW223127   3.274   6.490   5.692
 7410SOL     OW23128   5.293   4.910   6.750
 7410SOL    HW123129   5.363   4.937   6.684
 7410SOL    HW223130   5.281   4.983   6.818
 7411SOL     OW23131   5.011   5.002   5.633
 7411SOL    HW123132   5.051   5.008   5.724
 7411SOL    HW223133   4.931   5.062   5.628
 7412SOL     OW23134   1.752   1.717   6.931
 7412SOL    HW123135   1.849   1.735   6.947
 7412SOL    HW223136   1.719   1.650   6.998
 7413SOL     OW23137   0.240   3.371   4.160
 7413SOL    HW123138   0.316   3.413   4.208
 7413SOL    HW223139   0.162   3.361   4.223
 7414SOL     OW23140   6.745   5.382   2.814
 7414SOL    HW123141   6.737   5.384   2.913
 7414SOL    HW223142   6.829   5.334   2.788
 7415SOL     OW23143   2.774   1.765   3.049
 7415SOL    HW123144   2.727   1.810   2.973
 7415SOL    HW223145   2.836   1.695   3.012
 7416SOL     OW23146   5.437   0.113   3.622
 7416SOL    HW123147   5.486   0.037   3.665
 7416SOL    HW223148   5.386   0.164   3.691
 7417SOL     OW23149   0.873   6.026   0.928
 7417SOL    HW123150   0.809   6.007   0.853
 7417SOL    HW223151   0.822   6.047   1.011
 7418SOL     OW23152   1.075   3.775   0.205
 7418SOL    HW123153   1.023   3.689   0.204
 7418SOL    HW223154   1.117   3.789   0.116
 7419SOL     OW23155   5.589   1.474   5.545
 7419SOL    HW123156   5.646   1.434   5.617
 7419SOL    HW223157   5.550   1.560   5.577
 7420SOL     OW23158   6.752   5.783   2.218
 7420SOL    HW123159   6.668   5.823   2.256
 7420SOL    HW223160   6.830   5.815   2.271
 7421SOL     OW23161   3.671   2.828   1.516
 7421SOL    HW123162   3.590   2.846   1.573
 7421SOL    HW223163   3.754   2.851   1.567
 7422SOL     OW23164   0.662   1.902   1.444
 7422SOL    HW123165   0.646   1.975   1.378
 7422SOL    HW223166   0.760   1.895   1.463
 7423SOL     OW23167   1.980   5.091   0.139
 7423SOL    HW123168   2.008   5.059   0.049
 7423SOL    HW223169   2.003   5.187   0.149
 7424SOL     OW23170   5.686   0.859   4.755
 7424SOL    HW123171   5.649   0.930   4.815
 7424SOL    HW223172   5.725   0.785   4.811
 7425SOL     OW23173   4.443   0.283   5.416
 7425SOL    HW123174   4.473   0.257   5.324
 7425SOL    HW223175   4.468   0.378   5.434
 7426SOL     OW23176   1.097   1.466   0.257
 7426SOL    HW123177   1.005   1.444   0.290
 7426SOL    HW223178   1.164   1.411   0.307
 7427SOL     OW23179   4.267   5.423   4.934
 7427SOL    HW123180   4.236   5.329   4.949
 7427SOL    HW223181   4.188   5.482   4.920
 7428SOL     OW23182   3.296   1.320   5.684
 7428SOL    HW123183   3.310   1.368   5.597
 7428SOL    HW223184   3.305   1.384   5.760
 7429SOL     OW23185   6.647   0.045   4.223
 7429SOL    HW123186   6.702   0.108   4.279
 7429SOL    HW223187   6.639   6.982   4.271
 7430SOL     OW23188   0.538   4.851   4.356
 7430SOL    HW123189   0.530   4.943   4.396
 7430SOL    HW223190   0.634   4.826   4.347
 7431SOL     OW23191   1.090   4.575   2.302
 7431SOL    HW123192   1.006   4.552   2.253
 7431SOL    HW223193   1.162   4.597   2.236
 7432SOL     OW23194   1.309   6.515   4.845
 7432SOL    HW123195   1.259   6.471   4.919
 7432SOL    HW223196   1.326   6.611   4.868
 7433SOL     OW23197   6.773   6.183   1.221
 7433SOL    HW123198   6.729   6.224   1.302
 7433SOL    HW223199   6.706   6.126   1.173
 7434SOL     OW23200   4.407   0.023   6.846
 7434SOL    HW123201   4.338   0.037   6.917
 7434SOL    HW223202   4.445   0.111   6.817
 7435SOL     OW23203   1.394   5.521   0.066
 7435SOL    HW123204   1.457   5.459   0.020
 7435SOL    HW223205   1.308   5.474   0.085
 7436SOL     OW23206   4.855   2.924   0.310
 7436SOL    HW123207   4.779   2.987   0.295
 7436SOL    HW223208   4.898   2.944   0.399
 7437SOL     OW23209   0.051   5.439   5.802
 7437SOL    HW123210   0.068   5.537   5.814
 7437SOL    HW223211   0.110   5.404   5.729
 7438SOL     OW23212   6.175   4.549   1.892
 7438SOL    HW123213   6.141   4.604   1.968
 7438SOL    HW223214   6.220   4.467   1.928
 7439SOL     OW23215   1.078   6.056   3.703
 7439SOL    HW123216   1.163   6.013   3.675
 7439SOL    HW223217   1.055   6.130   3.640
 7440SOL     OW23218   0.733   1.794   3.469
 7440SOL    HW123219   0.817   1.755   3.506
 7440SOL    HW223220   0.751   1.884   3.430
 7441SOL     OW23221   5.823   0.079   3.961
 7441SOL    HW123222   5.849   0.105   3.868
 7441SOL    HW223223   5.904   0.077   4.019
 7442SOL     OW23224   2.067   0.908   6.801
 7442SOL    HW123225   2.106   1.000   6.810
 7442SOL    HW223226   2.002   0.891   6.874
 7443SOL     OW23227   6.894   1.541   0.520
 7443SOL    HW123228   6.931   1.633   0.531
 7443SOL    HW223229   6.967   1.473   0.533
 7444SOL     OW23230   0.537   2.386   5.723
 7444SOL    HW123231   0.484   2.439   5.789
 7444SOL    HW223232   0.621   2.353   5.767
 7445SOL     OW23233   5.755   2.229   1.855
 7445SOL    HW123234   5.824   2.286   1.812
 7445SOL    HW223235   5.758   2.241   1.955
 7446SOL     OW23236   6.824   3.311   1.335
 7446SOL    HW123237   6.920   3.285   1.325
 7446SOL    HW223238   6.792   3.353   1.251
 7447SOL     OW23239   6.767   3.825   6.302
 7447SOL    HW123240   6.824   3.900   6.334
 7447SOL    HW223241   6.733   3.844   6.210
 7448SOL     OW23242   6.674   6.354   6.008
 7448SOL    HW123243   6.753   6.384   6.061
 7448SOL    HW223244   6.630   6.434   5.967
 7449SOL     OW23245   4.412   0.624   1.983
 7449SOL    HW123246   4.359   0.708   1.997
 7449SOL    HW223247   4.492   0.625   2.042
 7450SOL     OW23248   3.244   0.072   2.050
 7450SOL    HW123249   3.294   0.070   2.136
 7450SOL    HW223250   3.289   0.013   1.983
 7451SOL     OW23251   1.669   1.290   2.863
 7451SOL    HW123252   1.686   1.372   2.918
 7451SOL    HW223253   1.656   1.211   2.924
 7452SOL     OW23254   1.401   6.616   4.232
 7452SOL    HW123255   1.309   6.654   4.232
 7452SOL    HW223256   1.430   6.598   4.326
 7453SOL     OW23257   5.697   5.803   5.367
 7453SOL    HW123258   5.756   5.806   5.448
 7453SOL    HW223259   5.660   5.711   5.356
 7454SOL     OW23260   0.875   3.144   6.909
 7454SOL    HW123261   0.950   3.174   6.968
 7454SOL    HW223262   0.870   3.044   6.911
 7455SOL     OW23263   5.371   1.417   0.828
 7455SOL    HW123264   5.416   1.468   0.902
 7455SOL    HW223265   5.334   1.480   0.761
 7456SOL     OW23266   1.604   2.866   5.459
 7456SOL    HW123267   1.521   2.868   5.515
 7456SOL    HW223268   1.634   2.771   5.448
 7457SOL     OW23269   6.415   0.056   6.286
 7457SOL    HW123270   6.316   0.054   6.299
 7457SOL    HW223271   6.460   0.021   6.368
 7458SOL     OW23272   2.355   0.679   0.776
 7458SOL    HW123273   2.304   0.672   0.862
 7458SOL    HW223274   2.445   0.637   0.787
 7459SOL     OW23275   4.485   0.434   4.440
 7459SOL    HW123276   4.578   0.397   4.437
 7459SOL    HW223277   4.472   0.500   4.367
 7460SOL     OW23278   0.716   5.280   6.487
 7460SOL    HW123279   0.642   5.347   6.483
 7460SOL    HW223280   0.679   5.188   6.477
 7461SOL     OW23281   4.864   0.940   4.264
 7461SOL    HW123282   4.873   0.987   4.176
 7461SOL    HW223283   4.816   0.853   4.250
 7462SOL     OW23284   1.656   1.174   2.284
 7462SOL    HW123285   1.663   1.082   2.245
 7462SOL    HW223286   1.577   1.179   2.344
 7463SOL     OW23287   3.681   4.005   2.136
 7463SOL    HW123288   3.692   4.058   2.220
 7463SOL    HW223289   3.716   4.057   2.058
 7464SOL     OW23290   4.796   6.964   6.685
 7464SOL    HW123291   4.878   6.910   6.702
 7464SOL    HW223292   4.807   7.018   6.602
 7465SOL     OW23293   3.393   1.200   2.210
 7465SOL    HW123294   3.468   1.146   2.248
 7465SOL    HW223295   3.336   1.142   2.152
 7466SOL     OW23296   0.318   0.424   6.681
 7466SOL    HW123297   0.379   0.347   6.664
 7466SOL    HW223298   0.268   0.410   6.766
 7467SOL     OW23299   5.369   1.325   1.535
 7467SOL    HW123300   5.290   1.364   1.488
 7467SOL    HW223301   5.402   1.246   1.483
 7468SOL     OW23302   6.229   3.310   4.285
 7468SOL    HW123303   6.168   3.385   4.310
 7468SOL    HW223304   6.265   3.266   4.368
 7469SOL     OW23305   6.265   1.273   1.777
 7469SOL    HW123306   6.358   1.269   1.739
 7469SOL    HW223307   6.203   1.308   1.707
 7470SOL     OW23308   0.219   2.507   2.350
 7470SOL    HW123309   0.144   2.490   2.414
 7470SOL    HW223310   0.182   2.541   2.264
 7471SOL     OW23311   5.904   4.726   5.704
 7471SOL    HW123312   5.943   4.704   5.794
 7471SOL    HW223313   5.958   4.680   5.633
 7472SOL     OW23314   3.625   5.180   3.393
 7472SOL    HW123315   3.634   5.255   3.328
 7472SOL    HW223316   3.646   5.094   3.348
 7473SOL     OW23317   0.851   3.637   4.816
 7473SOL    HW123318   0.816   3.571   4.883
 7473SOL    HW223319   0.887   3.588   4.737
 7474SOL     OW23320   4.045   1.782   2.771
 7474SOL    HW123321   4.049   1.824   2.861
 7474SOL    HW223322   4.059   1.852   2.701
 7475SOL     OW23323   4.376   1.254   0.287
 7475SOL    HW123324   4.319   1.249   0.369
 7475SOL    HW223325   4.364   1.344   0.244
 7476SOL     OW23326   3.318   0.071   5.102
 7476SOL    HW123327   3.391   0.021   5.055
 7476SOL    HW223328   3.246   0.007   5.128
 7477SOL     OW23329   4.889   3.155   3.396
 7477SOL    HW123330   4.829   3.133   3.319
 7477SOL    HW223331   4.978   3.186   3.361
 7478SOL     OW23332   1.820   5.013   1.270
 7478SOL    HW123333   1.752   5.077   1.233
 7478SOL    HW223334   1.780   4.922   1.277
 7479SOL     OW23335   4.570   0.719   6.174
 7479SOL    HW123336   4.561   0.620   6.161
 7479SOL    HW223337   4.638   0.754   6.109
 7480SOL     OW23338   6.811   4.947   0.917
 7480SOL    HW123339   6.787   4.852   0.938
 7480SOL    HW223340   6.727   5.000   0.902
 7481SOL     OW23341   6.221   5.955   0.608
 7481SOL    HW123342   6.249   6.042   0.568
 7481SOL    HW223343   6.133   5.966   0.655
 7482SOL     OW23344   4.852   0.659   3.878
 7482SOL    HW123345   4.844   0.569   3.923
 7482SOL    HW223346   4.947   0.677   3.857
 7483SOL     OW23347   3.282   6.981   5.913
 7483SOL    HW123348   3.332   0.033   5.874
 7483SOL    HW223349   3.197   6.967   5.862
 7484SOL     OW23350   3.020   0.299   2.337
 7484SOL    HW123351   2.981   0.228   2.278
 7484SOL    HW223352   3.099   0.340   2.292
 7485SOL     OW23353   1.225   6.676   5.969
 7485SOL    HW123354   1.303   6.707   5.914
 7485SOL    HW223355   1.140   6.700   5.922
 7486SOL     OW23356   1.648   0.425   5.094
 7486SOL    HW123357   1.576   0.417   5.026
 7486SOL    HW223358   1.678   0.520   5.101
 7487SOL     OW23359   3.902   5.460   3.524
 7487SOL    HW123360   3.909   5.493   3.429
 7487SOL    HW223361   3.908   5.537   3.587
 7488SOL     OW23362   3.684   0.640   5.388
 7488SOL    HW123363   3.683   0.719   5.326
 7488SOL    HW223364   3.752   0.574   5.355
 7489SOL     OW23365   6.285   3.522   3.273
 7489SOL    HW123366   6.200   3.543   3.225
 7489SOL    HW223367   6.363   3.547   3.216
 7490SOL     OW23368   5.575   1.175   2.386
 7490SOL    HW123369   5.599   1.212   2.476
 7490SOL    HW223370   5.577   1.249   2.318
 7491SOL     OW23371   6.952   6.621   6.696
 7491SOL    HW123372   6.892   6.687   6.741
 7491SOL    HW223373   6.994   6.663   6.616
 7492SOL     OW23374   2.125   2.699   4.012
 7492SOL    HW123375   2.190   2.752   3.958
 7492SOL    HW223376   2.144   2.712   4.109
 7493SOL     OW23377   5.647   4.431   0.281
 7493SOL    HW123378   5.707   4.458   0.206
 7493SOL    HW223379   5.577   4.501   0.294
 7494SOL     OW23380   4.733   1.809   1.014
 7494SOL    HW123381   4.677   1.882   0.976
 7494SOL    HW223382   4.674   1.743   1.061
 7495SOL     OW23383   0.297   1.541   2.454
 7495SOL    HW123384   0.237   1.581   2.385
 7495SOL    HW223385   0.297   1.598   2.536
 7496SOL     OW23386   1.078   4.322   5.244
 7496SOL    HW123387   0.983   4.299   5.225
 7496SOL    HW223388   1.097   4.310   5.341
 7497SOL     OW23389   2.156   5.038   2.399
 7497SOL    HW123390   2.207   5.121   2.378
 7497SOL    HW223391   2.198   4.960   2.353
 7498SOL     OW23392   5.042   1.147   4.288
 7498SOL    HW123393   4.983   1.069   4.312
 7498SOL    HW223394   5.137   1.117   4.287
 7499SOL     OW23395   4.533   5.998   3.956
 7499SOL    HW123396   4.479   5.961   3.881
 7499SOL    HW223397   4.550   5.926   4.024
 7500SOL     OW23398   5.109   4.480   1.618
 7500SOL    HW123399   5.052   4.525   1.549
 7500SOL    HW223400   5.086   4.516   1.709
 7501SOL     OW23401   0.448   4.621   3.744
 7501SOL    HW123402   0.459   4.628   3.645
 7501SOL    HW223403   0.535   4.595   3.786
 7502SOL     OW23404   2.428   1.806   4.418
 7502SOL    HW123405   2.425   1.755   4.504
 7502SOL    HW223406   2.426   1.742   4.341
 7503SOL     OW23407   2.382   2.434   6.694
 7503SOL    HW123408   2.363   2.415   6.790
 7503SOL    HW223409   2.299   2.417   6.639
 7504SOL     OW23410   4.295   5.891   4.223
 7504SOL    HW123411   4.283   5.867   4.127
 7504SOL    HW223412   4.320   5.810   4.276
 7505SOL     OW23413   1.948   2.251   4.379
 7505SOL    HW123414   1.968   2.348   4.392
 7505SOL    HW223415   1.909   2.213   4.462
 7506SOL     OW23416   4.014   1.915   3.383
 7506SOL    HW123417   3.933   1.879   3.428
 7506SOL    HW223418   3.988   1.986   3.318
 7507SOL     OW23419   1.608   6.301   6.099
 7507SOL    HW123420   1.543   6.341   6.165
 7507SOL    HW223421   1.700   6.303   6.138
 7508SOL     OW23422   4.637   6.566   4.118
 7508SOL    HW123423   4.575   6.552   4.041
 7508SOL    HW223424   4.713   6.501   4.111
 7509SOL     OW23425   4.474   3.520   5.706
 7509SOL    HW123426   4.399   3.524   5.640
 7509SOL    HW223427   4.439   3.489   5.794
 7510SOL     OW23428   3.009   3.934   4.492
 7510SOL    HW123429   2.989   3.984   4.576
 7510SOL    HW223430   2.988   3.837   4.505
 7511SOL     OW23431   1.488   0.901   2.773
 7511SOL    HW123432   1.487   0.999   2.754
 7511SOL    HW223433   1.420   0.880   2.843
 7512SOL     OW23434   2.221   3.124   1.867
 7512SOL    HW123435   2.191   3.169   1.951
 7512SOL    HW223436   2.301   3.171   1.830
 7513SOL     OW23437   0.491   3.384   6.552
 7513SOL    HW123438   0.483   3.298   6.602
 7513SOL    HW223439   0.548   3.370   6.471
 7514SOL     OW23440   2.541   5.935   3.049
 7514SOL    HW123441   2.530   5.844   3.010
 7514SOL    HW223442   2.544   6.003   2.976
 7515SOL     OW23443   6.810   5.081   3.065
 7515SOL    HW123444   6.794   5.056   2.970
 7515SOL    HW223445   6.737   5.142   3.097
 7516SOL     OW23446   1.352   1.087   3.132
 7516SOL    HW123447   1.435   1.086   3.076
 7516SOL    HW223448   1.348   1.171   3.185
 7517SOL     OW23449   0.588   4.871   1.457
 7517SOL    HW123450   0.667   4.911   1.502
 7517SOL    HW223451   0.572   4.917   1.370
 7518SOL     OW23452   5.345   5.593   2.785
 7518SOL    HW123453   5.334   5.519   2.719
 7518SOL    HW223454   5.263   5.599   2.842
 7519SOL     OW23455   1.688   6.100   3.650
 7519SOL    HW123456   1.760   6.040   3.614
 7519SOL    HW223457   1.623   6.122   3.578
 7520SOL     OW23458   2.055   6.966   4.088
 7520SOL    HW123459   2.054   6.880   4.139
 7520SOL    HW223460   2.142   7.014   4.106
 7521SOL     OW23461   5.389   3.914   5.951
 7521SOL    HW123462   5.302   3.955   5.921
 7521SOL    HW223463   5.460   3.984   5.950
 7522SOL     OW23464   1.760   0.583   2.306
 7522SOL    HW123465   1.789   0.501   2.357
 7522SOL    HW223466   1.791   0.665   2.354
 7523SOL     OW23467   5.620   6.993   0.038
 7523SOL    HW123468   5.550   0.040   0.044
 7523SOL    HW223469   5.654   6.987   6.969
 7524SOL     OW23470   5.814   1.360   4.319
 7524SOL    HW123471   5.844   1.369   4.224
 7524SOL    HW223472   5.735   1.419   4.335
 7525SOL     OW23473   1.304   6.103   0.928
 7525SOL    HW123474   1.214   6.129   0.964
 7525SOL    HW223475   1.313   6.003   0.929
 7526SOL     OW23476   3.296   2.758   5.470
 7526SOL    HW123477   3.390   2.726   5.457
 7526SOL    HW223478   3.235   2.706   5.409
 7527SOL     OW23479   5.706   4.947   2.267
 7527SOL    HW123480   5.747   4.981   2.352
 7527SOL    HW223481   5.612   4.979   2.260
 7528SOL     OW23482   6.164   3.242   5.876
 7528SOL    HW123483   6.207   3.220   5.963
 7528SOL    HW223484   6.228   3.224   5.801
 7529SOL     OW23485   2.987   0.213   5.294
 7529SOL    HW123486   3.080   0.235   5.323
 7529SOL    HW223487   2.973   0.247   5.200
 7530SOL     OW23488   6.771   3.001   2.475
 7530SOL    HW123489   6.691   3.010   2.416
 7530SOL    HW223490   6.854   3.010   2.421
 7531SOL     OW23491   3.150   1.744   3.928
 7531SOL    HW123492   3.115   1.814   3.867
 7531SOL    HW223493   3.226   1.781   3.981
 7532SOL     OW23494   4.939   4.806   2.106
 7532SOL    HW123495   4.988   4.735   2.055
 7532SOL    HW223496   5.001   4.849   2.171
 7533SOL     OW23497   3.488   0.103   4.613
 7533SOL    HW123498   3.586   0.085   4.619
 7533SOL    HW223499   3.462   0.170   4.682
 7534SOL     OW23500   5.333   0.083   4.648
 7534SOL    HW123501   5.333   0.182   4.630
 7534SOL    HW223502   5.245   0.058   4.689
 7535SOL     OW23503   3.622   4.918   6.746
 7535SOL    HW123504   3.626   4.822   6.775
 7535SOL    HW223505   3.550   4.964   6.798
 7536SOL     OW23506   4.032   5.968   4.259
 7536SOL    HW123507   4.129   5.953   4.240
 7536SOL    HW223508   3.977   5.920   4.190
 7537SOL     OW23509   1.676   4.465   5.718
 7537SOL    HW123510   1.668   4.446   5.816
 7537SOL    HW223511   1.772   4.472   5.693
 7538SOL     OW23512   3.404   3.022   2.953
 7538SOL    HW123513   3.476   2.952   2.954
 7538SOL    HW223514   3.349   3.015   3.036
 7539SOL     OW23515   2.080   2.448   3.932
 7539SOL    HW123516   1.991   2.428   3.973
 7539SOL    HW223517   2.117   2.533   3.972
 7540SOL     OW23518   1.944   1.331   0.254
 7540SOL    HW123519   2.041   1.309   0.238
 7540SOL    HW223520   1.903   1.258   0.309
 7541SOL     OW23521   0.088   2.455   5.437
 7541SOL    HW123522   0.180   2.422   5.459
 7541SOL    HW223523   0.092   2.552   5.415
 7542SOL     OW23524   2.072   0.210   6.509
 7542SOL    HW123525   2.089   0.141   6.439
 7542SOL    HW223526   2.147   0.208   6.576
 7543SOL     OW23527   3.795   2.902   0.126
 7543SOL    HW123528   3.776   2.920   0.029
 7543SOL    HW223529   3.893   2.886   0.138
 7544SOL     OW23530   1.864   2.088   2.957
 7544SOL    HW123531   1.919   2.117   2.879
 7544SOL    HW223532   1.801   2.161   2.983
 7545SOL     OW23533   5.196   6.871   3.737
 7545SOL    HW123534   5.168   6.895   3.830
 7545SOL    HW223535   5.295   6.875   3.730
 7546SOL     OW23536   5.165   0.558   6.665
 7546SOL    HW123537   5.067   0.562   6.683
 7546SOL    HW223538   5.189   0.468   6.630
 7547SOL     OW23539   3.213   6.931   0.382
 7547SOL    HW123540   3.160   6.874   0.446
 7547SOL    HW223541   3.165   7.017   0.366
 7548SOL     OW23542   1.446   3.188   1.090
 7548SOL    HW123543   1.421   3.136   1.172
 7548SOL    HW223544   1.487   3.275   1.117
 7549SOL     OW23545   6.015   2.100   2.076
 7549SOL    HW123546   5.927   2.096   2.123
 7549SOL    HW223547   6.019   2.028   2.006
 7550SOL     OW23548   1.352   5.342   1.239
 7550SOL    HW123549   1.431   5.400   1.219
 7550SOL    HW223550   1.274   5.372   1.185
 7551SOL     OW23551   4.631   3.981   6.345
 7551SOL    HW123552   4.564   3.911   6.319
 7551SOL    HW223553   4.663   3.962   6.438
 7552SOL     OW23554   3.204   5.268   3.930
 7552SOL    HW123555   3.156   5.319   3.858
 7552SOL    HW223556   3.239   5.182   3.892
 7553SOL     OW23557   4.822   4.321   6.161
 7553SOL    HW123558   4.881   4.356   6.088
 7553SOL    HW223559   4.863   4.239   6.201
 7554SOL     OW23560   6.416   1.259   0.814
 7554SOL    HW123561   6.435   1.260   0.912
 7554SOL    HW223562   6.332   1.310   0.796
 7555SOL     OW23563   1.015   5.614   5.708
 7555SOL    HW123564   1.069   5.655   5.781
 7555SOL    HW223565   0.990   5.521   5.734
 7556SOL     OW23566   6.957   3.148   3.979
 7556SOL    HW123567   7.011   3.231   3.994
 7556SOL    HW223568   6.992   3.074   4.035
 7557SOL     OW23569   4.471   3.443   7.008
 7557SOL    HW123570   4.566   3.457   6.979
 7557SOL    HW223571   4.454   3.346   7.022
 7558SOL     OW23572   1.727   3.275   3.497
 7558SOL    HW123573   1.816   3.233   3.478
 7558SOL    HW223574   1.659   3.202   3.510
 7559SOL     OW23575   0.781   5.003   0.633
 7559SOL    HW123576   0.803   4.906   0.642
 7559SOL    HW223577   0.694   5.022   0.677
 7560SOL     OW23578   4.638   6.628   5.970
 7560SOL    HW123579   4.577   6.549   5.973
 7560SOL    HW223580   4.708   6.613   5.901
 7561SOL     OW23581   0.606   3.608   0.735
 7561SOL    HW123582   0.577   3.516   0.707
 7561SOL    HW223583   0.691   3.602   0.788
 7562SOL     OW23584   5.112   5.902   5.388
 7562SOL    HW123585   5.209   5.927   5.392
 7562SOL    HW223586   5.098   5.814   5.433
 7563SOL     OW23587   2.496   1.161   2.297
 7563SOL    HW123588   2.436   1.108   2.237
 7563SOL    HW223589   2.456   1.164   2.389
 7564SOL     OW23590   5.208   6.729   4.221
 7564SOL    HW123591   5.221   6.682   4.134
 7564SOL    HW223592   5.297   6.754   4.259
 7565SOL     OW23593   4.758   4.487   0.426
 7565SOL    HW123594   4.669   4.483   0.381
 7565SOL    HW223595   4.746   4.470   0.524
 7566SOL     OW23596   1.877   5.791   5.150
 7566SOL    HW123597   1.942   5.788   5.074
 7566SOL    HW223598   1.818   5.711   5.147
 7567SOL     OW23599   2.424   3.376   6.914
 7567SOL    HW123600   2.500   3.381   6.850
 7567SOL    HW223601   2.403   3.468   6.947
 7568SOL     OW23602   4.518   4.482   3.259
 7568SOL    HW123603   4.458   4.546   3.212
 7568SOL    HW223604   4.501   4.390   3.226
 7569SOL     OW23605   3.968   0.715   1.398
 7569SOL    HW123606   4.021   0.655   1.338
 7569SOL    HW223607   4.031   0.765   1.459
 7570SOL     OW23608   6.123   4.657   4.475
 7570SOL    HW123609   6.193   4.614   4.531
 7570SOL    HW223610   6.034   4.616   4.494
 7571SOL     OW23611   4.971   4.104   1.794
 7571SOL    HW123612   4.930   4.018   1.826
 7571SOL    HW223613   4.912   4.181   1.819
 7572SOL     OW23614   1.270   1.773   4.326
 7572SOL    HW123615   1.323   1.799   4.407
 7572SOL    HW223616   1.277   1.845   4.257
 7573SOL     OW23617   3.056   5.549   5.303
 7573SOL    HW123618   3.030   5.642   5.280
 7573SOL    HW223619   3.145   5.549   5.348
 7574SOL     OW23620   5.187   5.862   2.340
 7574SOL    HW123621   5.170   5.959   2.352
 7574SOL    HW223622   5.251   5.830   2.409
 7575SOL     OW23623   4.617   2.480   4.688
 7575SOL    HW123624   4.547   2.494   4.758
 7575SOL    HW223625   4.588   2.406   4.627
 7576SOL     OW23626   6.238   3.382   1.387
 7576SOL    HW123627   6.148   3.408   1.420
 7576SOL    HW223628   6.297   3.361   1.465
 7577SOL     OW23629   4.122   0.543   4.891
 7577SOL    HW123630   4.066   0.546   4.808
 7577SOL    HW223631   4.171   0.456   4.896
 7578SOL     OW23632   2.531   5.027   4.290
 7578SOL    HW123633   2.548   5.085   4.210
 7578SOL    HW223634   2.526   4.931   4.260
 7579SOL     OW23635   4.305   1.899   3.409
 7579SOL    HW123636   4.205   1.894   3.402
 7579SOL    HW223637   4.331   1.984   3.453
 7580SOL     OW23638   2.133   3.549   2.938
 7580SOL    HW123639   2.118   3.503   3.025
 7580SOL    HW223640   2.121   3.484   2.863
 7581SOL     OW23641   6.199   0.786   0.943
 7581SOL    HW123642   6.265   0.733   0.995
 7581SOL    HW223643   6.239   0.875   0.919
 7582SOL     OW23644   2.574   1.774   0.934
 7582SOL    HW123645   2.611   1.692   0.977
 7582SOL    HW223646   2.619   1.855   0.971
 7583SOL     OW23647   6.979   3.308   2.538
 7583SOL    HW123648   0.006   3.223   2.550
 7583SOL    HW223649   0.018   3.386   2.540
 7584SOL     OW23650   2.290   1.541   1.118
 7584SOL    HW123651   2.201   1.496   1.130
 7584SOL    HW223652   2.362   1.472   1.120
 7585SOL     OW23653   1.563   5.248   6.133
 7585SOL    HW123654   1.596   5.335   6.170
 7585SOL    HW223655   1.529   5.190   6.207
 7586SOL     OW23656   2.278   1.302   1.631
 7586SOL    HW123657   2.211   1.341   1.569
 7586SOL    HW223658   2.232   1.248   1.702
 7587SOL     OW23659   2.096   0.976   5.948
 7587SOL    HW123660   2.041   0.893   5.941
 7587SOL    HW223661   2.193   0.952   5.957
 7588SOL     OW23662   0.504   4.366   1.435
 7588SOL    HW123663   0.469   4.341   1.525
 7588SOL    HW223664   0.493   4.289   1.372
 7589SOL     OW23665   5.466   6.245   0.481
 7589SOL    HW123666   5.434   6.278   0.392
 7589SOL    HW223667   5.485   6.323   0.541
 7590SOL     OW23668   2.247   0.677   6.755
 7590SOL    HW123669   2.263   0.626   6.671
 7590SOL    HW223670   2.208   0.767   6.733
 7591SOL     OW23671   6.849   5.124   0.128
 7591SOL    HW123672   6.896   5.081   0.205
 7591SOL    HW223673   6.882   5.218   0.116
 7592SOL     OW23674   5.422   5.967   0.051
 7592SOL    HW123675   5.434   5.930   0.143
 7592SOL    HW223676   5.510   5.967   0.004
 7593SOL     OW23677   5.976   3.319   0.029
 7593SOL    HW123678   5.929   3.382   6.992
 7593SOL    HW223679   6.061   3.362   0.061
 7594SOL     OW23680   1.247   6.366   3.499
 7594SOL    HW123681   1.180   6.297   3.527
 7594SOL    HW223682   1.319   6.324   3.445
 7595SOL     OW23683   6.386   2.132   0.223
 7595SOL    HW123684   6.310   2.088   0.176
 7595SOL    HW223685   6.350   2.198   0.289
 7596SOL     OW23686   4.839   4.703   1.731
 7596SOL    HW123687   4.765   4.728   1.669
 7596SOL    HW223688   4.900   4.782   1.744
 7597SOL     OW23689   3.177   5.569   1.850
 7597SOL    HW123690   3.266   5.528   1.872
 7597SOL    HW223691   3.130   5.513   1.782
 7598SOL     OW23692   6.474   0.387   3.354
 7598SOL    HW123693   6.532   0.358   3.431
 7598SOL    HW223694   6.487   0.325   3.277
 7599SOL     OW23695   6.484   2.115   2.212
 7599SOL    HW123696   6.517   2.150   2.300
 7599SOL    HW223697   6.539   2.035   2.186
 7600SOL     OW23698   2.472   2.047   1.759
 7600SOL    HW123699   2.489   2.134   1.712
 7600SOL    HW223700   2.379   2.017   1.740
 7601SOL     OW23701   1.596   6.818   4.446
 7601SOL    HW123702   1.607   6.869   4.360
 7601SOL    HW223703   1.655   6.737   4.443
 7602SOL     OW23704   2.175   3.094   5.028
 7602SOL    HW123705   2.253   3.031   5.027
 7602SOL    HW223706   2.193   3.168   5.092
 7603SOL     OW23707   0.805   0.830   2.078
 7603SOL    HW123708   0.743   0.888   2.026
 7603SOL    HW223709   0.784   0.837   2.175
 7604SOL     OW23710   4.368   6.294   6.679
 7604SOL    HW123711   4.362   6.225   6.608
 7604SOL    HW223712   4.373   6.385   6.637
 7605SOL     OW23713   6.020   4.214   5.354
 7605SOL    HW123714   6.002   4.235   5.258
 7605SOL    HW223715   5.970   4.131   5.380
 7606SOL     OW23716   6.325   1.876   3.042
 7606SOL    HW123717   6.235   1.832   3.050
 7606SOL    HW223718   6.314   1.968   3.004
 7607SOL     OW23719   5.188   6.923   6.925
 7607SOL    HW123720   5.166   6.826   6.928
 7607SOL    HW223721   5.121   6.974   6.980
 7608SOL     OW23722   3.698   3.192   3.605
 7608SOL    HW123723   3.794   3.204   3.580
 7608SOL    HW223724   3.646   3.163   3.525
 7609SOL     OW23725   1.622   2.894   4.419
 7609SOL    HW123726   1.583   2.977   4.379
 7609SOL    HW223727   1.629   2.823   4.349
 7610SOL     OW23728   5.444   0.631   1.326
 7610SOL    HW123729   5.417   0.577   1.246
 7610SOL    HW223730   5.482   0.571   1.396
 7611SOL     OW23731   1.598   1.926   1.441
 7611SOL    HW123732   1.516   1.888   1.398
 7611SOL    HW223733   1.577   1.955   1.534
 7612SOL     OW23734   4.436   1.829   2.625
 7612SOL    HW123735   4.382   1.843   2.542
 7612SOL    HW223736   4.419   1.737   2.660
 7613SOL     OW23737   5.280   1.146   2.372
 7613SOL    HW123738   5.372   1.185   2.376
 7613SOL    HW223739   5.215   1.208   2.417
 7614SOL     OW23740   3.877   1.648   0.339
 7614SOL    HW123741   3.792   1.599   0.356
 7614SOL    HW223742   3.857   1.739   0.304
 7615SOL     OW23743   3.752   4.840   5.878
 7615SOL    HW123744   3.716   4.916   5.932
 7615SOL    HW223745   3.820   4.791   5.932
 7616SOL     OW23746   6.585   5.117   3.816
 7616SOL    HW123747   6.653   5.155   3.754
 7616SOL    HW223748   6.630   5.079   3.897
 7617SOL     OW23749   3.228   6.052   2.383
 7617SOL    HW123750   3.158   6.075   2.315
 7617SOL    HW223751   3.295   6.127   2.388
 7618SOL     OW23752   1.924   2.607   0.433
 7618SOL    HW123753   1.837   2.622   0.480
 7618SOL    HW223754   1.928   2.514   0.398
 7619SOL     OW23755   5.885   3.174   5.708
 7619SOL    HW123756   5.926   3.200   5.795
 7619SOL    HW223757   5.947   3.113   5.659
 7620SOL     OW23758   3.317   6.433   1.513
 7620SOL    HW123759   3.378   6.377   1.570
 7620SOL    HW223760   3.265   6.374   1.452
 7621SOL     OW23761   2.845   1.701   1.551
 7621SOL    HW123762   2.780   1.777   1.557
 7621SOL    HW223763   2.859   1.662   1.642
 7622SOL     OW23764   4.619   1.955   0.657
 7622SOL    HW123765   4.599   1.959   0.755
 7622SOL    HW223766   4.562   1.886   0.614
 7623SOL     OW23767   5.179   0.417   5.825
 7623SOL    HW123768   5.275   0.403   5.799
 7623SOL    HW223769   5.173   0.500   5.881
 7624SOL     OW23770   6.695   0.518   4.235
 7624SOL    HW123771   6.751   0.578   4.179
 7624SOL    HW223772   6.658   0.445   4.179
 7625SOL     OW23773   4.316   6.712   1.255
 7625SOL    HW123774   4.255   6.651   1.205
 7625SOL    HW223775   4.371   6.765   1.190
 7626SOL     OW23776   1.962   4.796   4.990
 7626SOL    HW123777   2.030   4.869   4.985
 7626SOL    HW223778   1.991   4.719   4.933
 7627SOL     OW23779   0.249   2.363   0.267
 7627SOL    HW123780   0.335   2.342   0.221
 7627SOL    HW223781   0.265   2.434   0.336
 7628SOL     OW23782   3.774   2.182   1.076
 7628SOL    HW123783   3.832   2.189   1.157
 7628SOL    HW223784   3.772   2.271   1.029
 7629SOL     OW23785   6.443   5.303   3.675
 7629SOL    HW123786   6.476   5.232   3.737
 7629SOL    HW223787   6.352   5.333   3.704
 7630SOL     OW23788   6.475   0.797   2.406
 7630SOL    HW123789   6.555   0.821   2.350
 7630SOL    HW223790   6.425   0.722   2.362
 7631SOL     OW23791   1.063   2.143   3.519
 7631SOL    HW123792   1.138   2.207   3.500
 7631SOL    HW223793   0.982   2.195   3.545
 7632SOL     OW23794   4.278   1.780   6.397
 7632SOL    HW123795   4.308   1.688   6.373
 7632SOL    HW223796   4.316   1.846   6.332
 7633SOL     OW23797   5.776   4.480   6.403
 7633SOL    HW123798   5.694   4.526   6.370
 7633SOL    HW223799   5.836   4.546   6.448
 7634SOL     OW23800   0.734   1.845   2.110
 7634SOL    HW123801   0.757   1.860   2.206
 7634SOL    HW223802   0.735   1.747   2.091
 7635SOL     OW23803   2.811   5.093   6.106
 7635SOL    HW123804   2.887   5.136   6.056
 7635SOL    HW223805   2.812   5.126   6.200
 7636SOL     OW23806   1.623   0.088   3.968
 7636SOL    HW123807   1.718   0.110   3.947
 7636SOL    HW223808   1.580   0.165   4.015
 7637SOL     OW23809   2.051   5.758   4.304
 7637SOL    HW123810   2.015   5.697   4.374
 7637SOL    HW223811   2.089   5.704   4.229
 7638SOL     OW23812   4.643   4.588   1.903
 7638SOL    HW123813   4.716   4.636   1.856
 7638SOL    HW223814   4.657   4.489   1.896
 7639SOL     OW23815   0.732   1.971   4.221
 7639SOL    HW123816   0.657   2.037   4.223
 7639SOL    HW223817   0.772   1.964   4.313
 7640SOL     OW23818   2.141   2.843   6.471
 7640SOL    HW123819   2.237   2.871   6.475
 7640SOL    HW223820   2.135   2.744   6.476
 7641SOL     OW23821   6.455   2.710   3.307
 7641SOL    HW123822   6.433   2.807   3.316
 7641SOL    HW223823   6.379   2.663   3.261
 7642SOL     OW23824   2.713   1.941   2.846
 7642SOL    HW123825   2.618   1.970   2.857
 7642SOL    HW223826   2.770   2.018   2.819
 7643SOL     OW23827   4.901   3.374   3.155
 7643SOL    HW123828   4.810   3.388   3.194
 7643SOL    HW223829   4.964   3.442   3.193
 7644SOL     OW23830   6.644   3.770   3.077
 7644SOL    HW123831   6.681   3.754   2.985
 7644SOL    HW223832   6.705   3.728   3.144
 7645SOL     OW23833   4.733   3.498   6.922
 7645SOL    HW123834   4.794   3.449   6.859
 7645SOL    HW223835   4.773   3.586   6.947
 7646SOL     OW23836   0.926   1.785   1.849
 7646SOL    HW123837   0.895   1.877   1.871
 7646SOL    HW223838   1.016   1.769   1.890
 7647SOL     OW23839   1.989   4.473   1.521
 7647SOL    HW123840   1.908   4.493   1.466
 7647SOL    HW223841   2.053   4.550   1.517
 7648SOL     OW23842   4.316   0.667   3.072
 7648SOL    HW123843   4.347   0.626   2.987
 7648SOL    HW223844   4.248   0.738   3.052
 7649SOL     OW23845   2.550   1.175   1.663
 7649SOL    HW123846   2.460   1.219   1.660
 7649SOL    HW223847   2.619   1.242   1.691
 7650SOL     OW23848   5.233   4.866   2.888
 7650SOL    HW123849   5.228   4.895   2.983
 7650SOL    HW223850   5.270   4.774   2.882
 7651SOL     OW23851   4.373   1.502   6.257
 7651SOL    HW123852   4.337   1.537   6.171
 7651SOL    HW223853   4.349   1.405   6.267
 7652SOL     OW23854   0.824   3.132   2.732
 7652SOL    HW123855   0.774   3.211   2.696
 7652SOL    HW223856   0.769   3.050   2.722
 7653SOL     OW23857   3.563   2.372   1.524
 7653SOL    HW123858   3.596   2.330   1.609
 7653SOL    HW223859   3.493   2.441   1.546
 7654SOL     OW23860   4.876   3.871   3.749
 7654SOL    HW123861   4.807   3.942   3.767
 7654SOL    HW223862   4.885   3.813   3.830
 7655SOL     OW23863   4.599   6.326   5.710
 7655SOL    HW123864   4.512   6.374   5.722
 7655SOL    HW223865   4.593   6.267   5.629
 7656SOL     OW23866   1.034   5.999   4.681
 7656SOL    HW123867   1.048   6.090   4.642
 7656SOL    HW223868   0.981   6.006   4.766
 7657SOL     OW23869   4.521   1.347   4.483
 7657SOL    HW123870   4.530   1.413   4.558
 7657SOL    HW223871   4.608   1.298   4.471
 7658SOL     OW23872   4.195   0.522   6.037
 7658SOL    HW123873   4.097   0.509   6.020
 7658SOL    HW223874   4.216   0.620   6.038
 7659SOL     OW23875   5.444   0.047   0.411
 7659SOL    HW123876   5.500   0.111   0.358
 7659SOL    HW223877   5.406   7.002   0.351
 7660SOL     OW23878   6.584   4.561   4.034
 7660SOL    HW123879   6.495   4.603   4.012
 7660SOL    HW223880   6.651   4.633   4.053
 7661SOL     OW23881   5.714   3.482   3.276
 7661SOL    HW123882   5.706   3.427   3.359
 7661SOL    HW223883   5.718   3.422   3.196
 7662SOL     OW23884   6.924   5.719   1.641
 7662SOL    HW123885   6.952   5.813   1.624
 7662SOL    HW223886   6.825   5.715   1.656
 7663SOL     OW23887   6.992   5.176   6.890
 7663SOL    HW123888   6.922   5.176   6.961
 7663SOL    HW223889   0.058   5.184   6.932
 7664SOL     OW23890   2.458   5.244   4.679
 7664SOL    HW123891   2.397   5.312   4.640
 7664SOL    HW223892   2.482   5.176   4.610
 7665SOL     OW23893   2.093   6.266   4.785
 7665SOL    HW123894   2.099   6.168   4.766
 7665SOL    HW223895   2.100   6.281   4.884
 7666SOL     OW23896   1.467   1.254   1.360
 7666SOL    HW123897   1.378   1.243   1.316
 7666SOL    HW223898   1.532   1.188   1.320
 7667SOL     OW23899   4.929   5.485   6.396
 7667SOL    HW123900   4.976   5.526   6.317
 7667SOL    HW223901   4.913   5.555   6.465
 7668SOL     OW23902   2.756   3.763   1.446
 7668SOL    HW123903   2.701   3.820   1.386
 7668SOL    HW223904   2.758   3.803   1.538
 7669SOL     OW23905   4.659   6.400   4.926
 7669SOL    HW123906   4.668   6.326   4.859
 7669SOL    HW223907   4.626   6.363   5.013
 7670SOL     OW23908   2.020   4.871   1.013
 7670SOL    HW123909   2.077   4.952   1.021
 7670SOL    HW223910   2.043   4.821   0.929
 7671SOL     OW23911   5.277   2.828   4.837
 7671SOL    HW123912   5.220   2.883   4.897
 7671SOL    HW223913   5.219   2.780   4.771
 7672SOL     OW23914   5.101   0.460   2.231
 7672SOL    HW123915   5.055   0.406   2.301
 7672SOL    HW223916   5.152   0.535   2.274
 7673SOL     OW23917   0.158   4.643   0.782
 7673SOL    HW123918   0.251   4.677   0.765
 7673SOL    HW223919   0.130   4.668   0.874
 7674SOL     OW23920   6.931   0.934   4.803
 7674SOL    HW123921   6.914   1.023   4.760
 7674SOL    HW223922   6.955   0.867   4.733
 7675SOL     OW23923   4.482   0.324   3.422
 7675SOL    HW123924   4.490   0.277   3.334
 7675SOL    HW223925   4.410   0.281   3.476
 7676SOL     OW23926   1.734   6.774   0.991
 7676SOL    HW123927   1.822   6.769   0.943
 7676SOL    HW223928   1.740   6.844   1.063
 7677SOL     OW23929   1.898   2.828   2.690
 7677SOL    HW123930   1.914   2.893   2.616
 7677SOL    HW223931   1.852   2.875   2.766
 7678SOL     OW23932   5.769   0.177   6.602
 7678SOL    HW123933   5.734   0.244   6.667
 7678SOL    HW223934   5.826   0.223   6.534
 7679SOL     OW23935   0.662   4.902   5.371
 7679SOL    HW123936   0.618   4.945   5.293
 7679SOL    HW223937   0.760   4.926   5.371
 7680SOL     OW23938   4.091   2.249   6.457
 7680SOL    HW123939   4.123   2.155   6.467
 7680SOL    HW223940   4.096   2.276   6.360
 7681SOL     OW23941   2.355   1.746   6.948
 7681SOL    HW123942   2.329   1.783   6.859
 7681SOL    HW223943   2.411   1.664   6.936
 7682SOL     OW23944   3.445   0.040   1.076
 7682SOL    HW123945   3.396   0.002   1.154
 7682SOL    HW223946   3.481   6.990   1.019
 7683SOL     OW23947   6.116   1.641   3.265
 7683SOL    HW123948   6.057   1.690   3.201
 7683SOL    HW223949   6.166   1.569   3.217
 7684SOL     OW23950   4.172   1.531   5.782
 7684SOL    HW123951   4.128   1.588   5.713
 7684SOL    HW223952   4.227   1.460   5.737
 7685SOL     OW23953   3.540   3.720   0.735
 7685SOL    HW123954   3.496   3.632   0.750
 7685SOL    HW223955   3.617   3.730   0.799
 7686SOL     OW23956   3.007   0.323   3.846
 7686SOL    HW123957   3.012   0.229   3.811
 7686SOL    HW223958   3.077   0.378   3.803
 7687SOL     OW23959   4.508   5.281   5.229
 7687SOL    HW123960   4.460   5.361   5.264
 7687SOL    HW223961   4.442   5.209   5.208
 7688SOL     OW23962   6.852   0.169   4.394
 7688SOL    HW123963   6.909   0.186   4.313
 7688SOL    HW223964   6.901   0.108   4.456
 7689SOL     OW23965   4.113   6.588   4.225
 7689SOL    HW123966   4.162   6.502   4.217
 7689SOL    HW223967   4.026   6.573   4.271
 7690SOL     OW23968   0.025   6.383   3.216
 7690SOL    HW123969   0.113   6.392   3.263
 7690SOL    HW223970   0.016   6.290   3.180
 7691SOL     OW23971   5.589   4.357   5.051
 7691SOL    HW123972   5.498   4.384   5.021
 7691SOL    HW223973   5.620   4.277   4.999
 7692SOL     OW23974   1.770   6.673   1.271
 7692SOL    HW123975   1.776   6.620   1.186
 7692SOL    HW223976   1.799   6.616   1.347
 7693SOL     OW23977   5.706   0.899   6.672
 7693SOL    HW123978   5.718   0.909   6.770
 7693SOL    HW223979   5.740   0.981   6.625
 7694SOL     OW23980   6.171   5.024   4.421
 7694SOL    HW123981   6.254   5.060   4.378
 7694SOL    HW223982   6.128   4.957   4.360
 7695SOL     OW23983   3.810   0.283   6.796
 7695SOL    HW123984   3.813   0.369   6.847
 7695SOL    HW223985   3.718   0.268   6.761
 7696SOL     OW23986   0.471   3.489   6.011
 7696SOL    HW123987   0.517   3.447   6.089
 7696SOL    HW223988   0.453   3.420   5.942
 7697SOL     OW23989   4.141   1.881   1.564
 7697SOL    HW123990   4.107   1.791   1.591
 7697SOL    HW223991   4.226   1.900   1.613
 7698SOL     OW23992   0.128   3.504   5.603
 7698SOL    HW123993   0.160   3.587   5.648
 7698SOL    HW223994   0.036   3.482   5.635
 7699SOL     OW23995   2.118   4.736   0.022
 7699SOL    HW123996   2.195   4.675   0.004
 7699SOL    HW223997   2.061   4.697   0.094
 7700SOL     OW23998   5.443   6.911   5.410
 7700SOL    HW123999   5.456   6.974   5.486
 7700SOL    HW224000   5.527   6.858   5.397
 7701SOL     OW24001   6.469   2.266   5.052
 7701SOL    HW124002   6.491   2.179   5.094
 7701SOL    HW224003   6.520   2.276   4.967
 7702SOL     OW24004   2.453   6.115   5.920
 7702SOL    HW124005   2.360   6.151   5.913
 7702SOL    HW224006   2.456   6.044   5.991
 7703SOL     OW24007   0.129   2.115   6.449
 7703SOL    HW124008   0.197   2.181   6.420
 7703SOL    HW224009   0.043   2.162   6.471
 7704SOL     OW24010   4.496   4.941   0.253
 7704SOL    HW124011   4.536   4.940   0.345
 7704SOL    HW224012   4.462   4.849   0.231
 7705SOL     OW24013   3.732   5.227   5.543
 7705SOL    HW124014   3.772   5.234   5.635
 7705SOL    HW224015   3.761   5.142   5.500
 7706SOL     OW24016   6.684   0.580   5.385
 7706SOL    HW124017   6.676   0.673   5.350
 7706SOL    HW224018   6.694   0.516   5.309
 7707SOL     OW24019   0.109   4.959   6.155
 7707SOL    HW124020   0.089   4.910   6.070
 7707SOL    HW224021   0.194   5.011   6.144
 7708SOL     OW24022   4.708   6.870   4.959
 7708SOL    HW124023   4.659   6.958   4.962
 7708SOL    HW224024   4.785   6.873   5.022
 7709SOL     OW24025   3.731   1.922   1.926
 7709SOL    HW124026   3.688   2.012   1.941
 7709SOL    HW224027   3.830   1.934   1.919
 7710SOL     OW24028   3.034   1.949   6.866
 7710SOL    HW124029   3.001   1.884   6.933
 7710SOL    HW224030   3.007   2.042   6.892
 7711SOL     OW24031   5.377   6.510   6.321
 7711SOL    HW124032   5.414   6.526   6.413
 7711SOL    HW224033   5.358   6.598   6.277
 7712SOL     OW24034   4.940   5.182   1.211
 7712SOL    HW124035   4.932   5.276   1.243
 7712SOL    HW224036   4.998   5.179   1.129
 7713SOL     OW24037   1.320   4.590   6.788
 7713SOL    HW124038   1.339   4.493   6.802
 7713SOL    HW224039   1.271   4.627   6.867
 7714SOL     OW24040   5.205   4.536   3.791
 7714SOL    HW124041   5.107   4.534   3.811
 7714SOL    HW224042   5.253   4.478   3.856
 7715SOL     OW24043   4.459   1.914   1.341
 7715SOL    HW124044   4.520   1.965   1.281
 7715SOL    HW224045   4.386   1.973   1.373
 7716SOL     OW24046   4.645   2.742   3.157
 7716SOL    HW124047   4.656   2.718   3.254
 7716SOL    HW224048   4.686   2.832   3.140
 7717SOL     OW24049   3.742   0.836   6.307
 7717SOL    HW124050   3.660   0.891   6.322
 7717SOL    HW224051   3.762   0.784   6.391
 7718SOL     OW24052   2.860   5.971   3.581
 7718SOL    HW124053   2.865   5.927   3.491
 7718SOL    HW224054   2.943   5.950   3.633
 7719SOL     OW24055   6.517   2.066   5.241
 7719SOL    HW124056   6.531   1.971   5.216
 7719SOL    HW224057   6.596   2.099   5.292
 7720SOL     OW24058   5.710   5.603   1.812
 7720SOL    HW124059   5.694   5.625   1.908
 7720SOL    HW224060   5.663   5.518   1.789
 7721SOL     OW24061   1.670   4.661   2.565
 7721SOL    HW124062   1.649   4.690   2.659
 7721SOL    HW224063   1.770   4.658   2.553
 7722SOL     OW24064   0.391   5.678   4.133
 7722SOL    HW124065   0.388   5.658   4.231
 7722SOL    HW224066   0.376   5.776   4.119
 7723SOL     OW24067   6.435   3.239   0.443
 7723SOL    HW124068   6.466   3.144   0.451
 7723SOL    HW224069   6.335   3.240   0.436
 7724SOL     OW24070   1.906   5.119   0.885
 7724SOL    HW124071   1.837   5.154   0.823
 7724SOL    HW224072   1.914   5.020   0.874
 7725SOL     OW24073   5.132   3.650   4.751
 7725SOL    HW124074   5.205   3.665   4.819
 7725SOL    HW224075   5.143   3.714   4.675
 7726SOL     OW24076   6.266   3.854   3.749
 7726SOL    HW124077   6.272   3.806   3.836
 7726SOL    HW224078   6.358   3.874   3.715
 7727SOL     OW24079   6.625   2.769   1.930
 7727SOL    HW124080   6.704   2.722   1.890
 7727SOL    HW224081   6.654   2.820   2.011
 7728SOL     OW24082   2.639   2.243   2.878
 7728SOL    HW124083   2.676   2.275   2.965
 7728SOL    HW224084   2.630   2.321   2.815
 7729SOL     OW24085   5.571   2.253   0.655
 7729SOL    HW124086   5.566   2.233   0.753
 7729SOL    HW224087   5.502   2.199   0.607
 7730SOL     OW24088   4.765   0.268   2.200
 7730SOL    HW124089   4.801   0.249   2.109
 7730SOL    HW224090   4.722   0.358   2.201
 7731SOL     OW24091   6.318   1.120   6.047
 7731SOL    HW124092   6.416   1.140   6.046
 7731SOL    HW224093   6.289   1.101   6.141
 7732SOL     OW24094   4.231   4.773   0.404
 7732SOL    HW124095   4.263   4.679   0.389
 7732SOL    HW224096   4.172   4.775   0.484
 7733SOL     OW24097   3.335   6.979   1.759
 7733SOL    HW124098   3.272   6.907   1.786
 7733SOL    HW224099   3.291   0.013   1.690
 7734SOL     OW24100   1.623   1.736   3.072
 7734SOL    HW124101   1.588   1.824   3.105
 7734SOL    HW224102   1.697   1.752   3.007
 7735SOL     OW24103   4.758   4.130   0.625
 7735SOL    HW124104   4.727   4.096   0.714
 7735SOL    HW224105   4.840   4.186   0.638
 7736SOL     OW24106   5.872   4.414   6.049
 7736SOL    HW124107   5.827   4.409   6.139
 7736SOL    HW224108   5.809   4.380   5.979
 7737SOL     OW24109   5.293   1.586   0.637
 7737SOL    HW124110   5.303   1.685   0.621
 7737SOL    HW224111   5.315   1.537   0.552
 7738SOL     OW24112   2.336   4.940   6.557
 7738SOL    HW124113   2.413   4.980   6.509
 7738SOL    HW224114   2.368   4.867   6.617
 7739SOL     OW24115   6.111   3.475   1.922
 7739SOL    HW124116   6.023   3.510   1.954
 7739SOL    HW224117   6.096   3.394   1.866
 7740SOL     OW24118   0.477   6.751   3.558
 7740SOL    HW124119   0.397   6.728   3.503
 7740SOL    HW224120   0.515   6.838   3.526
 7741SOL     OW24121   2.927   5.570   4.432
 7741SOL    HW124122   2.923   5.664   4.466
 7741SOL    HW224123   2.844   5.521   4.460
 7742SOL     OW24124   6.040   1.066   4.105
 7742SOL    HW124125   6.137   1.041   4.105
 7742SOL    HW224126   6.011   1.088   4.012
 7743SOL     OW24127   4.770   2.773   2.859
 7743SOL    HW124128   4.822   2.854   2.831
 7743SOL    HW224129   4.702   2.798   2.928
 7744SOL     OW24130   0.065   6.958   5.274
 7744SOL    HW124131   6.991   6.946   5.256
 7744SOL    HW224132   0.103   7.022   5.207
 7745SOL     OW24133   5.207   3.288   5.405
 7745SOL    HW124134   5.229   3.261   5.499
 7745SOL    HW224135   5.228   3.385   5.392
 7746SOL     OW24136   1.576   0.507   0.526
 7746SOL    HW124137   1.592   0.605   0.520
 7746SOL    HW224138   1.521   0.477   0.448
 7747SOL     OW24139   5.301   5.079   1.188
 7747SOL    HW124140   5.268   5.031   1.270
 7747SOL    HW224141   5.239   5.060   1.112
 7748SOL     OW24142   3.326   3.359   6.453
 7748SOL    HW124143   3.366   3.405   6.532
 7748SOL    HW224144   3.400   3.325   6.394
 7749SOL     OW24145   5.268   3.087   6.487
 7749SOL    HW124146   5.290   3.179   6.520
 7749SOL    HW224147   5.351   3.031   6.487
 7750SOL     OW24148   6.027   5.191   2.841
 7750SOL    HW124149   6.003   5.217   2.934
 7750SOL    HW224150   6.065   5.098   2.840
 7751SOL     OW24151   0.073   2.721   1.877
 7751SOL    HW124152   0.087   2.794   1.810
 7751SOL    HW224153   6.999   2.706   1.889
 7752SOL     OW24154   4.765   2.236   3.137
 7752SOL    HW124155   4.756   2.306   3.066
 7752SOL    HW224156   4.847   2.182   3.119
 7753SOL     OW24157   3.374   1.802   4.732
 7753SOL    HW124158   3.439   1.728   4.746
 7753SOL    HW224159   3.354   1.846   4.820
 7754SOL     OW24160   5.415   6.246   2.223
 7754SOL    HW124161   5.458   6.161   2.193
 7754SOL    HW224162   5.358   6.228   2.303
 7755SOL     OW24163   0.794   5.112   4.427
 7755SOL    HW124164   0.769   5.093   4.332
 7755SOL    HW224165   0.720   5.162   4.472
 7756SOL     OW24166   2.964   5.125   2.286
 7756SOL    HW124167   3.007   5.198   2.234
 7756SOL    HW224168   3.015   5.040   2.273
 7757SOL     OW24169   0.158   4.774   2.503
 7757SOL    HW124170   0.204   4.826   2.431
 7757SOL    HW224171   0.212   4.692   2.523
 7758SOL     OW24172   1.655   1.697   5.100
 7758SOL    HW124173   1.702   1.771   5.148
 7758SOL    HW224174   1.599   1.645   5.164
 7759SOL     OW24175   3.636   1.929   1.222
 7759SOL    HW124176   3.630   2.014   1.275
 7759SOL    HW224177   3.689   1.945   1.139
 7760SOL     OW24178   4.808   3.177   0.636
 7760SOL    HW124179   4.872   3.117   0.588
 7760SOL    HW224180   4.770   3.130   0.715
 7761SOL     OW24181   4.541   5.421   3.812
 7761SOL    HW124182   4.621   5.478   3.794
 7761SOL    HW224183   4.564   5.325   3.793
 7762SOL     OW24184   5.484   1.504   2.047
 7762SOL    HW124185   5.519   1.542   1.962
 7762SOL    HW224186   5.558   1.462   2.098
 7763SOL     OW24187   2.233   0.503   4.397
 7763SOL    HW124188   2.136   0.479   4.391
 7763SOL    HW224189   2.253   0.576   4.331
 7764SOL     OW24190   2.460   4.275   5.673
 7764SOL    HW124191   2.529   4.293   5.602
 7764SOL    HW224192   2.451   4.355   5.732
 7765SOL     OW24193   5.201   3.557   4.139
 7765SOL    HW124194   5.297   3.540   4.162
 7765SOL    HW224195   5.182   3.524   4.047
 7766SOL     OW24196   6.622   3.213   6.366
 7766SOL    HW124197   6.559   3.180   6.437
 7766SOL    HW224198   6.700   3.258   6.409
 7767SOL     OW24199   3.748   0.692   4.084
 7767SOL    HW124200   3.795   0.704   3.996
 7767SOL    HW224201   3.650   0.689   4.069
 7768SOL     OW24202   4.120   5.509   3.782
 7768SOL    HW124203   4.157   5.501   3.690
 7768SOL    HW224204   4.023   5.534   3.778
 7769SOL     OW24205   3.520   3.052   5.776
 7769SOL    HW124206   3.517   3.144   5.737
 7769SOL    HW224207   3.435   3.003   5.753
 7770SOL     OW24208   1.779   3.632   4.114
 7770SOL    HW124209   1.711   3.573   4.156
 7770SOL    HW224210   1.852   3.651   4.179
 7771SOL     OW24211   2.011   3.414   6.192
 7771SOL    HW124212   1.922   3.457   6.205
 7771SOL    HW224213   2.079   3.483   6.167
 7772SOL     OW24214   5.172   6.622   2.282
 7772SOL    HW124215   5.260   6.652   2.319
 7772SOL    HW224216   5.126   6.699   2.238
 7773SOL     OW24217   2.698   6.523   0.006
 7773SOL    HW124218   2.637   6.559   6.959
 7773SOL    HW224219   2.673   6.563   0.094
 7774SOL     OW24220   5.189   1.245   2.635
 7774SOL    HW124221   5.256   1.261   2.562
 7774SOL    HW224222   5.232   1.258   2.724
 7775SOL     OW24223   2.676   2.209   0.957
 7775SOL    HW124224   2.698   2.271   1.033
 7775SOL    HW224225   2.719   2.243   0.873
 7776SOL     OW24226   2.503   1.173   4.682
 7776SOL    HW124227   2.458   1.090   4.714
 7776SOL    HW224228   2.573   1.201   4.748
 7777SOL     OW24229   6.156   6.120   3.294
 7777SOL    HW124230   6.254   6.125   3.274
 7777SOL    HW224231   6.117   6.039   3.251
 7778SOL     OW24232   6.931   4.709   2.642
 7778SOL    HW124233   7.014   4.764   2.650
 7778SOL    HW224234   6.953   4.622   2.598
 7779SOL     OW24235   3.994   6.145   1.962
 7779SOL    HW124236   4.033   6.225   2.009
 7779SOL    HW224237   4.047   6.126   1.879
 7780SOL     OW24238   6.121   6.592   5.240
 7780SOL    HW124239   6.103   6.496   5.218
 7780SOL    HW224240   6.094   6.609   5.335
 7781SOL     OW24241   1.588   3.496   0.885
 7781SOL    HW124242   1.554   3.574   0.833
 7781SOL    HW224243   1.576   3.412   0.832
 7782SOL     OW24244   5.163   3.097   4.393
 7782SOL    HW124245   5.202   3.107   4.485
 7782SOL    HW224246   5.115   3.181   4.368
 7783SOL     OW24247   1.482   6.499   4.473
 7783SOL    HW124248   1.452   6.404   4.464
 7783SOL    HW224249   1.572   6.502   4.516
 7784SOL     OW24250   1.696   2.133   1.814
 7784SOL    HW124251   1.661   2.049   1.774
 7784SOL    HW224252   1.664   2.142   1.909
 7785SOL     OW24253   6.858   6.830   3.210
 7785SOL    HW124254   6.942   6.874   3.180
 7785SOL    HW224255   6.865   6.731   3.194
 7786SOL     OW24256   4.252   1.168   5.869
 7786SOL    HW124257   4.351   1.176   5.868
 7786SOL    HW224258   4.226   1.074   5.844
 7787SOL     OW24259   2.687   2.354   1.794
 7787SOL    HW124260   2.699   2.273   1.736
 7787SOL    HW224261   2.774   2.402   1.802
 7788SOL     OW24262   0.477   4.130   1.705
 7788SOL    HW124263   0.459   4.212   1.760
 7788SOL    HW224264   0.575   4.119   1.693
 7789SOL     OW24265   3.308   1.313   6.232
 7789SOL    HW124266   3.401   1.310   6.194
 7789SOL    HW224267   3.242   1.304   6.158
 7790SOL     OW24268   4.282   5.038   2.016
 7790SOL    HW124269   4.355   5.009   1.956
 7790SOL    HW224270   4.211   4.967   2.020
 7791SOL     OW24271   3.244   5.910   2.621
 7791SOL    HW124272   3.180   5.959   2.679
 7791SOL    HW224273   3.242   5.949   2.529
 7792SOL     OW24274   1.365   1.414   2.913
 7792SOL    HW124275   1.313   1.408   2.828
 7792SOL    HW224276   1.461   1.432   2.893
 7793SOL     OW24277   5.321   1.023   0.876
 7793SOL    HW124278   5.357   1.070   0.795
 7793SOL    HW224279   5.329   1.084   0.955
 7794SOL     OW24280   0.851   6.663   2.985
 7794SOL    HW124281   0.933   6.716   3.009
 7794SOL    HW224282   0.878   6.579   2.938
 7795SOL     OW24283   3.604   4.648   0.459
 7795SOL    HW124284   3.567   4.636   0.551
 7795SOL    HW224285   3.698   4.680   0.465
 7796SOL     OW24286   3.621   2.431   0.474
 7796SOL    HW124287   3.718   2.443   0.451
 7796SOL    HW224288   3.577   2.521   0.480
 7797SOL     OW24289   0.796   5.780   3.208
 7797SOL    HW124290   0.801   5.728   3.293
 7797SOL    HW224291   0.821   5.721   3.131
 7798SOL     OW24292   1.809   3.054   0.755
 7798SOL    HW124293   1.885   3.016   0.807
 7798SOL    HW224294   1.845   3.103   0.675
 7799SOL     OW24295   3.079   5.877   3.787
 7799SOL    HW124296   3.177   5.884   3.805
 7799SOL    HW224297   3.050   5.782   3.792
 7800SOL     OW24298   0.921   0.176   2.398
 7800SOL    HW124299   0.925   0.245   2.325
 7800SOL    HW224300   1.014   0.144   2.417
 7801SOL     OW24301   0.862   2.088   1.291
 7801SOL    HW124302   0.828   2.119   1.380
 7801SOL    HW224303   0.799   2.117   1.219
 7802SOL     OW24304   0.303   3.729   3.897
 7802SOL    HW124305   0.254   3.756   3.815
 7802SOL    HW224306   0.239   3.717   3.972
 7803SOL     OW24307   2.876   2.637   5.657
 7803SOL    HW124308   2.852   2.543   5.630
 7803SOL    HW224309   2.944   2.635   5.730
 7804SOL     OW24310   3.798   1.633   5.265
 7804SOL    HW124311   3.780   1.608   5.170
 7804SOL    HW224312   3.795   1.732   5.274
 7805SOL     OW24313   5.201   2.813   0.137
 7805SOL    HW124314   5.135   2.881   0.168
 7805SOL    HW224315   5.157   2.724   0.131
 7806SOL     OW24316   6.931   1.521   5.998
 7806SOL    HW124317   7.003   1.460   6.030
 7806SOL    HW224318   6.952   1.615   6.025
 7807SOL     OW24319   2.112   5.658   5.700
 7807SOL    HW124320   2.116   5.565   5.736
 7807SOL    HW224321   2.162   5.720   5.760
 7808SOL     OW24322   6.518   3.873   3.550
 7808SOL    HW124323   6.476   3.844   3.464
 7808SOL    HW224324   6.583   3.803   3.581
 7809SOL     OW24325   4.866   5.564   2.388
 7809SOL    HW124326   4.793   5.571   2.319
 7809SOL    HW224327   4.954   5.557   2.342
 7810SOL     OW24328   2.839   6.873   6.277
 7810SOL    HW124329   2.811   6.889   6.182
 7810SOL    HW224330   2.838   6.774   6.295
 7811SOL     OW24331   1.633   5.622   2.418
 7811SOL    HW124332   1.575   5.544   2.395
 7811SOL    HW224333   1.725   5.607   2.381
 7812SOL     OW24334   3.167   0.632   5.937
 7812SOL    HW124335   3.164   0.717   5.885
 7812SOL    HW224336   3.217   0.647   6.022
 7813SOL     OW24337   5.715   0.610   1.070
 7813SOL    HW124338   5.618   0.601   1.094
 7813SOL    HW224339   5.748   0.700   1.099
 7814SOL     OW24340   6.011   2.344   2.264
 7814SOL    HW124341   5.963   2.416   2.314
 7814SOL    HW224342   6.057   2.284   2.328
 7815SOL     OW24343   5.266   5.803   4.297
 7815SOL    HW124344   5.308   5.784   4.208
 7815SOL    HW224345   5.179   5.754   4.304
 7816SOL     OW24346   0.955   1.240   5.454
 7816SOL    HW124347   0.905   1.153   5.450
 7816SOL    HW224348   0.901   1.308   5.503
 7817SOL     OW24349   3.570   2.850   0.286
 7817SOL    HW124350   3.644   2.863   0.220
 7817SOL    HW224351   3.484   2.837   0.237
 7818SOL     OW24352   5.819   0.809   3.373
 7818SOL    HW124353   5.826   0.719   3.416
 7818SOL    HW224354   5.905   0.859   3.385
 7819SOL     OW24355   1.229   3.460   4.893
 7819SOL    HW124356   1.329   3.464   4.905
 7819SOL    HW224357   1.195   3.374   4.931
 7820SOL     OW24358   1.037   0.804   5.267
 7820SOL    HW124359   1.103   0.785   5.339
 7820SOL    HW224360   0.996   0.718   5.235
 7821SOL     OW24361   3.828   6.189   6.432
 7821SOL    HW124362   3.861   6.186   6.338
 7821SOL    HW224363   3.906   6.186   6.495
 7822SOL     OW24364   0.316   1.380   5.263
 7822SOL    HW124365   0.388   1.374   5.332
 7822SOL    HW224366   0.332   1.460   5.204
 7823SOL     OW24367   2.528   3.316   5.534
 7823SOL    HW124368   2.504   3.403   5.578
 7823SOL    HW224369   2.490   3.241   5.588
 7824SOL     OW24370   5.240   3.802   2.989
 7824SOL    HW124371   5.285   3.865   3.051
 7824SOL    HW224372   5.151   3.776   3.027
 7825SOL     OW24373   3.625   3.465   2.580
 7825SOL    HW124374   3.546   3.491   2.636
 7825SOL    HW224375   3.667   3.383   2.618
 7826SOL     OW24376   0.063   0.646   1.004
 7826SOL    HW124377   0.034   0.582   0.933
 7826SOL    HW224378   0.033   0.613   1.093
 7827SOL     OW24379   4.475   3.558   0.721
 7827SOL    HW124380   4.497   3.464   0.748
 7827SOL    HW224381   4.543   3.592   0.656
 7828SOL     OW24382   0.224   6.002   0.786
 7828SOL    HW124383   0.203   6.049   0.871
 7828SOL    HW224384   0.317   5.965   0.790
 7829SOL     OW24385   3.979   3.906   3.118
 7829SOL    HW124386   4.043   3.867   3.185
 7829SOL    HW224387   3.929   3.981   3.160
 7830SOL     OW24388   5.497   3.684   0.216
 7830SOL    HW124389   5.543   3.598   0.198
 7830SOL    HW224390   5.527   3.753   0.150
 7831SOL     OW24391   1.701   2.797   6.358
 7831SOL    HW124392   1.767   2.828   6.426
 7831SOL    HW224393   1.746   2.734   6.294
 7832SOL     OW24394   2.828   2.543   5.327
 7832SOL    HW124395   2.765   2.510   5.257
 7832SOL    HW224396   2.850   2.468   5.390
 7833SOL     OW24397   0.422   0.155   1.505
 7833SOL    HW124398   0.340   0.213   1.504
 7833SOL    HW224399   0.489   0.190   1.440
 7834SOL     OW24400   6.784   0.424   1.610
 7834SOL    HW124401   6.812   0.403   1.704
 7834SOL    HW224402   6.708   0.489   1.611
 7835SOL     OW24403   2.469   2.328   4.225
 7835SOL    HW124404   2.466   2.228   4.213
 7835SOL    HW224405   2.381   2.366   4.196
 7836SOL     OW24406   2.091   0.879   0.453
 7836SOL    HW124407   2.160   0.819   0.493
 7836SOL    HW224408   2.063   0.947   0.520
 7837SOL     OW24409   5.198   6.331   2.722
 7837SOL    HW124410   5.275   6.270   2.739
 7837SOL    HW224411   5.216   6.386   2.641
 7838SOL     OW24412   3.657   6.401   4.167
 7838SOL    HW124413   3.607   6.390   4.081
 7838SOL    HW224414   3.689   6.311   4.199
 7839SOL     OW24415   0.094   4.475   3.929
 7839SOL    HW124416   0.097   4.376   3.910
 7839SOL    HW224417   0.139   4.524   3.854
 7840SOL     OW24418   4.954   2.914   5.548
 7840SOL    HW124419   4.914   2.911   5.640
 7840SOL    HW224420   4.942   3.005   5.510
 7841SOL     OW24421   1.603   1.732   6.507
 7841SOL    HW124422   1.655   1.685   6.436
 7841SOL    HW224423   1.652   1.814   6.536
 7842SOL     OW24424   3.073   0.713   1.958
 7842SOL    HW124425   3.051   0.805   1.926
 7842SOL    HW224426   3.139   0.719   2.033
 7843SOL     OW24427   0.192   3.198   1.365
 7843SOL    HW124428   0.207   3.296   1.376
 7843SOL    HW224429   0.118   3.168   1.426
 7844SOL     OW24430   3.931   1.137   4.295
 7844SOL    HW124431   3.939   1.235   4.311
 7844SOL    HW224432   4.017   1.102   4.257
 7845SOL     OW24433   1.235   1.133   4.087
 7845SOL    HW124434   1.328   1.169   4.093
 7845SOL    HW224435   1.205   1.136   3.992
 7846SOL     OW24436   3.918   6.355   1.621
 7846SOL    HW124437   3.947   6.367   1.526
 7846SOL    HW224438   3.868   6.269   1.630
 7847SOL     OW24439   0.165   0.054   0.346
 7847SOL    HW124440   0.206   0.096   0.427
 7847SOL    HW224441   0.225   7.007   0.311
 7848SOL     OW24442   3.885   4.357   0.848
 7848SOL    HW124443   3.890   4.405   0.935
 7848SOL    HW224444   3.976   4.348   0.808
 7849SOL     OW24445   5.562   3.785   4.827
 7849SOL    HW124446   5.587   3.830   4.912
 7849SOL    HW224447   5.643   3.774   4.770
 7850SOL     OW24448   0.842   1.934   4.455
 7850SOL    HW124449   0.924   1.889   4.420
 7850SOL    HW224450   0.796   1.873   4.520
 7851SOL     OW24451   5.045   6.731   1.030
 7851SOL    HW124452   5.008   6.639   1.042
 7851SOL    HW224453   5.130   6.740   1.081
 7852SOL     OW24454   2.285   6.578   0.178
 7852SOL    HW124455   2.258   6.675   0.179
 7852SOL    HW224456   2.384   6.571   0.193
 7853SOL     OW24457   1.941   2.625   0.139
 7853SOL    HW124458   1.905   2.532   0.147
 7853SOL    HW224459   1.928   2.673   0.226
 7854SOL     OW24460   3.367   4.030   2.803
 7854SOL    HW124461   3.280   4.011   2.758
 7854SOL    HW224462   3.437   4.050   2.735
 7855SOL     OW24463   4.010   7.017   5.320
 7855SOL    HW124464   4.104   0.024   5.333
 7855SOL    HW224465   3.951   0.036   5.388
 7856SOL     OW24466   3.996   3.585   6.378
 7856SOL    HW124467   4.062   3.592   6.303
 7856SOL    HW224468   3.970   3.677   6.409
 7857SOL     OW24469   0.842   2.168   4.902
 7857SOL    HW124470   0.833   2.267   4.894
 7857SOL    HW224471   0.912   2.147   4.971
 7858SOL     OW24472   5.580   4.601   3.000
 7858SOL    HW124473   5.521   4.526   3.030
 7858SOL    HW224474   5.659   4.608   3.060
 7859SOL     OW24475   0.657   5.231   6.941
 7859SOL    HW124476   0.569   5.210   6.984
 7859SOL    HW224477   0.670   5.172   6.862
 7860SOL     OW24478   4.092   6.742   1.872
 7860SOL    HW124479   4.073   6.698   1.960
 7860SOL    HW224480   4.182   6.713   1.839
 7861SOL     OW24481   5.232   3.965   0.841
 7861SOL    HW124482   5.244   3.872   0.806
 7861SOL    HW224483   5.282   3.975   0.927
 7862SOL     OW24484   2.894   4.226   1.733
 7862SOL    HW124485   2.887   4.307   1.791
 7862SOL    HW224486   2.813   4.220   1.674
 7863SOL     OW24487   5.808   5.667   2.553
 7863SOL    HW124488   5.737   5.662   2.483
 7863SOL    HW224489   5.884   5.724   2.520
 7864SOL     OW24490   0.917   5.797   4.038
 7864SOL    HW124491   0.851   5.753   4.099
 7864SOL    HW224492   1.006   5.753   4.048
 7865SOL     OW24493   3.621   1.180   3.058
 7865SOL    HW124494   3.597   1.274   3.031
 7865SOL    HW224495   3.699   1.149   3.004
 7866SOL     OW24496   2.210   2.337   4.171
 7866SOL    HW124497   2.174   2.252   4.210
 7866SOL    HW224498   2.154   2.363   4.092
 7867SOL     OW24499   5.373   3.774   2.396
 7867SOL    HW124500   5.408   3.833   2.323
 7867SOL    HW224501   5.347   3.831   2.475
 7868SOL     OW24502   5.963   0.479   0.720
 7868SOL    HW124503   5.896   0.463   0.792
 7868SOL    HW224504   5.930   0.438   0.634
 7869SOL     OW24505   6.429   1.878   3.995
 7869SOL    HW124506   6.339   1.904   4.030
 7869SOL    HW224507   6.417   1.818   3.916
 7870SOL     OW24508   0.033   0.019   3.087
 7870SOL    HW124509   0.016   0.113   3.119
 7870SOL    HW224510   0.100   0.021   3.013
 7871SOL     OW24511   5.489   3.293   3.816
 7871SOL    HW124512   5.554   3.251   3.879
 7871SOL    HW224513   5.505   3.392   3.813
 7872SOL     OW24514   6.616   3.294   3.974
 7872SOL    HW124515   6.653   3.223   3.914
 7872SOL    HW224516   6.522   3.271   4.000
 7873SOL     OW24517   6.760   5.791   4.827
 7873SOL    HW124518   6.755   5.890   4.833
 7873SOL    HW224519   6.761   5.763   4.731
 7874SOL     OW24520   6.101   1.801   0.819
 7874SOL    HW124521   6.151   1.719   0.793
 7874SOL    HW224522   6.017   1.776   0.866
 7875SOL     OW24523   4.411   2.858   0.541
 7875SOL    HW124524   4.461   2.856   0.454
 7875SOL    HW224525   4.333   2.919   0.533
 7876SOL     OW24526   0.139   0.831   5.126
 7876SOL    HW124527   0.103   0.914   5.169
 7876SOL    HW224528   0.239   0.837   5.121
 7877SOL     OW24529   5.886   2.481   2.852
 7877SOL    HW124530   5.965   2.521   2.805
 7877SOL    HW224531   5.880   2.384   2.830
 7878SOL     OW24532   4.488   3.947   1.397
 7878SOL    HW124533   4.478   3.848   1.386
 7878SOL    HW224534   4.406   3.993   1.361
 7879SOL     OW24535   5.697   0.757   5.338
 7879SOL    HW124536   5.599   0.759   5.355
 7879SOL    HW224537   5.741   0.833   5.387
 7880SOL     OW24538   1.572   6.717   6.631
 7880SOL    HW124539   1.650   6.655   6.627
 7880SOL    HW224540   1.503   6.679   6.693
 7881SOL     OW24541   1.012   5.083   3.104
 7881SOL    HW124542   1.001   5.005   3.042
 7881SOL    HW224543   1.104   5.081   3.144
 7882SOL     OW24544   0.985   4.298   1.998
 7882SOL    HW124545   1.057   4.287   2.066
 7882SOL    HW224546   0.896   4.280   2.040
 7883SOL     OW24547   3.565   2.114   3.401
 7883SOL    HW124548   3.552   2.140   3.496
 7883SOL    HW224549   3.659   2.134   3.373
 7884SOL     OW24550   0.701   3.622   4.209
 7884SOL    HW124551   0.700   3.718   4.237
 7884SOL    HW224552   0.678   3.614   4.112
 7885SOL     OW24553   5.544   4.951   3.072
 7885SOL    HW124554   5.576   5.042   3.097
 7885SOL    HW224555   5.599   4.916   2.997
 7886SOL     OW24556   4.963   3.276   2.759
 7886SOL    HW124557   5.010   3.340   2.820
 7886SOL    HW224558   5.027   3.241   2.691
 7887SOL     OW24559   1.866   2.687   1.469
 7887SOL    HW124560   1.872   2.681   1.568
 7887SOL    HW224561   1.958   2.698   1.431
 7888SOL     OW24562   6.150   0.808   5.053
 7888SOL    HW124563   6.069   0.817   5.111
 7888SOL    HW224564   6.139   0.862   4.970
 7889SOL     OW24565   5.576   5.158   6.768
 7889SOL    HW124566   5.630   5.236   6.798
 7889SOL    HW224567   5.479   5.178   6.777
 7890SOL     OW24568   2.126   3.083   3.998
 7890SOL    HW124569   2.051   3.055   3.939
 7890SOL    HW224570   2.171   3.002   4.036
 7891SOL     OW24571   6.351   2.022   4.369
 7891SOL    HW124572   6.317   1.977   4.452
 7891SOL    HW224573   6.445   1.992   4.351
 7892SOL     OW24574   0.855   1.490   5.164
 7892SOL    HW124575   0.778   1.491   5.100
 7892SOL    HW224576   0.914   1.568   5.146
 7893SOL     OW24577   5.484   0.244   0.233
 7893SOL    HW124578   5.416   0.312   0.207
 7893SOL    HW224579   5.552   0.236   0.160
 7894SOL     OW24580   3.352   1.000   6.775
 7894SOL    HW124581   3.430   1.020   6.835
 7894SOL    HW224582   3.386   0.958   6.691
 7895SOL     OW24583   6.078   6.675   3.069
 7895SOL    HW124584   6.169   6.665   3.030
 7895SOL    HW224585   6.078   6.749   3.137
 7896SOL     OW24586   2.581   2.447   0.322
 7896SOL    HW124587   2.600   2.349   0.321
 7896SOL    HW224588   2.529   2.471   0.240
 7897SOL     OW24589   2.985   2.705   0.855
 7897SOL    HW124590   2.947   2.782   0.804
 7897SOL    HW224591   2.912   2.639   0.875
 7898SOL     OW24592   5.458   6.807   3.396
 7898SOL    HW124593   5.399   6.852   3.463
 7898SOL    HW224594   5.475   6.713   3.425
 7899SOL     OW24595   6.252   3.989   4.657
 7899SOL    HW124596   6.300   4.065   4.614
 7899SOL    HW224597   6.168   3.970   4.606
 7900SOL     OW24598   0.560   3.922   1.020
 7900SOL    HW124599   0.557   4.004   1.076
 7900SOL    HW224600   0.647   3.874   1.035
 7901SOL     OW24601   0.909   1.726   6.765
 7901SOL    HW124602   0.996   1.712   6.718
 7901SOL    HW224603   0.845   1.772   6.702
 7902SOL     OW24604   1.530   6.924   2.447
 7902SOL    HW124605   1.593   6.993   2.410
 7902SOL    HW224606   1.580   6.839   2.464
 7903SOL     OW24607   2.724   2.019   5.189
 7903SOL    HW124608   2.785   2.080   5.140
 7903SOL    HW224609   2.772   1.935   5.213
 7904SOL     OW24610   4.676   1.885   3.007
 7904SOL    HW124611   4.763   1.889   3.056
 7904SOL    HW224612   4.631   1.798   3.028
 7905SOL     OW24613   5.185   1.614   1.243
 7905SOL    HW124614   5.194   1.708   1.207
 7905SOL    HW224615   5.100   1.575   1.210
 7906SOL     OW24616   1.548   4.887   0.211
 7906SOL    HW124617   1.648   4.885   0.214
 7906SOL    HW224618   1.517   4.982   0.218
 7907SOL     OW24619   6.244   6.670   2.323
 7907SOL    HW124620   6.180   6.612   2.373
 7907SOL    HW224621   6.225   6.766   2.343
 7908SOL     OW24622   1.525   7.005   6.669
 7908SOL    HW124623   1.598   0.021   6.614
 7908SOL    HW224624   1.523   6.906   6.655
 7909SOL     OW24625   5.826   4.075   2.370
 7909SOL    HW124626   5.898   4.051   2.305
 7909SOL    HW224627   5.775   4.154   2.336
 7910SOL     OW24628   0.931   3.861   6.527
 7910SOL    HW124629   0.869   3.789   6.558
 7910SOL    HW224630   1.012   3.862   6.585
 7911SOL     OW24631   7.010   4.323   6.208
 7911SOL    HW124632   0.012   4.418   6.226
 7911SOL    HW224633   6.958   4.319   6.123
 7912SOL     OW24634   6.017   5.217   1.043
 7912SOL    HW124635   6.086   5.285   1.017
 7912SOL    HW224636   5.928   5.261   1.051
 7913SOL     OW24637   1.261   4.993   0.424
 7913SOL    HW124638   1.238   5.090   0.429
 7913SOL    HW224639   1.184   4.938   0.457
 7914SOL     OW24640   0.793   6.642   5.332
 7914SOL    HW124641   0.877   6.636   5.278
 7914SOL    HW224642   0.730   6.707   5.289
 7915SOL     OW24643   3.720   5.252   2.798
 7915SOL    HW124644   3.791   5.315   2.831
 7915SOL    HW224645   3.717   5.172   2.858
 7916SOL     OW24646   0.982   0.416   4.200
 7916SOL    HW124647   1.056   0.416   4.133
 7916SOL    HW224648   0.958   0.510   4.225
 7917SOL     OW24649   4.092   2.300   1.409
 7917SOL    HW124650   4.105   2.290   1.508
 7917SOL    HW224651   4.124   2.390   1.380
 7918SOL     OW24652   2.019   2.185   3.843
 7918SOL    HW124653   2.047   2.280   3.856
 7918SOL    HW224654   2.045   2.155   3.752
 7919SOL     OW24655   1.440   6.193   5.353
 7919SOL    HW124656   1.400   6.182   5.262
 7919SOL    HW224657   1.435   6.106   5.402
 7920SOL     OW24658   5.165   0.287   1.255
 7920SOL    HW124659   5.221   0.236   1.321
 7920SOL    HW224660   5.076   0.243   1.247
 7921SOL     OW24661   5.311   2.659   1.101
 7921SOL    HW124662   5.302   2.580   1.162
 7921SOL    HW224663   5.255   2.734   1.136
 7922SOL     OW24664   2.767   6.797   1.715
 7922SOL    HW124665   2.762   6.888   1.756
 7922SOL    HW224666   2.792   6.731   1.786
 7923SOL     OW24667   4.785   1.698   6.827
 7923SOL    HW124668   4.700   1.744   6.854
 7923SOL    HW224669   4.847   1.694   6.906
 7924SOL     OW24670   5.914   6.240   0.594
 7924SOL    HW124671   5.997   6.227   0.540
 7924SOL    HW224672   5.876   6.330   0.575
 7925SOL     OW24673   1.713   5.178   6.615
 7925SOL    HW124674   1.641   5.216   6.674
 7925SOL    HW224675   1.730   5.083   6.640
 7926SOL     OW24676   4.985   6.015   6.838
 7926SOL    HW124677   5.042   6.040   6.759
 7926SOL    HW224678   4.890   6.003   6.809
 7927SOL     OW24679   3.799   0.112   2.587
 7927SOL    HW124680   3.822   0.075   2.677
 7927SOL    HW224681   3.719   0.171   2.595
 7928SOL     OW24682   5.756   2.082   3.088
 7928SOL    HW124683   5.825   2.079   3.160
 7928SOL    HW224684   5.797   2.058   3.000
 7929SOL     OW24685   4.629   4.569   6.251
 7929SOL    HW124686   4.586   4.639   6.308
 7929SOL    HW224687   4.718   4.546   6.289
 7930SOL     OW24688   4.143   6.687   6.378
 7930SOL    HW124689   4.107   6.622   6.445
 7930SOL    HW224690   4.191   6.761   6.425
 7931SOL     OW24691   3.899   2.135   1.318
 7931SOL    HW124692   3.935   2.043   1.303
 7931SOL    HW224693   3.974   2.198   1.340
 7932SOL     OW24694   1.426   3.461   1.594
 7932SOL    HW124695   1.517   3.496   1.614
 7932SOL    HW224696   1.358   3.515   1.644
 7933SOL     OW24697   1.035   1.889   0.182
 7933SOL    HW124698   1.065   1.914   0.274
 7933SOL    HW224699   1.110   1.906   0.117
 7934SOL     OW24700   0.799   5.737   1.034
 7934SOL    HW124701   0.829   5.718   1.128
 7934SOL    HW224702   0.879   5.757   0.977
 7935SOL     OW24703   5.277   2.962   3.134
 7935SOL    HW124704   5.204   3.024   3.105
 7935SOL    HW224705   5.362   2.985   3.087
 7936SOL     OW24706   2.921   5.632   3.783
 7936SOL    HW124707   2.864   5.683   3.847
 7936SOL    HW224708   2.876   5.628   3.694
 7937SOL     OW24709   3.478   1.193   0.043
 7937SOL    HW124710   3.535   1.128   7.018
 7937SOL    HW224711   3.503   1.286   0.016
 7938SOL     OW24712   3.187   6.921   3.748
 7938SOL    HW124713   3.212   6.827   3.770
 7938SOL    HW224714   3.187   6.975   3.832
 7939SOL     OW24715   0.801   1.035   3.206
 7939SOL    HW124716   0.836   1.034   3.300
 7939SOL    HW224717   0.876   1.053   3.143
 7940SOL     OW24718   5.595   1.444   4.058
 7940SOL    HW124719   5.595   1.538   4.092
 7940SOL    HW224720   5.543   1.386   4.121
 7941SOL     OW24721   3.705   0.291   1.042
 7941SOL    HW124722   3.610   0.315   1.063
 7941SOL    HW224723   3.709   0.250   0.951
 7942SOL     OW24724   1.087   4.800   0.560
 7942SOL    HW124725   0.998   4.800   0.606
 7942SOL    HW224726   1.138   4.718   0.588
 7943SOL     OW24727   1.348   6.033   6.365
 7943SOL    HW124728   1.443   6.062   6.375
 7943SOL    HW224729   1.298   6.101   6.312
 7944SOL     OW24730   1.164   2.578   1.409
 7944SOL    HW124731   1.235   2.511   1.392
 7944SOL    HW224732   1.076   2.541   1.379
 7945SOL     OW24733   6.201   4.017   3.346
 7945SOL    HW124734   6.253   4.040   3.264
 7945SOL    HW224735   6.238   3.933   3.386
 7946SOL     OW24736   4.314   1.067   6.457
 7946SOL    HW124737   4.284   0.972   6.461
 7946SOL    HW224738   4.372   1.080   6.376
 7947SOL     OW24739   0.091   4.096   6.623
 7947SOL    HW124740   0.061   4.002   6.637
 7947SOL    HW224741   0.142   4.128   6.702
 7948SOL     OW24742   2.057   5.443   3.009
 7948SOL    HW124743   2.037   5.357   2.962
 7948SOL    HW224744   2.023   5.519   2.954
 7949SOL     OW24745   2.777   6.102   6.248
 7949SOL    HW124746   2.822   6.161   6.315
 7949SOL    HW224747   2.766   6.010   6.286
 7950SOL     OW24748   5.980   4.669   5.149
 7950SOL    HW124749   5.889   4.656   5.111
 7950SOL    HW224750   5.987   4.760   5.190
 7951SOL     OW24751   4.297   5.710   1.995
 7951SOL    HW124752   4.277   5.803   2.025
 7951SOL    HW224753   4.213   5.656   1.995
 7952SOL     OW24754   6.245   4.067   5.746
 7952SOL    HW124755   6.308   4.132   5.788
 7952SOL    HW224756   6.203   4.010   5.818
 7953SOL     OW24757   1.682   6.738   0.504
 7953SOL    HW124758   1.725   6.677   0.570
 7953SOL    HW224759   1.651   6.685   0.425
 7954SOL     OW24760   3.959   4.035   6.729
 7954SOL    HW124761   4.037   4.047   6.790
 7954SOL    HW224762   3.874   4.030   6.783
 7955SOL     OW24763   2.101   1.435   6.483
 7955SOL    HW124764   2.028   1.366   6.491
 7955SOL    HW224765   2.115   1.458   6.387
 7956SOL     OW24766   6.720   6.066   0.345
 7956SOL    HW124767   6.735   6.032   0.253
 7956SOL    HW224768   6.644   6.016   0.387
 7957SOL     OW24769   4.995   1.513   5.924
 7957SOL    HW124770   5.092   1.495   5.912
 7957SOL    HW224771   4.943   1.429   5.906
 7958SOL     OW24772   5.766   2.891   0.575
 7958SOL    HW124773   5.725   2.866   0.487
 7958SOL    HW224774   5.820   2.815   0.609
 7959SOL     OW24775   6.173   2.200   6.909
 7959SOL    HW124776   6.255   2.158   6.871
 7959SOL    HW224777   6.092   2.160   6.866
 7960SOL     OW24778   0.752   1.749   5.765
 7960SOL    HW124779   0.661   1.732   5.803
 7960SOL    HW224780   0.801   1.662   5.757
 7961SOL     OW24781   6.207   6.481   0.097
 7961SOL    HW124782   6.231   6.468   0.193
 7961SOL    HW224783   6.109   6.500   0.089
 7962SOL     OW24784   5.704   6.989   5.215
 7962SOL    HW124785   5.650   6.983   5.131
 7962SOL    HW224786   5.691   6.906   5.269
 7963SOL     OW24787   6.299   0.009   4.008
 7963SOL    HW124788   6.299   0.069   3.928
 7963SOL    HW224789   6.325   6.941   3.980
 7964SOL     OW24790   6.030   3.978   1.803
 7964SOL    HW124791   6.070   3.888   1.790
 7964SOL    HW224792   5.931   3.969   1.817
 7965SOL     OW24793   4.273   2.396   6.086
 7965SOL    HW124794   4.234   2.311   6.122
 7965SOL    HW224795   4.240   2.473   6.140
 7966SOL     OW24796   4.978   3.796   4.966
 7966SOL    HW124797   5.027   3.749   4.893
 7966SOL    HW224798   4.908   3.736   5.004
 7967SOL     OW24799   1.644   4.838   1.191
 7967SOL    HW124800   1.589   4.917   1.164
 7967SOL    HW224801   1.699   4.807   1.113
 7968SOL     OW24802   0.274   2.684   4.649
 7968SOL    HW124803   0.186   2.645   4.674
 7968SOL    HW224804   0.302   2.751   4.718
 7969SOL     OW24805   3.514   5.621   6.343
 7969SOL    HW124806   3.525   5.522   6.341
 7969SOL    HW224807   3.449   5.646   6.415
 7970SOL     OW24808   6.424   2.558   3.781
 7970SOL    HW124809   6.491   2.546   3.853
 7970SOL    HW224810   6.333   2.538   3.816
 7971SOL     OW24811   2.878   1.675   6.739
 7971SOL    HW124812   2.937   1.682   6.819
 7971SOL    HW224813   2.922   1.618   6.670
 7972SOL     OW24814   3.659   4.119   4.354
 7972SOL    HW124815   3.640   4.154   4.446
 7972SOL    HW224816   3.655   4.019   4.355
 7973SOL     OW24817   5.791   4.272   2.591
 7973SOL    HW124818   5.815   4.179   2.564
 7973SOL    HW224819   5.823   4.290   2.684
 7974SOL     OW24820   0.369   2.522   5.235
 7974SOL    HW124821   0.439   2.587   5.266
 7974SOL    HW224822   0.303   2.570   5.177
 7975SOL     OW24823   5.961   0.434   1.178
 7975SOL    HW124824   5.938   0.529   1.201
 7975SOL    HW224825   6.060   0.420   1.184
 7976SOL     OW24826   0.610   0.791   0.905
 7976SOL    HW124827   0.567   0.701   0.901
 7976SOL    HW224828   0.605   0.835   0.814
 7977SOL     OW24829   5.509   5.944   3.955
 7977SOL    HW124830   5.576   5.950   4.030
 7977SOL    HW224831   5.432   6.004   3.975
 7978SOL     OW24832   0.109   4.517   1.551
 7978SOL    HW124833   0.121   4.544   1.455
 7978SOL    HW224834   0.012   4.525   1.575
 7979SOL     OW24835   2.028   2.515   4.445
 7979SOL    HW124836   2.059   2.583   4.378
 7979SOL    HW224837   2.082   2.525   4.529
 7980SOL     OW24838   3.888   5.694   0.699
 7980SOL    HW124839   3.924   5.686   0.792
 7980SOL    HW224840   3.949   5.648   0.635
 7981SOL     OW24841   1.639   4.276   3.633
 7981SOL    HW124842   1.643   4.276   3.534
 7981SOL    HW224843   1.675   4.190   3.669
 7982SOL     OW24844   6.659   0.845   5.830
 7982SOL    HW124845   6.584   0.807   5.775
 7982SOL    HW224846   6.728   0.885   5.770
 7983SOL     OW24847   4.704   1.182   1.731
 7983SOL    HW124848   4.616   1.159   1.689
 7983SOL    HW224849   4.722   1.280   1.719
 7984SOL     OW24850   0.415   2.194   2.670
 7984SOL    HW124851   0.369   2.106   2.653
 7984SOL    HW224852   0.398   2.255   2.593
 7985SOL     OW24853   3.294   2.843   5.101
 7985SOL    HW124854   3.230   2.767   5.113
 7985SOL    HW224855   3.296   2.899   5.183
 7986SOL     OW24856   3.867   0.854   4.282
 7986SOL    HW124857   3.798   0.816   4.220
 7986SOL    HW224858   3.876   0.952   4.265
 7987SOL     OW24859   0.735   3.495   7.018
 7987SOL    HW124860   0.793   3.454   0.064
 7987SOL    HW224861   0.699   3.424   6.959
 7988SOL     OW24862   6.780   0.986   2.378
 7988SOL    HW124863   6.807   1.073   2.420
 7988SOL    HW224864   6.769   0.917   2.449
 7989SOL     OW24865   0.164   4.220   1.482
 7989SOL    HW124866   0.069   4.230   1.451
 7989SOL    HW224867   0.196   4.306   1.521
 7990SOL     OW24868   4.888   6.084   5.385
 7990SOL    HW124869   4.973   6.032   5.374
 7990SOL    HW224870   4.869   6.135   5.301
 7991SOL     OW24871   5.977   0.826   5.256
 7991SOL    HW124872   6.060   0.797   5.304
 7991SOL    HW224873   5.897   0.797   5.308
 7992SOL     OW24874   2.454   6.906   6.942
 7992SOL    HW124875   2.483   6.886   6.849
 7992SOL    HW224876   2.355   6.893   6.950
 7993SOL     OW24877   6.055   5.581   1.086
 7993SOL    HW124878   6.062   5.678   1.063
 7993SOL    HW224879   6.020   5.530   1.008
 7994SOL     OW24880   6.329   0.125   4.274
 7994SOL    HW124881   6.299   0.220   4.281
 7994SOL    HW224882   6.323   0.094   4.179
 7995SOL     OW24883   0.807   5.146   1.743
 7995SOL    HW124884   0.858   5.154   1.829
 7995SOL    HW224885   0.788   5.238   1.708
 7996SOL     OW24886   2.942   6.909   3.292
 7996SOL    HW124887   2.932   6.854   3.209
 7996SOL    HW224888   2.876   6.879   3.360
 7997SOL     OW24889   2.063   1.501   6.203
 7997SOL    HW124890   2.033   1.593   6.179
 7997SOL    HW224891   1.993   1.435   6.175
 7998SOL     OW24892   2.580   1.094   0.427
 7998SOL    HW124893   2.670   1.135   0.410
 7998SOL    HW224894   2.584   0.996   0.404
 7999SOL     OW24895   1.155   0.401   4.607
 7999SOL    HW124896   1.064   0.410   4.647
 7999SOL    HW224897   1.213   0.475   4.639
 8000SOL     OW24898   4.139   5.299   0.203
 8000SOL    HW124899   4.043   5.323   0.218
 8000SOL    HW224900   4.196   5.337   0.276
 8001SOL     OW24901   4.509   5.158   1.119
 8001SOL    HW124902   4.469   5.081   1.168
 8001SOL    HW224903   4.441   5.231   1.111
 8002SOL     OW24904   0.855   0.111   4.560
 8002SOL    HW124905   0.828   0.069   4.646
 8002SOL    HW224906   0.942   0.072   4.529
 8003SOL     OW24907   2.628   5.929   2.045
 8003SOL    HW124908   2.719   5.906   2.080
 8003SOL    HW224909   2.560   5.914   2.116
 8004SOL     OW24910   1.317   2.964   3.762
 8004SOL    HW124911   1.290   2.867   3.762
 8004SOL    HW224912   1.245   3.018   3.718
 8005SOL     OW24913   2.450   0.842   2.948
 8005SOL    HW124914   2.448   0.806   2.855
 8005SOL    HW224915   2.507   0.925   2.951
 8006SOL     OW24916   4.238   4.246   5.671
 8006SOL    HW124917   4.321   4.243   5.726
 8006SOL    HW224918   4.225   4.158   5.626
 8007SOL     OW24919   0.214   0.397   0.648
 8007SOL    HW124920   0.231   0.298   0.642
 8007SOL    HW224921   0.251   0.442   0.567
 8008SOL     OW24922   5.040   5.769   0.477
 8008SOL    HW124923   5.028   5.678   0.516
 8008SOL    HW224924   5.037   5.763   0.377
 8009SOL     OW24925   6.044   0.649   6.832
 8009SOL    HW124926   5.971   0.585   6.854
 8009SOL    HW224927   6.046   0.722   6.901
 8010SOL     OW24928   2.738   0.286   5.415
 8010SOL    HW124929   2.829   0.264   5.380
 8010SOL    HW224930   2.736   0.269   5.514
 8011SOL     OW24931   3.832   2.151   3.299
 8011SOL    HW124932   3.916   2.184   3.256
 8011SOL    HW224933   3.838   2.164   3.398
 8012SOL     OW24934   6.095   1.817   4.769
 8012SOL    HW124935   6.044   1.746   4.720
 8012SOL    HW224936   6.137   1.777   4.851
 8013SOL     OW24937   3.356   1.594   2.589
 8013SOL    HW124938   3.411   1.567   2.509
 8013SOL    HW224939   3.366   1.692   2.605
 8014SOL     OW24940   2.251   2.572   2.790
 8014SOL    HW124941   2.190   2.622   2.851
 8014SOL    HW224942   2.232   2.597   2.695
 8015SOL     OW24943   3.521   6.963   4.918
 8015SOL    HW124944   3.600   7.023   4.920
 8015SOL    HW224945   3.517   6.915   4.830
 8016SOL     OW24946   3.642   2.209   5.213
 8016SOL    HW124947   3.727   2.241   5.253
 8016SOL    HW224948   3.659   2.171   5.122
 8017SOL     OW24949   6.745   5.593   0.784
 8017SOL    HW124950   6.671   5.537   0.821
 8017SOL    HW224951   6.721   5.690   0.793
 8018SOL     OW24952   4.185   2.499   6.678
 8018SOL    HW124953   4.129   2.419   6.700
 8018SOL    HW224954   4.146   2.580   6.722
 8019SOL     OW24955   2.533   3.480   0.858
 8019SOL    HW124956   2.628   3.460   0.884
 8019SOL    HW224957   2.480   3.395   0.857
 8020SOL     OW24958   1.032   0.786   5.880
 8020SOL    HW124959   1.097   0.711   5.871
 8020SOL    HW224960   0.956   0.758   5.939
 8021SOL     OW24961   1.421   2.904   0.560
 8021SOL    HW124962   1.491   2.898   0.631
 8021SOL    HW224963   1.333   2.874   0.597
 8022SOL     OW24964   4.216   1.077   1.856
 8022SOL    HW124965   4.131   1.050   1.902
 8022SOL    HW224966   4.211   1.173   1.830
 8023SOL     OW24967   4.772   6.256   1.194
 8023SOL    HW124968   4.829   6.314   1.136
 8023SOL    HW224969   4.755   6.303   1.280
 8024SOL     OW24970   2.663   1.336   6.582
 8024SOL    HW124971   2.660   1.267   6.510
 8024SOL    HW224972   2.595   1.407   6.563
 8025SOL     OW24973   1.412   5.778   1.428
 8025SOL    HW124974   1.367   5.851   1.480
 8025SOL    HW224975   1.489   5.817   1.376
 8026SOL     OW24976   0.520   5.924   6.163
 8026SOL    HW124977   0.444   5.973   6.205
 8026SOL    HW224978   0.577   5.883   6.234
 8027SOL     OW24979   3.514   0.253   0.118
 8027SOL    HW124980   3.435   0.270   0.177
 8027SOL    HW224981   3.489   0.270   0.023
 8028SOL     OW24982   3.277   5.784   5.198
 8028SOL    HW124983   3.262   5.878   5.229
 8028SOL    HW224984   3.352   5.783   5.132
 8029SOL     OW24985   0.828   0.212   1.110
 8029SOL    HW124986   0.902   0.234   1.173
 8029SOL    HW224987   0.845   0.256   1.022
 8030SOL     OW24988   0.678   4.615   1.091
 8030SOL    HW124989   0.622   4.574   1.019
 8030SOL    HW224990   0.649   4.579   1.180
 8031SOL     OW24991   0.276   0.257   3.137
 8031SOL    HW124992   0.323   0.204   3.067
 8031SOL    HW224993   0.300   0.223   3.228
 8032SOL     OW24994   0.436   3.070   1.470
 8032SOL    HW124995   0.525   3.108   1.444
 8032SOL    HW224996   0.364   3.112   1.415
 8033SOL     OW24997   4.267   4.084   1.309
 8033SOL    HW124998   4.276   4.183   1.313
 8033SOL    HW224999   4.172   4.060   1.289
 8034SOL     OW25000   6.747   0.088   6.090
 8034SOL    HW125001   6.714   0.178   6.119
 8034SOL    HW225002   6.800   0.098   6.006
 8035SOL     OW25003   5.866   0.900   3.778
 8035SOL    HW125004   5.808   0.821   3.799
 8035SOL    HW225005   5.838   0.940   3.691
 8036SOL     OW25006   5.038   2.706   4.143
 8036SOL    HW125007   5.077   2.622   4.182
 8036SOL    HW225008   4.960   2.735   4.198
 8037SOL     OW25009   2.063   1.318   5.781
 8037SOL    HW125010   2.024   1.410   5.790
 8037SOL    HW225011   1.995   1.250   5.809
 8038SOL     OW25012   6.556   5.424   2.353
 8038SOL    HW125013   6.582   5.434   2.257
 8038SOL    HW225014   6.577   5.332   2.384
 8039SOL     OW25015   1.422   2.416   5.274
 8039SOL    HW125016   1.466   2.327   5.265
 8039SOL    HW225017   1.324   2.404   5.286
 8040SOL     OW25018   1.217   5.444   6.643
 8040SOL    HW125019   1.145   5.459   6.577
 8040SOL    HW225020   1.205   5.354   6.686
 8041SOL     OW25021   3.311   1.445   2.821
 8041SOL    HW125022   3.309   1.354   2.782
 8041SOL    HW225023   3.304   1.513   2.748
 8042SOL     OW25024   4.305   4.051   5.901
 8042SOL    HW125025   4.234   4.066   5.969
 8042SOL    HW225026   4.365   4.131   5.897
 8043SOL     OW25027   5.469   5.801   6.340
 8043SOL    HW125028   5.453   5.709   6.304
 8043SOL    HW225029   5.492   5.794   6.437
 8044SOL     OW25030   2.639   3.385   1.557
 8044SOL    HW125031   2.712   3.322   1.530
 8044SOL    HW225032   2.601   3.430   1.476
 8045SOL     OW25033   6.958   2.814   3.924
 8045SOL    HW125034   0.032   2.813   3.945
 8045SOL    HW225035   6.919   2.901   3.953
 8046SOL     OW25036   6.811   4.577   2.115
 8046SOL    HW125037   6.851   4.640   2.182
 8046SOL    HW225038   6.735   4.622   2.068
 8047SOL     OW25039   3.366   5.877   6.711
 8047SOL    HW125040   3.402   5.821   6.637
 8047SOL    HW225041   3.422   5.960   6.721
 8048SOL     OW25042   3.625   2.324   5.872
 8048SOL    HW125043   3.556   2.256   5.898
 8048SOL    HW225044   3.601   2.413   5.911
 8049SOL     OW25045   1.765   1.811   0.600
 8049SOL    HW125046   1.848   1.788   0.550
 8049SOL    HW225047   1.720   1.727   0.630
 8050SOL     OW25048   0.567   4.754   5.584
 8050SOL    HW125049   0.597   4.664   5.551
 8050SOL    HW225050   0.596   4.824   5.519
 8051SOL     OW25051   4.236   0.389   3.192
 8051SOL    HW125052   4.267   0.478   3.158
 8051SOL    HW225053   4.268   0.317   3.131
 8052SOL     OW25054   3.071   1.742   2.640
 8052SOL    HW125055   3.089   1.649   2.608
 8052SOL    HW225056   3.067   1.804   2.562
 8053SOL     OW25057   1.942   2.585   6.436
 8053SOL    HW125058   1.920   2.614   6.343
 8053SOL    HW225059   1.883   2.509   6.462
 8054SOL     OW25060   4.938   3.326   5.266
 8054SOL    HW125061   5.033   3.309   5.292
 8054SOL    HW225062   4.936   3.363   5.173
 8055SOL     OW25063   6.123   0.528   0.139
 8055SOL    HW125064   6.050   0.480   0.188
 8055SOL    HW225065   6.119   0.626   0.161
 8056SOL     OW25066   2.398   0.547   3.801
 8056SOL    HW125067   2.373   0.482   3.873
 8056SOL    HW225068   2.438   0.629   3.843
 8057SOL     OW25069   3.049   2.232   1.758
 8057SOL    HW125070   2.998   2.285   1.826
 8057SOL    HW225071   3.003   2.239   1.669
 8058SOL     OW25072   3.660   6.109   1.572
 8058SOL    HW125073   3.618   6.200   1.582
 8058SOL    HW225074   3.590   6.041   1.555
 8059SOL     OW25075   3.033   2.392   5.904
 8059SOL    HW125076   2.973   2.437   5.971
 8059SOL    HW225077   3.071   2.461   5.842
 8060SOL     OW25078   6.295   1.061   6.338
 8060SOL    HW125079   6.297   1.111   6.425
 8060SOL    HW225080   6.389   1.039   6.310
 8061SOL     OW25081   0.078   0.743   2.762
 8061SOL    HW125082   7.020   0.775   2.810
 8061SOL    HW225083   0.144   0.709   2.828
 8062SOL     OW25084   4.157   5.682   5.404
 8062SOL    HW125085   4.114   5.638   5.324
 8062SOL    HW225086   4.229   5.744   5.373
 8063SOL     OW25087   2.671   4.695   2.945
 8063SOL    HW125088   2.605   4.758   2.905
 8063SOL    HW225089   2.740   4.748   2.995
 8064SOL     OW25090   6.679   1.840   0.842
 8064SOL    HW125091   6.728   1.916   0.800
 8064SOL    HW225092   6.629   1.790   0.772
 8065SOL     OW25093   4.261   6.010   6.665
 8065SOL    HW125094   4.179   6.063   6.643
 8065SOL    HW225095   4.252   5.972   6.757
 8066SOL     OW25096   0.664   6.808   6.070
 8066SOL    HW125097   0.754   6.766   6.063
 8066SOL    HW225098   0.627   6.791   6.162
 8067SOL     OW25099   5.599   1.706   3.617
 8067SOL    HW125100   5.633   1.714   3.523
 8067SOL    HW225101   5.554   1.791   3.644
 8068SOL     OW25102   5.483   3.805   1.594
 8068SOL    HW125103   5.485   3.864   1.514
 8068SOL    HW225104   5.439   3.719   1.571
 8069SOL     OW25105   1.892   4.163   2.846
 8069SOL    HW125106   1.852   4.123   2.929
 8069SOL    HW225107   1.970   4.220   2.870
 8070SOL     OW25108   4.864   4.730   0.731
 8070SOL    HW125109   4.902   4.640   0.752
 8070SOL    HW225110   4.865   4.744   0.632
 8071SOL     OW25111   2.524   6.814   6.289
 8071SOL    HW125112   2.591   6.747   6.322
 8071SOL    HW225113   2.453   6.767   6.237
 8072SOL     OW25114   2.304   1.782   5.185
 8072SOL    HW125115   2.237   1.856   5.175
 8072SOL    HW225116   2.262   1.707   5.235
 8073SOL     OW25117   4.883   0.598   6.428
 8073SOL    HW125118   4.895   0.691   6.463
 8073SOL    HW225119   4.876   0.601   6.328
 8074SOL     OW25120   1.357   0.751   6.840
 8074SOL    HW125121   1.365   0.801   6.754
 8074SOL    HW225122   1.324   0.812   6.912
 8075SOL     OW25123   6.886   6.729   1.493
 8075SOL    HW125124   6.909   6.632   1.489
 8075SOL    HW225125   6.963   6.782   1.459
 8076SOL     OW25126   0.010   6.696   0.391
 8076SOL    HW125127   0.040   6.712   0.486
 8076SOL    HW225128   6.966   6.623   0.390
 8077SOL     OW25129   4.912   4.717   0.456
 8077SOL    HW125130   4.933   4.744   0.362
 8077SOL    HW225131   4.870   4.627   0.457
 8078SOL     OW25132   0.222   1.064   1.194
 8078SOL    HW125133   0.170   0.981   1.215
 8078SOL    HW225134   0.248   1.109   1.280
 8079SOL     OW25135   2.042   0.737   6.194
 8079SOL    HW125136   2.142   0.737   6.199
 8079SOL    HW225137   2.006   0.671   6.260
 8080SOL     OW25138   0.775   3.120   3.130
 8080SOL    HW125139   0.695   3.176   3.152
 8080SOL    HW225140   0.745   3.033   3.090
 8081SOL     OW25141   5.958   6.994   5.110
 8081SOL    HW125142   5.982   0.040   5.044
 8081SOL    HW225143   5.859   6.998   5.128
 8082SOL     OW25144   4.105   1.353   3.746
 8082SOL    HW125145   4.081   1.323   3.653
 8082SOL    HW225146   4.055   1.298   3.813
 8083SOL     OW25147   5.972   2.000   4.595
 8083SOL    HW125148   5.952   1.962   4.505
 8083SOL    HW225149   6.013   1.930   4.653
 8084SOL     OW25150   4.003   1.293   6.055
 8084SOL    HW125151   4.103   1.286   6.050
 8084SOL    HW225152   3.961   1.218   6.004
 8085SOL     OW25153   1.742   6.179   4.623
 8085SOL    HW125154   1.693   6.231   4.554
 8085SOL    HW225155   1.814   6.124   4.579
 8086SOL     OW25156   0.041   0.668   2.499
 8086SOL    HW125157   0.043   0.763   2.468
 8086SOL    HW225158   0.066   0.664   2.595
 8087SOL     OW25159   0.909   0.322   0.042
 8087SOL    HW125160   0.840   0.363   7.006
 8087SOL    HW225161   1.000   0.350   0.012
 8088SOL     OW25162   6.750   0.387   5.184
 8088SOL    HW125163   6.732   0.290   5.196
 8088SOL    HW225164   6.848   0.402   5.171
 8089SOL     OW25165   6.573   1.954   6.252
 8089SOL    HW125166   6.491   1.899   6.267
 8089SOL    HW225167   6.564   2.041   6.300
 8090SOL     OW25168   4.431   2.058   5.298
 8090SOL    HW125169   4.496   2.055   5.374
 8090SOL    HW225170   4.352   2.001   5.321
 8091SOL     OW25171   1.348   4.732   3.796
 8091SOL    HW125172   1.402   4.810   3.828
 8091SOL    HW225173   1.291   4.697   3.870
 8092SOL     OW25174   5.103   1.767   6.125
 8092SOL    HW125175   5.146   1.701   6.064
 8092SOL    HW225176   5.011   1.787   6.092
 8093SOL     OW25177   3.467   6.044   3.067
 8093SOL    HW125178   3.438   6.078   2.978
 8093SOL    HW225179   3.388   6.035   3.128
 8094SOL     OW25180   2.128   4.039   4.012
 8094SOL    HW125181   2.038   4.068   3.978
 8094SOL    HW225182   2.117   3.962   4.075
 8095SOL     OW25183   1.113   4.606   5.233
 8095SOL    HW125184   1.020   4.617   5.199
 8095SOL    HW225185   1.134   4.508   5.240
 8096SOL     OW25186   0.747   5.799   0.354
 8096SOL    HW125187   0.753   5.807   0.255
 8096SOL    HW225188   0.778   5.884   0.396
 8097SOL     OW25189   4.533   6.401   0.150
 8097SOL    HW125190   4.593   6.463   0.100
 8097SOL    HW225191   4.586   6.348   0.216
 8098SOL     OW25192   1.865   5.724   4.715
 8098SOL    HW125193   1.784   5.694   4.765
 8098SOL    HW225194   1.847   5.811   4.670
 8099SOL     OW25195   1.958   4.104   2.591
 8099SOL    HW125196   1.944   4.106   2.690
 8099SOL    HW225197   2.040   4.051   2.570
 8100SOL     OW25198   6.958   0.961   6.795
 8100SOL    HW125199   6.966   0.915   6.707
 8100SOL    HW225200   6.874   0.931   6.841
 8101SOL     OW25201   3.430   5.376   0.382
 8101SOL    HW125202   3.355   5.347   0.441
 8101SOL    HW225203   3.447   5.474   0.396
 8102SOL     OW25204   1.393   3.921   4.699
 8102SOL    HW125205   1.474   3.882   4.742
 8102SOL    HW225206   1.404   4.020   4.690
 8103SOL     OW25207   3.296   1.042   2.029
 8103SOL    HW125208   3.200   1.029   2.002
 8103SOL    HW225209   3.348   0.959   2.009
 8104SOL     OW25210   1.725   5.668   0.624
 8104SOL    HW125211   1.696   5.694   0.532
 8104SOL    HW225212   1.687   5.732   0.690
 8105SOL     OW25213   6.905   0.001   3.562
 8105SOL    HW125214   6.957   6.943   3.583
 8105SOL    HW225215   6.955   0.056   3.495
 8106SOL     OW25216   2.109   0.137   6.074
 8106SOL    HW125217   2.103   0.097   6.165
 8106SOL    HW225218   2.123   0.236   6.082
 8107SOL     OW25219   1.413   6.295   6.655
 8107SOL    HW125220   1.437   6.212   6.705
 8107SOL    HW225221   1.341   6.274   6.589
 8108SOL     OW25222   1.570   1.394   6.875
 8108SOL    HW125223   1.557   1.463   6.804
 8108SOL    HW225224   1.622   1.433   6.951
 8109SOL     OW25225   6.182   3.184   1.163
 8109SOL    HW125226   6.176   3.089   1.133
 8109SOL    HW225227   6.218   3.187   1.257
 8110SOL     OW25228   3.709   4.727   1.246
 8110SOL    HW125229   3.653   4.652   1.211
 8110SOL    HW225230   3.742   4.783   1.170
 8111SOL     OW25231   6.430   1.121   2.430
 8111SOL    HW125232   6.414   1.027   2.400
 8111SOL    HW225233   6.501   1.163   2.372
 8112SOL     OW25234   1.629   4.327   6.324
 8112SOL    HW125235   1.684   4.245   6.310
 8112SOL    HW225236   1.537   4.313   6.288
 8113SOL     OW25237   5.506   3.762   5.754
 8113SOL    HW125238   5.601   3.792   5.750
 8113SOL    HW225239   5.458   3.812   5.826
 8114SOL     OW25240   1.478   4.235   2.013
 8114SOL    HW125241   1.481   4.135   2.018
 8114SOL    HW225242   1.451   4.272   2.101
 8115SOL     OW25243   2.884   1.780   5.748
 8115SOL    HW125244   2.846   1.868   5.718
 8115SOL    HW225245   2.982   1.790   5.764
 8116SOL     OW25246   3.849   3.318   1.088
 8116SOL    HW125247   3.880   3.410   1.062
 8116SOL    HW225248   3.756   3.304   1.054
 8117SOL     OW25249   2.371   6.907   3.582
 8117SOL    HW125250   2.274   6.885   3.593
 8117SOL    HW225251   2.392   6.920   3.485
 8118SOL     OW25252   6.518   2.986   0.441
 8118SOL    HW125253   6.460   2.926   0.385
 8118SOL    HW225254   6.558   2.933   0.516
 8119SOL     OW25255   5.767   6.500   0.558
 8119SOL    HW125256   5.677   6.480   0.597
 8119SOL    HW225257   5.757   6.560   0.479
 8120SOL     OW25258   2.339   0.167   1.614
 8120SOL    HW125259   2.410   0.196   1.678
 8120SOL    HW225260   2.284   0.094   1.654
 8121SOL     OW25261   0.547   3.252   2.494
 8121SOL    HW125262   0.605   3.179   2.530
 8121SOL    HW225263   0.452   3.220   2.488
 8122SOL     OW25264   0.427   5.022   0.964
 8122SOL    HW125265   0.356   4.958   0.994
 8122SOL    HW225266   0.423   5.104   1.021
 8123SOL     OW25267   0.061   1.515   6.426
 8123SOL    HW125268   7.005   1.570   6.404
 8123SOL    HW225269   0.053   1.481   6.520
 8124SOL     OW25270   5.371   5.336   4.820
 8124SOL    HW125271   5.365   5.435   4.834
 8124SOL    HW225272   5.430   5.317   4.741
 8125SOL     OW25273   2.221   5.836   2.995
 8125SOL    HW125274   2.234   5.909   2.928
 8125SOL    HW225275   2.178   5.874   3.078
 8126SOL     OW25276   3.720   4.945   4.561
 8126SOL    HW125277   3.720   4.983   4.469
 8126SOL    HW225278   3.788   4.873   4.568
 8127SOL     OW25279   3.801   2.601   0.242
 8127SOL    HW125280   3.766   2.686   0.281
 8127SOL    HW225281   3.890   2.618   0.199
 8128SOL     OW25282   3.632   3.142   1.640
 8128SOL    HW125283   3.622   3.103   1.549
 8128SOL    HW225284   3.720   3.189   1.647
 8129SOL     OW25285   1.867   2.479   2.198
 8129SOL    HW125286   1.776   2.442   2.215
 8129SOL    HW225287   1.923   2.409   2.153
 8130SOL     OW25288   0.515   5.478   6.642
 8130SOL    HW125289   0.589   5.514   6.699
 8130SOL    HW225290   0.516   5.522   6.553
 8131SOL     OW25291   1.711   3.775   6.890
 8131SOL    HW125292   1.649   3.709   6.933
 8131SOL    HW225293   1.794   3.784   6.946
 8132SOL     OW25294   0.447   0.299   5.231
 8132SOL    HW125295   0.447   0.203   5.259
 8132SOL    HW225296   0.391   0.352   5.295
 8133SOL     OW25297   3.746   4.964   0.619
 8133SOL    HW125298   3.787   5.033   0.679
 8133SOL    HW225299   3.676   5.008   0.562
 8134SOL     OW25300   5.881   1.657   5.843
 8134SOL    HW125301   5.784   1.660   5.867
 8134SOL    HW225302   5.918   1.566   5.864
 8135SOL     OW25303   2.728   6.549   1.877
 8135SOL    HW125304   2.674   6.604   1.941
 8135SOL    HW225305   2.719   6.452   1.901
 8136SOL     OW25306   5.062   4.555   2.053
 8136SOL    HW125307   5.030   4.464   2.028
 8136SOL    HW225308   5.144   4.577   1.999
 8137SOL     OW25309   4.021   1.322   5.240
 8137SOL    HW125310   4.004   1.272   5.155
 8137SOL    HW225311   3.981   1.272   5.317
 8138SOL     OW25312   5.149   0.667   1.897
 8138SOL    HW125313   5.189   0.726   1.826
 8138SOL    HW225314   5.211   0.662   1.975
 8139SOL     OW25315   0.347   1.996   3.135
 8139SOL    HW125316   0.343   2.066   3.064
 8139SOL    HW225317   0.256   1.954   3.146
 8140SOL     OW25318   4.279   0.857   3.303
 8140SOL    HW125319   4.231   0.779   3.342
 8140SOL    HW225320   4.229   0.890   3.223
 8141SOL     OW25321   5.199   5.067   4.653
 8141SOL    HW125322   5.168   5.105   4.741
 8141SOL    HW225323   5.122   5.020   4.609
 8142SOL     OW25324   7.022   6.076   0.371
 8142SOL    HW125325   0.049   6.015   0.431
 8142SOL    HW225326   6.924   6.064   0.389
 8143SOL     OW25327   6.369   3.473   5.056
 8143SOL    HW125328   6.282   3.446   5.014
 8143SOL    HW225329   6.376   3.433   5.147
 8144SOL     OW25330   5.524   0.286   6.173
 8144SOL    HW125331   5.480   0.234   6.100
 8144SOL    HW225332   5.606   0.330   6.136
 8145SOL     OW25333   5.519   6.340   2.860
 8145SOL    HW125334   5.481   6.401   2.929
 8145SOL    HW225335   5.519   6.385   2.771
 8146SOL     OW25336   2.945   0.860   4.024
 8146SOL    HW125337   2.997   0.946   4.030
 8146SOL    HW225338   2.980   0.795   4.091
 8147SOL     OW25339   4.762   0.614   3.627
 8147SOL    HW125340   4.794   0.613   3.722
 8147SOL    HW225341   4.841   0.618   3.566
 8148SOL     OW25342   4.967   4.246   3.649
 8148SOL    HW125343   5.043   4.184   3.669
 8148SOL    HW225344   4.998   4.317   3.586
 8149SOL     OW25345   4.161   4.816   3.416
 8149SOL    HW125346   4.161   4.754   3.494
 8149SOL    HW225347   4.147   4.910   3.448
 8150SOL     OW25348   0.879   5.670   1.298
 8150SOL    HW125349   0.815   5.643   1.369
 8150SOL    HW225350   0.912   5.763   1.315
 8151SOL     OW25351   1.234   1.633   5.362
 8151SOL    HW125352   1.194   1.653   5.451
 8151SOL    HW225353   1.271   1.540   5.362
 8152SOL     OW25354   1.639   1.248   3.268
 8152SOL    HW125355   1.704   1.312   3.229
 8152SOL    HW225356   1.676   1.211   3.354
 8153SOL     OW25357   1.820   6.973   0.549
 8153SOL    HW125358   1.823   7.010   0.456
 8153SOL    HW225359   1.782   6.881   0.547
 8154SOL     OW25360   2.182   6.840   3.362
 8154SOL    HW125361   2.136   6.754   3.382
 8154SOL    HW225362   2.220   6.838   3.270
 8155SOL     OW25363   3.409   3.333   3.543
 8155SOL    HW125364   3.415   3.408   3.609
 8155SOL    HW225365   3.457   3.359   3.459
 8156SOL     OW25366   6.579   0.202   5.822
 8156SOL    HW125367   6.559   0.213   5.920
 8156SOL    HW225368   6.507   0.149   5.779
 8157SOL     OW25369   5.960   3.020   6.964
 8157SOL    HW125370   5.971   3.119   6.977
 8157SOL    HW225371   5.941   3.001   6.868
 8158SOL     OW25372   2.134   5.349   2.156
 8158SOL    HW125373   2.117   5.278   2.088
 8158SOL    HW225374   2.182   5.309   2.235
 8159SOL     OW25375   1.360   5.542   1.581
 8159SOL    HW125376   1.267   5.544   1.617
 8159SOL    HW225377   1.381   5.630   1.538
 8160SOL     OW25378   4.364   2.421   1.965
 8160SOL    HW125379   4.444   2.482   1.967
 8160SOL    HW225380   4.330   2.414   1.872
 8161SOL     OW25381   4.299   1.786   0.958
 8161SOL    HW125382   4.319   1.742   0.870
 8161SOL    HW225383   4.259   1.718   1.020
 8162SOL     OW25384   6.345   0.829   1.283
 8162SOL    HW125385   6.379   0.785   1.200
 8162SOL    HW225386   6.268   0.776   1.320
 8163SOL     OW25387   2.267   3.738   5.262
 8163SOL    HW125388   2.341   3.803   5.244
 8163SOL    HW225389   2.246   3.738   5.360
 8164SOL     OW25390   4.617   1.982   1.853
 8164SOL    HW125391   4.658   1.906   1.904
 8164SOL    HW225392   4.629   2.067   1.903
 8165SOL     OW25393   2.292   4.925   1.511
 8165SOL    HW125394   2.387   4.897   1.499
 8165SOL    HW225395   2.257   4.963   1.426
 8166SOL     OW25396   2.837   6.772   1.458
 8166SOL    HW125397   2.930   6.735   1.459
 8166SOL    HW225398   2.800   6.772   1.551
 8167SOL     OW25399   4.980   3.417   4.239
 8167SOL    HW125400   5.053   3.482   4.218
 8167SOL    HW225401   4.931   3.447   4.321
 8168SOL     OW25402   3.200   1.583   3.031
 8168SOL    HW125403   3.233   1.666   2.987
 8168SOL    HW225404   3.225   1.503   2.977
 8169SOL     OW25405   4.917   4.408   5.904
 8169SOL    HW125406   4.860   4.401   5.822
 8169SOL    HW225407   5.006   4.448   5.880
 8170SOL     OW25408   0.400   4.941   3.937
 8170SOL    HW125409   0.462   4.879   3.986
 8170SOL    HW225410   0.451   5.022   3.908
 8171SOL     OW25411   1.419   1.154   5.642
 8171SOL    HW125412   1.330   1.140   5.599
 8171SOL    HW225413   1.468   1.067   5.646
 8172SOL     OW25414   0.067   6.538   1.205
 8172SOL    HW125415   0.120   6.465   1.163
 8172SOL    HW225416   0.026   6.596   1.134
 8173SOL     OW25417   5.011   3.081   6.620
 8173SOL    HW125418   5.103   3.094   6.583
 8173SOL    HW225419   5.014   3.015   6.695
 8174SOL     OW25420   5.354   0.318   2.134
 8174SOL    HW125421   5.370   0.297   2.038
 8174SOL    HW225422   5.256   0.332   2.149
 8175SOL     OW25423   1.372   3.633   5.555
 8175SOL    HW125424   1.315   3.713   5.572
 8175SOL    HW225425   1.468   3.660   5.553
 8176SOL     OW25426   3.941   5.466   3.119
 8176SOL    HW125427   3.997   5.383   3.119
 8176SOL    HW225428   3.953   5.514   3.032
 8177SOL     OW25429   1.795   0.238   6.261
 8177SOL    HW125430   1.863   0.311   6.264
 8177SOL    HW225431   1.838   0.150   6.278
 8178SOL     OW25432   1.894   6.273   6.174
 8178SOL    HW125433   1.896   6.249   6.271
 8178SOL    HW225434   1.918   6.193   6.119
 8179SOL     OW25435   3.233   0.753   0.431
 8179SOL    HW125436   3.328   0.773   0.454
 8179SOL    HW225437   3.173   0.790   0.502
 8180SOL     OW25438   4.633   5.490   5.077
 8180SOL    HW125439   4.588   5.435   5.147
 8180SOL    HW225440   4.732   5.488   5.091
 8181SOL     OW25441   2.816   2.280   2.383
 8181SOL    HW125442   2.760   2.335   2.445
 8181SOL    HW225443   2.769   2.270   2.296
 8182SOL     OW25444   4.126   2.033   5.552
 8182SOL    HW125445   4.131   2.107   5.619
 8182SOL    HW225446   4.109   2.072   5.461
 8183SOL     OW25447   1.670   3.138   4.023
 8183SOL    HW125448   1.667   3.161   4.120
 8183SOL    HW225449   1.645   3.219   3.969
 8184SOL     OW25450   6.258   5.579   5.635
 8184SOL    HW125451   6.268   5.675   5.660
 8184SOL    HW225452   6.308   5.561   5.550
 8185SOL     OW25453   1.572   1.622   2.713
 8185SOL    HW125454   1.602   1.691   2.780
 8185SOL    HW225455   1.648   1.560   2.693
 8186SOL     OW25456   3.798   4.560   5.947
 8186SOL    HW125457   3.812   4.555   6.046
 8186SOL    HW225458   3.726   4.626   5.927
 8187SOL     OW25459   1.828   1.335   6.184
 8187SOL    HW125460   1.733   1.366   6.178
 8187SOL    HW225461   1.843   1.293   6.274
 8188SOL     OW25462   5.973   3.125   2.682
 8188SOL    HW125463   5.947   3.145   2.588
 8188SOL    HW225464   5.900   3.151   2.744
 8189SOL     OW25465   6.454   4.773   2.678
 8189SOL    HW125466   6.411   4.786   2.588
 8189SOL    HW225467   6.389   4.728   2.739
 8190SOL     OW25468   5.483   3.347   2.875
 8190SOL    HW125469   5.483   3.397   2.788
 8190SOL    HW225470   5.389   3.340   2.909
 8191SOL     OW25471   6.980   5.253   1.735
 8191SOL    HW125472   6.927   5.261   1.820
 8191SOL    HW225473   7.021   5.341   1.713
 8192SOL     OW25474   1.715   3.835   1.044
 8192SOL    HW125475   1.815   3.828   1.047
 8192SOL    HW225476   1.677   3.805   1.132
 8193SOL     OW25477   3.594   0.178   5.622
 8193SOL    HW125478   3.562   0.174   5.717
 8193SOL    HW225479   3.593   0.273   5.591
 8194SOL     OW25480   1.778   0.486   1.564
 8194SOL    HW125481   1.842   0.410   1.551
 8194SOL    HW225482   1.688   0.461   1.528
 8195SOL     OW25483   6.215   0.523   0.867
 8195SOL    HW125484   6.196   0.619   0.885
 8195SOL    HW225485   6.129   0.473   0.857
 8196SOL     OW25486   2.139   0.359   6.806
 8196SOL    HW125487   2.215   0.317   6.855
 8196SOL    HW225488   2.133   0.456   6.831
 8197SOL     OW25489   0.827   7.008   0.748
 8197SOL    HW125490   0.821   6.981   0.652
 8197SOL    HW225491   0.838   6.927   0.806
 8198SOL     OW25492   3.902   6.669   2.835
 8198SOL    HW125493   3.813   6.707   2.862
 8198SOL    HW225494   3.903   6.653   2.736
 8199SOL     OW25495   5.781   4.455   0.517
 8199SOL    HW125496   5.777   4.382   0.586
 8199SOL    HW225497   5.727   4.427   0.437
 8200SOL     OW25498   4.552   3.024   1.483
 8200SOL    HW125499   4.591   3.095   1.424
 8200SOL    HW225500   4.490   2.967   1.429
 8201SOL     OW25501   6.182   1.122   4.593
 8201SOL    HW125502   6.232   1.182   4.530
 8201SOL    HW225503   6.085   1.122   4.568
 8202SOL     OW25504   1.532   4.167   4.155
 8202SOL    HW125505   1.521   4.068   4.153
 8202SOL    HW225506   1.626   4.189   4.128
 8203SOL     OW25507   6.144   3.940   0.709
 8203SOL    HW125508   6.114   4.022   0.757
 8203SOL    HW225509   6.089   3.862   0.740
 8204SOL     OW25510   3.565   0.491   0.481
 8204SOL    HW125511   3.510   0.435   0.417
 8204SOL    HW225512   3.513   0.572   0.506
 8205SOL     OW25513   5.681   5.743   3.148
 8205SOL    HW125514   5.611   5.750   3.076
 8205SOL    HW225515   5.664   5.661   3.203
 8206SOL     OW25516   3.648   1.880   4.593
 8206SOL    HW125517   3.637   1.948   4.520
 8206SOL    HW225518   3.567   1.821   4.595
 8207SOL     OW25519   2.727   6.102   6.666
 8207SOL    HW125520   2.777   6.188   6.654
 8207SOL    HW225521   2.789   6.025   6.655
 8208SOL     OW25522   1.225   5.263   6.349
 8208SOL    HW125523   1.319   5.236   6.371
 8208SOL    HW225524   1.163   5.227   6.419
 8209SOL     OW25525   1.002   5.873   5.215
 8209SOL    HW125526   0.935   5.947   5.212
 8209SOL    HW225527   0.974   5.806   5.283
 8210SOL     OW25528   2.695   1.518   0.228
 8210SOL    HW125529   2.728   1.610   0.248
 8210SOL    HW225530   2.606   1.504   0.271
 8211SOL     OW25531   2.935   3.680   4.545
 8211SOL    HW125532   3.006   3.614   4.523
 8211SOL    HW225533   2.906   3.668   4.640
 8212SOL     OW25534   3.863   6.436   0.821
 8212SOL    HW125535   3.882   6.338   0.818
 8212SOL    HW225536   3.773   6.454   0.782
 8213SOL     OW25537   4.424   4.465   1.739
 8213SOL    HW125538   4.410   4.385   1.798
 8213SOL    HW225539   4.491   4.526   1.782
 8214SOL     OW25540   4.068   5.059   3.560
 8214SOL    HW125541   3.981   5.013   3.538
 8214SOL    HW225542   4.082   5.134   3.496
 8215SOL     OW25543   2.335   6.001   6.419
 8215SOL    HW125544   2.280   6.074   6.379
 8215SOL    HW225545   2.400   6.040   6.484
 8216SOL     OW25546   5.720   4.831   1.434
 8216SOL    HW125547   5.664   4.910   1.409
 8216SOL    HW225548   5.662   4.761   1.476
 8217SOL     OW25549   2.698   6.390   3.844
 8217SOL    HW125550   2.614   6.438   3.868
 8217SOL    HW225551   2.689   6.293   3.867
 8218SOL     OW25552   2.069   5.815   4.940
 8218SOL    HW125553   2.112   5.900   4.972
 8218SOL    HW225554   2.042   5.824   4.845
 8219SOL     OW25555   4.229   3.376   1.872
 8219SOL    HW125556   4.186   3.368   1.962
 8219SOL    HW225557   4.203   3.298   1.816
 8220SOL     OW25558   3.153   3.677   4.837
 8220SOL    HW125559   3.202   3.679   4.925
 8220SOL    HW225560   3.059   3.706   4.851
 8221SOL     OW25561   6.040   3.939   3.589
 8221SOL    HW125562   6.130   3.927   3.630
 8221SOL    HW225563   6.050   3.972   3.495
 8222SOL     OW25564   6.549   2.816   0.004
 8222SOL    HW125565   6.633   2.764   0.021
 8222SOL    HW225566   6.508   2.786   6.942
 8223SOL     OW25567   2.484   6.420   6.099
 8223SOL    HW125568   2.554   6.400   6.031
 8223SOL    HW225569   2.505   6.372   6.184
 8224SOL     OW25570   4.927   1.262   0.092
 8224SOL    HW125571   4.973   1.327   0.153
 8224SOL    HW225572   4.986   1.183   0.078
 8225SOL     OW25573   5.740   2.320   6.514
 8225SOL    HW125574   5.671   2.248   6.501
 8225SOL    HW225575   5.765   2.323   6.611
 8226SOL     OW25576   3.996   0.722   0.326
 8226SOL    HW125577   4.043   0.803   0.362
 8226SOL    HW225578   4.034   0.640   0.368
 8227SOL     OW25579   4.369   2.301   2.660
 8227SOL    HW125580   4.420   2.214   2.657
 8227SOL    HW225581   4.271   2.282   2.654
 8228SOL     OW25582   2.983   6.848   4.371
 8228SOL    HW125583   3.032   6.774   4.324
 8228SOL    HW225584   2.919   6.809   4.437
 8229SOL     OW25585   4.544   4.404   0.954
 8229SOL    HW125586   4.560   4.423   1.051
 8229SOL    HW225587   4.595   4.322   0.927
 8230SOL     OW25588   6.404   0.220   6.048
 8230SOL    HW125589   6.401   0.317   6.073
 8230SOL    HW225590   6.405   0.165   6.131
 8231SOL     OW25591   3.081   0.873   2.379
 8231SOL    HW125592   3.014   0.801   2.363
 8231SOL    HW225593   3.042   0.962   2.355
 8232SOL     OW25594   3.887   5.911   3.682
 8232SOL    HW125595   3.796   5.879   3.657
 8232SOL    HW225596   3.955   5.867   3.625
 8233SOL     OW25597   2.270   0.854   6.510
 8233SOL    HW125598   2.232   0.767   6.481
 8233SOL    HW225599   2.197   0.922   6.518
 8234SOL     OW25600   1.353   2.588   0.784
 8234SOL    HW125601   1.353   2.489   0.768
 8234SOL    HW225602   1.398   2.607   0.871
 8235SOL     OW25603   1.024   1.448   1.353
 8235SOL    HW125604   1.058   1.358   1.383
 8235SOL    HW225605   1.099   1.500   1.312
 8236SOL     OW25606   0.832   0.400   1.778
 8236SOL    HW125607   0.911   0.421   1.722
 8236SOL    HW225608   0.787   0.318   1.743
 8237SOL     OW25609   3.806   4.516   5.595
 8237SOL    HW125610   3.837   4.449   5.528
 8237SOL    HW225611   3.718   4.487   5.634
 8238SOL     OW25612   0.551   5.255   1.149
 8238SOL    HW125613   0.586   5.277   1.240
 8238SOL    HW225614   0.605   5.303   1.080
 8239SOL     OW25615   2.854   1.373   6.156
 8239SOL    HW125616   2.884   1.460   6.117
 8239SOL    HW225617   2.821   1.313   6.083
 8240SOL     OW25618   3.962   3.085   4.330
 8240SOL    HW125619   3.893   3.037   4.276
 8240SOL    HW225620   3.937   3.081   4.427
 8241SOL     OW25621   1.866   3.361   5.860
 8241SOL    HW125622   1.785   3.417   5.840
 8241SOL    HW225623   1.948   3.417   5.850
 8242SOL     OW25624   0.659   2.978   2.443
 8242SOL    HW125625   0.632   2.945   2.534
 8242SOL    HW225626   0.578   2.991   2.387
 8243SOL     OW25627   0.968   6.345   3.785
 8243SOL    HW125628   1.023   6.317   3.863
 8243SOL    HW225629   0.912   6.424   3.810
 8244SOL     OW25630   6.768   1.182   3.407
 8244SOL    HW125631   6.782   1.136   3.319
 8244SOL    HW225632   6.821   1.134   3.477
 8245SOL     OW25633   5.122   2.821   2.694
 8245SOL    HW125634   5.210   2.799   2.736
 8245SOL    HW225635   5.091   2.742   2.641
 8246SOL     OW25636   1.704   5.019   6.827
 8246SOL    HW125637   1.626   4.965   6.793
 8246SOL    HW225638   1.782   4.959   6.842
 8247SOL     OW25639   2.784   5.313   3.510
 8247SOL    HW125640   2.765   5.304   3.608
 8247SOL    HW225641   2.739   5.239   3.460
 8248SOL     OW25642   6.635   5.748   3.810
 8248SOL    HW125643   6.666   5.715   3.721
 8248SOL    HW225644   6.713   5.751   3.874
 8249SOL     OW25645   3.628   0.994   6.933
 8249SOL    HW125646   3.574   0.911   6.947
 8249SOL    HW225647   3.697   0.977   6.862
 8250SOL     OW25648   0.915   2.135   6.404
 8250SOL    HW125649   0.990   2.150   6.468
 8250SOL    HW225650   0.917   2.040   6.371
 8251SOL     OW25651   0.529   2.203   4.999
 8251SOL    HW125652   0.473   2.273   4.955
 8251SOL    HW225653   0.590   2.245   5.065
 8252SOL     OW25654   0.707   2.357   6.659
 8252SOL    HW125655   0.729   2.407   6.575
 8252SOL    HW225656   0.632   2.293   6.641
 8253SOL     OW25657   5.136   4.827   6.508
 8253SOL    HW125658   5.197   4.831   6.587
 8253SOL    HW225659   5.047   4.792   6.536
 8254SOL     OW25660   6.528   5.592   0.253
 8254SOL    HW125661   6.479   5.555   0.174
 8254SOL    HW225662   6.476   5.667   0.293
 8255SOL     OW25663   2.060   0.108   5.680
 8255SOL    HW125664   1.976   0.066   5.646
 8255SOL    HW225665   2.039   0.195   5.724
 8256SOL     OW25666   1.030   5.874   4.399
 8256SOL    HW125667   1.026   5.881   4.499
 8256SOL    HW225668   0.966   5.940   4.359
 8257SOL     OW25669   5.096   4.030   3.352
 8257SOL    HW125670   5.016   4.037   3.412
 8257SOL    HW225671   5.071   4.060   3.260
 8258SOL     OW25672   0.668   2.610   3.615
 8258SOL    HW125673   0.602   2.683   3.631
 8258SOL    HW225674   0.640   2.557   3.534
 8259SOL     OW25675   5.680   2.235   4.439
 8259SOL    HW125676   5.695   2.330   4.467
 8259SOL    HW225677   5.679   2.176   4.519
 8260SOL     OW25678   5.106   3.069   0.899
 8260SOL    HW125679   5.146   3.115   0.978
 8260SOL    HW225680   5.154   3.097   0.816
 8261SOL     OW25681   5.970   1.115   2.614
 8261SOL    HW125682   5.939   1.021   2.596
 8261SOL    HW225683   5.950   1.139   2.709
 8262SOL     OW25684   5.048   4.043   2.124
 8262SOL    HW125685   5.012   4.018   2.214
 8262SOL    HW225686   5.148   4.050   2.129
 8263SOL     OW25687   7.015   1.770   6.069
 8263SOL    HW125688   0.003   1.834   6.144
 8263SOL    HW225689   0.030   1.807   5.985
 8264SOL     OW25690   3.178   0.328   2.050
 8264SOL    HW125691   3.225   0.242   2.031
 8264SOL    HW225692   3.239   0.388   2.103
 8265SOL     OW25693   4.708   5.680   0.276
 8265SOL    HW125694   4.688   5.709   0.370
 8265SOL    HW225695   4.625   5.643   0.235
 8266SOL     OW25696   3.730   0.885   3.589
 8266SOL    HW125697   3.748   0.841   3.500
 8266SOL    HW225698   3.803   0.949   3.611
 8267SOL     OW25699   1.945   2.830   3.107
 8267SOL    HW125700   1.927   2.928   3.098
 8267SOL    HW225701   1.865   2.784   3.145
 8268SOL     OW25702   3.390   4.553   6.680
 8268SOL    HW125703   3.302   4.522   6.716
 8268SOL    HW225704   3.383   4.565   6.581
 8269SOL     OW25705   6.209   2.452   4.946
 8269SOL    HW125706   6.297   2.406   4.960
 8269SOL    HW225707   6.140   2.385   4.919
 8270SOL     OW25708   4.480   5.403   6.875
 8270SOL    HW125709   4.407   5.451   6.924
 8270SOL    HW225710   4.487   5.439   6.782
 8271SOL     OW25711   3.318   6.761   6.059
 8271SOL    HW125712   3.308   6.843   6.002
 8271SOL    HW225713   3.309   6.787   6.156
 8272SOL     OW25714   0.919   0.347   2.173
 8272SOL    HW125715   0.964   0.336   2.084
 8272SOL    HW225716   0.845   0.414   2.165
 8273SOL     OW25717   3.839   0.726   6.620
 8273SOL    HW125718   3.915   0.662   6.607
 8273SOL    HW225719   3.777   0.690   6.690
 8274SOL     OW25720   5.385   6.059   5.379
 8274SOL    HW125721   5.362   6.039   5.475
 8274SOL    HW225722   5.481   6.085   5.372
 8275SOL     OW25723   4.960   1.280   4.995
 8275SOL    HW125724   5.014   1.345   5.049
 8275SOL    HW225725   4.947   1.196   5.048
 8276SOL     OW25726   6.348   1.977   6.804
 8276SOL    HW125727   6.279   1.910   6.777
 8276SOL    HW225728   6.356   2.046   6.733
 8277SOL     OW25729   1.447   6.580   1.068
 8277SOL    HW125730   1.461   6.678   1.058
 8277SOL    HW225731   1.385   6.548   0.996
 8278SOL     OW25732   2.430   1.156   1.284
 8278SOL    HW125733   2.470   1.112   1.365
 8278SOL    HW225734   2.352   1.103   1.252
 8279SOL     OW25735   4.306   6.068   5.968
 8279SOL    HW125736   4.344   6.079   5.876
 8279SOL    HW225737   4.239   5.994   5.968
 8280SOL     OW25738   5.285   3.870   7.014
 8280SOL    HW125739   5.229   3.904   0.064
 8280SOL    HW225740   5.378   3.907   7.022
 8281SOL     OW25741   2.542   5.830   6.390
 8281SOL    HW125742   2.490   5.744   6.396
 8281SOL    HW225743   2.482   5.906   6.413
 8282SOL     OW25744   3.070   2.983   2.168
 8282SOL    HW125745   3.163   2.966   2.136
 8282SOL    HW225746   3.016   2.900   2.157
 8283SOL     OW25747   0.298   0.317   3.594
 8283SOL    HW125748   0.356   0.241   3.622
 8283SOL    HW225749   0.355   0.394   3.565
 8284SOL     OW25750   4.611   1.640   1.663
 8284SOL    HW125751   4.581   1.657   1.569
 8284SOL    HW225752   4.530   1.630   1.722
 8285SOL     OW25753   1.176   4.273   0.531
 8285SOL    HW125754   1.187   4.175   0.512
 8285SOL    HW225755   1.265   4.319   0.524
 8286SOL     OW25756   6.494   2.635   6.060
 8286SOL    HW125757   6.572   2.614   6.002
 8286SOL    HW225758   6.518   2.708   6.123
 8287SOL     OW25759   1.715   1.473   3.440
 8287SOL    HW125760   1.645   1.446   3.506
 8287SOL    HW225761   1.802   1.429   3.464
 8288SOL     OW25762   1.826   0.307   2.876
 8288SOL    HW125763   1.733   0.285   2.907
 8288SOL    HW225764   1.886   0.315   2.955
 8289SOL     OW25765   5.773   0.233   0.085
 8289SOL    HW125766   5.816   0.194   0.004
 8289SOL    HW225767   5.818   0.198   0.167
 8290SOL     OW25768   4.569   2.626   1.945
 8290SOL    HW125769   4.629   2.664   2.016
 8290SOL    HW225770   4.544   2.698   1.881
 8291SOL     OW25771   4.769   6.277   6.555
 8291SOL    HW125772   4.801   6.207   6.492
 8291SOL    HW225773   4.708   6.235   6.623
 8292SOL     OW25774   0.403   2.965   5.325
 8292SOL    HW125775   0.396   2.878   5.372
 8292SOL    HW225776   0.471   3.022   5.371
 8293SOL     OW25777   2.673   5.542   4.283
 8293SOL    HW125778   2.600   5.610   4.284
 8293SOL    HW225779   2.685   5.504   4.375
 8294SOL     OW25780   5.300   3.542   5.446
 8294SOL    HW125781   5.349   3.549   5.533
 8294SOL    HW225782   5.225   3.608   5.444
 8295SOL     OW25783   4.628   4.954   2.810
 8295SOL    HW125784   4.685   4.951   2.727
 8295SOL    HW225785   4.626   4.863   2.851
 8296SOL     OW25786   3.687   0.080   2.312
 8296SOL    HW125787   3.762   0.083   2.246
 8296SOL    HW225788   3.722   0.092   2.404
 8297SOL     OW25789   5.466   4.551   2.267
 8297SOL    HW125790   5.383   4.598   2.298
 8297SOL    HW225791   5.524   4.530   2.346
 8298SOL     OW25792   6.911   6.951   0.419
 8298SOL    HW125793   6.954   7.024   0.367
 8298SOL    HW225794   6.944   6.863   0.387
 8299SOL     OW25795   1.061   3.255   6.696
 8299SOL    HW125796   1.063   3.234   6.794
 8299SOL    HW225797   1.107   3.342   6.679
 8300SOL     OW25798   6.097   5.023   3.917
 8300SOL    HW125799   6.057   5.103   3.963
 8300SOL    HW225800   6.196   5.024   3.929
 8301SOL     OW25801   6.254   6.114   0.259
 8301SOL    HW125802   6.169   6.160   0.232
 8301SOL    HW225803   6.332   6.167   0.229
 8302SOL     OW25804   4.128   6.649   5.063
 8302SOL    HW125805   4.131   6.625   4.966
 8302SOL    HW225806   4.139   6.566   5.118
 8303SOL     OW25807   0.366   5.151   3.256
 8303SOL    HW125808   0.300   5.119   3.325
 8303SOL    HW225809   0.437   5.205   3.300
 8304SOL     OW25810   6.254   3.107   3.603
 8304SOL    HW125811   6.268   3.203   3.579
 8304SOL    HW225812   6.305   3.086   3.686
 8305SOL     OW25813   4.955   0.046   5.942
 8305SOL    HW125814   5.005   6.985   5.958
 8305SOL    HW225815   4.864   0.026   5.908
 8306SOL     OW25816   6.307   0.985   4.053
 8306SOL    HW125817   6.374   0.918   4.021
 8306SOL    HW225818   6.337   1.077   4.024
 8307SOL     OW25819   1.470   3.666   3.342
 8307SOL    HW125820   1.507   3.575   3.324
 8307SOL    HW225821   1.537   3.720   3.393
 8308SOL     OW25822   1.485   5.279   0.704
 8308SOL    HW125823   1.399   5.230   0.718
 8308SOL    HW225824   1.465   5.369   0.664
 8309SOL     OW25825   6.336   5.262   4.337
 8309SOL    HW125826   6.413   5.285   4.397
 8309SOL    HW225827   6.271   5.338   4.336
 8310SOL     OW25828   2.502   0.017   2.902
 8310SOL    HW125829   2.486   6.982   2.823
 8310SOL    HW225830   2.542   6.988   2.977
 8311SOL     OW25831   4.488   5.799   3.127
 8311SOL    HW125832   4.526   5.778   3.217
 8311SOL    HW225833   4.513   5.727   3.063
 8312SOL     OW25834   5.963   1.962   0.598
 8312SOL    HW125835   5.867   1.955   0.572
 8312SOL    HW225836   5.971   1.964   0.698
 8313SOL     OW25837   5.845   2.454   6.014
 8313SOL    HW125838   5.899   2.407   5.944
 8313SOL    HW225839   5.779   2.390   6.054
 8314SOL     OW25840   4.694   5.993   4.428
 8314SOL    HW125841   4.746   5.963   4.348
 8314SOL    HW225842   4.605   6.028   4.398
 8315SOL     OW25843   3.400   3.151   5.240
 8315SOL    HW125844   3.319   3.101   5.272
 8315SOL    HW225845   3.457   3.090   5.184
 8316SOL     OW25846   2.262   1.566   5.474
 8316SOL    HW125847   2.250   1.661   5.502
 8316SOL    HW225848   2.177   1.515   5.489
 8317SOL     OW25849   1.286   2.019   4.204
 8317SOL    HW125850   1.225   2.065   4.268
 8317SOL    HW225851   1.260   2.042   4.110
 8318SOL     OW25852   4.128   6.678   6.110
 8318SOL    HW125853   4.217   6.642   6.083
 8318SOL    HW225854   4.116   6.667   6.209
 8319SOL     OW25855   1.691   5.492   6.225
 8319SOL    HW125856   1.757   5.540   6.168
 8319SOL    HW225857   1.740   5.438   6.294
 8320SOL     OW25858   3.728   3.592   5.547
 8320SOL    HW125859   3.806   3.531   5.535
 8320SOL    HW225860   3.644   3.544   5.521
 8321SOL     OW25861   0.785   0.791   1.140
 8321SOL    HW125862   0.754   0.815   1.048
 8321SOL    HW225863   0.706   0.788   1.202
 8322SOL     OW25864   1.156   0.511   0.905
 8322SOL    HW125865   1.198   0.554   0.985
 8322SOL    HW225866   1.083   0.569   0.870
 8323SOL     OW25867   5.695   4.344   6.632
 8323SOL    HW125868   5.754   4.364   6.554
 8323SOL    HW225869   5.678   4.245   6.636
 8324SOL     OW25870   5.570   6.832   0.600
 8324SOL    HW125871   5.557   6.918   0.551
 8324SOL    HW225872   5.511   6.762   0.560
 8325SOL     OW25873   1.363   6.751   4.956
 8325SOL    HW125874   1.451   6.710   4.977
 8325SOL    HW225875   1.376   6.834   4.901
 8326SOL     OW25876   2.417   2.865   6.469
 8326SOL    HW125877   2.411   2.929   6.545
 8326SOL    HW225878   2.465   2.782   6.499
 8327SOL     OW25879   0.464   6.216   5.057
 8327SOL    HW125880   0.455   6.139   4.994
 8327SOL    HW225881   0.406   6.292   5.027
 8328SOL     OW25882   1.553   6.360   0.518
 8328SOL    HW125883   1.467   6.348   0.469
 8328SOL    HW225884   1.612   6.422   0.467
 8329SOL     OW25885   1.720   2.393   4.956
 8329SOL    HW125886   1.779   2.458   4.908
 8329SOL    HW225887   1.660   2.443   5.019
 8330SOL     OW25888   2.935   6.526   6.948
 8330SOL    HW125889   2.846   6.526   6.992
 8330SOL    HW225890   3.004   6.561   7.013
 8331SOL     OW25891   2.567   1.935   6.249
 8331SOL    HW125892   2.606   1.952   6.158
 8331SOL    HW225893   2.636   1.955   6.318
 8332SOL     OW25894   6.157   4.205   1.667
 8332SOL    HW125895   6.098   4.134   1.706
 8332SOL    HW225896   6.108   4.292   1.666
 8333SOL     OW25897   2.255   4.454   6.792
 8333SOL    HW125898   2.333   4.493   6.842
 8333SOL    HW225899   2.255   4.488   6.698
 8334SOL     OW25900   3.383   2.274   5.335
 8334SOL    HW125901   3.314   2.323   5.282
 8334SOL    HW225902   3.467   2.266   5.280
 8335SOL     OW25903   5.312   4.770   5.518
 8335SOL    HW125904   5.214   4.767   5.534
 8335SOL    HW225905   5.349   4.677   5.512
 8336SOL     OW25906   1.309   3.602   3.944
 8336SOL    HW125907   1.396   3.556   3.964
 8336SOL    HW225908   1.318   3.654   3.859
 8337SOL     OW25909   6.252   0.958   4.304
 8337SOL    HW125910   6.268   0.947   4.206
 8337SOL    HW225911   6.162   0.921   4.327
 8338SOL     OW25912   2.385   5.537   1.142
 8338SOL    HW125913   2.460   5.484   1.102
 8338SOL    HW225914   2.423   5.607   1.203
 8339SOL     OW25915   6.039   0.150   1.740
 8339SOL    HW125916   6.137   0.156   1.758
 8339SOL    HW225917   6.024   0.106   1.651
 8340SOL     OW25918   6.088   2.817   6.392
 8340SOL    HW125919   6.055   2.734   6.438
 8340SOL    HW225920   6.183   2.804   6.364
 8341SOL     OW25921   3.873   1.473   0.726
 8341SOL    HW125922   3.804   1.401   0.729
 8341SOL    HW225923   3.864   1.531   0.807
 8342SOL     OW25924   4.060   0.451   0.403
 8342SOL    HW125925   4.130   0.414   0.464
 8342SOL    HW225926   4.009   0.375   0.361
 8343SOL     OW25927   5.276   4.871   3.173
 8343SOL    HW125928   5.369   4.891   3.141
 8343SOL    HW225929   5.263   4.911   3.264
 8344SOL     OW25930   1.265   4.853   5.911
 8344SOL    HW125931   1.357   4.830   5.879
 8344SOL    HW225932   1.221   4.771   5.949
 8345SOL     OW25933   5.919   0.204   3.699
 8345SOL    HW125934   5.914   0.263   3.780
 8345SOL    HW225935   5.938   0.260   3.619
 8346SOL     OW25936   5.612   3.346   4.282
 8346SOL    HW125937   5.567   3.261   4.257
 8346SOL    HW225938   5.579   3.377   4.371
 8347SOL     OW25939   2.206   1.849   6.020
 8347SOL    HW125940   2.109   1.851   5.996
 8347SOL    HW225941   2.251   1.930   5.982
 8348SOL     OW25942   2.800   5.637   1.799
 8348SOL    HW125943   2.763   5.644   1.892
 8348SOL    HW225944   2.736   5.680   1.735
 8349SOL     OW25945   5.267   6.452   2.082
 8349SOL    HW125946   5.294   6.365   2.124
 8349SOL    HW225947   5.220   6.508   2.149
 8350SOL     OW25948   1.140   0.615   0.378
 8350SOL    HW125949   1.214   0.663   0.332
 8350SOL    HW225950   1.128   0.524   0.336
 8351SOL     OW25951   0.085   2.044   2.913
 8351SOL    HW125952   0.178   2.078   2.898
 8351SOL    HW225953   0.087   1.969   2.980
 8352SOL     OW25954   2.494   6.188   0.239
 8352SOL    HW125955   2.568   6.218   0.179
 8352SOL    HW225956   2.522   6.104   0.286
 8353SOL     OW25957   0.699   5.768   1.798
 8353SOL    HW125958   0.773   5.700   1.805
 8353SOL    HW225959   0.617   5.732   1.842
 8354SOL     OW25960   3.812   1.301   3.289
 8354SOL    HW125961   3.736   1.265   3.235
 8354SOL    HW225962   3.867   1.362   3.232
 8355SOL     OW25963   3.215   5.576   6.437
 8355SOL    HW125964   3.152   5.636   6.387
 8355SOL    HW225965   3.268   5.522   6.371
 8356SOL     OW25966   2.782   4.621   0.880
 8356SOL    HW125967   2.741   4.558   0.814
 8356SOL    HW225968   2.734   4.709   0.876
 8357SOL     OW25969   5.067   0.082   5.492
 8357SOL    HW125970   5.094   7.016   5.526
 8357SOL    HW225971   5.022   0.133   5.565
 8358SOL     OW25972   1.220   0.584   5.853
 8358SOL    HW125973   1.303   0.572   5.908
 8358SOL    HW225974   1.237   0.552   5.759
 8359SOL     OW25975   4.327   1.900   5.738
 8359SOL    HW125976   4.308   1.850   5.653
 8359SOL    HW225977   4.414   1.869   5.776
 8360SOL     OW25978   4.514   0.191   1.092
 8360SOL    HW125979   4.476   0.138   1.015
 8360SOL    HW225980   4.441   0.244   1.134
 8361SOL     OW25981   4.549   1.800   6.913
 8361SOL    HW125982   4.459   1.822   6.875
 8361SOL    HW225983   4.539   1.770   7.008
 8362SOL     OW25984   6.737   3.831   1.401
 8362SOL    HW125985   6.672   3.804   1.472
 8362SOL    HW225986   6.699   3.907   1.348
 8363SOL     OW25987   1.624   2.512   1.387
 8363SOL    HW125988   1.653   2.593   1.438
 8363SOL    HW225989   1.703   2.454   1.368
 8364SOL     OW25990   0.253   1.851   4.241
 8364SOL    HW125991   0.317   1.897   4.179
 8364SOL    HW225992   0.160   1.864   4.209
 8365SOL     OW25993   1.617   2.562   1.707
 8365SOL    HW125994   1.710   2.590   1.731
 8365SOL    HW225995   1.620   2.485   1.644
 8366SOL     OW25996   5.394   4.790   2.067
 8366SOL    HW125997   5.380   4.766   2.164
 8366SOL    HW225998   5.462   4.862   2.061
 8367SOL     OW25999   2.030   4.497   3.823
 8367SOL    HW126000   2.036   4.425   3.753
 8367SOL    HW226001   2.094   4.570   3.801
 8368SOL     OW26002   5.824   5.737   5.606
 8368SOL    HW126003   5.763   5.769   5.679
 8368SOL    HW226004   5.870   5.653   5.636
 8369SOL     OW26005   2.129   6.870   0.593
 8369SOL    HW126006   2.076   6.937   0.543
 8369SOL    HW226007   2.223   6.870   0.561
 8370SOL     OW26008   2.840   3.451   0.890
 8370SOL    HW126009   2.833   3.462   0.990
 8370SOL    HW226010   2.894   3.526   0.852
 8371SOL     OW26011   2.370   3.434   6.153
 8371SOL    HW126012   2.431   3.491   6.208
 8371SOL    HW226013   2.280   3.430   6.196
 8372SOL     OW26014   1.565   6.190   0.911
 8372SOL    HW126015   1.607   6.196   0.820
 8372SOL    HW226016   1.466   6.177   0.901
 8373SOL     OW26017   6.471   1.661   3.820
 8373SOL    HW126018   6.442   1.619   3.906
 8373SOL    HW226019   6.404   1.641   3.749
 8374SOL     OW26020   0.102   0.892   3.939
 8374SOL    HW126021   0.009   0.890   3.901
 8374SOL    HW226022   0.164   0.933   3.873
 8375SOL     OW26023   2.108   1.453   5.241
 8375SOL    HW126024   2.136   1.377   5.299
 8375SOL    HW226025   2.024   1.429   5.192
 8376SOL     OW26026   0.997   2.012   4.000
 8376SOL    HW126027   0.983   2.056   4.089
 8376SOL    HW226028   1.084   2.043   3.961
 8377SOL     OW26029   4.079   5.492   6.632
 8377SOL    HW126030   4.135   5.509   6.551
 8377SOL    HW226031   3.989   5.460   6.604
 8378SOL     OW26032   4.407   6.045   4.908
 8378SOL    HW126033   4.487   5.993   4.876
 8378SOL    HW226034   4.327   6.019   4.854
 8379SOL     OW26035   5.744   1.764   1.735
 8379SOL    HW126036   5.673   1.709   1.690
 8379SOL    HW226037   5.701   1.838   1.787
 8380SOL     OW26038   0.325   6.171   1.295
 8380SOL    HW126039   0.258   6.234   1.256
 8380SOL    HW226040   0.380   6.131   1.222
 8381SOL     OW26041   0.700   1.682   2.805
 8381SOL    HW126042   0.734   1.720   2.719
 8381SOL    HW226043   0.734   1.736   2.882
 8382SOL     OW26044   1.085   0.276   1.235
 8382SOL    HW126045   1.118   0.247   1.325
 8382SOL    HW226046   1.065   0.374   1.237
 8383SOL     OW26047   2.856   7.006   5.918
 8383SOL    HW126048   2.885   0.020   6.006
 8383SOL    HW226049   2.756   6.995   5.918
 8384SOL     OW26050   0.729   3.497   2.814
 8384SOL    HW126051   0.779   3.494   2.727
 8384SOL    HW226052   0.631   3.513   2.795
 8385SOL     OW26053   4.104   2.324   1.676
 8385SOL    HW126054   4.193   2.366   1.659
 8385SOL    HW226055   4.103   2.283   1.767
 8386SOL     OW26056   2.586   5.861   1.732
 8386SOL    HW126057   2.579   5.952   1.691
 8386SOL    HW226058   2.581   5.869   1.832
 8387SOL     OW26059   0.963   1.666   3.549
 8387SOL    HW126060   0.983   1.725   3.627
 8387SOL    HW226061   0.974   1.570   3.577
 8388SOL     OW26062   4.061   5.467   0.661
 8388SOL    HW126063   3.982   5.406   0.662
 8388SOL    HW226064   4.143   5.415   0.637
 8389SOL     OW26065   0.605   2.894   4.234
 8389SOL    HW126066   0.685   2.884   4.293
 8389SOL    HW226067   0.524   2.907   4.290
 8390SOL     OW26068   2.580   6.920   5.756
 8390SOL    HW126069   2.583   6.921   5.856
 8390SOL    HW226070   2.648   6.856   5.722
 8391SOL     OW26071   5.383   5.905   0.969
 8391SOL    HW126072   5.392   5.841   1.046
 8391SOL    HW226073   5.297   5.956   0.978
 8392SOL     OW26074   4.727   6.578   6.981
 8392SOL    HW126075   4.772   6.489   6.975
 8392SOL    HW226076   4.779   6.636   0.019
 8393SOL     OW26077   0.142   4.943   2.828
 8393SOL    HW126078   0.177   4.853   2.852
 8393SOL    HW226079   0.185   5.013   2.884
 8394SOL     OW26080   0.961   1.541   2.832
 8394SOL    HW126081   0.878   1.597   2.840
 8394SOL    HW226082   1.019   1.557   2.912
 8395SOL     OW26083   0.858   6.378   5.705
 8395SOL    HW126084   0.861   6.304   5.638
 8395SOL    HW226085   0.944   6.380   5.756
 8396SOL     OW26086   4.288   2.667   1.493
 8396SOL    HW126087   4.297   2.751   1.439
 8396SOL    HW226088   4.198   2.664   1.535
 8397SOL     OW26089   2.227   5.085   3.716
 8397SOL    HW126090   2.284   5.062   3.795
 8397SOL    HW226091   2.137   5.042   3.726
 8398SOL     OW26092   5.854   1.378   0.208
 8398SOL    HW126093   5.924   1.367   0.278
 8398SOL    HW226094   5.769   1.411   0.250
 8399SOL     OW26095   5.733   5.894   0.257
 8399SOL    HW126096   5.801   5.927   0.191
 8399SOL    HW226097   5.777   5.830   0.321
 8400SOL     OW26098   5.708   6.789   4.614
 8400SOL    HW126099   5.770   6.839   4.553
 8400SOL    HW226100   5.762   6.731   4.675
 8401SOL     OW26101   2.566   4.335   6.028
 8401SOL    HW126102   2.613   4.407   6.081
 8401SOL    HW226103   2.610   4.325   5.939
 8402SOL     OW26104   4.769   1.114   6.070
 8402SOL    HW126105   4.837   1.157   6.129
 8402SOL    HW226106   4.695   1.178   6.052
 8403SOL     OW26107   1.226   2.054   4.973
 8403SOL    HW126108   1.181   2.115   5.038
 8403SOL    HW226109   1.311   2.096   4.942
 8404SOL     OW26110   4.713   5.149   5.108
 8404SOL    HW126111   4.717   5.146   5.008
 8404SOL    HW226112   4.643   5.214   5.136
 8405SOL     OW26113   1.197   2.677   4.670
 8405SOL    HW126114   1.262   2.724   4.611
 8405SOL    HW226115   1.246   2.616   4.732
 8406SOL     OW26116   5.074   3.787   1.406
 8406SOL    HW126117   5.103   3.870   1.454
 8406SOL    HW226118   5.025   3.727   1.470
 8407SOL     OW26119   4.811   3.001   2.496
 8407SOL    HW126120   4.900   3.040   2.517
 8407SOL    HW226121   4.770   2.965   2.580
 8408SOL     OW26122   4.839   3.893   4.152
 8408SOL    HW126123   4.817   3.990   4.147
 8408SOL    HW226124   4.796   3.854   4.234
 8409SOL     OW26125   0.503   1.671   3.954
 8409SOL    HW126126   0.558   1.694   4.035
 8409SOL    HW226127   0.432   1.739   3.942
 8410SOL     OW26128   2.196   6.471   2.603
 8410SOL    HW126129   2.143   6.550   2.634
 8410SOL    HW226130   2.135   6.405   2.559
 8411SOL     OW26131   1.941   2.889   3.421
 8411SOL    HW126132   1.996   2.817   3.462
 8411SOL    HW226133   1.844   2.871   3.438
 8412SOL     OW26134   5.950   3.111   2.384
 8412SOL    HW126135   5.870   3.077   2.336
 8412SOL    HW226136   6.028   3.051   2.367
 8413SOL     OW26137   2.350   4.433   1.489
 8413SOL    HW126138   2.359   4.409   1.585
 8413SOL    HW226139   2.263   4.398   1.454
 8414SOL     OW26140   5.600   6.885   2.680
 8414SOL    HW126141   5.600   6.849   2.773
 8414SOL    HW226142   5.517   6.856   2.633
 8415SOL     OW26143   6.200   3.712   1.782
 8415SOL    HW126144   6.277   3.753   1.832
 8415SOL    HW226145   6.164   3.635   1.835
 8416SOL     OW26146   4.785   4.688   2.311
 8416SOL    HW126147   4.708   4.634   2.279
 8416SOL    HW226148   4.839   4.719   2.232
 8417SOL     OW26149   2.561   5.494   6.296
 8417SOL    HW126150   2.620   5.471   6.218
 8417SOL    HW226151   2.485   5.550   6.264
 8418SOL     OW26152   6.133   6.050   2.940
 8418SOL    HW126153   6.142   5.980   2.869
 8418SOL    HW226154   6.038   6.053   2.972
 8419SOL     OW26155   4.630   0.301   4.071
 8419SOL    HW126156   4.730   0.312   4.078
 8419SOL    HW226157   4.604   0.216   4.118
 8420SOL     OW26158   3.532   1.976   5.693
 8420SOL    HW126159   3.549   1.956   5.596
 8420SOL    HW226160   3.615   1.959   5.746
 8421SOL     OW26161   1.014   6.679   1.402
 8421SOL    HW126162   0.980   6.716   1.488
 8421SOL    HW226163   1.110   6.652   1.412
 8422SOL     OW26164   4.319   6.830   1.538
 8422SOL    HW126165   4.289   6.925   1.539
 8422SOL    HW226166   4.282   6.784   1.458
 8423SOL     OW26167   1.643   3.762   1.554
 8423SOL    HW126168   1.645   3.667   1.587
 8423SOL    HW226169   1.603   3.764   1.462
 8424SOL     OW26170   3.045   2.164   2.265
 8424SOL    HW126171   3.025   2.197   2.173
 8424SOL    HW226172   2.980   2.204   2.330
 8425SOL     OW26173   6.540   4.740   6.787
 8425SOL    HW126174   6.536   4.837   6.813
 8425SOL    HW226175   6.476   4.688   6.843
 8426SOL     OW26176   3.933   3.910   2.561
 8426SOL    HW126177   3.868   3.836   2.545
 8426SOL    HW226178   3.942   3.926   2.659
 8427SOL     OW26179   2.182   2.439   6.413
 8427SOL    HW126180   2.100   2.497   6.413
 8427SOL    HW226181   2.251   2.478   6.352
 8428SOL     OW26182   6.389   4.662   1.778
 8428SOL    HW126183   6.352   4.723   1.708
 8428SOL    HW226184   6.317   4.600   1.809
 8429SOL     OW26185   2.449   6.718   2.974
 8429SOL    HW126186   2.534   6.769   2.979
 8429SOL    HW226187   2.468   6.624   2.945
 8430SOL     OW26188   5.402   4.404   3.020
 8430SOL    HW126189   5.305   4.428   3.017
 8430SOL    HW226190   5.411   4.310   3.054
 8431SOL     OW26191   2.681   3.847   1.705
 8431SOL    HW126192   2.697   3.751   1.728
 8431SOL    HW226193   2.583   3.861   1.688
 8432SOL     OW26194   4.662   7.000   0.493
 8432SOL    HW126195   4.727   6.955   0.554
 8432SOL    HW226196   4.653   0.072   0.520
 8433SOL     OW26197   1.423   1.825   4.553
 8433SOL    HW126198   1.493   1.837   4.624
 8433SOL    HW226199   1.344   1.777   4.591
 8434SOL     OW26200   5.362   6.256   6.498
 8434SOL    HW126201   5.312   6.303   6.425
 8434SOL    HW226202   5.459   6.249   6.473
 8435SOL     OW26203   5.330   2.892   1.443
 8435SOL    HW126204   5.241   2.847   1.440
 8435SOL    HW226205   5.350   2.920   1.537
 8436SOL     OW26206   3.138   4.306   1.664
 8436SOL    HW126207   3.184   4.252   1.734
 8436SOL    HW226208   3.041   4.283   1.661
 8437SOL     OW26209   6.951   1.894   1.159
 8437SOL    HW126210   6.950   1.961   1.085
 8437SOL    HW226211   6.887   1.923   1.231
 8438SOL     OW26212   2.080   6.525   0.931
 8438SOL    HW126213   2.126   6.482   0.853
 8438SOL    HW226214   2.028   6.604   0.899
 8439SOL     OW26215   6.325   0.055   2.198
 8439SOL    HW126216   6.325   0.000   2.114
 8439SOL    HW226217   6.234   0.092   2.214
 8440SOL     OW26218   6.918   2.014   3.958
 8440SOL    HW126219   6.831   1.999   4.005
 8440SOL    HW226220   6.903   2.012   3.859
 8441SOL     OW26221   4.371   4.992   1.519
 8441SOL    HW126222   4.409   4.931   1.588
 8441SOL    HW226223   4.416   5.081   1.525
 8442SOL     OW26224   2.032   3.642   0.146
 8442SOL    HW126225   1.957   3.628   0.209
 8442SOL    HW226226   2.061   3.553   0.109
 8443SOL     OW26227   0.796   2.027   2.307
 8443SOL    HW126228   0.698   2.045   2.318
 8443SOL    HW226229   0.843   2.044   2.394
 8444SOL     OW26230   4.504   0.738   2.247
 8444SOL    HW126231   4.582   0.697   2.200
 8444SOL    HW226232   4.537   0.807   2.312
 8445SOL     OW26233   4.185   5.518   1.818
 8445SOL    HW126234   4.169   5.428   1.859
 8445SOL    HW226235   4.280   5.524   1.787
 8446SOL     OW26236   6.929   4.389   3.223
 8446SOL    HW126237   6.912   4.313   3.162
 8446SOL    HW226238   6.887   4.371   3.312
 8447SOL     OW26239   4.691   3.232   1.302
 8447SOL    HW126240   4.688   3.206   1.206
 8447SOL    HW226241   4.728   3.324   1.311
 8448SOL     OW26242   1.516   2.433   5.577
 8448SOL    HW126243   1.477   2.458   5.488
 8448SOL    HW226244   1.503   2.336   5.593
 8449SOL     OW26245   1.362   1.885   5.354
 8449SOL    HW126246   1.304   1.804   5.362
 8449SOL    HW226247   1.343   1.947   5.430
 8450SOL     OW26248   2.291   5.374   1.822
 8450SOL    HW126249   2.298   5.334   1.731
 8450SOL    HW226250   2.382   5.378   1.864
 8451SOL     OW26251   4.220   3.117   0.228
 8451SOL    HW126252   4.159   3.040   0.207
 8451SOL    HW226253   4.179   3.202   0.196
 8452SOL     OW26254   6.931   5.336   0.910
 8452SOL    HW126255   6.913   5.367   0.817
 8452SOL    HW226256   6.986   5.252   0.907
 8453SOL     OW26257   6.648   5.126   5.434
 8453SOL    HW126258   6.638   5.222   5.411
 8453SOL    HW226259   6.614   5.109   5.526
 8454SOL     OW26260   1.882   6.172   5.000
 8454SOL    HW126261   1.976   6.136   4.997
 8454SOL    HW226262   1.864   6.223   4.916
 8455SOL     OW26263   6.236   2.768   0.442
 8455SOL    HW126264   6.271   2.675   0.457
 8455SOL    HW226265   6.281   2.808   0.362
 8456SOL     OW26266   5.350   5.799   3.152
 8456SOL    HW126267   5.397   5.774   3.067
 8456SOL    HW226268   5.392   5.881   3.190
 8457SOL     OW26269   6.072   5.966   6.708
 8457SOL    HW126270   6.148   5.905   6.729
 8457SOL    HW226271   6.082   6.051   6.760
 8458SOL     OW26272   1.450   1.709   1.088
 8458SOL    HW126273   1.458   1.771   1.010
 8458SOL    HW226274   1.448   1.762   1.173
 8459SOL     OW26275   2.872   5.854   2.148
 8459SOL    HW126276   2.876   5.798   2.231
 8459SOL    HW226277   2.959   5.901   2.135
 8460SOL     OW26278   3.927   1.114   0.514
 8460SOL    HW126279   3.964   1.136   0.604
 8460SOL    HW226280   3.883   1.024   0.518
 8461SOL     OW26281   4.830   3.880   2.948
 8461SOL    HW126282   4.847   3.895   3.045
 8461SOL    HW226283   4.893   3.810   2.913
 8462SOL     OW26284   2.552   4.369   0.369
 8462SOL    HW126285   2.540   4.270   0.361
 8462SOL    HW226286   2.603   4.402   0.290
 8463SOL     OW26287   6.472   0.584   0.251
 8463SOL    HW126288   6.504   0.618   0.163
 8463SOL    HW226289   6.374   0.600   0.260
 8464SOL     OW26290   6.702   4.162   6.438
 8464SOL    HW126291   6.788   4.138   6.393
 8464SOL    HW226292   6.694   4.110   6.524
 8465SOL     OW26293   4.450   3.249   0.796
 8465SOL    HW126294   4.361   3.284   0.768
 8465SOL    HW226295   4.454   3.151   0.777
 8466SOL     OW26296   0.019   1.136   5.751
 8466SOL    HW126297   0.030   1.069   5.825
 8466SOL    HW226298   6.946   1.149   5.732
 8467SOL     OW26299   3.416   1.538   0.087
 8467SOL    HW126300   3.504   1.564   0.048
 8467SOL    HW226301   3.382   1.612   0.145
 8468SOL     OW26302   5.601   3.241   6.842
 8468SOL    HW126303   5.633   3.319   6.897
 8468SOL    HW226304   5.577   3.165   6.903
 8469SOL     OW26305   4.150   3.259   5.629
 8469SOL    HW126306   4.113   3.241   5.721
 8469SOL    HW226307   4.205   3.181   5.599
 8470SOL     OW26308   1.870   5.182   1.804
 8470SOL    HW126309   1.846   5.217   1.894
 8470SOL    HW226310   1.829   5.092   1.791
 8471SOL     OW26311   3.826   1.592   4.148
 8471SOL    HW126312   3.869   1.502   4.153
 8471SOL    HW226313   3.890   1.662   4.180
 8472SOL     OW26314   6.323   1.817   6.277
 8472SOL    HW126315   6.327   1.736   6.336
 8472SOL    HW226316   6.287   1.894   6.329
 8473SOL     OW26317   4.964   4.797   0.207
 8473SOL    HW126318   4.893   4.837   0.149
 8473SOL    HW226319   5.051   4.842   0.190
 8474SOL     OW26320   3.869   4.053   4.161
 8474SOL    HW126321   3.844   4.050   4.064
 8474SOL    HW226322   3.827   4.133   4.204
 8475SOL     OW26323   6.539   2.286   3.234
 8475SOL    HW126324   6.553   2.271   3.332
 8475SOL    HW226325   6.565   2.379   3.210
 8476SOL     OW26326   6.081   1.045   1.731
 8476SOL    HW126327   6.070   1.033   1.632
 8476SOL    HW226328   6.177   1.036   1.755
 8477SOL     OW26329   5.692   6.966   1.627
 8477SOL    HW126330   5.604   7.013   1.618
 8477SOL    HW226331   5.765   0.001   1.592
 8478SOL     OW26332   0.091   0.354   5.483
 8478SOL    HW126333   0.074   0.258   5.508
 8478SOL    HW226334   0.015   0.411   5.517
 8479SOL     OW26335   1.027   3.036   0.689
 8479SOL    HW126336   1.083   2.955   0.673
 8479SOL    HW226337   1.053   3.108   0.625
 8480SOL     OW26338   4.324   3.617   0.479
 8480SOL    HW126339   4.326   3.517   0.488
 8480SOL    HW226340   4.354   3.659   0.565
 8481SOL     OW26341   4.360   2.341   3.245
 8481SOL    HW126342   4.354   2.429   3.199
 8481SOL    HW226343   4.443   2.293   3.215
 8482SOL     OW26344   4.445   0.721   0.553
 8482SOL    HW126345   4.459   0.786   0.627
 8482SOL    HW226346   4.451   0.769   0.465
 8483SOL     OW26347   3.782   5.044   2.946
 8483SOL    HW126348   3.803   5.039   3.044
 8483SOL    HW226349   3.867   5.037   2.894
 8484SOL     OW26350   5.105   5.994   4.990
 8484SOL    HW126351   5.188   6.033   5.030
 8484SOL    HW226352   5.122   5.968   4.895
 8485SOL     OW26353   3.575   1.963   0.315
 8485SOL    HW126354   3.671   1.966   0.287
 8485SOL    HW226355   3.556   2.038   0.379
 8486SOL     OW26356   6.091   2.238   3.541
 8486SOL    HW126357   6.187   2.264   3.550
 8486SOL    HW226358   6.084   2.147   3.500
 8487SOL     OW26359   6.787   1.515   6.451
 8487SOL    HW126360   6.716   1.584   6.467
 8487SOL    HW226361   6.771   1.472   6.362
 8488SOL     OW26362   4.846   5.385   2.066
 8488SOL    HW126363   4.930   5.419   2.024
 8488SOL    HW226364   4.791   5.461   2.098
 8489SOL     OW26365   6.130   2.161   1.551
 8489SOL    HW126366   6.135   2.071   1.595
 8489SOL    HW226367   6.128   2.232   1.621
 8490SOL     OW26368   3.302   0.479   6.678
 8490SOL    HW126369   3.217   0.501   6.629
 8490SOL    HW226370   3.283   0.468   6.775
 8491SOL     OW26371   3.024   5.691   1.577
 8491SOL    HW126372   3.018   5.710   1.675
 8491SOL    HW226373   3.093   5.751   1.536
 8492SOL     OW26374   6.281   6.786   4.829
 8492SOL    HW126375   6.292   6.883   4.805
 8492SOL    HW226376   6.232   6.779   4.916
 8493SOL     OW26377   5.252   1.304   6.677
 8493SOL    HW126378   5.284   1.220   6.721
 8493SOL    HW226379   5.313   1.380   6.703
 8494SOL     OW26380   6.632   3.940   2.328
 8494SOL    HW126381   6.699   3.918   2.399
 8494SOL    HW226382   6.628   4.039   2.316
 8495SOL     OW26383   6.249   5.195   5.993
 8495SOL    HW126384   6.219   5.151   5.909
 8495SOL    HW226385   6.276   5.126   6.060
 8496SOL     OW26386   5.034   2.893   2.114
 8496SOL    HW126387   4.987   2.935   2.192
 8496SOL    HW226388   4.997   2.801   2.099
 8497SOL     OW26389   6.366   0.688   3.440
 8497SOL    HW126390   6.334   0.729   3.355
 8497SOL    HW226391   6.406   0.598   3.421
 8498SOL     OW26392   4.870   0.380   3.887
 8498SOL    HW126393   4.946   0.371   3.951
 8498SOL    HW226394   4.904   0.365   3.794
 8499SOL     OW26395   5.975   6.701   5.459
 8499SOL    HW126396   5.955   6.646   5.540
 8499SOL    HW226397   6.015   6.788   5.486
 8500SOL     OW26398   0.977   0.742   6.690
 8500SOL    HW126399   1.038   0.799   6.635
 8500SOL    HW226400   0.909   0.699   6.630
 8501SOL     OW26401   2.169   1.152   6.831
 8501SOL    HW126402   2.248   1.097   6.860
 8501SOL    HW226403   2.190   1.249   6.842
 8502SOL     OW26404   0.396   3.848   6.654
 8502SOL    HW126405   0.408   3.749   6.660
 8502SOL    HW226406   0.412   3.888   6.745
 8503SOL     OW26407   4.785   1.690   4.872
 8503SOL    HW126408   4.845   1.713   4.796
 8503SOL    HW226409   4.822   1.728   4.957
 8504SOL     OW26410   1.599   0.452   2.569
 8504SOL    HW126411   1.579   0.450   2.471
 8504SOL    HW226412   1.514   0.440   2.620
 8505SOL     OW26413   5.663   2.973   2.692
 8505SOL    HW126414   5.596   2.975   2.617
 8505SOL    HW226415   5.743   2.920   2.663
 8506SOL     OW26416   2.061   0.521   6.022
 8506SOL    HW126417   1.976   0.502   5.974
 8506SOL    HW226418   2.055   0.610   6.066
 8507SOL     OW26419   3.165   6.251   5.372
 8507SOL    HW126420   3.099   6.219   5.440
 8507SOL    HW226421   3.178   6.350   5.383
 8508SOL     OW26422   2.877   1.428   0.060
 8508SOL    HW126423   2.794   1.462   0.103
 8508SOL    HW226424   2.860   1.412   6.987
 8509SOL     OW26425   5.683   2.075   2.612
 8509SOL    HW126426   5.585   2.077   2.594
 8509SOL    HW226427   5.725   2.001   2.560
 8510SOL     OW26428   0.200   1.728   4.504
 8510SOL    HW126429   0.154   1.783   4.575
 8510SOL    HW226430   0.197   1.777   4.417
 8511SOL     OW26431   5.380   1.666   2.937
 8511SOL    HW126432   5.444   1.624   3.001
 8511SOL    HW226433   5.356   1.600   2.866
 8512SOL     OW26434   2.240   6.655   5.809
 8512SOL    HW126435   2.269   6.722   5.740
 8512SOL    HW226436   2.219   6.569   5.763
 8513SOL     OW26437   5.341   6.336   0.245
 8513SOL    HW126438   5.281   6.256   0.238
 8513SOL    HW226439   5.348   6.381   0.156
 8514SOL     OW26440   3.426   6.531   3.582
 8514SOL    HW126441   3.511   6.536   3.634
 8514SOL    HW226442   3.445   6.535   3.484
 8515SOL     OW26443   5.844   2.216   0.628
 8515SOL    HW126444   5.749   2.237   0.650
 8515SOL    HW226445   5.850   2.128   0.582
 8516SOL     OW26446   6.841   2.078   2.098
 8516SOL    HW126447   6.771   2.007   2.102
 8516SOL    HW226448   6.912   2.053   2.032
 8517SOL     OW26449   1.439   3.746   0.201
 8517SOL    HW126450   1.370   3.677   0.180
 8517SOL    HW226451   1.455   3.803   0.120
 8518SOL     OW26452   2.894   5.709   0.344
 8518SOL    HW126453   2.841   5.773   0.289
 8518SOL    HW226454   2.843   5.686   0.427
 8519SOL     OW26455   2.614   6.096   3.257
 8519SOL    HW126456   2.584   6.191   3.244
 8519SOL    HW226457   2.586   6.041   3.178
 8520SOL     OW26458   3.545   0.392   6.741
 8520SOL    HW126459   3.450   0.405   6.712
 8520SOL    HW226460   3.561   0.442   6.826
 8521SOL     OW26461   0.984   0.530   1.262
 8521SOL    HW126462   0.886   0.517   1.246
 8521SOL    HW226463   1.011   0.622   1.234
 8522SOL     OW26464   1.960   6.396   4.551
 8522SOL    HW126465   1.989   6.350   4.635
 8522SOL    HW226466   2.002   6.352   4.472
 8523SOL     OW26467   1.356   6.436   0.073
 8523SOL    HW126468   1.344   6.487   0.158
 8523SOL    HW226469   1.278   6.453   0.012
 8524SOL     OW26470   1.738   1.571   6.682
 8524SOL    HW126471   1.738   1.619   6.770
 8524SOL    HW226472   1.695   1.629   6.612
 8525SOL     OW26473   5.171   3.411   3.673
 8525SOL    HW126474   5.077   3.380   3.664
 8525SOL    HW226475   5.210   3.426   3.582
 8526SOL     OW26476   1.675   3.187   2.699
 8526SOL    HW126477   1.712   3.183   2.607
 8526SOL    HW226478   1.643   3.280   2.718
 8527SOL     OW26479   4.105   0.676   3.877
 8527SOL    HW126480   4.046   0.612   3.925
 8527SOL    HW226481   4.119   0.757   3.933
 8528SOL     OW26482   5.097   2.110   0.035
 8528SOL    HW126483   5.034   2.096   0.111
 8528SOL    HW226484   5.045   2.119   6.975
 8529SOL     OW26485   6.919   5.434   6.185
 8529SOL    HW126486   6.950   5.378   6.262
 8529SOL    HW226487   6.826   5.467   6.203
 8530SOL     OW26488   1.730   4.088   6.241
 8530SOL    HW126489   1.722   4.077   6.142
 8530SOL    HW226490   1.818   4.051   6.272
 8531SOL     OW26491   3.907   4.858   2.101
 8531SOL    HW126492   3.892   4.760   2.099
 8531SOL    HW226493   3.931   4.886   2.194
 8532SOL     OW26494   1.384   3.952   0.036
 8532SOL    HW126495   1.458   4.002   7.017
 8532SOL    HW226496   1.380   3.975   0.133
 8533SOL     OW26497   3.891   6.724   5.998
 8533SOL    HW126498   3.984   6.705   6.029
 8533SOL    HW226499   3.893   6.780   5.915
 8534SOL     OW26500   1.585   2.856   2.280
 8534SOL    HW126501   1.597   2.836   2.377
 8534SOL    HW226502   1.526   2.786   2.238
 8535SOL     OW26503   6.591   2.989   4.994
 8535SOL    HW126504   6.675   2.975   5.047
 8535SOL    HW226505   6.529   2.913   5.012
 8536SOL     OW26506   6.673   1.514   4.847
 8536SOL    HW126507   6.602   1.449   4.819
 8536SOL    HW226508   6.692   1.502   4.944
 8537SOL     OW26509   5.287   6.844   2.983
 8537SOL    HW126510   5.210   6.803   3.032
 8537SOL    HW226511   5.255   6.922   2.929
 8538SOL     OW26512   5.397   1.126   5.720
 8538SOL    HW126513   5.318   1.149   5.777
 8538SOL    HW226514   5.398   1.028   5.702
 8539SOL     OW26515   0.330   2.708   3.197
 8539SOL    HW126516   0.390   2.771   3.246
 8539SOL    HW226517   0.235   2.732   3.216
 8540SOL     OW26518   3.688   6.700   6.876
 8540SOL    HW126519   3.778   6.657   6.872
 8540SOL    HW226520   3.681   6.768   6.803
 8541SOL     OW26521   3.162   6.353   5.116
 8541SOL    HW126522   3.128   6.304   5.196
 8541SOL    HW226523   3.102   6.335   5.038
 8542SOL     OW26524   1.075   5.095   5.618
 8542SOL    HW126525   1.144   5.050   5.561
 8542SOL    HW226526   1.031   5.028   5.677
 8543SOL     OW26527   2.572   2.765   5.660
 8543SOL    HW126528   2.663   2.733   5.632
 8543SOL    HW226529   2.538   2.708   5.734
 8544SOL     OW26530   5.136   5.015   5.318
 8544SOL    HW126531   5.192   4.936   5.293
 8544SOL    HW226532   5.175   5.060   5.399
 8545SOL     OW26533   2.246   6.764   6.548
 8545SOL    HW126534   2.170   6.736   6.607
 8545SOL    HW226535   2.295   6.683   6.516
 8546SOL     OW26536   4.425   1.170   3.028
 8546SOL    HW126537   4.416   1.201   2.934
 8546SOL    HW226538   4.456   1.075   3.029
 8547SOL     OW26539   5.507   6.541   6.054
 8547SOL    HW126540   5.556   6.587   6.128
 8547SOL    HW226541   5.518   6.442   6.064
 8548SOL     OW26542   0.688   4.159   4.666
 8548SOL    HW126543   0.614   4.140   4.730
 8548SOL    HW226544   0.771   4.183   4.718
 8549SOL     OW26545   1.144   6.961   3.974
 8549SOL    HW126546   1.073   6.954   4.044
 8549SOL    HW226547   1.130   0.020   3.920
 8550SOL     OW26548   6.902   4.941   5.702
 8550SOL    HW126549   6.866   4.866   5.647
 8550SOL    HW226550   6.833   5.013   5.711
 8551SOL     OW26551   3.217   0.333   5.018
 8551SOL    HW126552   3.249   0.241   5.041
 8551SOL    HW226553   3.128   0.349   5.060
 8552SOL     OW26554   3.015   1.500   2.001
 8552SOL    HW126555   3.092   1.466   1.948
 8552SOL    HW226556   3.034   1.489   2.099
 8553SOL     OW26557   5.031   3.739   0.615
 8553SOL    HW126558   5.111   3.724   0.673
 8553SOL    HW226559   4.959   3.783   0.668
 8554SOL     OW26560   1.650   0.756   0.467
 8554SOL    HW126561   1.646   0.851   0.499
 8554SOL    HW226562   1.726   0.745   0.403
 8555SOL     OW26563   4.386   1.801   3.736
 8555SOL    HW126564   4.324   1.860   3.684
 8555SOL    HW226565   4.344   1.779   3.825
 8556SOL     OW26566   0.504   5.446   5.876
 8556SOL    HW126567   0.508   5.534   5.923
 8556SOL    HW226568   0.448   5.454   5.794
 8557SOL     OW26569   0.018   0.264   6.673
 8557SOL    HW126570   0.093   0.262   6.740
 8557SOL    HW226571   0.053   0.293   6.585
 8558SOL     OW26572   2.941   5.573   4.152
 8558SOL    HW126573   3.033   5.550   4.184
 8558SOL    HW226574   2.881   5.587   4.231
 8559SOL     OW26575   1.667   4.174   2.626
 8559SOL    HW126576   1.642   4.269   2.609
 8559SOL    HW226577   1.740   4.171   2.695
 8560SOL     OW26578   2.837   3.978   0.753
 8560SOL    HW126579   2.878   3.969   0.662
 8560SOL    HW226580   2.843   4.073   0.783
 8561SOL     OW26581   3.548   0.662   2.887
 8561SOL    HW126582   3.504   0.573   2.895
 8561SOL    HW226583   3.600   0.682   2.971
 8562SOL     OW26584   4.972   2.875   6.830
 8562SOL    HW126585   5.031   2.794   6.834
 8562SOL    HW226586   4.931   2.891   6.920
 8563SOL     OW26587   3.096   5.129   2.547
 8563SOL    HW126588   3.044   5.130   2.462
 8563SOL    HW226589   3.144   5.215   2.558
 8564SOL     OW26590   3.966   6.828   0.712
 8564SOL    HW126591   3.925   6.870   0.793
 8564SOL    HW226592   3.976   6.896   0.640
 8565SOL     OW26593   1.452   4.810   1.556
 8565SOL    HW126594   1.519   4.863   1.608
 8565SOL    HW226595   1.380   4.870   1.523
 8566SOL     OW26596   3.434   0.654   2.528
 8566SOL    HW126597   3.431   0.578   2.593
 8566SOL    HW226598   3.355   0.713   2.541
 8567SOL     OW26599   1.340   2.275   2.180
 8567SOL    HW126600   1.432   2.241   2.160
 8567SOL    HW226601   1.343   2.374   2.194
 8568SOL     OW26602   6.187   0.797   6.136
 8568SOL    HW126603   6.260   0.850   6.093
 8568SOL    HW226604   6.099   0.821   6.095
 8569SOL     OW26605   5.175   2.302   0.284
 8569SOL    HW126606   5.187   2.206   0.307
 8569SOL    HW226607   5.078   2.320   0.268
 8570SOL     OW26608   2.333   2.212   2.069
 8570SOL    HW126609   2.430   2.188   2.064
 8570SOL    HW226610   2.310   2.277   1.997
 8571SOL     OW26611   2.159   0.332   2.922
 8571SOL    HW126612   2.151   0.376   3.011
 8571SOL    HW226613   2.247   0.287   2.915
 8572SOL     OW26614   3.068   3.929   5.770
 8572SOL    HW126615   3.084   3.995   5.696
 8572SOL    HW226616   3.148   3.926   5.830
 8573SOL     OW26617   2.471   6.161   6.567
 8573SOL    HW126618   2.567   6.169   6.590
 8573SOL    HW226619   2.415   6.186   6.646
 8574SOL     OW26620   5.124   0.994   5.490
 8574SOL    HW126621   5.041   0.947   5.519
 8574SOL    HW226622   5.194   0.926   5.466
 8575SOL     OW26623   3.362   5.871   3.904
 8575SOL    HW126624   3.425   5.940   3.869
 8575SOL    HW226625   3.304   5.911   3.974
 8576SOL     OW26626   1.925   4.805   4.174
 8576SOL    HW126627   1.880   4.724   4.210
 8576SOL    HW226628   1.972   4.853   4.248
 8577SOL     OW26629   1.350   0.874   0.478
 8577SOL    HW126630   1.446   0.899   0.470
 8577SOL    HW226631   1.342   0.788   0.528
 8578SOL     OW26632   1.298   0.127   6.719
 8578SOL    HW126633   1.344   0.212   6.693
 8578SOL    HW226634   1.360   0.050   6.701
 8579SOL     OW26635   3.002   6.974   2.537
 8579SOL    HW126636   2.931   7.024   2.586
 8579SOL    HW226637   3.020   7.019   2.449
 8580SOL     OW26638   1.485   0.562   2.037
 8580SOL    HW126639   1.389   0.535   2.042
 8580SOL    HW226640   1.492   0.662   2.045
 8581SOL     OW26641   3.415   4.458   1.241
 8581SOL    HW126642   3.457   4.376   1.203
 8581SOL    HW226643   3.388   4.440   1.336
 8582SOL     OW26644   4.100   5.418   5.526
 8582SOL    HW126645   4.012   5.400   5.482
 8582SOL    HW226646   4.135   5.507   5.495
 8583SOL     OW26647   3.652   6.783   2.919
 8583SOL    HW126648   3.587   6.810   2.990
 8583SOL    HW226649   3.679   6.864   2.866
 8584SOL     OW26650   6.047   1.506   4.388
 8584SOL    HW126651   5.990   1.425   4.389
 8584SOL    HW226652   6.124   1.493   4.452
 8585SOL     OW26653   5.387   2.827   2.748
 8585SOL    HW126654   5.441   2.854   2.669
 8585SOL    HW226655   5.427   2.866   2.831
 8586SOL     OW26656   6.411   5.827   6.287
 8586SOL    HW126657   6.419   5.832   6.188
 8586SOL    HW226658   6.497   5.858   6.329
 8587SOL     OW26659   0.020   1.975   0.058
 8587SOL    HW126660   0.034   2.020   6.994
 8587SOL    HW226661   6.947   1.975   0.081
 8588SOL     OW26662   2.487   0.595   5.496
 8588SOL    HW126663   2.541   0.639   5.568
 8588SOL    HW226664   2.500   0.645   5.410
 8589SOL     OW26665   5.635   2.859   0.342
 8589SOL    HW126666   5.573   2.829   0.269
 8589SOL    HW226667   5.703   2.921   0.303
 8590SOL     OW26668   0.475   1.119   4.270
 8590SOL    HW126669   0.475   1.031   4.316
 8590SOL    HW226670   0.453   1.106   4.173
 8591SOL     OW26671   6.551   4.617   5.704
 8591SOL    HW126672   6.512   4.635   5.794
 8591SOL    HW226673   6.534   4.522   5.677
 8592SOL     OW26674   0.379   1.919   3.905
 8592SOL    HW126675   0.396   1.991   3.972
 8592SOL    HW226676   0.418   1.946   3.817
 8593SOL     OW26677   5.669   1.459   7.014
 8593SOL    HW126678   5.733   1.407   0.046
 8593SOL    HW226679   5.638   1.402   6.938
 8594SOL     OW26680   6.094   3.880   6.583
 8594SOL    HW126681   6.161   3.807   6.598
 8594SOL    HW226682   6.115   3.957   6.643
 8595SOL     OW26683   5.754   6.661   3.160
 8595SOL    HW126684   5.790   6.619   3.243
 8595SOL    HW226685   5.782   6.607   3.081
 8596SOL     OW26686   0.516   1.423   4.071
 8596SOL    HW126687   0.507   1.516   4.033
 8596SOL    HW226688   0.483   1.423   4.165
 8597SOL     OW26689   6.221   2.881   5.803
 8597SOL    HW126690   6.240   2.785   5.823
 8597SOL    HW226691   6.248   2.938   5.880
 8598SOL     OW26692   6.440   0.341   5.336
 8598SOL    HW126693   6.515   0.310   5.396
 8598SOL    HW226694   6.353   0.334   5.386
 8599SOL     OW26695   6.826   3.642   3.953
 8599SOL    HW126696   6.843   3.663   4.049
 8599SOL    HW226697   6.909   3.606   3.911
 8600SOL     OW26698   4.688   2.247   0.756
 8600SOL    HW126699   4.728   2.290   0.675
 8600SOL    HW226700   4.658   2.155   0.732
 8601SOL     OW26701   6.357   6.355   3.670
 8601SOL    HW126702   6.293   6.281   3.690
 8601SOL    HW226703   6.418   6.328   3.596
 8602SOL     OW26704   1.923   6.535   6.099
 8602SOL    HW126705   1.927   6.536   5.999
 8602SOL    HW226706   1.946   6.444   6.132
 8603SOL     OW26707   1.215   0.346   0.047
 8603SOL    HW126708   1.280   0.401   7.019
 8603SOL    HW226709   1.223   0.250   0.020
 8604SOL     OW26710   1.606   4.979   6.107
 8604SOL    HW126711   1.684   4.921   6.084
 8604SOL    HW226712   1.628   5.074   6.086
 8605SOL     OW26713   0.412   5.098   4.468
 8605SOL    HW126714   0.394   5.096   4.369
 8605SOL    HW226715   0.342   5.044   4.515
 8606SOL     OW26716   1.965   2.063   0.475
 8606SOL    HW126717   2.024   2.029   0.548
 8606SOL    HW226718   1.869   2.059   0.504
 8607SOL     OW26719   1.856   3.615   1.239
 8607SOL    HW126720   1.847   3.518   1.219
 8607SOL    HW226721   1.914   3.658   1.170
 8608SOL     OW26722   1.855   6.400   2.769
 8608SOL    HW126723   1.763   6.424   2.801
 8608SOL    HW226724   1.923   6.440   2.830
 8609SOL     OW26725   4.068   1.715   4.660
 8609SOL    HW126726   4.035   1.739   4.569
 8609SOL    HW226727   4.030   1.780   4.727
 8610SOL     OW26728   0.295   6.217   3.333
 8610SOL    HW126729   0.325   6.310   3.357
 8610SOL    HW226730   0.238   6.180   3.407
 8611SOL     OW26731   2.242   1.203   4.994
 8611SOL    HW126732   2.187   1.239   4.919
 8611SOL    HW226733   2.291   1.277   5.038
 8612SOL     OW26734   3.267   3.067   4.311
 8612SOL    HW126735   3.362   3.052   4.338
 8612SOL    HW226736   3.216   3.107   4.387
 8613SOL     OW26737   4.025   3.206   2.830
 8613SOL    HW126738   4.046   3.191   2.733
 8613SOL    HW226739   4.069   3.290   2.861
 8614SOL     OW26740   0.866   2.560   3.230
 8614SOL    HW126741   0.794   2.511   3.181
 8614SOL    HW226742   0.865   2.535   3.326
 8615SOL     OW26743   3.471   1.685   5.174
 8615SOL    HW126744   3.462   1.624   5.096
 8615SOL    HW226745   3.532   1.760   5.152
 8616SOL     OW26746   5.237   4.128   3.610
 8616SOL    HW126747   5.333   4.156   3.616
 8616SOL    HW226748   5.230   4.031   3.631
 8617SOL     OW26749   2.286   0.537   3.505
 8617SOL    HW126750   2.362   0.487   3.463
 8617SOL    HW226751   2.312   0.567   3.597
 8618SOL     OW26752   5.499   4.244   1.505
 8618SOL    HW126753   5.462   4.297   1.429
 8618SOL    HW226754   5.437   4.249   1.583
 8619SOL     OW26755   5.401   5.179   0.641
 8619SOL    HW126756   5.347   5.129   0.573
 8619SOL    HW226757   5.418   5.120   0.720
 8620SOL     OW26758   2.167   0.119   4.306
 8620SOL    HW126759   2.220   0.128   4.391
 8620SOL    HW226760   2.074   0.088   4.328
 8621SOL     OW26761   5.265   3.623   1.547
 8621SOL    HW126762   5.204   3.688   1.502
 8621SOL    HW226763   5.238   3.613   1.643
 8622SOL     OW26764   0.072   5.203   2.508
 8622SOL    HW126765   0.109   5.125   2.459
 8622SOL    HW226766   7.013   5.235   2.461
 8623SOL     OW26767   1.830   2.703   4.001
 8623SOL    HW126768   1.924   2.711   3.967
 8623SOL    HW226769   1.807   2.784   4.055
 8624SOL     OW26770   3.643   3.520   4.832
 8624SOL    HW126771   3.729   3.497   4.786
 8624SOL    HW226772   3.660   3.586   4.905
 8625SOL     OW26773   3.679   2.820   5.301
 8625SOL    HW126774   3.616   2.868   5.240
 8625SOL    HW226775   3.627   2.761   5.362
 8626SOL     OW26776   3.988   2.699   1.300
 8626SOL    HW126777   4.054   2.626   1.284
 8626SOL    HW226778   3.921   2.670   1.368
 8627SOL     OW26779   2.223   1.481   2.309
 8627SOL    HW126780   2.196   1.390   2.276
 8627SOL    HW226781   2.142   1.539   2.317
 8628SOL     OW26782   1.197   6.539   0.661
 8628SOL    HW126783   1.187   6.443   0.688
 8628SOL    HW226784   1.293   6.565   0.665
 8629SOL     OW26785   0.537   6.657   4.637
 8629SOL    HW126786   0.630   6.632   4.609
 8629SOL    HW226787   0.475   6.581   4.616
 8630SOL     OW26788   4.723   2.758   2.137
 8630SOL    HW126789   4.754   2.739   2.230
 8630SOL    HW226790   4.732   2.855   2.117
 8631SOL     OW26791   2.474   5.904   6.080
 8631SOL    HW126792   2.486   5.919   6.178
 8631SOL    HW226793   2.491   5.807   6.060
 8632SOL     OW26794   5.694   5.905   4.154
 8632SOL    HW126795   5.769   5.964   4.124
 8632SOL    HW226796   5.708   5.880   4.250
 8633SOL     OW26797   5.929   3.694   5.224
 8633SOL    HW126798   5.917   3.673   5.127
 8633SOL    HW226799   5.845   3.670   5.273
 8634SOL     OW26800   5.182   4.189   0.262
 8634SOL    HW126801   5.163   4.093   0.239
 8634SOL    HW226802   5.096   4.235   0.286
 8635SOL     OW26803   5.447   2.259   6.793
 8635SOL    HW126804   5.515   2.192   6.765
 8635SOL    HW226805   5.366   2.250   6.735
 8636SOL     OW26806   4.960   6.375   1.626
 8636SOL    HW126807   4.865   6.401   1.608
 8636SOL    HW226808   5.002   6.444   1.685
 8637SOL     OW26809   1.967   1.749   6.145
 8637SOL    HW126810   2.026   1.799   6.209
 8637SOL    HW226811   1.906   1.814   6.099
 8638SOL     OW26812   4.826   2.890   3.430
 8638SOL    HW126813   4.895   2.857   3.365
 8638SOL    HW226814   4.836   2.988   3.442
 8639SOL     OW26815   3.989   3.640   0.050
 8639SOL    HW126816   4.028   3.701   0.119
 8639SOL    HW226817   4.062   3.610   7.012
 8640SOL     OW26818   3.127   2.949   0.937
 8640SOL    HW126819   3.117   2.857   0.899
 8640SOL    HW226820   3.222   2.964   0.963
 8641SOL     OW26821   3.989   5.012   2.350
 8641SOL    HW126822   4.086   5.017   2.372
 8641SOL    HW226823   3.941   4.960   2.420
 8642SOL     OW26824   1.087   6.008   3.054
 8642SOL    HW126825   1.010   6.066   3.028
 8642SOL    HW226826   1.165   6.028   2.995
 8643SOL     OW26827   3.843   7.002   0.912
 8643SOL    HW126828   3.864   6.991   1.009
 8643SOL    HW226829   3.744   7.003   0.899
 8644SOL     OW26830   6.225   2.645   5.994
 8644SOL    HW126831   6.182   2.641   6.085
 8644SOL    HW226832   6.324   2.641   6.004
 8645SOL     OW26833   6.158   5.793   3.162
 8645SOL    HW126834   6.078   5.820   3.215
 8645SOL    HW226835   6.137   5.797   3.065
 8646SOL     OW26836   6.625   2.610   4.737
 8646SOL    HW126837   6.659   2.527   4.783
 8646SOL    HW226838   6.537   2.635   4.776
 8647SOL     OW26839   2.111   5.595   1.832
 8647SOL    HW126840   2.064   5.620   1.748
 8647SOL    HW226841   2.149   5.503   1.824
 8648SOL     OW26842   5.013   5.100   0.486
 8648SOL    HW126843   5.015   5.200   0.481
 8648SOL    HW226844   4.920   5.070   0.507
 8649SOL     OW26845   5.519   1.121   1.394
 8649SOL    HW126846   5.523   1.022   1.406
 8649SOL    HW226847   5.607   1.162   1.418
 8650SOL     OW26848   2.067   0.048   5.297
 8650SOL    HW126849   2.056   6.982   5.338
 8650SOL    HW226850   2.135   0.100   5.349
 8651SOL     OW26851   4.051   2.649   1.647
 8651SOL    HW126852   3.973   2.658   1.585
 8651SOL    HW226853   4.037   2.571   1.708
 8652SOL     OW26854   0.919   2.773   3.408
 8652SOL    HW126855   0.919   2.709   3.485
 8652SOL    HW226856   0.921   2.721   3.323
 8653SOL     OW26857   6.085   1.477   6.406
 8653SOL    HW126858   6.028   1.556   6.382
 8653SOL    HW226859   6.063   1.447   6.498
 8654SOL     OW26860   0.481   4.113   2.198
 8654SOL    HW126861   0.478   4.070   2.288
 8654SOL    HW226862   0.465   4.044   2.127
 8655SOL     OW26863   0.445   0.265   4.637
 8655SOL    HW126864   0.536   0.252   4.677
 8655SOL    HW226865   0.392   0.180   4.646
 8656SOL     OW26866   5.462   6.655   1.404
 8656SOL    HW126867   5.364   6.674   1.409
 8656SOL    HW226868   5.505   6.685   1.489
 8657SOL     OW26869   3.439   1.787   3.858
 8657SOL    HW126870   3.416   1.866   3.914
 8657SOL    HW226871   3.538   1.770   3.862
 8658SOL     OW26872   5.456   4.471   1.290
 8658SOL    HW126873   5.438   4.569   1.296
 8658SOL    HW226874   5.378   4.425   1.249
 8659SOL     OW26875   3.245   0.718   2.178
 8659SOL    HW126876   3.326   0.758   2.134
 8659SOL    HW226877   3.202   0.785   2.238
 8660SOL     OW26878   0.412   4.936   2.050
 8660SOL    HW126879   0.330   4.991   2.034
 8660SOL    HW226880   0.397   4.844   2.016
 8661SOL     OW26881   6.767   3.435   2.458
 8661SOL    HW126882   6.707   3.481   2.524
 8661SOL    HW226883   6.841   3.389   2.507
 8662SOL     OW26884   1.771   3.100   3.067
 8662SOL    HW126885   1.729   3.112   3.157
 8662SOL    HW226886   1.802   3.189   3.033
 8663SOL     OW26887   3.821   5.095   2.555
 8663SOL    HW126888   3.794   5.146   2.473
 8663SOL    HW226889   3.792   5.145   2.637
 8664SOL     OW26890   4.057   6.034   3.350
 8664SOL    HW126891   4.025   6.127   3.329
 8664SOL    HW226892   4.070   5.983   3.265
 8665SOL     OW26893   5.263   3.551   6.652
 8665SOL    HW126894   5.331   3.616   6.686
 8665SOL    HW226895   5.179   3.560   6.706
 8666SOL     OW26896   4.470   6.744   2.669
 8666SOL    HW126897   4.371   6.727   2.668
 8666SOL    HW226898   4.503   6.739   2.764
 8667SOL     OW26899   5.172   2.185   2.815
 8667SOL    HW126900   5.119   2.102   2.795
 8667SOL    HW226901   5.111   2.260   2.839
 8668SOL     OW26902   5.031   2.303   5.026
 8668SOL    HW126903   4.972   2.268   5.099
 8668SOL    HW226904   5.009   2.257   4.940
 8669SOL     OW26905   6.311   6.432   6.211
 8669SOL    HW126906   6.315   6.349   6.155
 8669SOL    HW226907   6.404   6.460   6.235
 8670SOL     OW26908   6.475   4.779   5.348
 8670SOL    HW126909   6.440   4.686   5.351
 8670SOL    HW226910   6.573   4.777   5.328
 8671SOL     OW26911   0.370   3.066   2.819
 8671SOL    HW126912   0.406   3.130   2.887
 8671SOL    HW226913   0.271   3.055   2.833
 8672SOL     OW26914   0.059   0.905   2.352
 8672SOL    HW126915   0.147   0.884   2.308
 8672SOL    HW226916   0.027   0.994   2.320
 8673SOL     OW26917   1.267   2.112   1.015
 8673SOL    HW126918   1.354   2.064   1.025
 8673SOL    HW226919   1.264   2.191   1.077
 8674SOL     OW26920   6.930   3.682   2.937
 8674SOL    HW126921   6.940   3.602   2.878
 8674SOL    HW226922   6.946   3.656   3.032
 8675SOL     OW26923   4.229   2.301   4.759
 8675SOL    HW126924   4.293   2.230   4.788
 8675SOL    HW226925   4.204   2.357   4.838
 8676SOL     OW26926   4.773   1.659   0.574
 8676SOL    HW126927   4.873   1.657   0.574
 8676SOL    HW226928   4.738   1.569   0.549
 8677SOL     OW26929   2.287   6.773   6.070
 8677SOL    HW126930   2.278   6.721   5.985
 8677SOL    HW226931   2.313   6.867   6.048
 8678SOL     OW26932   2.341   2.561   0.160
 8678SOL    HW126933   2.255   2.589   0.118
 8678SOL    HW226934   2.417   2.611   0.118
 8679SOL     OW26935   1.501   1.938   6.124
 8679SOL    HW126936   1.487   1.843   6.096
 8679SOL    HW226937   1.434   1.962   6.194
 8680SOL     OW26938   0.225   0.562   0.233
 8680SOL    HW126939   0.285   0.499   0.281
 8680SOL    HW226940   0.146   0.513   0.198
 8681SOL     OW26941   4.988   5.732   0.964
 8681SOL    HW126942   4.977   5.641   0.926
 8681SOL    HW226943   4.976   5.800   0.891
 8682SOL     OW26944   2.318   0.756   2.306
 8682SOL    HW126945   2.379   0.679   2.286
 8682SOL    HW226946   2.231   0.742   2.260
 8683SOL     OW26947   2.424   4.553   4.650
 8683SOL    HW126948   2.443   4.542   4.747
 8683SOL    HW226949   2.366   4.478   4.618
 8684SOL     OW26950   2.236   4.293   3.981
 8684SOL    HW126951   2.206   4.201   4.006
 8684SOL    HW226952   2.158   4.347   3.952
 8685SOL     OW26953   4.626   2.665   4.457
 8685SOL    HW126954   4.725   2.668   4.446
 8685SOL    HW226955   4.603   2.647   4.552
 8686SOL     OW26956   1.270   5.281   3.343
 8686SOL    HW126957   1.262   5.343   3.266
 8686SOL    HW226958   1.258   5.186   3.312
 8687SOL     OW26959   5.725   4.649   4.954
 8687SOL    HW126960   5.650   4.593   4.988
 8687SOL    HW226961   5.694   4.743   4.942
 8688SOL     OW26962   1.502   3.804   5.337
 8688SOL    HW126963   1.432   3.857   5.290
 8688SOL    HW226964   1.505   3.829   5.433
 8689SOL     OW26965   3.898   3.132   0.431
 8689SOL    HW126966   3.932   3.220   0.398
 8689SOL    HW226967   3.869   3.141   0.526
 8690SOL     OW26968   1.586   1.741   2.340
 8690SOL    HW126969   1.570   1.775   2.247
 8690SOL    HW226970   1.500   1.706   2.377
 8691SOL     OW26971   3.677   2.895   5.617
 8691SOL    HW126972   3.742   2.948   5.563
 8691SOL    HW226973   3.623   2.957   5.675
 8692SOL     OW26974   4.872   2.371   4.520
 8692SOL    HW126975   4.888   2.455   4.572
 8692SOL    HW226976   4.775   2.348   4.523
 8693SOL     OW26977   6.944   6.689   5.961
 8693SOL    HW126978   6.947   6.594   5.928
 8693SOL    HW226979   6.941   6.688   6.061
 8694SOL     OW26980   5.410   2.909   5.368
 8694SOL    HW126981   5.406   2.986   5.304
 8694SOL    HW226982   5.504   2.876   5.373
 8695SOL     OW26983   3.523   4.890   0.764
 8695SOL    HW126984   3.465   4.956   0.813
 8695SOL    HW226985   3.604   4.937   0.729
 8696SOL     OW26986   2.389   5.393   5.628
 8696SOL    HW126987   2.415   5.306   5.671
 8696SOL    HW226988   2.421   5.469   5.683
 8697SOL     OW26989   1.433   4.026   5.518
 8697SOL    HW126990   1.452   4.123   5.536
 8697SOL    HW226991   1.366   4.018   5.444
 8698SOL     OW26992   4.681   5.052   6.336
 8698SOL    HW126993   4.660   5.020   6.244
 8698SOL    HW226994   4.757   5.117   6.332
 8699SOL     OW26995   1.875   2.361   6.735
 8699SOL    HW126996   1.824   2.442   6.707
 8699SOL    HW226997   1.864   2.347   6.833
 8700SOL     OW26998   1.261   1.239   4.453
 8700SOL    HW126999   1.346   1.187   4.460
 8700SOL    HW227000   1.226   1.234   4.359
 8701SOL     OW27001   1.498   2.833   6.768
 8701SOL    HW127002   1.498   2.749   6.824
 8701SOL    HW227003   1.585   2.841   6.720
 8702SOL     OW27004   5.330   4.659   0.869
 8702SOL    HW127005   5.416   4.710   0.868
 8702SOL    HW227006   5.282   4.677   0.954
 8703SOL     OW27007   3.298   5.819   0.817
 8703SOL    HW127008   3.379   5.873   0.796
 8703SOL    HW227009   3.235   5.824   0.739
 8704SOL     OW27010   0.191   0.864   4.820
 8704SOL    HW127011   0.203   0.898   4.727
 8704SOL    HW227012   0.093   0.859   4.841
 8705SOL     OW27013   3.901   2.103   6.928
 8705SOL    HW127014   3.803   2.085   6.921
 8705SOL    HW227015   3.915   2.193   6.969
 8706SOL     OW27016   4.765   3.004   6.511
 8706SOL    HW127017   4.739   2.912   6.539
 8706SOL    HW227018   4.852   3.029   6.553
 8707SOL     OW27019   2.367   1.007   4.337
 8707SOL    HW127020   2.271   1.009   4.310
 8707SOL    HW227021   2.387   0.920   4.382
 8708SOL     OW27022   6.230   2.458   0.595
 8708SOL    HW127023   6.130   2.465   0.589
 8708SOL    HW227024   6.256   2.440   0.690
 8709SOL     OW27025   6.052   6.745   5.008
 8709SOL    HW127026   6.010   6.831   5.036
 8709SOL    HW227027   6.084   6.696   5.089
 8710SOL     OW27028   2.182   1.807   3.539
 8710SOL    HW127029   2.230   1.838   3.621
 8710SOL    HW227030   2.123   1.730   3.562
 8711SOL     OW27031   1.240   1.682   1.984
 8711SOL    HW127032   1.221   1.718   1.893
 8711SOL    HW227033   1.182   1.603   2.002
 8712SOL     OW27034   1.568   4.335   4.825
 8712SOL    HW127035   1.569   4.255   4.884
 8712SOL    HW227036   1.507   4.405   4.863
 8713SOL     OW27037   0.134   3.278   1.111
 8713SOL    HW127038   0.180   3.242   1.193
 8713SOL    HW227039   0.201   3.324   1.053
 8714SOL     OW27040   6.375   4.408   6.146
 8714SOL    HW127041   6.404   4.409   6.242
 8714SOL    HW227042   6.277   4.428   6.141
 8715SOL     OW27043   1.916   3.891   1.450
 8715SOL    HW127044   1.918   3.853   1.357
 8715SOL    HW227045   1.824   3.881   1.488
 8716SOL     OW27046   6.882   0.306   2.419
 8716SOL    HW127047   6.805   0.274   2.475
 8716SOL    HW227048   6.968   0.279   2.463
 8717SOL     OW27049   2.948   3.066   0.056
 8717SOL    HW127050   2.969   2.987   7.024
 8717SOL    HW227051   3.018   3.076   0.127
 8718SOL     OW27052   2.847   5.271   6.324
 8718SOL    HW127053   2.824   5.335   6.251
 8718SOL    HW227054   2.920   5.310   6.381
 8719SOL     OW27055   3.505   1.025   4.404
 8719SOL    HW127056   3.449   1.102   4.437
 8719SOL    HW227057   3.477   0.941   4.452
 8720SOL     OW27058   0.291   5.609   4.634
 8720SOL    HW127059   0.387   5.630   4.654
 8720SOL    HW227060   0.277   5.510   4.638
 8721SOL     OW27061   0.247   6.674   0.127
 8721SOL    HW127062   0.208   6.637   0.212
 8721SOL    HW227063   0.174   6.714   0.072
 8722SOL     OW27064   2.892   1.290   1.089
 8722SOL    HW127065   2.985   1.253   1.094
 8722SOL    HW227066   2.893   1.375   1.036
 8723SOL     OW27067   3.620   6.847   2.022
 8723SOL    HW127068   3.680   6.879   1.949
 8723SOL    HW227069   3.674   6.804   2.094
 8724SOL     OW27070   3.992   1.425   4.777
 8724SOL    HW127071   4.028   1.507   4.733
 8724SOL    HW227072   3.892   1.424   4.767
 8725SOL     OW27073   6.905   0.183   3.765
 8725SOL    HW127074   6.895   0.135   3.852
 8725SOL    HW227075   6.893   0.119   3.690
 8726SOL     OW27076   6.552   1.441   1.038
 8726SOL    HW127077   6.570   1.349   1.073
 8726SOL    HW227078   6.637   1.479   1.000
 8727SOL     OW27079   5.313   6.300   6.931
 8727SOL    HW127080   5.279   6.350   6.851
 8727SOL    HW227081   5.238   6.247   6.972
 8728SOL     OW27082   6.319   0.271   4.863
 8728SOL    HW127083   6.349   0.271   4.959
 8728SOL    HW227084   6.301   0.177   4.834
 8729SOL     OW27085   5.745   6.034   6.330
 8729SOL    HW127086   5.718   6.089   6.408
 8729SOL    HW227087   5.784   5.947   6.361
 8730SOL     OW27088   4.707   5.181   1.319
 8730SOL    HW127089   4.646   5.180   1.240
 8730SOL    HW227090   4.801   5.161   1.290
 8731SOL     OW27091   0.010   1.381   3.978
 8731SOL    HW127092   0.093   1.327   3.973
 8731SOL    HW227093   7.024   1.434   3.894
 8732SOL     OW27094   5.483   6.618   6.554
 8732SOL    HW127095   5.444   6.666   6.633
 8732SOL    HW227096   5.581   6.606   6.568
 8733SOL     OW27097   6.456   4.236   2.214
 8733SOL    HW127098   6.540   4.227   2.160
 8733SOL    HW227099   6.406   4.317   2.185
 8734SOL     OW27100   0.812   4.266   1.045
 8734SOL    HW127101   0.839   4.301   1.135
 8734SOL    HW227102   0.719   4.230   1.049
 8735SOL     OW27103   0.605   2.944   4.848
 8735SOL    HW127104   0.566   3.025   4.804
 8735SOL    HW227105   0.673   2.973   4.916
 8736SOL     OW27106   1.524   5.960   3.041
 8736SOL    HW127107   1.471   5.887   3.085
 8736SOL    HW227108   1.579   6.007   3.109
 8737SOL     OW27109   1.060   5.731   0.245
 8737SOL    HW127110   1.036   5.668   0.171
 8737SOL    HW227111   1.036   5.824   0.219
 8738SOL     OW27112   1.336   2.834   2.707
 8738SOL    HW127113   1.242   2.856   2.734
 8738SOL    HW227114   1.393   2.827   2.789
 8739SOL     OW27115   6.069   4.913   4.164
 8739SOL    HW127116   6.050   4.964   4.080
 8739SOL    HW227117   5.984   4.876   4.201
 8740SOL     OW27118   3.322   1.235   4.046
 8740SOL    HW127119   3.399   1.273   3.994
 8740SOL    HW227120   3.304   1.294   4.125
 8741SOL     OW27121   1.217   1.628   2.715
 8741SOL    HW127122   1.276   1.650   2.793
 8741SOL    HW227123   1.128   1.673   2.727
 8742SOL     OW27124   2.758   2.116   1.682
 8742SOL    HW127125   2.801   2.067   1.758
 8742SOL    HW227126   2.814   2.106   1.600
 8743SOL     OW27127   0.744   2.681   1.176
 8743SOL    HW127128   0.664   2.621   1.171
 8743SOL    HW227129   0.767   2.698   1.272
 8744SOL     OW27130   3.403   3.869   5.629
 8744SOL    HW127131   3.369   3.914   5.712
 8744SOL    HW227132   3.503   3.868   5.631
 8745SOL     OW27133   6.004   1.872   6.014
 8745SOL    HW127134   5.988   1.805   5.942
 8745SOL    HW227135   6.060   1.947   5.979
 8746SOL     OW27136   4.118   4.715   5.406
 8746SOL    HW127137   4.116   4.815   5.408
 8746SOL    HW227138   4.186   4.683   5.472
 8747SOL     OW27139   1.275   0.621   3.166
 8747SOL    HW127140   1.296   0.714   3.194
 8747SOL    HW227141   1.353   0.562   3.186
 8748SOL     OW27142   5.286   1.932   4.471
 8748SOL    HW127143   5.289   1.990   4.390
 8748SOL    HW227144   5.201   1.947   4.521
 8749SOL     OW27145   3.071   1.330   4.272
 8749SOL    HW127146   3.137   1.402   4.296
 8749SOL    HW227147   3.038   1.344   4.179
 8750SOL     OW27148   3.687   4.042   1.042
 8750SOL    HW127149   3.623   3.966   1.034
 8750SOL    HW227150   3.724   4.045   1.136
 8751SOL     OW27151   2.872   6.953   0.404
 8751SOL    HW127152   2.909   6.925   0.315
 8751SOL    HW227153   2.919   6.902   0.476
 8752SOL     OW27154   0.101   2.772   5.379
 8752SOL    HW127155   0.096   2.803   5.474
 8752SOL    HW227156   0.188   2.800   5.340
 8753SOL     OW27157   2.511   2.547   0.589
 8753SOL    HW127158   2.531   2.536   0.491
 8753SOL    HW227159   2.557   2.474   0.640
 8754SOL     OW27160   1.158   5.388   0.122
 8754SOL    HW127161   1.115   5.298   0.118
 8754SOL    HW227162   1.090   5.458   0.100
 8755SOL     OW27163   0.464   2.653   2.358
 8755SOL    HW127164   0.386   2.591   2.353
 8755SOL    HW227165   0.438   2.736   2.407
 8756SOL     OW27166   2.029   1.720   2.238
 8756SOL    HW127167   2.088   1.765   2.171
 8756SOL    HW227168   1.948   1.684   2.192
 8757SOL     OW27169   5.596   6.335   5.695
 8757SOL    HW127170   5.514   6.390   5.685
 8757SOL    HW227171   5.576   6.255   5.751
 8758SOL     OW27172   3.503   5.853   5.460
 8758SOL    HW127173   3.513   5.762   5.501
 8758SOL    HW227174   3.417   5.894   5.490
 8759SOL     OW27175   6.169   1.399   1.327
 8759SOL    HW127176   6.186   1.494   1.354
 8759SOL    HW227177   6.071   1.381   1.326
 8760SOL     OW27178   2.507   2.618   4.112
 8760SOL    HW127179   2.585   2.573   4.067
 8760SOL    HW227180   2.529   2.633   4.208
 8761SOL     OW27181   4.953   1.931   2.793
 8761SOL    HW127182   4.937   1.900   2.699
 8761SOL    HW227183   5.048   1.914   2.818
 8762SOL     OW27184   3.334   5.747   3.455
 8762SOL    HW127185   3.238   5.767   3.436
 8762SOL    HW227186   3.343   5.654   3.492
 8763SOL     OW27187   0.197   0.674   6.682
 8763SOL    HW127188   0.219   0.584   6.645
 8763SOL    HW227189   0.213   0.674   6.781
 8764SOL     OW27190   3.365   4.764   5.705
 8764SOL    HW127191   3.384   4.788   5.801
 8764SOL    HW227192   3.267   4.758   5.691
 8765SOL     OW27193   4.244   0.150   3.577
 8765SOL    HW127194   4.263   0.187   3.667
 8765SOL    HW227195   4.304   0.072   3.559
 8766SOL     OW27196   5.221   6.747   5.662
 8766SOL    HW127197   5.155   6.684   5.620
 8766SOL    HW227198   5.307   6.699   5.678
 8767SOL     OW27199   1.809   1.684   3.272
 8767SOL    HW127200   1.769   1.606   3.320
 8767SOL    HW227201   1.740   1.726   3.212
 8768SOL     OW27202   0.094   2.124   6.848
 8768SOL    HW127203   0.121   2.206   6.797
 8768SOL    HW227204   0.114   2.043   6.794
 8769SOL     OW27205   6.062   6.976   6.733
 8769SOL    HW127206   6.143   6.931   6.769
 8769SOL    HW227207   6.024   0.014   6.802
 8770SOL     OW27208   5.439   2.351   0.232
 8770SOL    HW127209   5.489   2.392   0.156
 8770SOL    HW227210   5.352   2.314   0.199
 8771SOL     OW27211   0.168   2.644   6.830
 8771SOL    HW127212   0.248   2.699   6.807
 8771SOL    HW227213   0.185   2.597   6.917
 8772SOL     OW27214   0.219   0.357   4.920
 8772SOL    HW127215   0.243   0.444   4.878
 8772SOL    HW227216   0.128   0.362   4.960
 8773SOL     OW27217   6.867   0.932   4.301
 8773SOL    HW127218   6.957   0.966   4.273
 8773SOL    HW227219   6.840   0.978   4.386
 8774SOL     OW27220   1.345   1.899   0.388
 8774SOL    HW127221   1.269   1.841   0.419
 8774SOL    HW227222   1.408   1.844   0.333
 8775SOL     OW27223   5.155   2.537   3.588
 8775SOL    HW127224   5.089   2.604   3.620
 8775SOL    HW227225   5.163   2.543   3.488
 8776SOL     OW27226   4.119   2.707   0.448
 8776SOL    HW127227   4.205   2.726   0.496
 8776SOL    HW227228   4.042   2.732   0.506
 8777SOL     OW27229   6.984   1.819   3.527
 8777SOL    HW127230   6.934   1.768   3.457
 8777SOL    HW227231   0.044   1.771   3.549
 8778SOL     OW27232   3.186   3.900   6.541
 8778SOL    HW127233   3.187   3.829   6.612
 8778SOL    HW227234   3.232   3.867   6.459
 8779SOL     OW27235   4.368   5.011   2.794
 8779SOL    HW127236   4.307   4.935   2.772
 8779SOL    HW227237   4.462   4.978   2.796
 8780SOL     OW27238   0.742   4.388   3.748
 8780SOL    HW127239   0.798   4.450   3.693
 8780SOL    HW227240   0.665   4.356   3.694
 8781SOL     OW27241   2.536   0.822   1.226
 8781SOL    HW127242   2.542   0.863   1.317
 8781SOL    HW227243   2.600   0.746   1.219
 8782SOL     OW27244   5.973   2.441   0.536
 8782SOL    HW127245   5.924   2.481   0.459
 8782SOL    HW227246   5.923   2.361   0.569
 8783SOL     OW27247   4.942   4.335   4.850
 8783SOL    HW127248   4.923   4.368   4.757
 8783SOL    HW227249   4.912   4.240   4.858
 8784SOL     OW27250   5.022   0.845   0.547
 8784SOL    HW127251   5.045   0.933   0.588
 8784SOL    HW227252   4.957   0.797   0.605
 8785SOL     OW27253   0.022   5.654   5.177
 8785SOL    HW127254   6.952   5.662   5.143
 8785SOL    HW227255   0.068   5.580   5.128
 8786SOL     OW27256   5.335   1.533   2.706
 8786SOL    HW127257   5.323   1.456   2.769
 8786SOL    HW227258   5.368   1.499   2.618
 8787SOL     OW27259   3.636   5.941   1.197
 8787SOL    HW127260   3.582   5.930   1.114
 8787SOL    HW227261   3.674   5.852   1.224
 8788SOL     OW27262   0.434   6.609   4.095
 8788SOL    HW127263   0.527   6.597   4.060
 8788SOL    HW227264   0.369   6.602   4.020
 8789SOL     OW27265   1.214   2.132   6.017
 8789SOL    HW127266   1.122   2.156   5.986
 8789SOL    HW227267   1.222   2.032   6.020
 8790SOL     OW27268   4.252   2.902   5.362
 8790SOL    HW127269   4.328   2.966   5.372
 8790SOL    HW227270   4.170   2.941   5.403
 8791SOL     OW27271   3.445   6.161   4.381
 8791SOL    HW127272   3.409   6.254   4.368
 8791SOL    HW227273   3.506   6.139   4.305
 8792SOL     OW27274   5.539   4.715   2.511
 8792SOL    HW127275   5.589   4.635   2.543
 8792SOL    HW227276   5.587   4.798   2.540
 8793SOL     OW27277   6.762   6.374   5.473
 8793SOL    HW127278   6.676   6.354   5.519
 8793SOL    HW227279   6.743   6.399   5.378
 8794SOL     OW27280   6.919   1.139   2.636
 8794SOL    HW127281   7.004   1.097   2.666
 8794SOL    HW227282   6.900   1.219   2.694
 8795SOL     OW27283   0.853   6.334   6.975
 8795SOL    HW127284   0.878   6.296   6.886
 8795SOL    HW227285   0.895   6.424   6.986
 8796SOL     OW27286   5.857   3.768   4.626
 8796SOL    HW127287   5.923   3.842   4.645
 8796SOL    HW227288   5.870   3.694   4.693
 8797SOL     OW27289   4.379   6.682   4.351
 8797SOL    HW127290   4.288   6.643   4.363
 8797SOL    HW227291   4.447   6.620   4.390
 8798SOL     OW27292   2.770   6.721   5.759
 8798SOL    HW127293   2.868   6.733   5.771
 8798SOL    HW227294   2.738   6.645   5.815
 8799SOL     OW27295   1.671   5.819   1.882
 8799SOL    HW127296   1.621   5.858   1.959
 8799SOL    HW227297   1.632   5.729   1.860
 8800SOL     OW27298   6.161   6.215   4.895
 8800SOL    HW127299   6.071   6.172   4.884
 8800SOL    HW227300   6.203   6.225   4.805
 8801SOL     OW27301   5.768   3.469   5.384
 8801SOL    HW127302   5.688   3.526   5.366
 8801SOL    HW227303   5.791   3.475   5.482
 8802SOL     OW27304   1.165   5.766   6.487
 8802SOL    HW127305   1.247   5.748   6.433
 8802SOL    HW227306   1.098   5.693   6.471
 8803SOL     OW27307   5.902   6.146   6.139
 8803SOL    HW127308   5.909   6.245   6.149
 8803SOL    HW227309   5.855   6.108   6.219
 8804SOL     OW27310   1.652   6.087   1.820
 8804SOL    HW127311   1.667   5.992   1.846
 8804SOL    HW227312   1.642   6.094   1.721
 8805SOL     OW27313   4.658   4.933   3.657
 8805SOL    HW127314   4.736   4.974   3.611
 8805SOL    HW227315   4.596   4.893   3.590
 8806SOL     OW27316   1.159   0.199   1.481
 8806SOL    HW127317   1.209   0.118   1.509
 8806SOL    HW227318   1.160   0.267   1.554
 8807SOL     OW27319   5.971   2.910   0.837
 8807SOL    HW127320   5.878   2.941   0.860
 8807SOL    HW227321   5.966   2.821   0.792
 8808SOL     OW27322   1.998   2.356   6.169
 8808SOL    HW127323   1.906   2.366   6.131
 8808SOL    HW227324   1.994   2.305   6.255
 8809SOL     OW27325   0.123   3.370   3.001
 8809SOL    HW127326   0.079   3.294   3.048
 8809SOL    HW227327   0.134   3.447   3.064
 8810SOL     OW27328   0.635   1.539   5.004
 8810SOL    HW127329   0.612   1.457   4.951
 8810SOL    HW227330   0.551   1.589   5.025
 8811SOL     OW27331   4.173   4.743   2.433
 8811SOL    HW127332   4.270   4.737   2.454
 8811SOL    HW227333   4.159   4.798   2.350
 8812SOL     OW27334   5.429   0.808   6.663
 8812SOL    HW127335   5.406   0.859   6.581
 8812SOL    HW227336   5.524   0.828   6.689
 8813SOL     OW27337   2.070   3.440   3.160
 8813SOL    HW127338   2.088   3.481   3.250
 8813SOL    HW227339   2.108   3.347   3.159
 8814SOL     OW27340   4.999   0.138   5.222
 8814SOL    HW127341   5.049   0.134   5.308
 8814SOL    HW227342   4.955   0.050   5.204
 8815SOL     OW27343   5.819   0.875   1.411
 8815SOL    HW127344   5.798   0.866   1.314
 8815SOL    HW227345   5.786   0.793   1.460
 8816SOL     OW27346   0.820   6.376   4.478
 8816SOL    HW127347   0.854   6.398   4.569
 8816SOL    HW227348   0.786   6.282   4.477
 8817SOL     OW27349   1.134   2.796   3.242
 8817SOL    HW127350   1.078   2.814   3.323
 8817SOL    HW227351   1.144   2.880   3.189
 8818SOL     OW27352   0.913   0.028   6.352
 8818SOL    HW127353   0.933   0.036   6.255
 8818SOL    HW227354   0.994   0.052   6.405
 8819SOL     OW27355   4.383   5.038   6.237
 8819SOL    HW127356   4.315   4.969   6.210
 8819SOL    HW227357   4.352   5.086   6.319
 8820SOL     OW27358   4.349   6.826   5.774
 8820SOL    HW127359   4.384   6.903   5.720
 8820SOL    HW227360   4.253   6.810   5.751
 8821SOL     OW27361   0.054   4.599   6.236
 8821SOL    HW127362   0.140   4.644   6.216
 8821SOL    HW227363   7.008   4.630   6.172
 8822SOL     OW27364   6.475   0.477   5.105
 8822SOL    HW127365   6.570   0.447   5.093
 8822SOL    HW227366   6.438   0.437   5.189
 8823SOL     OW27367   3.533   1.903   3.217
 8823SOL    HW127368   3.451   1.916   3.162
 8823SOL    HW227369   3.533   1.969   3.292
 8824SOL     OW27370   1.548   0.233   2.985
 8824SOL    HW127371   1.539   0.171   3.063
 8824SOL    HW227372   1.464   0.286   2.974
 8825SOL     OW27373   0.240   0.121   0.617
 8825SOL    HW127374   0.156   0.091   0.662
 8825SOL    HW227375   0.312   0.053   0.633
 8826SOL     OW27376   0.286   4.776   1.079
 8826SOL    HW127377   0.218   4.732   1.138
 8826SOL    HW227378   0.369   4.719   1.075
 8827SOL     OW27379   4.445   6.912   2.983
 8827SOL    HW127380   4.526   6.859   2.961
 8827SOL    HW227381   4.363   6.860   2.960
 8828SOL     OW27382   4.977   2.499   6.500
 8828SOL    HW127383   4.952   2.540   6.412
 8828SOL    HW227384   4.919   2.537   6.572
 8829SOL     OW27385   0.134   1.002   2.638
 8829SOL    HW127386   0.115   0.906   2.660
 8829SOL    HW227387   0.222   1.008   2.591
 8830SOL     OW27388   3.414   0.418   3.494
 8830SOL    HW127389   3.450   0.444   3.405
 8830SOL    HW227390   3.319   0.448   3.502
 8831SOL     OW27391   0.292   2.864   2.425
 8831SOL    HW127392   0.196   2.853   2.398
 8831SOL    HW227393   0.331   2.943   2.379
 8832SOL     OW27394   5.793   0.112   5.993
 8832SOL    HW127395   5.731   0.172   5.942
 8832SOL    HW227396   5.749   0.024   6.010
 8833SOL     OW27397   4.983   2.441   1.102
 8833SOL    HW127398   5.043   2.386   1.044
 8833SOL    HW227399   4.985   2.406   1.195
 8834SOL     OW27400   6.104   3.918   5.922
 8834SOL    HW127401   6.087   3.954   6.014
 8834SOL    HW227402   6.108   3.818   5.927
 8835SOL     OW27403   6.913   0.498   5.578
 8835SOL    HW127404   6.863   0.547   5.506
 8835SOL    HW227405   6.847   0.462   5.645
 8836SOL     OW27406   4.569   1.355   1.498
 8836SOL    HW127407   4.474   1.384   1.498
 8836SOL    HW227408   4.628   1.434   1.485
 8837SOL     OW27409   4.569   6.610   0.809
 8837SOL    HW127410   4.478   6.579   0.779
 8837SOL    HW227411   4.624   6.531   0.835
 8838SOL     OW27412   1.848   3.526   3.510
 8838SOL    HW127413   1.786   3.591   3.468
 8838SOL    HW227414   1.812   3.433   3.499
 8839SOL     OW27415   4.839   5.965   1.477
 8839SOL    HW127416   4.930   5.965   1.435
 8839SOL    HW227417   4.848   5.963   1.576
 8840SOL     OW27418   6.430   1.025   0.651
 8840SOL    HW127419   6.492   0.950   0.672
 8840SOL    HW227420   6.429   1.091   0.726
 8841SOL     OW27421   3.295   1.499   0.622
 8841SOL    HW127422   3.353   1.432   0.576
 8841SOL    HW227423   3.352   1.571   0.662
 8842SOL     OW27424   3.071   3.446   4.482
 8842SOL    HW127425   3.158   3.425   4.437
 8842SOL    HW227426   3.068   3.403   4.572
 8843SOL     OW27427   2.288   5.918   5.719
 8843SOL    HW127428   2.247   5.930   5.809
 8843SOL    HW227429   2.216   5.901   5.652
 8844SOL     OW27430   3.441   2.495   6.287
 8844SOL    HW127431   3.410   2.516   6.194
 8844SOL    HW227432   3.474   2.579   6.330
 8845SOL     OW27433   0.360   3.323   2.207
 8845SOL    HW127434   0.278   3.295   2.156
 8845SOL    HW227435   0.345   3.310   2.305
 8846SOL     OW27436   5.502   4.633   4.578
 8846SOL    HW127437   5.515   4.628   4.479
 8846SOL    HW227438   5.569   4.696   4.618
 8847SOL     OW27439   1.474   2.259   3.967
 8847SOL    HW127440   1.494   2.278   4.063
 8847SOL    HW227441   1.559   2.249   3.916
 8848SOL     OW27442   5.695   1.300   0.540
 8848SOL    HW127443   5.614   1.269   0.589
 8848SOL    HW227444   5.769   1.233   0.553
 8849SOL     OW27445   3.284   5.117   4.335
 8849SOL    HW127446   3.368   5.166   4.358
 8849SOL    HW227447   3.242   5.083   4.419
 8850SOL     OW27448   3.139   1.459   1.245
 8850SOL    HW127449   3.164   1.365   1.226
 8850SOL    HW227450   3.050   1.461   1.292
 8851SOL     OW27451   6.724   4.988   2.763
 8851SOL    HW127452   6.641   5.044   2.756
 8851SOL    HW227453   6.798   5.031   2.712
 8852SOL     OW27454   4.470   2.453   4.334
 8852SOL    HW127455   4.534   2.522   4.367
 8852SOL    HW227456   4.433   2.402   4.412
 8853SOL     OW27457   4.589   1.661   5.481
 8853SOL    HW127458   4.587   1.664   5.581
 8853SOL    HW227459   4.496   1.648   5.447
 8854SOL     OW27460   1.811   1.305   6.669
 8854SOL    HW127461   1.791   1.402   6.676
 8854SOL    HW227462   1.851   1.273   6.755
 8855SOL     OW27463   6.207   4.978   0.381
 8855SOL    HW127464   6.202   4.903   0.448
 8855SOL    HW227465   6.213   5.065   0.430
 8856SOL     OW27466   5.240   1.140   5.255
 8856SOL    HW127467   5.193   1.090   5.328
 8856SOL    HW227468   5.339   1.135   5.270
 8857SOL     OW27469   0.075   2.518   4.740
 8857SOL    HW127470   0.008   2.462   4.690
 8857SOL    HW227471   0.035   2.546   4.827
 8858SOL     OW27472   6.837   4.037   5.883
 8858SOL    HW127473   6.832   4.121   5.937
 8858SOL    HW227474   6.927   3.995   5.897
 8859SOL     OW27475   3.011   5.784   5.537
 8859SOL    HW127476   3.052   5.713   5.479
 8859SOL    HW227477   2.914   5.795   5.513
 8860SOL     OW27478   1.375   2.394   1.380
 8860SOL    HW127479   1.352   2.352   1.468
 8860SOL    HW227480   1.458   2.449   1.389
 8861SOL     OW27481   2.675   2.854   0.846
 8861SOL    HW127482   2.739   2.905   0.904
 8861SOL    HW227483   2.709   2.853   0.752
 8862SOL     OW27484   6.460   2.278   4.763
 8862SOL    HW127485   6.391   2.328   4.711
 8862SOL    HW227486   6.546   2.327   4.761
 8863SOL     OW27487   1.043   5.755   4.953
 8863SOL    HW127488   1.018   5.780   5.047
 8863SOL    HW227489   1.101   5.827   4.914
 8864SOL     OW27490   1.387   3.286   5.766
 8864SOL    HW127491   1.395   3.379   5.802
 8864SOL    HW227492   1.477   3.246   5.756
 8865SOL     OW27493   2.272   1.990   5.591
 8865SOL    HW127494   2.336   1.976   5.516
 8865SOL    HW227495   2.224   1.904   5.611
 8866SOL     OW27496   4.484   6.880   6.026
 8866SOL    HW127497   4.437   6.896   5.939
 8866SOL    HW227498   4.538   6.796   6.019
 8867SOL     OW27499   6.798   1.700   3.362
 8867SOL    HW127500   6.745   1.616   3.349
 8867SOL    HW227501   6.736   1.774   3.391
 8868SOL     OW27502   4.902   3.530   1.149
 8868SOL    HW127503   4.900   3.627   1.121
 8868SOL    HW227504   4.987   3.512   1.198
 8869SOL     OW27505   4.907   3.085   3.870
 8869SOL    HW127506   4.939   2.991   3.862
 8869SOL    HW227507   4.980   3.143   3.905
 8870SOL     OW27508   4.439   1.065   1.685
 8870SOL    HW127509   4.462   0.973   1.651
 8870SOL    HW227510   4.367   1.057   1.754
 8871SOL     OW27511   1.049   2.654   4.394
 8871SOL    HW127512   1.139   2.673   4.433
 8871SOL    HW227513   1.016   2.566   4.429
 8872SOL     OW27514   2.252   2.691   3.076
 8872SOL    HW127515   2.156   2.684   3.101
 8872SOL    HW227516   2.307   2.705   3.158
 8873SOL     OW27517   0.035   6.140   4.906
 8873SOL    HW127518   0.019   6.168   5.001
 8873SOL    HW227519   0.096   6.061   4.905
 8874SOL     OW27520   1.289   1.607   0.017
 8874SOL    HW127521   1.319   1.512   0.012
 8874SOL    HW227522   1.202   1.612   0.065
 8875SOL     OW27523   1.617   1.365   4.338
 8875SOL    HW127524   1.702   1.414   4.358
 8875SOL    HW227525   1.597   1.302   4.413
 8876SOL     OW27526   2.373   0.970   5.073
 8876SOL    HW127527   2.418   0.983   5.162
 8876SOL    HW227528   2.344   1.059   5.037
 8877SOL     OW27529   2.765   6.256   4.243
 8877SOL    HW127530   2.823   6.250   4.323
 8877SOL    HW227531   2.821   6.267   4.161
 8878SOL     OW27532   5.726   4.432   5.265
 8878SOL    HW127533   5.692   4.399   5.177
 8878SOL    HW227534   5.707   4.530   5.274
 8879SOL     OW27535   4.031   5.493   5.193
 8879SOL    HW127536   3.952   5.468   5.249
 8879SOL    HW227537   4.014   5.469   5.097
 8880SOL     OW27538   6.765   6.089   5.930
 8880SOL    HW127539   6.733   6.090   5.836
 8880SOL    HW227540   6.745   6.177   5.973
 8881SOL     OW27541   0.191   0.890   1.943
 8881SOL    HW127542   0.092   0.883   1.929
 8881SOL    HW227543   0.224   0.806   1.988
 8882SOL     OW27544   5.718   1.961   6.310
 8882SOL    HW127545   5.813   1.934   6.294
 8882SOL    HW227546   5.657   1.893   6.269
 8883SOL     OW27547   0.122   1.022   5.516
 8883SOL    HW127548   0.092   1.082   5.590
 8883SOL    HW227549   0.215   0.990   5.534
 8884SOL     OW27550   6.560   0.462   5.599
 8884SOL    HW127551   6.584   0.506   5.513
 8884SOL    HW227552   6.598   0.370   5.602
 8885SOL     OW27553   5.255   3.365   1.849
 8885SOL    HW127554   5.179   3.394   1.908
 8885SOL    HW227555   5.333   3.426   1.863
 8886SOL     OW27556   2.932   6.298   6.370
 8886SOL    HW127557   2.947   6.373   6.306
 8886SOL    HW227558   3.015   6.281   6.423
 8887SOL     OW27559   2.252   0.534   1.446
 8887SOL    HW127560   2.270   0.502   1.353
 8887SOL    HW227561   2.190   0.471   1.492
 8888SOL     OW27562   3.633   1.273   3.501
 8888SOL    HW127563   3.581   1.233   3.425
 8888SOL    HW227564   3.722   1.304   3.467
 8889SOL     OW27565   3.273   6.665   4.640
 8889SOL    HW127566   3.309   6.733   4.577
 8889SOL    HW227567   3.220   6.597   4.589
 8890SOL     OW27568   1.414   4.401   3.768
 8890SOL    HW127569   1.393   4.487   3.722
 8890SOL    HW227570   1.503   4.367   3.735
 8891SOL     OW27571   2.571   2.193   0.019
 8891SOL    HW127572   2.661   2.233   0.038
 8891SOL    HW227573   2.582   2.096   7.021
 8892SOL     OW27574   1.248   6.959   2.327
 8892SOL    HW127575   1.332   6.978   2.378
 8892SOL    HW227576   1.227   0.013   2.268
 8893SOL     OW27577   0.477   1.314   1.393
 8893SOL    HW127578   0.428   1.351   1.472
 8893SOL    HW227579   0.572   1.298   1.418
 8894SOL     OW27580   4.074   3.082   6.425
 8894SOL    HW127581   4.078   3.125   6.516
 8894SOL    HW227582   3.995   3.119   6.375
 8895SOL     OW27583   0.877   0.760   2.489
 8895SOL    HW127584   0.823   0.764   2.405
 8895SOL    HW227585   0.825   0.711   2.560
 8896SOL     OW27586   2.207   4.366   5.181
 8896SOL    HW127587   2.168   4.275   5.168
 8896SOL    HW227588   2.290   4.358   5.235
 8897SOL     OW27589   1.398   1.811   1.327
 8897SOL    HW127590   1.316   1.838   1.276
 8897SOL    HW227591   1.372   1.755   1.405
 8898SOL     OW27592   6.718   2.901   4.487
 8898SOL    HW127593   6.690   2.811   4.452
 8898SOL    HW227594   6.813   2.918   4.462
 8899SOL     OW27595   2.667   4.374   0.075
 8899SOL    HW127596   2.730   4.316   0.024
 8899SOL    HW227597   2.690   4.470   0.059
 8900SOL     OW27598   6.274   1.448   3.167
 8900SOL    HW127599   6.277   1.366   3.224
 8900SOL    HW227600   6.359   1.500   3.181
 8901SOL     OW27601   1.801   6.766   1.892
 8901SOL    HW127602   1.720   6.709   1.896
 8901SOL    HW227603   1.879   6.713   1.859
 8902SOL     OW27604   2.834   5.321   5.392
 8902SOL    HW127605   2.860   5.403   5.341
 8902SOL    HW227606   2.915   5.266   5.411
 8903SOL     OW27607   0.753   1.732   3.877
 8903SOL    HW127608   0.654   1.720   3.871
 8903SOL    HW227609   0.775   1.828   3.859
 8904SOL     OW27610   1.053   5.114   3.572
 8904SOL    HW127611   0.954   5.122   3.583
 8904SOL    HW227612   1.094   5.083   3.659
 8905SOL     OW27613   2.445   4.389   5.302
 8905SOL    HW127614   2.529   4.413   5.252
 8905SOL    HW227615   2.455   4.298   5.342
 8906SOL     OW27616   1.356   4.811   4.628
 8906SOL    HW127617   1.435   4.785   4.683
 8906SOL    HW227618   1.301   4.730   4.607
 8907SOL     OW27619   3.948   2.526   5.951
 8907SOL    HW127620   3.914   2.480   6.033
 8907SOL    HW227621   3.878   2.586   5.914
 8908SOL     OW27622   6.995   3.306   1.777
 8908SOL    HW127623   0.046   3.272   1.834
 8908SOL    HW227624   0.000   3.386   1.727
 8909SOL     OW27625   2.636   6.503   5.852
 8909SOL    HW127626   2.664   6.408   5.841
 8909SOL    HW227627   2.588   6.533   5.769
 8910SOL     OW27628   3.726   3.191   6.672
 8910SOL    HW127629   3.784   3.213   6.750
 8910SOL    HW227630   3.745   3.098   6.642
 8911SOL     OW27631   4.209   2.301   3.881
 8911SOL    HW127632   4.238   2.315   3.975
 8911SOL    HW227633   4.290   2.292   3.822
 8912SOL     OW27634   5.319   2.376   6.270
 8912SOL    HW127635   5.386   2.385   6.196
 8912SOL    HW227636   5.227   2.388   6.233
 8913SOL     OW27637   4.606   4.113   0.877
 8913SOL    HW127638   4.631   4.120   0.973
 8913SOL    HW227639   4.520   4.062   0.868
 8914SOL     OW27640   4.984   2.023   3.463
 8914SOL    HW127641   5.067   2.077   3.446
 8914SOL    HW227642   4.905   2.084   3.470
 8915SOL     OW27643   1.261   5.446   2.083
 8915SOL    HW127644   1.333   5.512   2.105
 8915SOL    HW227645   1.281   5.358   2.127
 8916SOL     OW27646   6.531   3.817   1.593
 8916SOL    HW127647   6.434   3.810   1.569
 8916SOL    HW227648   6.539   3.836   1.691
 8917SOL     OW27649   5.932   5.730   6.155
 8917SOL    HW127650   5.927   5.773   6.065
 8917SOL    HW227651   5.900   5.635   6.148
 8918SOL     OW27652   5.100   4.628   5.873
 8918SOL    HW127653   5.039   4.658   5.946
 8918SOL    HW227654   5.194   4.653   5.895
 8919SOL     OW27655   2.244   3.727   1.283
 8919SOL    HW127656   2.247   3.818   1.324
 8919SOL    HW227657   2.212   3.733   1.189
 8920SOL     OW27658   6.353   5.218   5.349
 8920SOL    HW127659   6.378   5.141   5.409
 8920SOL    HW227660   6.307   5.183   5.268
 8921SOL     OW27661   1.299   5.965   3.508
 8921SOL    HW127662   1.371   5.901   3.536
 8921SOL    HW227663   1.216   5.914   3.484
 8922SOL     OW27664   6.492   4.433   0.117
 8922SOL    HW127665   6.586   4.402   0.100
 8922SOL    HW227666   6.449   4.375   0.186
 8923SOL     OW27667   2.072   4.607   4.815
 8923SOL    HW127668   2.158   4.588   4.863
 8923SOL    HW227669   2.028   4.521   4.792
 8924SOL     OW27670   2.586   5.972   4.906
 8924SOL    HW127671   2.581   5.878   4.941
 8924SOL    HW227672   2.648   6.025   4.964
 8925SOL     OW27673   5.758   6.417   1.590
 8925SOL    HW127674   5.826   6.441   1.520
 8925SOL    HW227675   5.783   6.461   1.676
 8926SOL     OW27676   5.381   1.428   0.424
 8926SOL    HW127677   5.361   1.346   0.369
 8926SOL    HW227678   5.466   1.470   0.391
 8927SOL     OW27679   2.736   1.475   4.462
 8927SOL    HW127680   2.719   1.492   4.559
 8927SOL    HW227681   2.746   1.562   4.413
 8928SOL     OW27682   0.966   6.878   5.012
 8928SOL    HW127683   0.958   6.789   5.057
 8928SOL    HW227684   1.022   6.939   5.068
 8929SOL     OW27685   5.098   4.082   4.226
 8929SOL    HW127686   5.142   3.993   4.213
 8929SOL    HW227687   5.050   4.108   4.142
 8930SOL     OW27688   1.605   5.014   4.945
 8930SOL    HW127689   1.584   4.928   4.900
 8930SOL    HW227690   1.688   5.054   4.905
 8931SOL     OW27691   5.670   1.091   1.650
 8931SOL    HW127692   5.592   1.150   1.672
 8931SOL    HW227693   5.748   1.114   1.707
 8932SOL     OW27694   6.747   0.857   6.936
 8932SOL    HW127695   6.671   0.916   6.964
 8932SOL    HW227696   6.816   0.854   7.008
 8933SOL     OW27697   1.896   0.430   5.512
 8933SOL    HW127698   1.801   0.447   5.486
 8933SOL    HW227699   1.946   0.391   5.435
 8934SOL     OW27700   4.778   6.627   3.182
 8934SOL    HW127701   4.738   6.632   3.273
 8934SOL    HW227702   4.748   6.542   3.137
 8935SOL     OW27703   5.644   2.488   2.537
 8935SOL    HW127704   5.547   2.498   2.516
 8935SOL    HW227705   5.660   2.506   2.634
 8936SOL     OW27706   1.815   3.879   2.851
 8936SOL    HW127707   1.729   3.931   2.849
 8936SOL    HW227708   1.836   3.853   2.945
 8937SOL     OW27709   4.270   0.038   5.458
 8937SOL    HW127710   4.323   0.107   5.408
 8937SOL    HW227711   4.296   6.971   5.427
 8938SOL     OW27712   5.707   0.221   1.996
 8938SOL    HW127713   5.718   0.143   1.935
 8938SOL    HW227714   5.758   0.204   2.081
 8939SOL     OW27715   0.590   2.478   3.883
 8939SOL    HW127716   0.646   2.528   3.948
 8939SOL    HW227717   0.576   2.533   3.801
 8940SOL     OW27718   6.607   2.876   1.420
 8940SOL    HW127719   6.561   2.861   1.332
 8940SOL    HW227720   6.603   2.973   1.444
 8941SOL     OW27721   4.854   2.372   2.300
 8941SOL    HW127722   4.757   2.388   2.283
 8941SOL    HW227723   4.874   2.391   2.396
 8942SOL     OW27724   5.122   4.478   4.347
 8942SOL    HW127725   5.160   4.530   4.271
 8942SOL    HW227726   5.097   4.386   4.315
 8943SOL     OW27727   4.238   2.813   1.099
 8943SOL    HW127728   4.217   2.739   1.035
 8943SOL    HW227729   4.153   2.859   1.126
 8944SOL     OW27730   4.659   5.626   4.831
 8944SOL    HW127731   4.646   5.558   4.759
 8944SOL    HW227732   4.657   5.580   4.920
 8945SOL     OW27733   5.833   4.483   2.819
 8945SOL    HW127734   5.777   4.433   2.885
 8945SOL    HW227735   5.906   4.533   2.868
 8946SOL     OW27736   4.774   1.124   5.617
 8946SOL    HW127737   4.821   1.044   5.579
 8946SOL    HW227738   4.776   1.198   5.550
 8947SOL     OW27739   1.610   4.779   6.470
 8947SOL    HW127740   1.696   4.788   6.521
 8947SOL    HW227741   1.629   4.783   6.372
 8948SOL     OW27742   5.036   1.018   2.574
 8948SOL    HW127743   5.072   1.091   2.632
 8948SOL    HW227744   5.111   0.959   2.545
 8949SOL     OW27745   3.867   6.159   0.879
 8949SOL    HW127746   3.797   6.129   0.943
 8949SOL    HW227747   3.956   6.120   0.905
 8950SOL     OW27748   3.329   3.726   1.771
 8950SOL    HW127749   3.378   3.728   1.859
 8950SOL    HW227750   3.296   3.634   1.754
 8951SOL     OW27751   1.340   0.214   4.730
 8951SOL    HW127752   1.277   0.270   4.676
 8951SOL    HW227753   1.420   0.268   4.754
 8952SOL     OW27754   0.807   4.708   4.190
 8952SOL    HW127755   0.862   4.625   4.185
 8952SOL    HW227756   0.818   4.750   4.280
 8953SOL     OW27757   1.389   5.054   1.237
 8953SOL    HW127758   1.415   5.150   1.227
 8953SOL    HW227759   1.352   5.039   1.328
 8954SOL     OW27760   2.321   4.606   5.398
 8954SOL    HW127761   2.386   4.542   5.357
 8954SOL    HW227762   2.243   4.619   5.336
 8955SOL     OW27763   5.484   2.837   5.011
 8955SOL    HW127764   5.428   2.822   4.930
 8955SOL    HW227765   5.432   2.889   5.078
 8956SOL     OW27766   0.508   6.359   0.529
 8956SOL    HW127767   0.577   6.418   0.569
 8956SOL    HW227768   0.417   6.386   0.561
 8957SOL     OW27769   1.053   6.262   2.666
 8957SOL    HW127770   1.146   6.242   2.696
 8957SOL    HW227771   1.047   6.251   2.566
 8958SOL     OW27772   0.998   4.011   5.378
 8958SOL    HW127773   1.015   4.026   5.475
 8958SOL    HW227774   0.929   3.940   5.367
 8959SOL     OW27775   5.887   2.150   3.691
 8959SOL    HW127776   5.893   2.155   3.791
 8959SOL    HW227777   5.959   2.206   3.650
 8960SOL     OW27778   4.547   5.240   3.174
 8960SOL    HW127779   4.627   5.278   3.221
 8960SOL    HW227780   4.544   5.141   3.188
 8961SOL     OW27781   2.861   1.832   4.822
 8961SOL    HW127782   2.919   1.774   4.880
 8961SOL    HW227783   2.895   1.926   4.826
 8962SOL     OW27784   6.502   5.911   2.294
 8962SOL    HW127785   6.516   5.869   2.383
 8962SOL    HW227786   6.421   5.872   2.250
 8963SOL     OW27787   3.672   6.314   6.175
 8963SOL    HW127788   3.743   6.256   6.216
 8963SOL    HW227789   3.587   6.261   6.167
 8964SOL     OW27790   2.096   3.280   4.198
 8964SOL    HW127791   1.997   3.275   4.210
 8964SOL    HW227792   2.126   3.208   4.136
 8965SOL     OW27793   3.680   5.731   0.104
 8965SOL    HW127794   3.589   5.697   0.080
 8965SOL    HW227795   3.710   5.690   0.190
 8966SOL     OW27796   5.379   6.625   5.044
 8966SOL    HW127797   5.323   6.646   4.964
 8966SOL    HW227798   5.347   6.677   5.123
 8967SOL     OW27799   3.267   6.905   3.280
 8967SOL    HW127800   3.291   6.933   3.373
 8967SOL    HW227801   3.173   6.931   3.260
 8968SOL     OW27802   3.413   5.053   2.332
 8968SOL    HW127803   3.459   5.091   2.412
 8968SOL    HW227804   3.420   4.953   2.333
 8969SOL     OW27805   0.520   0.464   2.957
 8969SOL    HW127806   0.589   0.495   3.023
 8969SOL    HW227807   0.429   0.487   2.991
 8970SOL     OW27808   1.797   0.967   3.815
 8970SOL    HW127809   1.720   1.024   3.783
 8970SOL    HW227810   1.870   1.026   3.849
 8971SOL     OW27811   2.698   4.430   0.676
 8971SOL    HW127812   2.793   4.426   0.643
 8971SOL    HW227813   2.638   4.460   0.602
 8972SOL     OW27814   5.485   4.026   6.800
 8972SOL    HW127815   5.439   4.110   6.829
 8972SOL    HW227816   5.546   3.996   6.872
 8973SOL     OW27817   2.073   2.131   3.577
 8973SOL    HW127818   2.136   2.090   3.511
 8973SOL    HW227819   2.012   2.195   3.530
 8974SOL     OW27820   2.186   4.412   4.314
 8974SOL    HW127821   2.154   4.450   4.401
 8974SOL    HW227822   2.215   4.317   4.328
 8975SOL     OW27823   6.769   4.743   5.583
 8975SOL    HW127824   6.825   4.661   5.587
 8975SOL    HW227825   6.677   4.723   5.617
 8976SOL     OW27826   5.879   0.515   2.451
 8976SOL    HW127827   5.802   0.579   2.446
 8976SOL    HW227828   5.847   0.427   2.486
 8977SOL     OW27829   6.219   4.202   6.442
 8977SOL    HW127830   6.286   4.275   6.445
 8977SOL    HW227831   6.133   4.237   6.405
 8978SOL     OW27832   5.970   5.659   6.735
 8978SOL    HW127833   6.058   5.706   6.728
 8978SOL    HW227834   5.948   5.642   6.831
 8979SOL     OW27835   1.572   4.863   4.203
 8979SOL    HW127836   1.587   4.832   4.296
 8979SOL    HW227837   1.567   4.784   4.142
 8980SOL     OW27838   3.521   0.792   0.044
 8980SOL    HW127839   3.608   0.832   0.074
 8980SOL    HW227840   3.451   0.812   0.112
 8981SOL     OW27841   4.358   3.213   6.345
 8981SOL    HW127842   4.382   3.186   6.438
 8981SOL    HW227843   4.259   3.215   6.335
 8982SOL     OW27844   6.863   1.857   1.916
 8982SOL    HW127845   6.878   1.775   1.861
 8982SOL    HW227846   6.782   1.845   1.973
 8983SOL     OW27847   1.675   6.436   2.119
 8983SOL    HW127848   1.699   6.475   2.208
 8983SOL    HW227849   1.615   6.357   2.132
 8984SOL     OW27850   6.907   1.250   4.693
 8984SOL    HW127851   6.876   1.309   4.768
 8984SOL    HW227852   7.005   1.266   4.678
 8985SOL     OW27853   4.984   1.181   2.349
 8985SOL    HW127854   5.021   1.129   2.426
 8985SOL    HW227855   4.885   1.192   2.360
 8986SOL     OW27856   6.488   4.664   0.525
 8986SOL    HW127857   6.518   4.726   0.597
 8986SOL    HW227858   6.526   4.692   0.437
 8987SOL     OW27859   2.110   6.774   1.309
 8987SOL    HW127860   2.086   6.871   1.317
 8987SOL    HW227861   2.176   6.761   1.235
 8988SOL     OW27862   2.966   0.515   1.081
 8988SOL    HW127863   3.024   0.451   1.132
 8988SOL    HW227864   2.930   0.470   1.000
 8989SOL     OW27865   5.655   1.257   2.651
 8989SOL    HW127866   5.648   1.357   2.644
 8989SOL    HW227867   5.742   1.233   2.694
 8990SOL     OW27868   3.183   0.905   2.939
 8990SOL    HW127869   3.188   1.003   2.957
 8990SOL    HW227870   3.258   0.878   2.880
 8991SOL     OW27871   1.267   2.258   0.533
 8991SOL    HW127872   1.266   2.265   0.633
 8991SOL    HW227873   1.326   2.329   0.495
 8992SOL     OW27874   6.436   4.347   6.424
 8992SOL    HW127875   6.508   4.279   6.437
 8992SOL    HW227876   6.453   4.426   6.484
 8993SOL     OW27877   5.169   4.079   4.786
 8993SOL    HW127878   5.184   4.165   4.737
 8993SOL    HW227879   5.087   4.086   4.843
 8994SOL     OW27880   1.617   6.110   2.829
 8994SOL    HW127881   1.600   6.199   2.872
 8994SOL    HW227882   1.574   6.038   2.883
 8995SOL     OW27883   1.876   3.966   4.949
 8995SOL    HW127884   1.959   3.937   4.903
 8995SOL    HW227885   1.862   3.910   5.032
 8996SOL     OW27886   1.386   3.914   1.354
 8996SOL    HW127887   1.431   3.839   1.306
 8996SOL    HW227888   1.435   3.999   1.336
 8997SOL     OW27889   4.494   1.078   5.603
 8997SOL    HW127890   4.592   1.099   5.606
 8997SOL    HW227891   4.466   1.061   5.509
 8998SOL     OW27892   1.357   1.630   6.376
 8998SOL    HW127893   1.439   1.686   6.391
 8998SOL    HW227894   1.381   1.533   6.385
 8999SOL     OW27895   4.924   1.821   5.049
 8999SOL    HW127896   4.997   1.808   4.981
 8999SOL    HW227897   4.964   1.828   5.140
 9000SOL     OW27898   2.880   4.750   0.532
 9000SOL    HW127899   2.871   4.850   0.529
 9000SOL    HW227900   2.912   4.723   0.623
 9001SOL     OW27901   1.962   4.411   3.521
 9001SOL    HW127902   1.935   4.318   3.546
 9001SOL    HW227903   2.062   4.419   3.526
 9002SOL     OW27904   5.365   4.060   4.957
 9002SOL    HW127905   5.446   4.114   4.934
 9002SOL    HW227906   5.296   4.072   4.886
 9003SOL     OW27907   6.090   3.437   6.771
 9003SOL    HW127908   5.998   3.406   6.796
 9003SOL    HW227909   6.091   3.537   6.763
 9004SOL     OW27910   4.466   5.396   0.542
 9004SOL    HW127911   4.493   5.492   0.546
 9004SOL    HW227912   4.434   5.374   0.450
 9005SOL     OW27913   4.489   2.522   3.070
 9005SOL    HW127914   4.543   2.604   3.088
 9005SOL    HW227915   4.514   2.485   2.980
 9006SOL     OW27916   2.520   6.782   0.836
 9006SOL    HW127917   2.465   6.847   0.783
 9006SOL    HW227918   2.471   6.696   0.845
 9007SOL     OW27919   2.349   6.561   4.480
 9007SOL    HW127920   2.415   6.634   4.496
 9007SOL    HW227921   2.343   6.541   4.382
 9008SOL     OW27922   0.153   4.124   2.414
 9008SOL    HW127923   0.163   4.115   2.315
 9008SOL    HW227924   0.184   4.040   2.458
 9009SOL     OW27925   4.581   6.332   0.535
 9009SOL    HW127926   4.519   6.258   0.559
 9009SOL    HW227927   4.673   6.310   0.566
 9010SOL     OW27928   0.519   5.102   5.203
 9010SOL    HW127929   0.607   5.113   5.156
 9010SOL    HW227930   0.463   5.183   5.187
 9011SOL     OW27931   4.522   2.079   2.173
 9011SOL    HW127932   4.535   2.147   2.101
 9011SOL    HW227933   4.424   2.058   2.183
 9012SOL     OW27934   5.657   5.253   2.088
 9012SOL    HW127935   5.593   5.302   2.147
 9012SOL    HW227936   5.751   5.277   2.112
 9013SOL     OW27937   4.170   6.315   2.345
 9013SOL    HW127938   4.127   6.352   2.262
 9013SOL    HW227939   4.153   6.216   2.349
 9014SOL     OW27940   2.121   1.198   1.297
 9014SOL    HW127941   2.142   1.219   1.201
 9014SOL    HW227942   2.113   1.282   1.349
 9015SOL     OW27943   6.200   0.972   4.806
 9015SOL    HW127944   6.196   1.039   4.731
 9015SOL    HW227945   6.262   0.898   4.781
 9016SOL     OW27946   6.789   5.516   6.610
 9016SOL    HW127947   6.758   5.545   6.700
 9016SOL    HW227948   6.812   5.597   6.555
 9017SOL     OW27949   6.947   4.090   3.145
 9017SOL    HW127950   7.019   4.130   3.201
 9017SOL    HW227951   6.882   4.041   3.204
 9018SOL     OW27952   4.015   1.786   6.330
 9018SOL    HW127953   4.113   1.780   6.349
 9018SOL    HW227954   3.989   1.714   6.266
 9019SOL     OW27955   1.385   5.491   0.374
 9019SOL    HW127956   1.286   5.490   0.385
 9019SOL    HW227957   1.407   5.495   0.276
 9020SOL     OW27958   0.805   4.662   3.158
 9020SOL    HW127959   0.817   4.562   3.154
 9020SOL    HW227960   0.811   4.692   3.253
 9021SOL     OW27961   6.226   5.854   5.733
 9021SOL    HW127962   6.306   5.914   5.726
 9021SOL    HW227963   6.149   5.896   5.685
 9022SOL     OW27964   3.614   0.508   6.459
 9022SOL    HW127965   3.696   0.551   6.421
 9022SOL    HW227966   3.596   0.546   6.549
 9023SOL     OW27967   3.240   2.934   3.138
 9023SOL    HW127968   3.166   2.971   3.194
 9023SOL    HW227969   3.305   2.885   3.196
 9024SOL     OW27970   1.207   6.862   0.085
 9024SOL    HW127971   1.254   6.950   0.076
 9024SOL    HW227972   1.189   6.824   7.019
 9025SOL     OW27973   0.240   3.926   0.533
 9025SOL    HW127974   0.199   3.911   0.443
 9025SOL    HW227975   0.225   3.845   0.590
 9026SOL     OW27976   3.074   3.084   5.563
 9026SOL    HW127977   3.071   3.129   5.474
 9026SOL    HW227978   3.005   3.013   5.567
 9027SOL     OW27979   2.548   2.564   3.052
 9027SOL    HW127980   2.498   2.614   3.123
 9027SOL    HW227981   2.621   2.511   3.095
 9028SOL     OW27982   2.838   4.798   4.546
 9028SOL    HW127983   2.743   4.772   4.531
 9028SOL    HW227984   2.843   4.896   4.566
 9029SOL     OW27985   5.814   5.678   2.829
 9029SOL    HW127986   5.910   5.689   2.854
 9029SOL    HW227987   5.807   5.663   2.730
 9030SOL     OW27988   3.448   1.762   1.784
 9030SOL    HW127989   3.384   1.823   1.832
 9030SOL    HW227990   3.512   1.817   1.731
 9031SOL     OW27991   1.641   1.496   1.030
 9031SOL    HW127992   1.572   1.428   1.008
 9031SOL    HW227993   1.598   1.578   1.067
 9032SOL     OW27994   1.068   2.833   2.801
 9032SOL    HW127995   1.016   2.818   2.884
 9032SOL    HW227996   1.017   2.892   2.739
 9033SOL     OW27997   1.195   3.914   1.966
 9033SOL    HW127998   1.144   3.942   1.884
 9033SOL    HW227999   1.276   3.972   1.975
 9034SOL     OW28000   1.233   6.684   6.595
 9034SOL    HW128001   1.286   6.600   6.605
 9034SOL    HW228002   1.199   6.691   6.502
 9035SOL     OW28003   7.022   0.486   4.445
 9035SOL    HW128004   6.932   0.447   4.425
 9035SOL    HW228005   0.036   0.442   4.526
 9036SOL     OW28006   1.783   1.669   4.832
 9036SOL    HW128007   1.743   1.596   4.777
 9036SOL    HW228008   1.747   1.664   4.925
 9037SOL     OW28009   2.700   4.054   5.926
 9037SOL    HW128010   2.721   4.147   5.895
 9037SOL    HW228011   2.624   4.018   5.872
 9038SOL     OW28012   5.019   6.526   5.562
 9038SOL    HW128013   4.993   6.590   5.489
 9038SOL    HW228014   4.983   6.435   5.542
 9039SOL     OW28015   2.132   4.810   6.479
 9039SOL    HW128016   2.142   4.712   6.495
 9039SOL    HW228017   2.218   4.856   6.502
 9040SOL     OW28018   2.927   1.956   2.462
 9040SOL    HW128019   2.923   1.991   2.369
 9040SOL    HW228020   2.853   1.891   2.477
 9041SOL     OW28021   1.866   2.920   6.556
 9041SOL    HW128022   1.960   2.886   6.554
 9041SOL    HW228023   1.833   2.921   6.651
 9042SOL     OW28024   2.504   5.458   3.290
 9042SOL    HW128025   2.520   5.402   3.208
 9042SOL    HW228026   2.464   5.401   3.361
 9043SOL     OW28027   6.510   2.351   0.608
 9043SOL    HW128028   6.436   2.347   0.675
 9043SOL    HW228029   6.583   2.410   0.642
 9044SOL     OW28030   6.490   4.518   0.963
 9044SOL    HW128031   6.408   4.572   0.944
 9044SOL    HW228032   6.507   4.515   1.062
 9045SOL     OW28033   2.728   5.320   4.092
 9045SOL    HW128034   2.822   5.355   4.088
 9045SOL    HW228035   2.670   5.384   4.141
 9046SOL     OW28036   4.031   4.410   5.912
 9046SOL    HW128037   4.050   4.354   5.831
 9046SOL    HW228038   3.958   4.475   5.891
 9047SOL     OW28039   1.303   4.554   4.816
 9047SOL    HW128040   1.243   4.586   4.743
 9047SOL    HW228041   1.248   4.526   4.895
 9048SOL     OW28042   2.076   2.213   4.983
 9048SOL    HW128043   2.150   2.153   4.953
 9048SOL    HW228044   2.078   2.223   5.082
 9049SOL     OW28045   4.857   6.093   6.348
 9049SOL    HW128046   4.837   6.168   6.285
 9049SOL    HW228047   4.954   6.070   6.343
 9050SOL     OW28048   0.107   5.183   5.239
 9050SOL    HW128049   0.018   5.138   5.247
 9050SOL    HW228050   0.130   5.194   5.142
 9051SOL     OW28051   5.349   6.791   6.290
 9051SOL    HW128052   5.442   6.777   6.322
 9051SOL    HW228053   5.331   6.889   6.280
 9052SOL     OW28054   2.293   5.176   4.899
 9052SOL    HW128055   2.294   5.258   4.957
 9052SOL    HW228056   2.365   5.183   4.830
 9053SOL     OW28057   3.032   1.892   3.747
 9053SOL    HW128058   3.050   1.973   3.691
 9053SOL    HW228059   2.936   1.892   3.776
 9054SOL     OW28060   3.024   0.093   0.843
 9054SOL    HW128061   3.019   0.174   0.785
 9054SOL    HW228062   3.119   0.066   0.854
 9055SOL     OW28063   0.451   1.778   4.962
 9055SOL    HW128064   0.486   1.775   4.868
 9055SOL    HW228065   0.403   1.864   4.977
 9056SOL     OW28066   4.887   2.183   2.801
 9056SOL    HW128067   4.790   2.172   2.820
 9056SOL    HW228068   4.933   2.095   2.808
 9057SOL     OW28069   4.847   6.332   6.977
 9057SOL    HW128070   4.928   6.284   7.010
 9057SOL    HW228071   4.836   6.317   6.878
 9058SOL     OW28072   2.316   2.541   3.794
 9058SOL    HW128073   2.226   2.498   3.794
 9058SOL    HW228074   2.307   2.637   3.823
 9059SOL     OW28075   6.792   0.715   2.523
 9059SOL    HW128076   6.745   0.649   2.582
 9059SOL    HW228077   6.891   0.697   2.526
 9060SOL     OW28078   0.875   5.560   1.825
 9060SOL    HW128079   0.950   5.549   1.759
 9060SOL    HW228080   0.913   5.578   1.916
 9061SOL     OW28081   4.998   4.242   2.412
 9061SOL    HW128082   4.920   4.218   2.354
 9061SOL    HW228083   4.988   4.336   2.444
 9062SOL     OW28084   0.418   5.431   2.707
 9062SOL    HW128085   0.320   5.424   2.693
 9062SOL    HW228086   0.441   5.522   2.741
 9063SOL     OW28087   4.400   1.961   1.693
 9063SOL    HW128088   4.424   2.030   1.625
 9063SOL    HW228089   4.472   1.957   1.763
 9064SOL     OW28090   0.575   5.231   3.437
 9064SOL    HW128091   0.662   5.277   3.421
 9064SOL    HW228092   0.507   5.298   3.466
 9065SOL     OW28093   3.186   4.080   6.087
 9065SOL    HW128094   3.129   4.022   6.146
 9065SOL    HW228095   3.139   4.166   6.071
 9066SOL     OW28096   4.621   5.084   4.276
 9066SOL    HW128097   4.537   5.067   4.225
 9066SOL    HW228098   4.662   5.170   4.246
 9067SOL     OW28099   1.089   6.238   4.597
 9067SOL    HW128100   1.055   6.322   4.639
 9067SOL    HW228101   1.116   6.257   4.503
 9068SOL     OW28102   4.310   0.153   5.896
 9068SOL    HW128103   4.269   0.189   5.979
 9068SOL    HW228104   4.242   0.097   5.847
 9069SOL     OW28105   4.737   2.726   1.301
 9069SOL    HW128106   4.670   2.724   1.227
 9069SOL    HW228107   4.829   2.716   1.263
 9070SOL     OW28108   2.266   1.183   5.666
 9070SOL    HW128109   2.351   1.230   5.686
 9070SOL    HW228110   2.191   1.227   5.716
 9071SOL     OW28111   6.002   2.595   6.493
 9071SOL    HW128112   6.013   2.565   6.398
 9071SOL    HW228113   5.904   2.597   6.516
 9072SOL     OW28114   5.251   0.413   2.791
 9072SOL    HW128115   5.179   0.431   2.857
 9072SOL    HW228116   5.252   0.315   2.768
 9073SOL     OW28117   4.864   2.571   4.709
 9073SOL    HW128118   4.779   2.518   4.713
 9073SOL    HW228119   4.843   2.667   4.692
 9074SOL     OW28120   1.875   1.108   2.786
 9074SOL    HW128121   1.827   1.021   2.776
 9074SOL    HW228122   1.808   1.183   2.786
 9075SOL     OW28123   5.828   5.919   1.108
 9075SOL    HW128124   5.838   5.976   1.189
 9075SOL    HW228125   5.770   5.966   1.041
 9076SOL     OW28126   0.309   6.784   2.333
 9076SOL    HW128127   0.260   6.779   2.420
 9076SOL    HW228128   0.251   6.747   2.261
 9077SOL     OW28129   6.555   1.918   6.971
 9077SOL    HW128130   6.524   1.953   0.035
 9077SOL    HW228131   6.483   1.932   6.903
 9078SOL     OW28132   4.974   0.006   0.033
 9078SOL    HW128133   4.970   0.104   0.017
 9078SOL    HW228134   4.992   7.014   0.130
 9079SOL     OW28135   1.566   1.218   6.539
 9079SOL    HW128136   1.632   1.240   6.611
 9079SOL    HW228137   1.487   1.279   6.546
 9080SOL     OW28138   6.276   3.889   2.169
 9080SOL    HW128139   6.304   3.931   2.082
 9080SOL    HW228140   6.237   3.959   2.228
 9081SOL     OW28141   5.504   1.187   0.683
 9081SOL    HW128142   5.444   1.162   0.608
 9081SOL    HW228143   5.466   1.265   0.733
 9082SOL     OW28144   3.091   5.947   6.361
 9082SOL    HW128145   3.108   6.012   6.286
 9082SOL    HW228146   3.052   5.863   6.324
 9083SOL     OW28147   3.972   6.202   0.368
 9083SOL    HW128148   3.953   6.145   0.448
 9083SOL    HW228149   4.062   6.180   0.331
 9084SOL     OW28150   0.172   3.240   4.963
 9084SOL    HW128151   0.215   3.174   5.026
 9084SOL    HW228152   0.240   3.309   4.937
 9085SOL     OW28153   2.611   4.993   0.429
 9085SOL    HW128154   2.549   5.056   0.382
 9085SOL    HW228155   2.596   4.900   0.396
 9086SOL     OW28156   0.070   3.895   0.962
 9086SOL    HW128157   0.019   3.910   0.877
 9086SOL    HW228158   0.146   3.961   0.967
 9087SOL     OW28159   5.712   0.688   1.576
 9087SOL    HW128160   5.730   0.593   1.603
 9087SOL    HW228161   5.716   0.747   1.657
 9088SOL     OW28162   6.251   6.228   0.529
 9088SOL    HW128163   6.308   6.255   0.606
 9088SOL    HW228164   6.309   6.211   0.449
 9089SOL     OW28165   5.935   5.522   3.102
 9089SOL    HW128166   5.920   5.565   3.013
 9089SOL    HW228167   5.852   5.528   3.157
 9090SOL     OW28168   5.160   5.910   5.874
 9090SOL    HW128169   5.089   5.846   5.846
 9090SOL    HW228170   5.129   5.964   5.952
 9091SOL     OW28171   2.249   1.919   1.617
 9091SOL    HW128172   2.337   1.903   1.571
 9091SOL    HW228173   2.221   1.835   1.663
 9092SOL     OW28174   2.434   0.978   5.356
 9092SOL    HW128175   2.459   1.071   5.381
 9092SOL    HW228176   2.361   0.945   5.417
 9093SOL     OW28177   2.144   3.952   0.880
 9093SOL    HW128178   2.092   3.950   0.795
 9093SOL    HW228179   2.234   3.910   0.865
 9094SOL     OW28180   6.440   4.240   1.623
 9094SOL    HW128181   6.453   4.325   1.571
 9094SOL    HW228182   6.345   4.233   1.652
 9095SOL     OW28183   2.925   3.078   0.460
 9095SOL    HW128184   2.906   3.160   0.514
 9095SOL    HW228185   2.846   3.058   0.401
 9096SOL     OW28186   5.855   3.051   3.285
 9096SOL    HW128187   5.917   2.998   3.343
 9096SOL    HW228188   5.884   3.147   3.285
 9097SOL     OW28189   0.639   5.026   5.842
 9097SOL    HW128190   0.676   5.100   5.899
 9097SOL    HW228191   0.587   4.963   5.900
 9098SOL     OW28192   3.695   3.492   3.687
 9098SOL    HW128193   3.682   3.399   3.652
 9098SOL    HW228194   3.700   3.489   3.787
 9099SOL     OW28195   2.050   2.848   0.365
 9099SOL    HW128196   2.145   2.877   0.374
 9099SOL    HW228197   2.043   2.751   0.385
 9100SOL     OW28198   1.103   3.231   0.515
 9100SOL    HW128199   1.040   3.308   0.506
 9100SOL    HW228200   1.128   3.198   0.424
 9101SOL     OW28201   2.339   1.934   6.735
 9101SOL    HW128202   2.375   1.956   6.644
 9101SOL    HW228203   2.313   2.018   6.782
 9102SOL     OW28204   4.342   5.699   2.309
 9102SOL    HW128205   4.261   5.739   2.266
 9102SOL    HW228206   4.346   5.602   2.288
 9103SOL     OW28207   0.229   3.853   6.435
 9103SOL    HW128208   0.144   3.868   6.484
 9103SOL    HW228209   0.305   3.852   6.500
 9104SOL     OW28210   3.904   6.554   1.808
 9104SOL    HW128211   3.966   6.630   1.790
 9104SOL    HW228212   3.893   6.499   1.725
 9105SOL     OW28213   2.538   1.642   5.428
 9105SOL    HW128214   2.448   1.606   5.405
 9105SOL    HW228215   2.549   1.642   5.528
 9106SOL     OW28216   6.537   5.198   1.196
 9106SOL    HW128217   6.585   5.279   1.229
 9106SOL    HW228218   6.534   5.130   1.269
 9107SOL     OW28219   4.482   0.810   1.553
 9107SOL    HW128220   4.467   0.736   1.618
 9107SOL    HW228221   4.579   0.813   1.528
 9108SOL     OW28222   4.630   5.426   6.619
 9108SOL    HW128223   4.614   5.366   6.540
 9108SOL    HW228224   4.705   5.389   6.674
 9109SOL     OW28225   2.894   2.063   4.418
 9109SOL    HW128226   2.936   1.984   4.373
 9109SOL    HW228227   2.941   2.080   4.504
 9110SOL     OW28228   1.805   3.443   3.136
 9110SOL    HW128229   1.795   3.421   3.039
 9110SOL    HW228230   1.900   3.466   3.156
 9111SOL     OW28231   4.076   4.314   1.662
 9111SOL    HW128232   4.105   4.407   1.685
 9111SOL    HW228233   4.145   4.248   1.693
 9112SOL     OW28234   6.979   5.111   2.737
 9112SOL    HW128235   7.014   5.137   2.647
 9112SOL    HW228236   0.026   5.063   2.788
 9113SOL     OW28237   3.382   6.518   0.315
 9113SOL    HW128238   3.366   6.458   0.236
 9113SOL    HW228239   3.477   6.547   0.316
 9114SOL     OW28240   2.405   4.381   1.754
 9114SOL    HW128241   2.348   4.339   1.825
 9114SOL    HW228242   2.470   4.445   1.796
 9115SOL     OW28243   1.528   4.340   4.380
 9115SOL    HW128244   1.527   4.298   4.289
 9115SOL    HW228245   1.622   4.358   4.407
 9116SOL     OW28246   1.561   1.366   6.114
 9116SOL    HW128247   1.553   1.289   6.178
 9116SOL    HW228248   1.503   1.349   6.034
 9117SOL     OW28249   6.686   3.032   6.971
 9117SOL    HW128250   6.706   3.076   0.034
 9117SOL    HW228251   6.627   2.953   6.986
 9118SOL     OW28252   6.310   5.938   1.829
 9118SOL    HW128253   6.389   5.882   1.854
 9118SOL    HW228254   6.333   5.996   1.751
 9119SOL     OW28255   6.839   0.329   1.348
 9119SOL    HW128256   6.792   0.241   1.350
 9119SOL    HW228257   6.808   0.385   1.425
 9120SOL     OW28258   5.682   1.405   6.221
 9120SOL    HW128259   5.591   1.427   6.186
 9120SOL    HW228260   5.684   1.419   6.320
 9121SOL     OW28261   1.083   1.227   6.735
 9121SOL    HW128262   0.985   1.208   6.743
 9121SOL    HW228263   1.116   1.270   6.819
 9122SOL     OW28264   0.839   2.546   1.756
 9122SOL    HW128265   0.907   2.611   1.722
 9122SOL    HW228266   0.757   2.550   1.700
 9123SOL     OW28267   2.595   5.490   0.031
 9123SOL    HW128268   2.603   5.391   0.017
 9123SOL    HW228269   2.687   5.528   0.044
 9124SOL     OW28270   6.280   5.614   5.137
 9124SOL    HW128271   6.267   5.544   5.067
 9124SOL    HW228272   6.285   5.704   5.094
 9125SOL     OW28273   5.064   5.303   3.445
 9125SOL    HW128274   4.991   5.305   3.377
 9125SOL    HW228275   5.051   5.224   3.506
 9126SOL     OW28276   6.112   0.706   1.380
 9126SOL    HW128277   6.096   0.782   1.442
 9126SOL    HW228278   6.085   0.733   1.287
 9127SOL     OW28279   5.060   1.024   0.106
 9127SOL    HW128280   5.104   0.957   0.046
 9127SOL    HW228281   5.005   0.976   0.175
 9128SOL     OW28282   4.440   2.465   4.882
 9128SOL    HW128283   4.346   2.483   4.911
 9128SOL    HW228284   4.478   2.390   4.935
 9129SOL     OW28285   2.246   2.246   6.116
 9129SOL    HW128286   2.275   2.165   6.167
 9129SOL    HW228287   2.152   2.270   6.142
 9130SOL     OW28288   5.988   4.697   0.794
 9130SOL    HW128289   5.934   4.622   0.832
 9130SOL    HW228290   5.959   4.783   0.836
 9131SOL     OW28291   0.899   4.272   4.444
 9131SOL    HW128292   0.833   4.235   4.509
 9131SOL    HW228293   0.927   4.200   4.381
 9132SOL     OW28294   7.017   2.936   4.488
 9132SOL    HW128295   7.009   2.840   4.463
 9132SOL    HW228296   0.039   2.945   4.576
 9133SOL     OW28297   1.858   4.150   1.119
 9133SOL    HW128298   1.854   4.155   1.019
 9133SOL    HW228299   1.822   4.234   1.158
 9134SOL     OW28300   2.749   5.887   6.035
 9134SOL    HW128301   2.669   5.942   6.059
 9134SOL    HW228302   2.811   5.941   5.979
 9135SOL     OW28303   6.787   6.615   4.859
 9135SOL    HW128304   6.715   6.655   4.802
 9135SOL    HW228305   6.869   6.602   4.804
 9136SOL     OW28306   4.592   4.930   5.244
 9136SOL    HW128307   4.654   4.994   5.199
 9136SOL    HW228308   4.609   4.932   5.343
 9137SOL     OW28309   4.118   1.341   1.782
 9137SOL    HW128310   4.027   1.299   1.782
 9137SOL    HW228311   4.144   1.363   1.876
 9138SOL     OW28312   3.872   5.139   6.962
 9138SOL    HW128313   3.857   5.092   0.024
 9138SOL    HW228314   3.860   5.073   6.887
 9139SOL     OW28315   2.919   1.400   5.520
 9139SOL    HW128316   2.941   1.303   5.509
 9139SOL    HW228317   2.997   1.455   5.490
 9140SOL     OW28318   6.857   1.948   2.797
 9140SOL    HW128319   6.850   1.848   2.805
 9140SOL    HW228320   6.919   1.983   2.867
 9141SOL     OW28321   5.953   0.227   6.180
 9141SOL    HW128322   5.944   0.326   6.170
 9141SOL    HW228323   5.900   0.181   6.110
 9142SOL     OW28324   7.022   3.121   5.523
 9142SOL    HW128325   6.996   3.217   5.528
 9142SOL    HW228326   0.053   3.097   5.603
 9143SOL     OW28327   4.467   4.212   0.587
 9143SOL    HW128328   4.566   4.198   0.588
 9143SOL    HW228329   4.426   4.172   0.669
 9144SOL     OW28330   1.980   4.817   5.596
 9144SOL    HW128331   2.077   4.796   5.588
 9144SOL    HW228332   1.968   4.907   5.637
 9145SOL     OW28333   0.111   4.844   6.442
 9145SOL    HW128334   0.166   4.899   6.379
 9145SOL    HW228335   0.018   4.836   6.407
 9146SOL     OW28336   6.217   2.036   2.259
 9146SOL    HW128337   6.144   2.054   2.193
 9146SOL    HW228338   6.306   2.055   2.216
 9147SOL     OW28339   3.795   5.917   5.373
 9147SOL    HW128340   3.856   5.898   5.449
 9147SOL    HW228341   3.703   5.885   5.396
 9148SOL     OW28342   4.200   5.529   3.481
 9148SOL    HW128343   4.195   5.624   3.510
 9148SOL    HW228344   4.219   5.525   3.383
 9149SOL     OW28345   5.801   3.456   4.112
 9149SOL    HW128346   5.852   3.533   4.149
 9149SOL    HW228347   5.752   3.410   4.186
 9150SOL     OW28348   4.931   0.374   3.084
 9150SOL    HW128349   5.015   0.320   3.076
 9150SOL    HW228350   4.858   0.315   3.120
 9151SOL     OW28351   1.584   4.495   1.940
 9151SOL    HW128352   1.547   4.403   1.958
 9151SOL    HW228353   1.595   4.507   1.841
 9152SOL     OW28354   1.881   5.858   3.242
 9152SOL    HW128355   1.824   5.776   3.236
 9152SOL    HW228356   1.950   5.845   3.313
 9153SOL     OW28357   1.958   3.032   6.249
 9153SOL    HW128358   2.047   2.988   6.249
 9153SOL    HW228359   1.898   2.987   6.315
 9154SOL     OW28360   2.119   5.742   0.439
 9154SOL    HW128361   2.149   5.833   0.414
 9154SOL    HW228362   2.169   5.674   0.385
 9155SOL     OW28363   1.179   4.010   0.460
 9155SOL    HW128364   1.208   4.010   0.364
 9155SOL    HW228365   1.096   3.954   0.469
 9156SOL     OW28366   4.587   2.286   1.300
 9156SOL    HW128367   4.513   2.353   1.296
 9156SOL    HW228368   4.601   2.257   1.395
 9157SOL     OW28369   5.160   4.057   5.845
 9157SOL    HW128370   5.118   4.077   5.756
 9157SOL    HW228371   5.089   4.031   5.910
 9158SOL     OW28372   1.022   3.853   4.137
 9158SOL    HW128373   0.986   3.914   4.066
 9158SOL    HW228374   1.051   3.767   4.096
 9159SOL     OW28375   6.978   4.853   3.162
 9159SOL    HW128376   6.906   4.912   3.126
 9159SOL    HW228377   0.042   4.899   3.153
 9160SOL     OW28378   0.639   7.002   0.066
 9160SOL    HW128379   0.644   0.002   0.163
 9160SOL    HW228380   0.675   6.910   0.053
 9161SOL     OW28381   4.982   4.175   4.477
 9161SOL    HW128382   5.072   4.190   4.518
 9161SOL    HW228383   4.993   4.146   4.382
 9162SOL     OW28384   4.801   2.744   2.418
 9162SOL    HW128385   4.758   2.703   2.499
 9162SOL    HW228386   4.791   2.844   2.423
 9163SOL     OW28387   2.934   2.282   3.756
 9163SOL    HW128388   2.951   2.378   3.736
 9163SOL    HW228389   2.877   2.274   3.838
 9164SOL     OW28390   3.252   0.527   6.972
 9164SOL    HW128391   3.225   0.432   6.984
 9164SOL    HW228392   3.188   0.587   7.020
 9165SOL     OW28393   5.988   0.091   6.943
 9165SOL    HW128394   6.044   0.045   7.012
 9165SOL    HW228395   6.021   0.185   6.932
 9166SOL     OW28396   2.813   5.589   1.018
 9166SOL    HW128397   2.834   5.681   0.987
 9166SOL    HW228398   2.890   5.553   1.072
 9167SOL     OW28399   1.508   4.288   5.576
 9167SOL    HW128400   1.568   4.366   5.594
 9167SOL    HW228401   1.413   4.318   5.578
 9168SOL     OW28402   2.450   0.601   6.390
 9168SOL    HW128403   2.418   0.647   6.306
 9168SOL    HW228404   2.418   0.506   6.389
 9169SOL     OW28405   0.418   0.754   3.595
 9169SOL    HW128406   0.441   0.817   3.670
 9169SOL    HW228407   0.459   0.788   3.510
 9170SOL     OW28408   6.940   5.721   6.993
 9170SOL    HW128409   6.959   5.732   0.066
 9170SOL    HW228410   6.985   5.794   6.942
 9171SOL     OW28411   2.865   5.576   0.071
 9171SOL    HW128412   2.888   5.661   0.022
 9171SOL    HW228413   2.947   5.541   0.116
 9172SOL     OW28414   3.037   1.515   3.869
 9172SOL    HW128415   3.059   1.506   3.772
 9172SOL    HW228416   3.093   1.588   3.909
 9173SOL     OW28417   0.181   5.280   3.893
 9173SOL    HW128418   0.141   5.230   3.971
 9173SOL    HW228419   0.233   5.358   3.926
 9174SOL     OW28420   0.141   4.896   0.392
 9174SOL    HW128421   0.164   4.814   0.338
 9174SOL    HW228422   0.225   4.949   0.408
 9175SOL     OW28423   1.964   5.817   6.131
 9175SOL    HW128424   1.886   5.871   6.162
 9175SOL    HW228425   2.025   5.799   6.208
 9176SOL     OW28426   2.093   6.952   5.884
 9176SOL    HW128427   2.129   0.018   5.861
 9176SOL    HW228428   2.037   6.958   5.966
 9177SOL     OW28429   1.064   4.236   3.370
 9177SOL    HW128430   1.003   4.262   3.295
 9177SOL    HW228431   1.135   4.306   3.380
 9178SOL     OW28432   1.965   4.962   0.581
 9178SOL    HW128433   2.060   4.939   0.603
 9178SOL    HW228434   1.964   5.035   0.512
 9179SOL     OW28435   3.220   4.958   4.125
 9179SOL    HW128436   3.126   4.924   4.137
 9179SOL    HW228437   3.250   5.004   4.209
 9180SOL     OW28438   5.534   2.199   3.924
 9180SOL    HW128439   5.445   2.154   3.930
 9180SOL    HW228440   5.562   2.203   3.828
 9181SOL     OW28441   4.541   2.114   2.502
 9181SOL    HW128442   4.628   2.081   2.538
 9181SOL    HW228443   4.556   2.156   2.413
 9182SOL     OW28444   0.985   6.350   1.662
 9182SOL    HW128445   1.032   6.379   1.579
 9182SOL    HW228446   0.887   6.344   1.644
 9183SOL     OW28447   5.375   6.731   1.022
 9183SOL    HW128448   5.382   6.640   0.982
 9183SOL    HW228449   5.375   6.800   0.949
 9184SOL     OW28450   4.932   0.201   0.866
 9184SOL    HW128451   4.924   0.300   0.882
 9184SOL    HW228452   4.956   0.185   0.771
 9185SOL     OW28453   3.768   0.763   5.154
 9185SOL    HW128454   3.760   0.677   5.103
 9185SOL    HW228455   3.728   0.837   5.100
 9186SOL     OW28456   6.257   1.221   5.767
 9186SOL    HW128457   6.302   1.153   5.824
 9186SOL    HW228458   6.325   1.282   5.727
 9187SOL     OW28459   2.587   6.745   2.026
 9187SOL    HW128460   2.545   6.836   2.030
 9187SOL    HW228461   2.520   6.679   1.993
 9188SOL     OW28462   2.296   6.673   1.105
 9188SOL    HW128463   2.292   6.596   1.041
 9188SOL    HW228464   2.370   6.657   1.171
 9189SOL     OW28465   5.325   5.369   2.626
 9189SOL    HW128466   5.408   5.323   2.596
 9189SOL    HW228467   5.281   5.316   2.697
 9190SOL     OW28468   1.707   4.962   0.656
 9190SOL    HW128469   1.703   5.052   0.697
 9190SOL    HW228470   1.795   4.949   0.610
 9191SOL     OW28471   6.650   0.577   5.915
 9191SOL    HW128472   6.696   0.515   5.851
 9191SOL    HW228473   6.676   0.671   5.895
 9192SOL     OW28474   6.971   4.419   4.372
 9192SOL    HW128475   0.040   4.388   4.357
 9192SOL    HW228476   6.936   4.461   4.288
 9193SOL     OW28477   2.741   3.519   0.039
 9193SOL    HW128478   2.756   3.603   0.091
 9193SOL    HW228479   2.826   3.466   0.038
 9194SOL     OW28480   3.498   0.691   4.002
 9194SOL    HW128481   3.496   0.630   3.922
 9194SOL    HW228482   3.483   0.785   3.973
 9195SOL     OW28483   1.632   2.008   4.154
 9195SOL    HW128484   1.725   2.043   4.143
 9195SOL    HW228485   1.567   2.083   4.156
 9196SOL     OW28486   4.731   2.007   5.052
 9196SOL    HW128487   4.740   2.068   5.131
 9196SOL    HW228488   4.794   1.930   5.062
 9197SOL     OW28489   2.284   3.619   1.630
 9197SOL    HW128490   2.315   3.574   1.714
 9197SOL    HW228491   2.188   3.647   1.640
 9198SOL     OW28492   6.168   5.087   4.738
 9198SOL    HW128493   6.161   5.037   4.652
 9198SOL    HW228494   6.215   5.173   4.722
 9199SOL     OW28495   6.803   4.247   5.445
 9199SOL    HW128496   6.834   4.333   5.485
 9199SOL    HW228497   6.796   4.257   5.346
 9200SOL     OW28498   3.535   0.070   0.618
 9200SOL    HW128499   3.538   0.034   0.525
 9200SOL    HW228500   3.463   0.140   0.624
 9201SOL     OW28501   1.519   4.190   0.303
 9201SOL    HW128502   1.584   4.266   0.296
 9201SOL    HW228503   1.550   4.126   0.373
 9202SOL     OW28504   2.155   0.480   3.196
 9202SOL    HW128505   2.229   0.543   3.221
 9202SOL    HW228506   2.121   0.434   3.278
 9203SOL     OW28507   6.527   5.562   0.517
 9203SOL    HW128508   6.451   5.499   0.536
 9203SOL    HW228509   6.544   5.564   0.419
 9204SOL     OW28510   5.270   1.372   6.370
 9204SOL    HW128511   5.295   1.304   6.301
 9204SOL    HW228512   5.266   1.329   6.460
 9205SOL     OW28513   6.633   3.307   2.856
 9205SOL    HW128514   6.684   3.383   2.817
 9205SOL    HW228515   6.535   3.324   2.846
 9206SOL     OW28516   4.120   6.137   0.666
 9206SOL    HW128517   4.046   6.076   0.636
 9206SOL    HW228518   4.123   6.140   0.766
 9207SOL     OW28519   5.108   5.349   0.421
 9207SOL    HW128520   5.201   5.368   0.391
 9207SOL    HW228521   5.045   5.414   0.379
 9208SOL     OW28522   1.117   3.633   3.561
 9208SOL    HW128523   1.195   3.572   3.548
 9208SOL    HW228524   1.146   3.717   3.606
 9209SOL     OW28525   2.921   1.278   6.401
 9209SOL    HW128526   2.884   1.311   6.314
 9209SOL    HW228527   2.944   1.356   6.459
 9210SOL     OW28528   6.614   1.044   3.706
 9210SOL    HW128529   6.579   1.028   3.798
 9210SOL    HW228530   6.581   0.971   3.645
 9211SOL     OW28531   0.437   1.513   3.403
 9211SOL    HW128532   0.458   1.429   3.452
 9211SOL    HW228533   0.506   1.530   3.333
 9212SOL     OW28534   3.172   5.250   4.927
 9212SOL    HW128535   3.088   5.305   4.930
 9212SOL    HW228536   3.250   5.307   4.954
 9213SOL     OW28537   5.994   3.710   6.221
 9213SOL    HW128538   6.044   3.648   6.282
 9213SOL    HW228539   5.933   3.768   6.276
 9214SOL     OW28540   0.468   5.594   0.761
 9214SOL    HW128541   0.526   5.592   0.679
 9214SOL    HW228542   0.520   5.561   0.839
 9215SOL     OW28543   0.926   1.055   0.271
 9215SOL    HW128544   1.001   1.059   0.337
 9215SOL    HW228545   0.902   0.959   0.253
 9216SOL     OW28546   2.242   6.735   2.795
 9216SOL    HW128547   2.329   6.708   2.838
 9216SOL    HW228548   2.217   6.827   2.826
 9217SOL     OW28549   1.583   2.326   6.273
 9217SOL    HW128550   1.597   2.231   6.299
 9217SOL    HW228551   1.657   2.355   6.211
 9218SOL     OW28552   3.167   0.468   0.455
 9218SOL    HW128553   3.081   0.447   0.407
 9218SOL    HW228554   3.192   0.563   0.440
 9219SOL     OW28555   0.262   2.235   1.154
 9219SOL    HW128556   0.261   2.136   1.150
 9219SOL    HW228557   0.193   2.272   1.091
 9220SOL     OW28558   3.597   6.468   1.751
 9220SOL    HW128559   3.543   6.386   1.736
 9220SOL    HW228560   3.637   6.465   1.843
 9221SOL     OW28561   2.411   5.534   4.075
 9221SOL    HW128562   2.376   5.462   4.135
 9221SOL    HW228563   2.399   5.623   4.120
 9222SOL     OW28564   2.704   1.926   5.980
 9222SOL    HW128565   2.802   1.917   5.999
 9222SOL    HW228566   2.690   1.987   5.902
 9223SOL     OW28567   2.477   2.754   5.306
 9223SOL    HW128568   2.433   2.708   5.229
 9223SOL    HW228569   2.504   2.847   5.280
 9224SOL     OW28570   2.080   5.260   4.738
 9224SOL    HW128571   2.149   5.221   4.799
 9224SOL    HW228572   2.037   5.339   4.782
 9225SOL     OW28573   2.373   5.752   6.773
 9225SOL    HW128574   2.395   5.847   6.794
 9225SOL    HW228575   2.455   5.695   6.782
 9226SOL     OW28576   4.959   0.071   1.149
 9226SOL    HW128577   4.922   7.004   1.134
 9226SOL    HW228578   4.985   0.112   1.062
 9227SOL     OW28579   1.999   5.678   2.875
 9227SOL    HW128580   2.074   5.727   2.918
 9227SOL    HW228581   2.030   5.637   2.789
 9228SOL     OW28582   1.358   0.487   6.891
 9228SOL    HW128583   1.358   0.575   6.845
 9228SOL    HW228584   1.445   0.440   6.873
 9229SOL     OW28585   0.555   5.607   4.763
 9229SOL    HW128586   0.630   5.549   4.792
 9229SOL    HW228587   0.583   5.661   4.683
 9230SOL     OW28588   5.695   0.681   4.167
 9230SOL    HW128589   5.627   0.612   4.194
 9230SOL    HW228590   5.652   0.771   4.166
 9231SOL     OW28591   1.373   2.591   4.195
 9231SOL    HW128592   1.358   2.631   4.105
 9231SOL    HW228593   1.329   2.501   4.199
 9232SOL     OW28594   3.588   4.624   0.899
 9232SOL    HW128595   3.536   4.687   0.842
 9232SOL    HW228596   3.682   4.657   0.907
 9233SOL     OW28597   5.767   4.872   0.393
 9233SOL    HW128598   5.827   4.793   0.397
 9233SOL    HW228599   5.709   4.874   0.475
 9234SOL     OW28600   2.282   5.881   3.538
 9234SOL    HW128601   2.318   5.819   3.608
 9234SOL    HW228602   2.305   5.975   3.562
 9235SOL     OW28603   0.879   2.272   2.837
 9235SOL    HW128604   0.806   2.339   2.831
 9235SOL    HW228605   0.956   2.310   2.888
 9236SOL     OW28606   3.047   3.372   5.141
 9236SOL    HW128607   3.081   3.287   5.099
 9236SOL    HW228608   2.984   3.417   5.079
 9237SOL     OW28609   1.877   4.081   3.913
 9237SOL    HW128610   1.824   4.006   3.953
 9237SOL    HW228611   1.873   4.074   3.814
 9238SOL     OW28612   4.613   2.862   6.062
 9238SOL    HW128613   4.608   2.914   6.147
 9238SOL    HW228614   4.602   2.924   5.984
 9239SOL     OW28615   0.967   4.201   0.822
 9239SOL    HW128616   0.937   4.164   0.734
 9239SOL    HW228617   0.887   4.215   0.881
 9240SOL     OW28618   4.384   1.786   1.991
 9240SOL    HW128619   4.451   1.816   2.059
 9240SOL    HW228620   4.299   1.838   2.002
 9241SOL     OW28621   0.687   5.658   6.792
 9241SOL    HW128622   0.771   5.670   6.739
 9241SOL    HW228623   0.710   5.635   6.886
 9242SOL     OW28624   6.226   6.120   1.992
 9242SOL    HW128625   6.245   6.045   1.929
 9242SOL    HW228626   6.310   6.174   2.006
 9243SOL     OW28627   6.473   5.629   4.879
 9243SOL    HW128628   6.547   5.687   4.844
 9243SOL    HW228629   6.397   5.687   4.909
 9244SOL     OW28630   3.621   5.000   6.071
 9244SOL    HW128631   3.634   5.081   6.014
 9244SOL    HW228632   3.631   5.025   6.167
 9245SOL     OW28633   0.417   5.789   1.600
 9245SOL    HW128634   0.419   5.755   1.693
 9245SOL    HW228635   0.505   5.772   1.556
 9246SOL     OW28636   6.847   5.336   4.065
 9246SOL    HW128637   6.754   5.354   4.097
 9246SOL    HW228638   6.910   5.401   4.107
 9247SOL     OW28639   1.717   6.728   2.578
 9247SOL    HW128640   1.640   6.764   2.630
 9247SOL    HW228641   1.697   6.634   2.550
 9248SOL     OW28642   3.035   1.924   6.569
 9248SOL    HW128643   3.043   1.914   6.668
 9248SOL    HW228644   3.021   2.021   6.546
 9249SOL     OW28645   4.559   0.284   3.795
 9249SOL    HW128646   4.610   0.284   3.881
 9249SOL    HW228647   4.560   0.376   3.756
 9250SOL     OW28648   5.562   3.495   3.600
 9250SOL    HW128649   5.474   3.463   3.636
 9250SOL    HW228650   5.613   3.540   3.672
 9251SOL     OW28651   3.265   2.107   2.556
 9251SOL    HW128652   3.184   2.161   2.581
 9251SOL    HW228653   3.298   2.137   2.467
 9252SOL     OW28654   0.209   0.138   5.134
 9252SOL    HW128655   0.289   0.114   5.190
 9252SOL    HW228656   0.240   0.177   5.047
 9253SOL     OW28657   1.547   0.035   6.013
 9253SOL    HW128658   1.608   6.981   6.014
 9253SOL    HW228659   1.500   0.042   6.101
 9254SOL     OW28660   5.908   3.882   1.413
 9254SOL    HW128661   5.996   3.876   1.367
 9254SOL    HW228662   5.903   3.811   1.484
 9255SOL     OW28663   5.413   4.356   0.854
 9255SOL    HW128664   5.392   4.445   0.895
 9255SOL    HW228665   5.459   4.369   0.767
 9256SOL     OW28666   4.410   4.714   2.024
 9256SOL    HW128667   4.484   4.647   2.031
 9256SOL    HW228668   4.359   4.717   2.109
 9257SOL     OW28669   1.195   4.302   1.352
 9257SOL    HW128670   1.170   4.210   1.323
 9257SOL    HW228671   1.181   4.366   1.276
 9258SOL     OW28672   3.905   3.428   3.374
 9258SOL    HW128673   3.872   3.509   3.422
 9258SOL    HW228674   3.839   3.353   3.387
 9259SOL     OW28675   1.163   2.760   0.669
 9259SOL    HW128676   1.064   2.746   0.681
 9259SOL    HW228677   1.213   2.703   0.733
 9260SOL     OW28678   5.256   3.493   5.892
 9260SOL    HW128679   5.232   3.476   5.988
 9260SOL    HW228680   5.345   3.538   5.887
 9261SOL     OW28681   4.592   0.151   6.519
 9261SOL    HW128682   4.580   0.203   6.604
 9261SOL    HW228683   4.689   0.148   6.494
 9262SOL     OW28684   4.838   1.533   5.663
 9262SOL    HW128685   4.850   1.455   5.725
 9262SOL    HW228686   4.883   1.613   5.703
 9263SOL     OW28687   5.104   3.621   1.797
 9263SOL    HW128688   5.164   3.668   1.862
 9263SOL    HW228689   5.034   3.569   1.848
 9264SOL     OW28690   6.589   3.795   7.014
 9264SOL    HW128691   6.642   3.880   7.016
 9264SOL    HW228692   6.571   3.765   0.083
 9265SOL     OW28693   2.433   1.459   0.295
 9265SOL    HW128694   2.341   1.494   0.278
 9265SOL    HW228695   2.447   1.450   0.394
 9266SOL     OW28696   2.014   6.472   3.231
 9266SOL    HW128697   2.029   6.506   3.138
 9266SOL    HW228698   2.028   6.373   3.234
 9267SOL     OW28699   0.868   4.835   4.427
 9267SOL    HW128700   0.964   4.834   4.457
 9267SOL    HW228701   0.835   4.929   4.421
 9268SOL     OW28702   0.672   6.975   2.956
 9268SOL    HW128703   0.743   6.963   2.887
 9268SOL    HW228704   0.585   6.940   2.921
 9269SOL     OW28705   3.270   1.596   6.277
 9269SOL    HW128706   3.227   1.590   6.367
 9269SOL    HW228707   3.299   1.505   6.248
 9270SOL     OW28708   6.912   6.994   6.254
 9270SOL    HW128709   7.002   0.001   6.223
 9270SOL    HW228710   6.842   0.007   6.193
 9271SOL     OW28711   1.767   5.224   0.687
 9271SOL    HW128712   1.815   5.286   0.625
 9271SOL    HW228713   1.668   5.238   0.678
 9272SOL     OW28714   2.587   4.740   5.779
 9272SOL    HW128715   2.569   4.827   5.825
 9272SOL    HW228716   2.553   4.744   5.685
 9273SOL     OW28717   3.940   5.642   4.672
 9273SOL    HW128718   3.919   5.566   4.610
 9273SOL    HW228719   3.947   5.727   4.621
 9274SOL     OW28720   6.331   2.214   6.644
 9274SOL    HW128721   6.422   2.226   6.683
 9274SOL    HW228722   6.292   2.304   6.622
 9275SOL     OW28723   1.595   0.539   6.437
 9275SOL    HW128724   1.602   0.633   6.405
 9275SOL    HW228725   1.687   0.500   6.446
 9276SOL     OW28726   3.922   5.848   4.881
 9276SOL    HW128727   3.885   5.925   4.829
 9276SOL    HW228728   3.992   5.802   4.826
 9277SOL     OW28729   3.792   3.055   6.933
 9277SOL    HW128730   3.705   3.103   6.938
 9277SOL    HW228731   3.791   2.994   6.854
 9278SOL     OW28732   1.330   2.146   2.917
 9278SOL    HW128733   1.362   2.108   2.831
 9278SOL    HW228734   1.265   2.082   2.959
 9279SOL     OW28735   3.007   7.012   1.911
 9279SOL    HW128736   3.066   0.064   1.886
 9279SOL    HW228737   3.051   6.926   1.885
 9280SOL     OW28738   1.845   6.602   3.431
 9280SOL    HW128739   1.853   6.562   3.523
 9280SOL    HW228740   1.913   6.559   3.371
 9281SOL     OW28741   1.877   2.265   7.000
 9281SOL    HW128742   1.973   2.290   7.010
 9281SOL    HW228743   1.857   2.188   0.036
 9282SOL     OW28744   4.321   1.629   5.452
 9282SOL    HW128745   4.267   1.572   5.514
 9282SOL    HW228746   4.307   1.599   5.358
 9283SOL     OW28747   5.741   3.009   2.247
 9283SOL    HW128748   5.745   2.913   2.278
 9283SOL    HW228749   5.734   3.012   2.148
 9284SOL     OW28750   2.920   3.185   1.171
 9284SOL    HW128751   3.011   3.219   1.148
 9284SOL    HW228752   2.923   3.143   1.262
 9285SOL     OW28753   6.146   2.811   0.030
 9285SOL    HW128754   6.164   2.872   6.977
 9285SOL    HW228755   6.077   2.852   0.089
 9286SOL     OW28756   4.895   6.668   5.379
 9286SOL    HW128757   4.957   6.719   5.319
 9286SOL    HW228758   4.800   6.692   5.357
 9287SOL     OW28759   3.036   6.429   1.146
 9287SOL    HW128760   3.032   6.334   1.116
 9287SOL    HW228761   2.970   6.443   1.220
 9288SOL     OW28762   5.173   2.450   5.742
 9288SOL    HW128763   5.210   2.463   5.834
 9288SOL    HW228764   5.087   2.500   5.733
 9289SOL     OW28765   4.997   2.630   2.232
 9289SOL    HW128766   4.965   2.650   2.325
 9289SOL    HW228767   4.974   2.535   2.209
 9290SOL     OW28768   4.972   1.950   4.301
 9290SOL    HW128769   4.977   1.854   4.327
 9290SOL    HW228770   4.947   1.958   4.204
 9291SOL     OW28771   0.782   1.156   4.614
 9291SOL    HW128772   0.866   1.210   4.616
 9291SOL    HW228773   0.738   1.166   4.524
 9292SOL     OW28774   0.274   3.113   6.575
 9292SOL    HW128775   0.260   3.029   6.522
 9292SOL    HW228776   0.364   3.111   6.617
 9293SOL     OW28777   5.508   3.885   0.410
 9293SOL    HW128778   5.411   3.908   0.414
 9293SOL    HW228779   5.520   3.801   0.356
 9294SOL     OW28780   5.719   6.694   6.833
 9294SOL    HW128781   5.812   6.726   6.848
 9294SOL    HW228782   5.666   6.766   6.788
 9295SOL     OW28783   4.727   1.606   3.129
 9295SOL    HW128784   4.744   1.607   3.228
 9295SOL    HW228785   4.814   1.609   3.080
 9296SOL     OW28786   5.628   6.916   6.031
 9296SOL    HW128787   5.602   6.865   6.113
 9296SOL    HW228788   5.645   6.853   5.956
 9297SOL     OW28789   0.413   1.132   0.862
 9297SOL    HW128790   0.372   1.079   0.787
 9297SOL    HW228791   0.355   1.211   0.882
 9298SOL     OW28792   1.297   6.145   5.148
 9298SOL    HW128793   1.346   6.122   5.063
 9298SOL    HW228794   1.257   6.062   5.187
 9299SOL     OW28795   1.835   3.315   4.288
 9299SOL    HW128796   1.788   3.388   4.338
 9299SOL    HW228797   1.835   3.232   4.344
 9300SOL     OW28798   5.225   4.662   4.558
 9300SOL    HW128799   5.202   4.587   4.496
 9300SOL    HW228800   5.324   4.665   4.572
 9301SOL     OW28801   5.198   4.556   2.612
 9301SOL    HW128802   5.219   4.622   2.539
 9301SOL    HW228803   5.138   4.484   2.575
 9302SOL     OW28804   2.234   2.325   2.685
 9302SOL    HW128805   2.224   2.423   2.702
 9302SOL    HW228806   2.203   2.303   2.593
 9303SOL     OW28807   3.596   5.713   6.735
 9303SOL    HW128808   3.586   5.623   6.778
 9303SOL    HW228809   3.582   5.784   6.805
 9304SOL     OW28810   3.642   3.586   1.214
 9304SOL    HW128811   3.615   3.510   1.155
 9304SOL    HW228812   3.689   3.552   1.295
 9305SOL     OW28813   5.624   3.059   2.012
 9305SOL    HW128814   5.572   2.979   2.040
 9305SOL    HW228815   5.570   3.114   1.949
 9306SOL     OW28816   7.023   3.895   3.916
 9306SOL    HW128817   6.952   3.942   3.967
 9306SOL    HW228818   0.030   3.815   3.969
 9307SOL     OW28819   1.678   2.071   0.568
 9307SOL    HW128820   1.578   2.072   0.563
 9307SOL    HW228821   1.710   1.977   0.570
 9308SOL     OW28822   0.186   3.066   0.862
 9308SOL    HW128823   0.214   3.162   0.869
 9308SOL    HW228824   0.266   3.007   0.870
 9309SOL     OW28825   4.690   3.625   5.961
 9309SOL    HW128826   4.599   3.585   5.953
 9309SOL    HW228827   4.758   3.552   5.955
 9310SOL     OW28828   4.479   6.166   0.035
 9310SOL    HW128829   4.506   6.112   0.114
 9310SOL    HW228830   4.479   6.263   0.059
 9311SOL     OW28831   5.706   3.368   0.955
 9311SOL    HW128832   5.748   3.413   0.876
 9311SOL    HW228833   5.778   3.337   1.018
 9312SOL     OW28834   1.288   3.995   6.313
 9312SOL    HW128835   1.345   4.077   6.314
 9312SOL    HW228836   1.191   4.022   6.309
 9313SOL     OW28837   6.737   0.046   3.109
 9313SOL    HW128838   6.746   6.995   3.174
 9313SOL    HW228839   6.827   0.082   3.087
 9314SOL     OW28840   4.716   4.917   0.041
 9314SOL    HW128841   4.645   4.983   0.068
 9314SOL    HW228842   4.675   4.826   0.032
 9315SOL     OW28843   0.286   6.749   5.814
 9315SOL    HW128844   0.201   6.725   5.767
 9315SOL    HW228845   0.336   6.665   5.836
 9316SOL     OW28846   4.066   6.042   3.902
 9316SOL    HW128847   4.146   6.014   3.956
 9316SOL    HW228848   3.989   5.982   3.923
 9317SOL     OW28849   6.791   5.074   3.995
 9317SOL    HW128850   6.813   5.167   4.022
 9317SOL    HW228851   6.862   5.038   3.934
 9318SOL     OW28852   0.400   0.587   6.433
 9318SOL    HW128853   0.458   0.551   6.506
 9318SOL    HW228854   0.384   0.684   6.449
 9319SOL     OW28855   0.662   3.187   6.104
 9319SOL    HW128856   0.669   3.267   6.164
 9319SOL    HW228857   0.567   3.174   6.076
 9320SOL     OW28858   4.423   2.421   5.823
 9320SOL    HW128859   4.393   2.387   5.912
 9320SOL    HW228860   4.523   2.423   5.820
 9321SOL     OW28861   6.429   6.128   3.237
 9321SOL    HW128862   6.419   6.133   3.137
 9321SOL    HW228863   6.524   6.144   3.262
 9322SOL     OW28864   1.184   6.508   6.241
 9322SOL    HW128865   1.187   6.579   6.172
 9322SOL    HW228866   1.090   6.495   6.273
 9323SOL     OW28867   0.800   1.190   6.782
 9323SOL    HW128868   0.712   1.232   6.763
 9323SOL    HW228869   0.815   1.188   6.881
 9324SOL     OW28870   1.311   5.808   0.359
 9324SOL    HW128871   1.319   5.882   0.292
 9324SOL    HW228872   1.219   5.769   0.356
 9325SOL     OW28873   5.667   2.231   0.918
 9325SOL    HW128874   5.735   2.166   0.951
 9325SOL    HW228875   5.687   2.322   0.956
 9326SOL     OW28876   1.781   6.946   1.225
 9326SOL    HW128877   1.731   7.006   1.288
 9326SOL    HW228878   1.781   6.853   1.261
 9327SOL     OW28879   4.142   1.071   2.664
 9327SOL    HW128880   4.069   1.025   2.614
 9327SOL    HW228881   4.219   1.087   2.602
 9328SOL     OW28882   3.459   1.283   1.499
 9328SOL    HW128883   3.514   1.318   1.423
 9328SOL    HW228884   3.379   1.235   1.463
 9329SOL     OW28885   1.176   3.335   2.159
 9329SOL    HW128886   1.228   3.299   2.081
 9329SOL    HW228887   1.093   3.281   2.171
 9330SOL     OW28888   6.129   0.786   0.342
 9330SOL    HW128889   6.173   0.753   0.425
 9330SOL    HW228890   6.043   0.831   0.366
 9331SOL     OW28891   0.682   0.845   6.848
 9331SOL    HW128892   0.699   0.916   6.780
 9331SOL    HW228893   0.610   0.784   6.816
 9332SOL     OW28894   3.044   3.137   4.108
 9332SOL    HW128895   3.094   3.142   4.022
 9332SOL    HW228896   3.104   3.103   4.180
 9333SOL     OW28897   5.931   4.667   0.531
 9333SOL    HW128898   5.886   4.578   0.529
 9333SOL    HW228899   5.941   4.698   0.625
 9334SOL     OW28900   2.903   0.041   4.517
 9334SOL    HW128901   2.915   6.993   4.449
 9334SOL    HW228902   2.899   0.130   4.472
 9335SOL     OW28903   1.127   0.357   0.292
 9335SOL    HW128904   1.162   0.351   0.198
 9335SOL    HW228905   1.038   0.311   0.297
 9336SOL     OW28906   2.599   6.878   6.025
 9336SOL    HW128907   2.517   6.870   6.081
 9336SOL    HW228908   2.655   6.796   6.036
 9337SOL     OW28909   5.508   0.243   2.354
 9337SOL    HW128910   5.595   0.235   2.305
 9337SOL    HW228911   5.438   0.280   2.292
 9338SOL     OW28912   3.528   6.868   2.288
 9338SOL    HW128913   3.503   6.871   2.191
 9338SOL    HW228914   3.586   6.947   2.309
 9339SOL     OW28915   4.505   6.415   1.093
 9339SOL    HW128916   4.519   6.373   1.182
 9339SOL    HW228917   4.407   6.434   1.080
 9340SOL     OW28918   5.950   3.877   6.845
 9340SOL    HW128919   6.031   3.929   6.871
 9340SOL    HW228920   5.935   3.886   6.747
 9341SOL     OW28921   0.025   5.496   6.472
 9341SOL    HW128922   6.988   5.570   6.445
 9341SOL    HW228923   7.023   5.462   6.562
 9342SOL     OW28924   1.563   6.435   6.401
 9342SOL    HW128925   1.642   6.485   6.435
 9342SOL    HW228926   1.485   6.449   6.463
 9343SOL     OW28927   5.907   5.341   4.810
 9343SOL    HW128928   5.846   5.420   4.821
 9343SOL    HW228929   5.963   5.353   4.728
 9344SOL     OW28930   5.266   6.793   1.633
 9344SOL    HW128931   5.183   6.745   1.662
 9344SOL    HW228932   5.345   6.753   1.678
 9345SOL     OW28933   6.654   3.099   1.209
 9345SOL    HW128934   6.741   3.101   1.159
 9345SOL    HW228935   6.656   3.167   1.282
 9346SOL     OW28936   5.773   0.019   0.724
 9346SOL    HW128937   5.796   6.977   0.653
 9346SOL    HW228938   5.749   6.995   0.808
 9347SOL     OW28939   1.662   0.093   1.384
 9347SOL    HW128940   1.599   0.144   1.326
 9347SOL    HW228941   1.737   0.153   1.412
 9348SOL     OW28942   3.182   4.809   6.789
 9348SOL    HW128943   3.191   4.729   6.730
 9348SOL    HW228944   3.270   4.854   6.797
 9349SOL     OW28945   1.819   0.072   2.645
 9349SOL    HW128946   1.825   0.042   2.740
 9349SOL    HW228947   1.869   0.008   2.587
 9350SOL     OW28948   0.536   2.519   5.952
 9350SOL    HW128949   0.596   2.591   5.986
 9350SOL    HW228950   0.553   2.435   6.003
 9351SOL     OW28951   3.451   1.928   6.563
 9351SOL    HW128952   3.427   2.018   6.527
 9351SOL    HW228953   3.399   1.909   6.646
 9352SOL     OW28954   2.147   5.306   5.559
 9352SOL    HW128955   2.113   5.271   5.646
 9352SOL    HW228956   2.243   5.333   5.569
 9353SOL     OW28957   6.482   0.372   1.094
 9353SOL    HW128958   6.562   0.380   1.034
 9353SOL    HW228959   6.504   0.312   1.170
 9354SOL     OW28960   6.598   2.305   6.645
 9354SOL    HW128961   6.625   2.400   6.634
 9354SOL    HW228962   6.642   2.267   6.726
 9355SOL     OW28963   0.003   1.764   4.996
 9355SOL    HW128964   0.072   1.831   5.024
 9355SOL    HW228965   0.016   1.680   5.050
 9356SOL     OW28966   4.805   6.974   2.059
 9356SOL    HW128967   4.779   0.045   2.044
 9356SOL    HW228968   4.743   6.933   2.126
 9357SOL     OW28969   0.832   2.203   6.853
 9357SOL    HW128970   0.759   2.164   6.909
 9357SOL    HW228971   0.792   2.260   6.781
 9358SOL     OW28972   0.874   3.512   1.667
 9358SOL    HW128973   0.869   3.556   1.757
 9358SOL    HW228974   0.810   3.436   1.663
 9359SOL     OW28975   1.632   0.349   5.705
 9359SOL    HW128976   1.625   0.397   5.618
 9359SOL    HW228977   1.718   0.299   5.710
 9360SOL     OW28978   1.071   6.966   6.599
 9360SOL    HW128979   1.087   6.896   6.530
 9360SOL    HW228980   1.156   7.015   6.618
 9361SOL     OW28981   2.041   6.182   4.128
 9361SOL    HW128982   2.015   6.086   4.122
 9361SOL    HW228983   1.983   6.236   4.066
 9362SOL     OW28984   1.904   0.317   2.424
 9362SOL    HW128985   1.939   0.318   2.517
 9362SOL    HW228986   1.979   0.326   2.359
 9363SOL     OW28987   2.471   4.837   2.098
 9363SOL    HW128988   2.469   4.738   2.105
 9363SOL    HW228989   2.401   4.867   2.032
 9364SOL     OW28990   1.544   2.138   1.053
 9364SOL    HW128991   1.613   2.124   0.982
 9364SOL    HW228992   1.537   2.236   1.074
 9365SOL     OW28993   3.170   1.855   4.383
 9365SOL    HW128994   3.228   1.892   4.456
 9365SOL    HW228995   3.103   1.793   4.423
 9366SOL     OW28996   4.054   5.308   1.034
 9366SOL    HW128997   4.022   5.264   1.118
 9366SOL    HW228998   4.000   5.390   1.016
 9367SOL     OW28999   6.920   0.958   1.564
 9367SOL    HW129000   6.919   0.955   1.464
 9367SOL    HW229001   6.907   0.866   1.600
 9368SOL     OW29002   3.376   0.489   2.992
 9368SOL    HW129003   3.297   0.428   2.981
 9368SOL    HW229004   3.357   0.556   3.064
 9369SOL     OW29005   2.871   5.075   0.198
 9369SOL    HW129006   2.858   5.173   0.214
 9369SOL    HW229007   2.842   5.024   0.279
 9370SOL     OW29008   4.470   1.510   4.227
 9370SOL    HW129009   4.528   1.501   4.146
 9370SOL    HW229010   4.501   1.447   4.297
 9371SOL     OW29011   4.573   5.454   0.878
 9371SOL    HW129012   4.584   5.410   0.789
 9371SOL    HW229013   4.492   5.417   0.924
 9372SOL     OW29014   4.691   6.440   1.398
 9372SOL    HW129015   4.675   6.526   1.348
 9372SOL    HW229016   4.603   6.397   1.419
 9373SOL     OW29017   6.998   2.087   0.892
 9373SOL    HW129018   7.010   2.166   0.952
 9373SOL    HW229019   0.011   2.107   0.802
 9374SOL     OW29020   0.302   5.178   5.832
 9374SOL    HW129021   0.257   5.106   5.780
 9374SOL    HW229022   0.344   5.244   5.769
 9375SOL     OW29023   0.463   0.849   0.179
 9375SOL    HW129024   0.500   0.941   0.165
 9375SOL    HW229025   0.366   0.848   0.154
 9376SOL     OW29026   2.041   3.754   1.695
 9376SOL    HW129027   1.987   3.772   1.777
 9376SOL    HW229028   2.014   3.817   1.623
 9377SOL     OW29029   1.935   0.857   4.037
 9377SOL    HW129030   1.873   0.853   3.959
 9377SOL    HW229031   1.969   0.766   4.058
 9378SOL     OW29032   3.275   0.756   4.272
 9378SOL    HW129033   3.299   0.850   4.248
 9378SOL    HW229034   3.234   0.710   4.193
 9379SOL     OW29035   4.180   6.429   4.499
 9379SOL    HW129036   4.192   6.369   4.420
 9379SOL    HW229037   4.268   6.442   4.544
 9380SOL     OW29038   5.092   6.194   0.037
 9380SOL    HW129039   5.127   6.154   0.122
 9380SOL    HW229040   5.078   6.122   6.993
 9381SOL     OW29041   6.008   1.564   5.121
 9381SOL    HW129042   6.081   1.624   5.088
 9381SOL    HW229043   6.003   1.483   5.063
 9382SOL     OW29044   3.011   5.796   5.234
 9382SOL    HW129045   3.094   5.806   5.179
 9382SOL    HW229046   2.973   5.887   5.253
 9383SOL     OW29047   5.603   4.456   2.544
 9383SOL    HW129048   5.656   4.376   2.571
 9383SOL    HW229049   5.529   4.471   2.609
 9384SOL     OW29050   2.651   0.767   2.250
 9384SOL    HW129051   2.560   0.743   2.216
 9384SOL    HW229052   2.701   0.815   2.178
 9385SOL     OW29053   4.700   1.446   3.703
 9385SOL    HW129054   4.620   1.498   3.674
 9385SOL    HW229055   4.732   1.389   3.628
 9386SOL     OW29056   4.726   6.620   0.475
 9386SOL    HW129057   4.730   6.691   0.545
 9386SOL    HW229058   4.630   6.598   0.455
 9387SOL     OW29059   2.839   2.528   0.388
 9387SOL    HW129060   2.741   2.517   0.369
 9387SOL    HW229061   2.859   2.491   0.479
 9388SOL     OW29062   2.149   6.057   5.015
 9388SOL    HW129063   2.223   6.072   4.949
 9388SOL    HW229064   2.187   6.056   5.107
 9389SOL     OW29065   2.700   4.824   1.753
 9389SOL    HW129066   2.775   4.767   1.786
 9389SOL    HW229067   2.677   4.892   1.824
 9390SOL     OW29068   5.430   5.425   4.455
 9390SOL    HW129069   5.462   5.398   4.364
 9390SOL    HW229070   5.474   5.368   4.524
 9391SOL     OW29071   1.231   5.004   4.430
 9391SOL    HW129072   1.277   4.942   4.494
 9391SOL    HW229073   1.262   4.985   4.337
 9392SOL     OW29074   5.133   4.435   3.067
 9392SOL    HW129075   5.084   4.489   2.998
 9392SOL    HW229076   5.163   4.494   3.141
 9393SOL     OW29077   2.490   6.295   6.326
 9393SOL    HW129078   2.442   6.241   6.395
 9393SOL    HW229079   2.578   6.326   6.364
 9394SOL     OW29080   3.501   0.992   0.518
 9394SOL    HW129081   3.406   1.023   0.508
 9394SOL    HW229082   3.503   0.912   0.578
 9395SOL     OW29083   2.028   1.564   0.829
 9395SOL    HW129084   2.003   1.659   0.848
 9395SOL    HW229085   2.009   1.508   0.909
 9396SOL     OW29086   0.412   6.319   6.718
 9396SOL    HW129087   0.490   6.303   6.778
 9396SOL    HW229088   0.354   6.390   6.757
 9397SOL     OW29089   3.587   0.288   5.279
 9397SOL    HW129090   3.645   0.209   5.261
 9397SOL    HW229091   3.642   0.362   5.317
 9398SOL     OW29092   0.741   1.848   0.166
 9398SOL    HW129093   0.722   1.750   0.156
 9398SOL    HW229094   0.839   1.862   0.181
 9399SOL     OW29095   1.016   2.996   4.105
 9399SOL    HW129096   0.942   3.019   4.043
 9399SOL    HW229097   1.002   3.043   4.192
 9400SOL     OW29098   5.771   1.265   0.950
 9400SOL    HW129099   5.773   1.344   0.888
 9400SOL    HW229100   5.727   1.290   1.036
 9401SOL     OW29101   0.842   2.359   3.919
 9401SOL    HW129102   0.865   2.330   4.012
 9401SOL    HW229103   0.743   2.367   3.909
 9402SOL     OW29104   2.466   6.566   3.934
 9402SOL    HW129105   2.504   6.587   4.024
 9402SOL    HW229106   2.383   6.620   3.919
 9403SOL     OW29107   5.842   2.554   2.350
 9403SOL    HW129108   5.771   2.549   2.420
 9403SOL    HW229109   5.799   2.556   2.260
 9404SOL     OW29110   1.968   2.738   0.685
 9404SOL    HW129111   1.972   2.702   0.592
 9404SOL    HW229112   1.928   2.670   0.746
 9405SOL     OW29113   6.720   5.783   5.385
 9405SOL    HW129114   6.815   5.754   5.397
 9405SOL    HW229115   6.673   5.719   5.324
 9406SOL     OW29116   1.147   2.782   7.021
 9406SOL    HW129117   1.069   2.805   6.963
 9406SOL    HW229118   1.131   2.694   0.041
 9407SOL     OW29119   1.240   4.982   5.432
 9407SOL    HW129120   1.227   5.028   5.344
 9407SOL    HW229121   1.333   4.997   5.464
 9408SOL     OW29122   0.160   3.690   4.732
 9408SOL    HW129123   0.167   3.615   4.666
 9408SOL    HW229124   0.250   3.706   4.773
 9409SOL     OW29125   6.454   4.859   3.034
 9409SOL    HW129126   6.499   4.772   3.013
 9409SOL    HW229127   6.407   4.852   3.122
 9410SOL     OW29128   3.845   1.131   0.842
 9410SOL    HW129129   3.872   1.163   0.934
 9410SOL    HW229130   3.760   1.175   0.815
 9411SOL     OW29131   2.890   3.423   3.065
 9411SOL    HW129132   2.888   3.520   3.040
 9411SOL    HW229133   2.907   3.369   2.983
 9412SOL     OW29134   5.809   6.126   1.301
 9412SOL    HW129135   5.729   6.137   1.242
 9412SOL    HW229136   5.874   6.200   1.282
 9413SOL     OW29137   4.859   4.148   2.919
 9413SOL    HW129138   4.851   4.051   2.892
 9413SOL    HW229139   4.905   4.199   2.846
 9414SOL     OW29140   1.719   2.093   3.454
 9414SOL    HW129141   1.783   2.017   3.459
 9414SOL    HW229142   1.754   2.162   3.391
 9415SOL     OW29143   4.784   1.441   2.015
 9415SOL    HW129144   4.823   1.361   2.060
 9415SOL    HW229145   4.701   1.469   2.063
 9416SOL     OW29146   5.792   5.211   5.311
 9416SOL    HW129147   5.884   5.248   5.298
 9416SOL    HW229148   5.777   5.194   5.409
 9417SOL     OW29149   3.235   5.351   2.542
 9417SOL    HW129150   3.286   5.324   2.624
 9417SOL    HW229151   3.192   5.440   2.557
 9418SOL     OW29152   3.826   1.474   5.028
 9418SOL    HW129153   3.861   1.445   5.118
 9418SOL    HW229154   3.896   1.461   4.959
 9419SOL     OW29155   1.657   3.064   6.322
 9419SOL    HW129156   1.569   3.078   6.277
 9419SOL    HW229157   1.676   2.965   6.328
 9420SOL     OW29158   5.955   4.255   6.380
 9420SOL    HW129159   5.934   4.352   6.394
 9420SOL    HW229160   5.870   4.203   6.377
 9421SOL     OW29161   4.404   6.528   6.581
 9421SOL    HW129162   4.447   6.571   6.661
 9421SOL    HW229163   4.436   6.575   6.498
 9422SOL     OW29164   1.940   6.098   5.926
 9422SOL    HW129165   1.902   6.006   5.921
 9422SOL    HW229166   1.908   6.152   5.849
 9423SOL     OW29167   4.413   4.674   2.516
 9423SOL    HW129168   4.438   4.585   2.476
 9423SOL    HW229169   4.494   4.731   2.525
 9424SOL     OW29170   6.036   0.044   4.120
 9424SOL    HW129171   6.111   7.019   4.164
 9424SOL    HW229172   6.050   0.143   4.132
 9425SOL     OW29173   6.871   4.354   1.226
 9425SOL    HW129174   6.884   4.453   1.233
 9425SOL    HW229175   6.819   4.333   1.143
 9426SOL     OW29176   6.840   2.579   6.394
 9426SOL    HW129177   6.769   2.558   6.461
 9426SOL    HW229178   6.859   2.498   6.339
 9427SOL     OW29179   4.520   4.445   2.454
 9427SOL    HW129180   4.585   4.469   2.527
 9427SOL    HW229181   4.511   4.346   2.448
 9428SOL     OW29182   1.051   5.956   5.881
 9428SOL    HW129183   1.117   5.881   5.880
 9428SOL    HW229184   0.981   5.940   5.811
 9429SOL     OW29185   2.489   2.578   4.386
 9429SOL    HW129186   2.475   2.488   4.346
 9429SOL    HW229187   2.494   2.571   4.485
 9430SOL     OW29188   1.592   1.866   4.742
 9430SOL    HW129189   1.601   1.933   4.816
 9430SOL    HW229190   1.662   1.795   4.754
 9431SOL     OW29191   0.457   4.412   5.358
 9431SOL    HW129192   0.380   4.466   5.393
 9431SOL    HW229193   0.537   4.471   5.347
 9432SOL     OW29194   6.853   1.186   3.696
 9432SOL    HW129195   6.922   1.158   3.763
 9432SOL    HW229196   6.768   1.137   3.712
 9433SOL     OW29197   4.108   6.078   1.632
 9433SOL    HW129198   4.016   6.047   1.607
 9433SOL    HW229199   4.170   6.000   1.638
 9434SOL     OW29200   4.650   5.756   4.095
 9434SOL    HW129201   4.615   5.676   4.143
 9434SOL    HW229202   4.731   5.731   4.043
 9435SOL     OW29203   6.658   3.787   1.002
 9435SOL    HW129204   6.722   3.753   1.070
 9435SOL    HW229205   6.565   3.759   1.027
 9436SOL     OW29206   2.532   0.901   3.320
 9436SOL    HW129207   2.617   0.944   3.290
 9436SOL    HW229208   2.507   0.936   3.410
 9437SOL     OW29209   5.411   0.335   4.749
 9437SOL    HW129210   5.476   0.409   4.730
 9437SOL    HW229211   5.403   0.324   4.848
 9438SOL     OW29212   4.752   6.650   2.598
 9438SOL    HW129213   4.666   6.672   2.645
 9438SOL    HW229214   4.735   6.583   2.527
 9439SOL     OW29215   1.630   4.097   0.885
 9439SOL    HW129216   1.685   4.023   0.924
 9439SOL    HW229217   1.534   4.072   0.888
 9440SOL     OW29218   2.226   5.185   3.247
 9440SOL    HW129219   2.182   5.139   3.325
 9440SOL    HW229220   2.159   5.197   3.174
 9441SOL     OW29221   7.024   0.040   4.552
 9441SOL    HW129222   0.072   7.021   4.498
 9441SOL    HW229223   0.032   0.128   4.586
 9442SOL     OW29224   5.716   3.063   0.939
 9442SOL    HW129225   5.766   3.114   0.868
 9442SOL    HW229226   5.707   3.120   1.020
 9443SOL     OW29227   2.239   4.523   2.410
 9443SOL    HW129228   2.188   4.498   2.492
 9443SOL    HW229229   2.333   4.546   2.436
 9444SOL     OW29230   1.444   4.738   6.176
 9444SOL    HW129231   1.484   4.823   6.143
 9444SOL    HW229232   1.509   4.663   6.162
 9445SOL     OW29233   0.058   1.551   4.358
 9445SOL    HW129234   0.108   1.607   4.424
 9445SOL    HW229235   0.079   1.582   4.265
 9446SOL     OW29236   6.480   3.784   4.175
 9446SOL    HW129237   6.523   3.700   4.144
 9446SOL    HW229238   6.534   3.824   4.249
 9447SOL     OW29239   4.954   4.300   2.050
 9447SOL    HW129240   4.883   4.316   2.118
 9447SOL    HW229241   4.985   4.205   2.056
 9448SOL     OW29242   6.129   1.434   5.881
 9448SOL    HW129243   6.181   1.357   5.844
 9448SOL    HW229244   6.173   1.520   5.853
 9449SOL     OW29245   5.002   6.827   2.156
 9449SOL    HW129246   5.061   6.902   2.186
 9449SOL    HW229247   4.917   6.864   2.119
 9450SOL     OW29248   1.333   6.300   2.715
 9450SOL    HW129249   1.373   6.293   2.624
 9450SOL    HW229250   1.337   6.396   2.745
 9451SOL     OW29251   4.003   4.763   6.767
 9451SOL    HW129252   3.955   4.849   6.748
 9451SOL    HW229253   3.939   4.698   6.808
 9452SOL     OW29254   6.019   4.618   6.521
 9452SOL    HW129255   6.052   4.711   6.534
 9452SOL    HW229256   6.058   4.559   6.592
 9453SOL     OW29257   5.289   5.080   1.683
 9453SOL    HW129258   5.387   5.084   1.703
 9453SOL    HW229259   5.250   5.172   1.693
 9454SOL     OW29260   5.990   4.702   0.201
 9454SOL    HW129261   6.082   4.740   0.211
 9454SOL    HW229262   5.959   4.668   0.290
 9455SOL     OW29263   3.898   1.213   1.682
 9455SOL    HW129264   3.946   1.188   1.598
 9455SOL    HW229265   3.804   1.181   1.678
 9456SOL     OW29266   6.847   2.297   2.981
 9456SOL    HW129267   6.803   2.372   2.932
 9456SOL    HW229268   6.946   2.304   2.969
 9457SOL     OW29269   6.389   6.578   5.155
 9457SOL    HW129270   6.394   6.538   5.063
 9457SOL    HW229271   6.297   6.564   5.192
 9458SOL     OW29272   6.229   3.929   6.943
 9458SOL    HW129273   6.316   3.901   6.982
 9458SOL    HW229274   6.241   4.015   6.892
 9459SOL     OW29275   4.565   4.661   5.099
 9459SOL    HW129276   4.567   4.714   5.185
 9459SOL    HW229277   4.471   4.632   5.080
 9460SOL     OW29278   1.040   3.030   2.598
 9460SOL    HW129279   1.127   3.078   2.585
 9460SOL    HW229280   0.976   3.091   2.646
 9461SOL     OW29281   1.554   1.882   1.715
 9461SOL    HW129282   1.457   1.867   1.697
 9461SOL    HW229283   1.585   1.817   1.784
 9462SOL     OW29284   0.223   1.209   4.362
 9462SOL    HW129285   0.173   1.173   4.283
 9462SOL    HW229286   0.322   1.200   4.346
 9463SOL     OW29287   5.862   4.387   1.494
 9463SOL    HW129288   5.932   4.432   1.549
 9463SOL    HW229289   5.858   4.290   1.516
 9464SOL     OW29290   1.531   0.841   2.094
 9464SOL    HW129291   1.621   0.799   2.102
 9464SOL    HW229292   1.485   0.838   2.183
 9465SOL     OW29293   6.443   4.919   0.890
 9465SOL    HW129294   6.432   4.873   0.978
 9465SOL    HW229295   6.478   5.012   0.905
 9466SOL     OW29296   4.291   3.758   5.532
 9466SOL    HW129297   4.346   3.765   5.449
 9466SOL    HW229298   4.225   3.683   5.523
 9467SOL     OW29299   1.713   3.221   0.197
 9467SOL    HW129300   1.706   3.207   0.099
 9467SOL    HW229301   1.621   3.235   0.235
 9468SOL     OW29302   6.148   1.512   1.045
 9468SOL    HW129303   6.148   1.506   1.145
 9468SOL    HW229304   6.234   1.555   1.015
 9469SOL     OW29305   6.725   6.475   1.302
 9469SOL    HW129306   6.819   6.454   1.330
 9469SOL    HW229307   6.720   6.480   1.202
 9470SOL     OW29308   3.192   3.754   6.795
 9470SOL    HW129309   3.221   3.816   6.868
 9470SOL    HW229310   3.094   3.762   6.781
 9471SOL     OW29311   6.388   2.646   4.818
 9471SOL    HW129312   6.375   2.742   4.844
 9471SOL    HW229313   6.309   2.593   4.847
 9472SOL     OW29314   1.742   3.139   5.734
 9472SOL    HW129315   1.769   3.223   5.781
 9472SOL    HW229316   1.777   3.060   5.785
 9473SOL     OW29317   2.698   3.880   1.062
 9473SOL    HW129318   2.794   3.884   1.032
 9473SOL    HW229319   2.670   3.785   1.072
 9474SOL     OW29320   5.584   4.147   1.005
 9474SOL    HW129321   5.504   4.190   0.962
 9474SOL    HW229322   5.641   4.217   1.048
 9475SOL     OW29323   5.338   4.589   6.014
 9475SOL    HW129324   5.335   4.607   6.112
 9475SOL    HW229325   5.281   4.509   5.993
 9476SOL     OW29326   4.234   4.047   0.510
 9476SOL    HW129327   4.283   3.993   0.578
 9476SOL    HW229328   4.267   4.142   0.513
 9477SOL     OW29329   2.181   4.451   0.283
 9477SOL    HW129330   2.260   4.392   0.272
 9477SOL    HW229331   2.102   4.396   0.312
 9478SOL     OW29332   5.839   3.733   5.873
 9478SOL    HW129333   5.872   3.705   5.783
 9478SOL    HW229334   5.814   3.830   5.870
 9479SOL     OW29335   4.198   0.329   2.309
 9479SOL    HW129336   4.192   0.361   2.214
 9479SOL    HW229337   4.223   0.405   2.369
 9480SOL     OW29338   6.167   1.036   0.697
 9480SOL    HW129339   6.255   1.020   0.652
 9480SOL    HW229340   6.180   1.036   0.796
 9481SOL     OW29341   4.125   0.242   2.882
 9481SOL    HW129342   4.220   0.254   2.908
 9481SOL    HW229343   4.070   0.221   2.963
 9482SOL     OW29344   6.018   5.935   0.100
 9482SOL    HW129345   6.033   6.029   0.130
 9482SOL    HW229346   6.101   5.881   0.117
 9483SOL     OW29347   6.847   6.721   0.134
 9483SOL    HW129348   6.883   6.705   0.225
 9483SOL    HW229349   6.866   6.816   0.106
 9484SOL     OW29350   3.595   5.827   4.057
 9484SOL    HW129351   3.587   5.778   4.144
 9484SOL    HW229352   3.540   5.780   3.988
 9485SOL     OW29353   0.185   1.134   6.247
 9485SOL    HW129354   0.256   1.191   6.287
 9485SOL    HW229355   0.226   1.055   6.202
 9486SOL     OW29356   5.858   5.447   6.581
 9486SOL    HW129357   5.901   5.359   6.561
 9486SOL    HW229358   5.927   5.512   6.612
 9487SOL     OW29359   3.209   3.751   2.978
 9487SOL    HW129360   3.154   3.711   2.905
 9487SOL    HW229361   3.159   3.747   3.065
 9488SOL     OW29362   1.684   0.987   1.541
 9488SOL    HW129363   1.687   0.949   1.633
 9488SOL    HW229364   1.642   0.921   1.479
 9489SOL     OW29365   5.515   2.987   0.714
 9489SOL    HW129366   5.551   3.045   0.787
 9489SOL    HW229367   5.589   2.963   0.651
 9490SOL     OW29368   5.332   3.699   4.924
 9490SOL    HW129369   5.425   3.718   4.893
 9490SOL    HW229370   5.330   3.697   5.024
 9491SOL     OW29371   5.365   6.848   2.538
 9491SOL    HW129372   5.340   6.844   2.441
 9491SOL    HW229373   5.287   6.879   2.592
 9492SOL     OW29374   5.002   2.773   3.252
 9492SOL    HW129375   4.967   2.683   3.275
 9492SOL    HW229376   5.086   2.790   3.304
 9493SOL     OW29377   4.144   6.085   1.204
 9493SOL    HW129378   4.051   6.119   1.217
 9493SOL    HW229379   4.199   6.106   1.284
 9494SOL     OW29380   5.840   1.645   2.259
 9494SOL    HW129381   5.780   1.685   2.190
 9494SOL    HW229382   5.913   1.711   2.282
 9495SOL     OW29383   7.020   2.566   1.152
 9495SOL    HW129384   0.054   2.596   1.228
 9495SOL    HW229385   6.971   2.645   1.114
 9496SOL     OW29386   5.516   1.912   0.990
 9496SOL    HW129387   5.510   1.895   1.088
 9496SOL    HW229388   5.562   1.999   0.974
 9497SOL     OW29389   4.619   4.363   4.628
 9497SOL    HW129390   4.712   4.401   4.623
 9497SOL    HW229391   4.575   4.395   4.711
 9498SOL     OW29392   0.670   5.676   4.139
 9498SOL    HW129393   0.691   5.613   4.214
 9498SOL    HW229394   0.576   5.662   4.109
 9499SOL     OW29395   6.045   5.886   4.890
 9499SOL    HW129396   5.986   5.826   4.944
 9499SOL    HW229397   6.010   5.979   4.892
 9500SOL     OW29398   3.303   1.952   0.823
 9500SOL    HW129399   3.207   1.927   0.817
 9500SOL    HW229400   3.340   1.920   0.911
 9501SOL     OW29401   1.777   3.780   5.134
 9501SOL    HW129402   1.829   3.704   5.172
 9501SOL    HW229403   1.698   3.799   5.192
 9502SOL     OW29404   5.566   4.944   4.275
 9502SOL    HW129405   5.551   5.016   4.342
 9502SOL    HW229406   5.568   4.983   4.183
 9503SOL     OW29407   6.320   1.281   0.339
 9503SOL    HW129408   6.222   1.286   0.360
 9503SOL    HW229409   6.343   1.348   0.269
 9504SOL     OW29410   5.936   5.280   2.102
 9504SOL    HW129411   6.019   5.323   2.139
 9504SOL    HW229412   5.953   5.183   2.085
 9505SOL     OW29413   4.469   4.674   5.874
 9505SOL    HW129414   4.531   4.643   5.946
 9505SOL    HW229415   4.401   4.602   5.856
 9506SOL     OW29416   2.909   0.973   1.207
 9506SOL    HW129417   2.919   1.049   1.272
 9506SOL    HW229418   2.914   1.008   1.114
 9507SOL     OW29419   5.199   0.041   2.155
 9507SOL    HW129420   5.154   0.042   2.066
 9507SOL    HW229421   5.258   0.121   2.163
 9508SOL     OW29422   4.623   2.117   2.865
 9508SOL    HW129423   4.528   2.107   2.838
 9508SOL    HW229424   4.650   2.040   2.923
 9509SOL     OW29425   5.358   0.796   3.171
 9509SOL    HW129426   5.326   0.722   3.230
 9509SOL    HW229427   5.328   0.884   3.208
 9510SOL     OW29428   1.552   2.699   3.876
 9510SOL    HW129429   1.595   2.778   3.832
 9510SOL    HW229430   1.602   2.676   3.959
 9511SOL     OW29431   0.191   1.619   1.351
 9511SOL    HW129432   0.219   1.600   1.257
 9511SOL    HW229433   0.262   1.674   1.396
 9512SOL     OW29434   6.656   2.251   1.189
 9512SOL    HW129435   6.650   2.226   1.092
 9512SOL    HW229436   6.570   2.291   1.218
 9513SOL     OW29437   4.624   4.144   5.633
 9513SOL    HW129438   4.681   4.115   5.710
 9513SOL    HW229439   4.532   4.104   5.642
 9514SOL     OW29440   3.757   2.905   6.625
 9514SOL    HW129441   3.810   2.871   6.547
 9514SOL    HW229442   3.712   2.828   6.671
 9515SOL     OW29443   0.590   5.928   3.138
 9515SOL    HW129444   0.642   5.845   3.155
 9515SOL    HW229445   0.548   5.960   3.223
 9516SOL     OW29446   0.528   4.636   6.588
 9516SOL    HW129447   0.554   4.552   6.636
 9516SOL    HW229448   0.430   4.651   6.596
 9517SOL     OW29449   0.119   6.278   1.494
 9517SOL    HW129450   0.190   6.222   1.452
 9517SOL    HW229451   0.151   6.312   1.582
 9518SOL     OW29452   1.388   1.035   1.163
 9518SOL    HW129453   1.486   1.019   1.161
 9518SOL    HW229454   1.345   0.970   1.226
 9519SOL     OW29455   1.366   3.399   5.416
 9519SOL    HW129456   1.312   3.323   5.451
 9519SOL    HW229457   1.350   3.480   5.472
 9520SOL     OW29458   4.585   0.326   1.963
 9520SOL    HW129459   4.672   0.280   1.979
 9520SOL    HW229460   4.543   0.350   2.051
 9521SOL     OW29461   5.307   5.410   3.480
 9521SOL    HW129462   5.320   5.444   3.573
 9521SOL    HW229463   5.212   5.381   3.468
 9522SOL     OW29464   3.450   6.348   0.542
 9522SOL    HW129465   3.437   6.401   0.458
 9522SOL    HW229466   3.401   6.261   0.535
 9523SOL     OW29467   2.123   6.406   5.631
 9523SOL    HW129468   2.105   6.397   5.533
 9523SOL    HW229469   2.037   6.412   5.681
 9524SOL     OW29470   4.331   2.334   0.697
 9524SOL    HW129471   4.312   2.286   0.783
 9524SOL    HW229472   4.337   2.268   0.623
 9525SOL     OW29473   3.879   0.171   5.507
 9525SOL    HW129474   3.873   0.243   5.438
 9525SOL    HW229475   3.790   0.157   5.549
 9526SOL     OW29476   4.747   5.917   2.133
 9526SOL    HW129477   4.655   5.887   2.108
 9526SOL    HW229478   4.813   5.845   2.113
 9527SOL     OW29479   6.058   2.121   1.165
 9527SOL    HW129480   6.147   2.103   1.124
 9527SOL    HW229481   5.987   2.118   1.094
 9528SOL     OW29482   6.491   0.727   1.859
 9528SOL    HW129483   6.463   0.633   1.876
 9528SOL    HW229484   6.576   0.746   1.909
 9529SOL     OW29485   1.113   3.821   4.525
 9529SOL    HW129486   1.032   3.765   4.509
 9529SOL    HW229487   1.174   3.775   4.591
 9530SOL     OW29488   1.635   2.648   4.276
 9530SOL    HW129489   1.538   2.622   4.274
 9530SOL    HW229490   1.649   2.729   4.219
 9531SOL     OW29491   3.002   6.113   3.289
 9531SOL    HW129492   3.041   6.139   3.377
 9531SOL    HW229493   2.968   6.019   3.295
 9532SOL     OW29494   2.516   0.931   1.537
 9532SOL    HW129495   2.500   1.020   1.580
 9532SOL    HW229496   2.605   0.896   1.565
 9533SOL     OW29497   1.519   0.414   4.858
 9533SOL    HW129498   1.608   0.446   4.824
 9533SOL    HW229499   1.446   0.462   4.811
 9534SOL     OW29500   4.684   2.200   4.142
 9534SOL    HW129501   4.727   2.291   4.141
 9534SOL    HW229502   4.688   2.162   4.235
 9535SOL     OW29503   2.726   2.392   4.585
 9535SOL    HW129504   2.672   2.464   4.542
 9535SOL    HW229505   2.687   2.303   4.560
 9536SOL     OW29506   3.136   6.646   6.431
 9536SOL    HW129507   3.143   6.742   6.403
 9536SOL    HW229508   3.220   6.598   6.406
 9537SOL     OW29509   2.346   6.597   0.487
 9537SOL    HW129510   2.387   6.678   0.530
 9537SOL    HW229511   2.389   6.581   0.398
 9538SOL     OW29512   5.985   3.624   4.229
 9538SOL    HW129513   5.974   3.708   4.175
 9538SOL    HW229514   6.073   3.626   4.276
 9539SOL     OW29515   0.272   4.128   0.726
 9539SOL    HW129516   0.177   4.138   0.757
 9539SOL    HW229517   0.279   4.053   0.662
 9540SOL     OW29518   5.609   3.231   5.313
 9540SOL    HW129519   5.570   3.242   5.405
 9540SOL    HW229520   5.701   3.269   5.310
 9541SOL     OW29521   0.112   1.191   3.390
 9541SOL    HW129522   0.058   1.263   3.435
 9541SOL    HW229523   0.207   1.220   3.385
 9542SOL     OW29524   4.743   4.113   4.686
 9542SOL    HW129525   4.821   4.129   4.627
 9542SOL    HW229526   4.673   4.183   4.669
 9543SOL     OW29527   5.406   2.279   1.471
 9543SOL    HW129528   5.328   2.308   1.526
 9543SOL    HW229529   5.485   2.265   1.531
 9544SOL     OW29530   3.793   1.638   1.923
 9544SOL    HW129531   3.748   1.726   1.907
 9544SOL    HW229532   3.747   1.590   1.998
 9545SOL     OW29533   1.114   0.254   4.370
 9545SOL    HW129534   1.134   0.318   4.444
 9545SOL    HW229535   1.034   0.287   4.318
 9546SOL     OW29536   1.968   4.213   1.501
 9546SOL    HW129537   1.982   4.162   1.586
 9546SOL    HW229538   1.984   4.311   1.518
 9547SOL     OW29539   6.511   5.487   3.503
 9547SOL    HW129540   6.506   5.418   3.575
 9547SOL    HW229541   6.426   5.540   3.502
 9548SOL     OW29542   4.593   6.701   2.895
 9548SOL    HW129543   4.669   6.767   2.894
 9548SOL    HW229544   4.630   6.608   2.899
 9549SOL     OW29545   2.721   5.606   0.561
 9549SOL    HW129546   2.678   5.537   0.504
 9549SOL    HW229547   2.653   5.677   0.584
 9550SOL     OW29548   1.637   0.712   6.930
 9550SOL    HW129549   1.676   0.804   6.923
 9550SOL    HW229550   1.538   0.716   6.916
 9551SOL     OW29551   1.255   6.253   6.239
 9551SOL    HW129552   1.266   6.352   6.238
 9551SOL    HW229553   1.198   6.225   6.162
 9552SOL     OW29554   0.464   5.109   2.962
 9552SOL    HW129555   0.366   5.099   2.948
 9552SOL    HW229556   0.499   5.030   3.013
 9553SOL     OW29557   5.245   4.506   5.648
 9553SOL    HW129558   5.205   4.589   5.686
 9553SOL    HW229559   5.181   4.464   5.583
 9554SOL     OW29560   1.831   1.513   1.512
 9554SOL    HW129561   1.790   1.447   1.576
 9554SOL    HW229562   1.813   1.606   1.543
 9555SOL     OW29563   6.964   2.839   6.460
 9555SOL    HW129564   6.942   2.848   6.557
 9555SOL    HW229565   6.927   2.753   6.425
 9556SOL     OW29566   6.391   1.644   0.958
 9556SOL    HW129567   6.457   1.570   0.971
 9556SOL    HW229568   6.428   1.729   0.996
 9557SOL     OW29569   5.688   2.557   2.072
 9557SOL    HW129570   5.717   2.582   1.979
 9557SOL    HW229571   5.618   2.486   2.066
 9558SOL     OW29572   5.743   4.750   2.089
 9558SOL    HW129573   5.750   4.845   2.117
 9558SOL    HW229574   5.654   4.714   2.115
 9559SOL     OW29575   6.384   3.354   2.863
 9559SOL    HW129576   6.345   3.442   2.888
 9559SOL    HW229577   6.313   3.284   2.864
 9560SOL     OW29578   3.994   1.948   5.121
 9560SOL    HW129579   3.914   1.941   5.181
 9560SOL    HW229580   4.034   1.857   5.107
 9561SOL     OW29581   3.326   6.287   6.879
 9561SOL    HW129582   3.265   6.208   6.884
 9561SOL    HW229583   3.403   6.266   6.818
 9562SOL     OW29584   6.285   4.554   3.586
 9562SOL    HW129585   6.190   4.548   3.555
 9562SOL    HW229586   6.312   4.650   3.590
 9563SOL     OW29587   0.036   6.217   6.739
 9563SOL    HW129588   6.980   6.263   6.701
 9563SOL    HW229589   0.109   6.216   6.672
 9564SOL     OW29590   2.348   0.303   6.379
 9564SOL    HW129591   2.359   0.205   6.391
 9564SOL    HW229592   2.362   0.327   6.283
 9565SOL     OW29593   3.900   5.853   4.038
 9565SOL    HW129594   3.801   5.863   4.025
 9565SOL    HW229595   3.923   5.755   4.040
 9566SOL     OW29596   3.380   4.859   5.963
 9566SOL    HW129597   3.459   4.894   6.014
 9566SOL    HW229598   3.321   4.806   6.024
 9567SOL     OW29599   6.218   5.431   4.942
 9567SOL    HW129600   6.268   5.435   4.855
 9567SOL    HW229601   6.149   5.358   4.937
 9568SOL     OW29602   5.280   4.027   6.415
 9568SOL    HW129603   5.186   4.030   6.448
 9568SOL    HW229604   5.312   4.119   6.396
 9569SOL     OW29605   5.350   6.856   2.276
 9569SOL    HW129606   5.442   6.862   2.235
 9569SOL    HW229607   5.288   6.919   2.229
 9570SOL     OW29608   0.702   1.003   6.549
 9570SOL    HW129609   0.649   1.086   6.567
 9570SOL    HW229610   0.794   1.028   6.519
 9571SOL     OW29611   2.356   2.931   0.171
 9571SOL    HW129612   2.369   2.870   0.249
 9571SOL    HW229613   2.268   2.911   0.127
 9572SOL     OW29614   0.293   3.562   0.966
 9572SOL    HW129615   0.195   3.574   0.983
 9572SOL    HW229616   0.345   3.620   1.029
 9573SOL     OW29617   5.722   1.175   2.027
 9573SOL    HW129618   5.763   1.173   1.935
 9573SOL    HW229619   5.648   1.109   2.031
 9574SOL     OW29620   2.760   1.901   3.798
 9574SOL    HW129621   2.734   1.933   3.707
 9574SOL    HW229622   2.685   1.920   3.862
 9575SOL     OW29623   4.673   0.872   2.454
 9575SOL    HW129624   4.750   0.848   2.394
 9575SOL    HW229625   4.708   0.888   2.546
 9576SOL     OW29626   4.270   2.589   5.541
 9576SOL    HW129627   4.298   2.632   5.455
 9576SOL    HW229628   4.179   2.621   5.566
 9577SOL     OW29629   0.611   6.348   3.523
 9577SOL    HW129630   0.679   6.275   3.515
 9577SOL    HW229631   0.584   6.378   3.431
 9578SOL     OW29632   6.146   4.351   2.092
 9578SOL    HW129633   6.050   4.382   2.088
 9578SOL    HW229634   6.151   4.256   2.063
 9579SOL     OW29635   2.014   6.179   2.847
 9579SOL    HW129636   1.942   6.241   2.815
 9579SOL    HW229637   1.973   6.099   2.890
 9580SOL     OW29638   4.311   3.023   5.624
 9580SOL    HW129639   4.394   3.071   5.654
 9580SOL    HW229640   4.333   2.928   5.604
 9581SOL     OW29641   1.131   5.513   5.439
 9581SOL    HW129642   1.077   5.554   5.513
 9581SOL    HW229643   1.089   5.427   5.410
 9582SOL     OW29644   3.980   4.891   3.791
 9582SOL    HW129645   3.896   4.884   3.844
 9582SOL    HW229646   4.008   4.987   3.784
 9583SOL     OW29647   2.321   4.831   1.772
 9583SOL    HW129648   2.284   4.738   1.774
 9583SOL    HW229649   2.316   4.866   1.679
 9584SOL     OW29650   5.286   5.166   6.846
 9584SOL    HW129651   5.211   5.204   6.792
 9584SOL    HW229652   5.279   5.196   6.941
 9585SOL     OW29653   0.987   0.489   3.556
 9585SOL    HW129654   0.929   0.563   3.522
 9585SOL    HW229655   1.025   0.514   3.645
 9586SOL     OW29656   5.317   3.323   2.617
 9586SOL    HW129657   5.332   3.417   2.586
 9586SOL    HW229658   5.338   3.260   2.542
 9587SOL     OW29659   4.744   6.402   2.175
 9587SOL    HW129660   4.818   6.457   2.136
 9587SOL    HW229661   4.689   6.363   2.102
 9588SOL     OW29662   6.805   0.458   3.470
 9588SOL    HW129663   6.750   0.504   3.540
 9588SOL    HW229664   6.902   0.474   3.488
 9589SOL     OW29665   3.265   1.879   4.949
 9589SOL    HW129666   3.244   1.948   5.019
 9589SOL    HW229667   3.186   1.819   4.937
 9590SOL     OW29668   0.592   5.284   4.542
 9590SOL    HW129669   0.508   5.240   4.510
 9590SOL    HW229670   0.599   5.274   4.641
 9591SOL     OW29671   1.145   4.772   2.755
 9591SOL    HW129672   1.197   4.800   2.835
 9591SOL    HW229673   1.126   4.852   2.698
 9592SOL     OW29674   4.964   6.048   1.216
 9592SOL    HW129675   4.896   6.121   1.217
 9592SOL    HW229676   4.918   5.959   1.215
 9593SOL     OW29677   2.236   2.916   3.302
 9593SOL    HW129678   2.314   2.855   3.317
 9593SOL    HW229679   2.157   2.883   3.355
 9594SOL     OW29680   6.515   6.854   1.169
 9594SOL    HW129681   6.512   6.895   1.260
 9594SOL    HW229682   6.437   6.885   1.115
 9595SOL     OW29683   0.954   4.446   4.216
 9595SOL    HW129684   0.914   4.426   4.127
 9595SOL    HW229685   0.921   4.380   4.284
 9596SOL     OW29686   5.473   5.371   2.318
 9596SOL    HW129687   5.495   5.375   2.416
 9596SOL    HW229688   5.438   5.460   2.288
 9597SOL     OW29689   1.688   4.432   0.257
 9597SOL    HW129690   1.730   4.440   0.167
 9597SOL    HW229691   1.633   4.513   0.276
 9598SOL     OW29692   1.201   5.731   5.896
 9598SOL    HW129693   1.274   5.665   5.875
 9598SOL    HW229694   1.218   5.771   5.986
 9599SOL     OW29695   4.293   1.665   4.359
 9599SOL    HW129696   4.268   1.615   4.441
 9599SOL    HW229697   4.345   1.605   4.297
 9600SOL     OW29698   1.972   6.097   6.786
 9600SOL    HW129699   1.968   6.043   6.870
 9600SOL    HW229700   1.929   6.046   6.712
 9601SOL     OW29701   0.548   6.760   6.327
 9601SOL    HW129702   0.475   6.803   6.380
 9601SOL    HW229703   0.622   6.733   6.388
 9602SOL     OW29704   0.263   5.140   6.746
 9602SOL    HW129705   0.264   5.217   6.811
 9602SOL    HW229706   0.168   5.114   6.729
 9603SOL     OW29707   0.932   4.858   2.941
 9603SOL    HW129708   0.988   4.836   2.862
 9603SOL    HW229709   0.899   4.774   2.984
 9604SOL     OW29710   6.979   6.962   0.091
 9604SOL    HW129711   6.909   0.003   0.064
 9604SOL    HW229712   0.031   7.010   0.133
 9605SOL     OW29713   2.826   5.332   0.256
 9605SOL    HW129714   2.860   5.377   0.339
 9605SOL    HW229715   2.728   5.349   0.246
 9606SOL     OW29716   6.645   0.225   5.502
 9606SOL    HW129717   6.701   0.189   5.427
 9606SOL    HW229718   6.610   0.149   5.557
 9607SOL     OW29719   6.997   1.839   2.306
 9607SOL    HW129720   6.913   1.807   2.351
 9607SOL    HW229721   0.006   1.921   2.353
 9608SOL     OW29722   6.651   0.225   2.559
 9608SOL    HW129723   6.582   0.221   2.487
 9608SOL    HW229724   6.650   0.315   2.602
 9609SOL     OW29725   1.600   2.037   3.732
 9609SOL    HW129726   1.563   1.983   3.807
 9609SOL    HW229727   1.618   1.978   3.654
 9610SOL     OW29728   3.736   0.713   5.906
 9610SOL    HW129729   3.777   0.684   5.819
 9610SOL    HW229730   3.723   0.634   5.966
 9611SOL     OW29731   5.706   5.746   1.296
 9611SOL    HW129732   5.609   5.720   1.295
 9611SOL    HW229733   5.731   5.782   1.206
 9612SOL     OW29734   5.140   3.466   2.924
 9612SOL    HW129735   5.178   3.544   2.875
 9612SOL    HW229736   5.092   3.498   3.005
 9613SOL     OW29737   6.078   6.938   5.549
 9613SOL    HW129738   6.029   7.002   5.608
 9613SOL    HW229739   6.148   6.890   5.602
 9614SOL     OW29740   3.163   2.730   1.818
 9614SOL    HW129741   3.124   2.808   1.768
 9614SOL    HW229742   3.090   2.681   1.865
 9615SOL     OW29743   0.334   6.319   3.930
 9615SOL    HW129744   0.320   6.268   3.845
 9615SOL    HW229745   0.411   6.280   3.980
 9616SOL     OW29746   1.699   2.836   1.333
 9616SOL    HW129747   1.787   2.792   1.353
 9616SOL    HW229748   1.654   2.860   1.419
 9617SOL     OW29749   7.015   2.850   2.447
 9617SOL    HW129750   7.018   2.767   2.503
 9617SOL    HW229751   6.967   2.831   2.361
 9618SOL     OW29752   4.306   4.130   0.824
 9618SOL    HW129753   4.305   4.204   0.891
 9618SOL    HW229754   4.297   4.042   0.871
 9619SOL     OW29755   0.942   6.756   1.659
 9619SOL    HW129756   0.906   6.720   1.745
 9619SOL    HW229757   0.873   6.815   1.616
 9620SOL     OW29758   3.544   1.835   6.898
 9620SOL    HW129759   3.523   1.782   6.816
 9620SOL    HW229760   3.458   1.868   6.939
 9621SOL     OW29761   0.584   1.016   1.982
 9621SOL    HW129762   0.504   1.055   1.936
 9621SOL    HW229763   0.560   0.989   2.075
 9622SOL     OW29764   6.619   5.547   5.980
 9622SOL    HW129765   6.609   5.452   6.007
 9622SOL    HW229766   6.711   5.579   6.004
 9623SOL     OW29767   3.855   6.594   5.578
 9623SOL    HW129768   3.783   6.648   5.621
 9623SOL    HW229769   3.816   6.537   5.506
 9624SOL     OW29770   4.297   5.480   5.243
 9624SOL    HW129771   4.200   5.491   5.221
 9624SOL    HW229772   4.349   5.468   5.158
 9625SOL     OW29773   4.873   4.094   6.319
 9625SOL    HW129774   4.933   4.055   6.388
 9625SOL    HW229775   4.781   4.057   6.330
 9626SOL     OW29776   2.577   2.188   6.719
 9626SOL    HW129777   2.505   2.255   6.735
 9626SOL    HW229778   2.663   2.221   6.757
 9627SOL     OW29779   0.359   5.312   0.322
 9627SOL    HW129780   0.446   5.277   0.357
 9627SOL    HW229781   0.305   5.350   0.397
 9628SOL     OW29782   0.030   2.018   6.222
 9628SOL    HW129783   0.059   2.047   6.313
 9628SOL    HW229784   6.983   2.080   6.189
 9629SOL     OW29785   0.136   6.335   4.132
 9629SOL    HW129786   0.210   6.314   4.069
 9629SOL    HW229787   0.057   6.368   4.080
 9630SOL     OW29788   5.872   1.623   6.280
 9630SOL    HW129789   5.819   1.545   6.246
 9630SOL    HW229790   5.881   1.691   6.207
 9631SOL     OW29791   4.722   6.822   0.717
 9631SOL    HW129792   4.744   6.876   0.798
 9631SOL    HW229793   4.688   6.732   0.745
 9632SOL     OW29794   2.843   4.928   2.602
 9632SOL    HW129795   2.934   4.967   2.589
 9632SOL    HW229796   2.799   4.970   2.681
 9633SOL     OW29797   3.499   2.896   3.332
 9633SOL    HW129798   3.487   2.960   3.407
 9633SOL    HW229799   3.564   2.934   3.266
 9634SOL     OW29800   4.805   4.539   3.311
 9634SOL    HW129801   4.873   4.468   3.331
 9634SOL    HW229802   4.717   4.496   3.292
 9635SOL     OW29803   0.758   4.743   3.430
 9635SOL    HW129804   0.723   4.834   3.451
 9635SOL    HW229805   0.800   4.704   3.512
 9636SOL     OW29806   5.856   3.981   4.193
 9636SOL    HW129807   5.956   3.986   4.195
 9636SOL    HW229808   5.819   4.064   4.151
 9637SOL     OW29809   1.253   3.504   0.131
 9637SOL    HW129810   1.312   3.426   0.111
 9637SOL    HW229811   1.227   3.548   0.045
 9638SOL     OW29812   5.891   5.427   6.159
 9638SOL    HW129813   5.940   5.388   6.237
 9638SOL    HW229814   5.809   5.373   6.140
 9639SOL     OW29815   4.228   2.018   1.165
 9639SOL    HW129816   4.246   1.921   1.150
 9639SOL    HW229817   4.228   2.038   1.263
 9640SOL     OW29818   3.820   0.633   3.427
 9640SOL    HW129819   3.816   0.544   3.471
 9640SOL    HW229820   3.869   0.697   3.486
 9641SOL     OW29821   6.835   2.551   3.849
 9641SOL    HW129822   6.906   2.614   3.878
 9641SOL    HW229823   6.756   2.558   3.911
 9642SOL     OW29824   0.837   1.460   4.731
 9642SOL    HW129825   0.744   1.425   4.736
 9642SOL    HW229826   0.879   1.430   4.645
 9643SOL     OW29827   5.271   5.265   3.829
 9643SOL    HW129828   5.295   5.279   3.925
 9643SOL    HW229829   5.291   5.349   3.778
 9644SOL     OW29830   0.794   5.325   3.635
 9644SOL    HW129831   0.840   5.410   3.661
 9644SOL    HW229832   0.708   5.316   3.687
 9645SOL     OW29833   0.810   5.198   6.008
 9645SOL    HW129834   0.723   5.197   6.057
 9645SOL    HW229835   0.885   5.198   6.074
 9646SOL     OW29836   3.591   6.084   0.414
 9646SOL    HW129837   3.549   6.106   0.326
 9646SOL    HW229838   3.690   6.096   0.407
 9647SOL     OW29839   5.905   6.535   2.942
 9647SOL    HW129840   5.956   6.477   2.878
 9647SOL    HW229841   5.967   6.603   2.981
 9648SOL     OW29842   3.573   1.670   1.035
 9648SOL    HW129843   3.605   1.664   1.130
 9648SOL    HW229844   3.514   1.750   1.026
 9649SOL     OW29845   0.211   5.608   0.834
 9649SOL    HW129846   0.309   5.626   0.820
 9649SOL    HW229847   0.198   5.511   0.853
 9650SOL     OW29848   0.936   4.848   3.948
 9650SOL    HW129849   0.854   4.842   4.004
 9650SOL    HW229850   1.017   4.846   4.007
 9651SOL     OW29851   3.637   2.129   6.931
 9651SOL    HW129852   3.585   2.158   7.011
 9651SOL    HW229853   3.588   2.056   6.884
 9652SOL     OW29854   0.523   4.033   0.449
 9652SOL    HW129855   0.435   3.993   0.475
 9652SOL    HW229856   0.508   4.105   0.381
 9653SOL     OW29857   4.786   4.615   5.427
 9653SOL    HW129858   4.729   4.685   5.471
 9653SOL    HW229859   4.864   4.659   5.382
 9654SOL     OW29860   3.472   3.714   3.364
 9654SOL    HW129861   3.557   3.759   3.338
 9654SOL    HW229862   3.430   3.761   3.442
 9655SOL     OW29863   4.475   1.508   0.875
 9655SOL    HW129864   4.451   1.588   0.820
 9655SOL    HW229865   4.461   1.529   0.972
 9656SOL     OW29866   5.375   4.298   6.398
 9656SOL    HW129867   5.289   4.349   6.404
 9656SOL    HW229868   5.445   4.345   6.450
 9657SOL     OW29869   5.082   4.810   4.144
 9657SOL    HW129870   4.984   4.794   4.157
 9657SOL    HW229871   5.096   4.859   4.058
 9658SOL     OW29872   4.539   1.539   2.104
 9658SOL    HW129873   4.497   1.604   2.039
 9658SOL    HW229874   4.534   1.577   2.196
 9659SOL     OW29875   2.795   2.716   6.390
 9659SOL    HW129876   2.841   2.752   6.309
 9659SOL    HW229877   2.729   2.783   6.424
 9660SOL     OW29878   1.496   6.851   1.534
 9660SOL    HW129879   1.561   6.790   1.579
 9660SOL    HW229880   1.545   6.908   1.468
 9661SOL     OW29881   3.820   4.023   1.282
 9661SOL    HW129882   3.899   4.028   1.220
 9661SOL    HW229883   3.835   3.952   1.350
 9662SOL     OW29884   5.080   6.680   6.480
 9662SOL    HW129885   5.159   6.637   6.437
 9662SOL    HW229886   5.001   6.620   6.472
 9663SOL     OW29887   1.139   5.412   2.735
 9663SOL    HW129888   1.042   5.388   2.734
 9663SOL    HW229889   1.192   5.338   2.692
 9664SOL     OW29890   3.530   5.000   2.062
 9664SOL    HW129891   3.536   4.904   2.035
 9664SOL    HW229892   3.498   5.005   2.157
 9665SOL     OW29893   6.784   4.341   6.024
 9665SOL    HW129894   6.756   4.348   5.929
 9665SOL    HW229895   6.711   4.301   6.078
 9666SOL     OW29896   5.226   3.909   0.475
 9666SOL    HW129897   5.151   3.844   0.484
 9666SOL    HW229898   5.216   3.982   0.542
 9667SOL     OW29899   5.677   6.070   0.583
 9667SOL    HW129900   5.765   6.117   0.576
 9667SOL    HW229901   5.607   6.123   0.535
 9668SOL     OW29902   1.469   0.810   5.961
 9668SOL    HW129903   1.433   0.817   6.054
 9668SOL    HW229904   1.538   0.737   5.958
 9669SOL     OW29905   2.825   0.644   0.187
 9669SOL    HW129906   2.837   0.548   0.163
 9669SOL    HW229907   2.856   0.660   0.281
 9670SOL     OW29908   0.606   0.399   0.608
 9670SOL    HW129909   0.662   0.459   0.551
 9670SOL    HW229910   0.619   0.421   0.704
 9671SOL     OW29911   0.686   5.056   6.745
 9671SOL    HW129912   0.751   5.040   6.670
 9671SOL    HW229913   0.675   4.972   6.798
 9672SOL     OW29914   1.108   4.101   4.592
 9672SOL    HW129915   1.136   4.008   4.568
 9672SOL    HW229916   1.097   4.155   4.509
 9673SOL     OW29917   1.931   3.867   0.022
 9673SOL    HW129918   1.980   3.789   0.060
 9673SOL    HW229919   1.980   3.903   6.967
 9674SOL     OW29920   1.893   6.583   3.932
 9674SOL    HW129921   1.823   6.623   3.992
 9674SOL    HW229922   1.868   6.489   3.910
 9675SOL     OW29923   6.050   3.473   5.794
 9675SOL    HW129924   6.081   3.393   5.844
 9675SOL    HW229925   6.107   3.487   5.713
 9676SOL     OW29926   0.760   2.974   6.250
 9676SOL    HW129927   0.850   3.011   6.274
 9676SOL    HW229928   0.722   3.026   6.174
 9677SOL     OW29929   6.252   5.294   2.450
 9677SOL    HW129930   6.322   5.251   2.508
 9677SOL    HW229931   6.234   5.386   2.484
 9678SOL     OW29932   3.752   3.712   5.167
 9678SOL    HW129933   3.665   3.687   5.208
 9678SOL    HW229934   3.739   3.790   5.106
 9679SOL     OW29935   1.689   0.663   4.145
 9679SOL    HW129936   1.687   0.684   4.243
 9679SOL    HW229937   1.784   0.651   4.116
 9680SOL     OW29938   4.205   0.430   2.026
 9680SOL    HW129939   4.110   0.413   1.998
 9680SOL    HW229940   4.228   0.526   2.009
 9681SOL     OW29941   1.202   2.333   1.840
 9681SOL    HW129942   1.291   2.309   1.801
 9681SOL    HW229943   1.130   2.313   1.773
 9682SOL     OW29944   4.957   6.543   6.201
 9682SOL    HW129945   4.905   6.613   6.153
 9682SOL    HW229946   5.051   6.540   6.165
 9683SOL     OW29947   3.176   6.379   3.291
 9683SOL    HW129948   3.146   6.366   3.386
 9683SOL    HW229949   3.271   6.350   3.281
 9684SOL     OW29950   6.749   3.425   5.072
 9684SOL    HW129951   6.675   3.434   5.139
 9684SOL    HW229952   6.747   3.334   5.032
 9685SOL     OW29953   3.315   4.452   1.500
 9685SOL    HW129954   3.346   4.536   1.545
 9685SOL    HW229955   3.276   4.390   1.569
 9686SOL     OW29956   6.797   1.052   5.624
 9686SOL    HW129957   6.800   1.011   5.533
 9686SOL    HW229958   6.728   1.125   5.625
 9687SOL     OW29959   5.063   1.058   3.150
 9687SOL    HW129960   5.038   1.139   3.099
 9687SOL    HW229961   5.072   1.081   3.247
 9688SOL     OW29962   0.667   5.059   2.147
 9688SOL    HW129963   0.593   5.104   2.097
 9688SOL    HW229964   0.755   5.083   2.106
 9689SOL     OW29965   1.976   6.136   1.226
 9689SOL    HW129966   1.906   6.193   1.185
 9689SOL    HW229967   2.001   6.062   1.163
 9690SOL     OW29968   0.235   4.863   4.465
 9690SOL    HW129969   0.160   4.809   4.427
 9690SOL    HW229970   0.321   4.832   4.427
 9691SOL     OW29971   3.142   3.426   1.992
 9691SOL    HW129972   3.066   3.361   1.999
 9691SOL    HW229973   3.115   3.514   2.032
 9692SOL     OW29974   5.141   4.492   0.775
 9692SOL    HW129975   5.217   4.548   0.809
 9692SOL    HW229976   5.167   4.395   0.782
 9693SOL     OW29977   4.454   3.105   5.349
 9693SOL    HW129978   4.510   3.047   5.289
 9693SOL    HW229979   4.486   3.199   5.344
 9694SOL     OW29980   3.104   6.705   1.479
 9694SOL    HW129981   3.198   6.727   1.505
 9694SOL    HW229982   3.097   6.607   1.462
 9695SOL     OW29983   1.169   2.698   3.832
 9695SOL    HW129984   1.070   2.694   3.817
 9695SOL    HW229985   1.202   2.608   3.859
 9696SOL     OW29986   5.317   2.482   3.790
 9696SOL    HW129987   5.263   2.508   3.709
 9696SOL    HW229988   5.388   2.417   3.762
 9697SOL     OW29989   6.957   6.457   1.423
 9697SOL    HW129990   7.016   6.390   1.469
 9697SOL    HW229991   6.999   6.484   1.336
 9698SOL     OW29992   6.992   3.358   2.188
 9698SOL    HW129993   6.972   3.421   2.114
 9698SOL    HW229994   6.939   3.384   2.269
 9699SOL     OW29995   1.913   5.947   1.025
 9699SOL    HW129996   1.821   5.948   1.064
 9699SOL    HW229997   1.949   5.854   1.026
 9700SOL     OW29998   5.172   0.240   6.331
 9700SOL    HW129999   5.102   0.280   6.391
 9700SOL    HW230000   5.148   0.258   6.236
 9701SOL     OW30001   5.167   3.968   6.752
 9701SOL    HW130002   5.161   3.943   6.848
 9701SOL    HW230003   5.261   3.992   6.729
 9702SOL     OW30004   3.760   4.084   2.409
 9702SOL    HW130005   3.772   4.172   2.454
 9702SOL    HW230006   3.836   4.023   2.432
 9703SOL     OW30007   5.891   4.794   3.698
 9703SOL    HW130008   5.805   4.845   3.705
 9703SOL    HW230009   5.891   4.740   3.615
 9704SOL     OW30010   1.451   4.579   2.381
 9704SOL    HW130011   1.367   4.582   2.436
 9704SOL    HW230012   1.530   4.589   2.441
 9705SOL     OW30013   0.384   2.706   5.489
 9705SOL    HW130014   0.340   2.755   5.563
 9705SOL    HW230015   0.381   2.608   5.507
 9706SOL     OW30016   0.675   1.433   2.703
 9706SOL    HW130017   0.708   1.500   2.768
 9706SOL    HW230018   0.592   1.390   2.738
 9707SOL     OW30019   0.818   5.093   2.861
 9707SOL    HW130020   0.832   4.995   2.872
 9707SOL    HW230021   0.723   5.116   2.882
 9708SOL     OW30022   2.689   0.491   2.035
 9708SOL    HW130023   2.669   0.397   2.063
 9708SOL    HW230024   2.783   0.514   2.059
 9709SOL     OW30025   5.360   1.971   1.806
 9709SOL    HW130026   5.295   2.028   1.755
 9709SOL    HW230027   5.330   1.876   1.802
 9710SOL     OW30028   5.708   5.521   4.338
 9710SOL    HW130029   5.639   5.566   4.394
 9710SOL    HW230030   5.727   5.430   4.375
 9711SOL     OW30031   3.330   1.302   6.792
 9711SOL    HW130032   3.241   1.329   6.829
 9711SOL    HW230033   3.325   1.208   6.758
 9712SOL     OW30034   5.972   1.088   6.935
 9712SOL    HW130035   6.031   1.090   6.854
 9712SOL    HW230036   5.985   1.001   6.982
 9713SOL     OW30037   2.585   0.037   2.379
 9713SOL    HW130038   2.598   0.132   2.408
 9713SOL    HW230039   2.501   0.030   2.325
 9714SOL     OW30040   2.211   4.144   4.383
 9714SOL    HW130041   2.112   4.153   4.373
 9714SOL    HW230042   2.234   4.050   4.405
 9715SOL     OW30043   6.600   3.174   6.101
 9715SOL    HW130044   6.593   3.193   6.200
 9715SOL    HW230045   6.594   3.261   6.051
 9716SOL     OW30046   2.728   5.922   0.225
 9716SOL    HW130047   2.667   5.923   0.304
 9716SOL    HW230048   2.676   5.900   0.143
 9717SOL     OW30049   3.520   1.936   5.417
 9717SOL    HW130050   3.494   1.839   5.414
 9717SOL    HW230051   3.496   1.980   5.331
 9718SOL     OW30052   4.718   2.016   5.734
 9718SOL    HW130053   4.816   2.000   5.740
 9718SOL    HW230054   4.675   1.995   5.822
 9719SOL     OW30055   5.089   6.833   6.070
 9719SOL    HW130056   5.124   6.750   6.114
 9719SOL    HW230057   4.990   6.826   6.057
 9720SOL     OW30058   2.154   3.086   2.778
 9720SOL    HW130059   2.109   3.058   2.694
 9720SOL    HW230060   2.207   3.010   2.815
 9721SOL     OW30061   1.003   1.299   1.047
 9721SOL    HW130062   0.911   1.266   1.070
 9721SOL    HW230063   1.070   1.253   1.104
 9722SOL     OW30064   4.081   2.159   5.252
 9722SOL    HW130065   4.031   2.092   5.197
 9722SOL    HW230066   4.016   2.223   5.294
 9723SOL     OW30067   6.741   0.708   5.139
 9723SOL    HW130068   6.830   0.682   5.100
 9723SOL    HW230069   6.669   0.655   5.094
 9724SOL     OW30070   1.411   4.429   0.512
 9724SOL    HW130071   1.453   4.489   0.443
 9724SOL    HW230072   1.474   4.417   0.588
 9725SOL     OW30073   4.353   5.069   4.434
 9725SOL    HW130074   4.354   5.124   4.350
 9725SOL    HW230075   4.446   5.059   4.469
 9726SOL     OW30076   0.006   0.384   3.608
 9726SOL    HW130077   6.983   0.323   3.671
 9726SOL    HW230078   0.104   0.379   3.625
 9727SOL     OW30079   6.495   2.276   1.713
 9727SOL    HW130080   6.521   2.363   1.671
 9727SOL    HW230081   6.550   2.261   1.795
 9728SOL     OW30082   5.379   2.374   4.165
 9728SOL    HW130083   5.314   2.362   4.091
 9728SOL    HW230084   5.440   2.450   4.143
 9729SOL     OW30085   0.378   4.577   3.097
 9729SOL    HW130086   0.362   4.675   3.080
 9729SOL    HW230087   0.308   4.543   3.159
 9730SOL     OW30088   1.271   4.822   3.042
 9730SOL    HW130089   1.370   4.811   3.035
 9730SOL    HW230090   1.229   4.735   3.067
 9731SOL     OW30091   5.403   2.708   1.810
 9731SOL    HW130092   5.425   2.746   1.720
 9731SOL    HW230093   5.482   2.661   1.847
 9732SOL     OW30094   1.053   3.759   2.793
 9732SOL    HW130095   1.057   3.821   2.715
 9732SOL    HW230096   1.075   3.666   2.762
 9733SOL     OW30097   6.314   5.019   2.138
 9733SOL    HW130098   6.241   5.058   2.194
 9733SOL    HW230099   6.291   4.925   2.114
 9734SOL     OW30100   5.038   5.049   5.897
 9734SOL    HW130101   4.998   5.122   5.952
 9734SOL    HW230102   5.089   4.987   5.957
 9735SOL     OW30103   6.922   2.270   0.558
 9735SOL    HW130104   6.904   2.286   0.461
 9735SOL    HW230105   6.896   2.351   0.611
 9736SOL     OW30106   4.721   2.014   4.752
 9736SOL    HW130107   4.655   2.031   4.825
 9736SOL    HW230108   4.707   2.080   4.678
 9737SOL     OW30109   5.985   2.800   3.889
 9737SOL    HW130110   5.889   2.794   3.863
 9737SOL    HW230111   6.042   2.761   3.817
 9738SOL     OW30112   2.260   6.490   1.744
 9738SOL    HW130113   2.241   6.392   1.738
 9738SOL    HW230114   2.265   6.528   1.651
 9739SOL     OW30115   6.165   6.695   0.944
 9739SOL    HW130116   6.238   6.638   0.909
 9739SOL    HW230117   6.085   6.689   0.884
 9740SOL     OW30118   6.110   0.566   2.574
 9740SOL    HW130119   6.012   0.577   2.558
 9740SOL    HW230120   6.157   0.652   2.553
 9741SOL     OW30121   2.177   1.839   4.336
 9741SOL    HW130122   2.167   1.783   4.253
 9741SOL    HW230123   2.274   1.857   4.352
 9742SOL     OW30124   3.917   1.928   6.122
 9742SOL    HW130125   3.817   1.935   6.128
 9742SOL    HW230126   3.952   1.882   6.203
 9743SOL     OW30127   5.875   4.148   3.761
 9743SOL    HW130128   5.966   4.107   3.766
 9743SOL    HW230129   5.882   4.246   3.779
 9744SOL     OW30130   2.215   2.021   2.378
 9744SOL    HW130131   2.134   1.998   2.323
 9744SOL    HW230132   2.218   1.962   2.459
 9745SOL     OW30133   0.047   0.501   6.010
 9745SOL    HW130134   0.042   0.566   5.935
 9745SOL    HW230135   6.980   0.485   6.048
 9746SOL     OW30136   3.392   5.964   6.081
 9746SOL    HW130137   3.491   5.966   6.073
 9746SOL    HW230138   3.356   5.889   6.025
 9747SOL     OW30139   2.942   1.610   2.910
 9747SOL    HW130140   2.910   1.542   2.845
 9747SOL    HW230141   3.030   1.582   2.948
 9748SOL     OW30142   1.759   1.448   3.067
 9748SOL    HW130143   1.749   1.539   3.107
 9748SOL    HW230144   1.852   1.414   3.083
 9749SOL     OW30145   6.934   0.196   1.983
 9749SOL    HW130146   6.836   0.180   1.977
 9749SOL    HW230147   6.981   0.109   1.999
 9750SOL     OW30148   5.617   2.542   5.224
 9750SOL    HW130149   5.679   2.556   5.146
 9750SOL    HW230150   5.530   2.589   5.206
 9751SOL     OW30151   3.521   6.743   1.109
 9751SOL    HW130152   3.513   6.684   1.189
 9751SOL    HW230153   3.614   6.740   1.074
 9752SOL     OW30154   2.890   2.917   0.686
 9752SOL    HW130155   2.886   3.001   0.739
 9752SOL    HW230156   2.903   2.939   0.589
 9753SOL     OW30157   6.393   6.409   4.947
 9753SOL    HW130158   6.306   6.361   4.934
 9753SOL    HW230159   6.468   6.349   4.920
 9754SOL     OW30160   3.191   1.284   2.378
 9754SOL    HW130161   3.122   1.212   2.387
 9754SOL    HW230162   3.265   1.252   2.319
 9755SOL     OW30163   3.532   3.779   0.214
 9755SOL    HW130164   3.608   3.844   0.217
 9755SOL    HW230165   3.446   3.828   0.221
 9756SOL     OW30166   5.836   0.318   5.494
 9756SOL    HW130167   5.870   0.272   5.576
 9756SOL    HW230168   5.768   0.259   5.449
 9757SOL     OW30169   5.125   3.803   4.130
 9757SOL    HW130170   5.150   3.707   4.146
 9757SOL    HW230171   5.029   3.817   4.155
 9758SOL     OW30172   2.343   1.209   2.534
 9758SOL    HW130173   2.379   1.195   2.626
 9758SOL    HW230174   2.263   1.269   2.538
 9759SOL     OW30175   6.390   1.776   1.820
 9759SOL    HW130176   6.381   1.868   1.856
 9759SOL    HW230177   6.450   1.777   1.740
 9760SOL     OW30178   4.743   0.268   0.306
 9760SOL    HW130179   4.670   0.333   0.284
 9760SOL    HW230180   4.722   0.179   0.266
 9761SOL     OW30181   1.260   2.763   1.239
 9761SOL    HW130182   1.196   2.765   1.162
 9761SOL    HW230183   1.220   2.712   1.315
 9762SOL     OW30184   2.817   1.435   5.778
 9762SOL    HW130185   2.867   1.472   5.857
 9762SOL    HW230186   2.862   1.462   5.694
 9763SOL     OW30187   6.426   2.326   1.344
 9763SOL    HW130188   6.467   2.383   1.416
 9763SOL    HW230189   6.433   2.230   1.369
 9764SOL     OW30190   0.257   1.980   2.637
 9764SOL    HW130191   0.166   1.989   2.598
 9764SOL    HW230192   0.269   1.887   2.672
 9765SOL     OW30193   6.797   0.462   1.880
 9765SOL    HW130194   6.814   0.403   1.959
 9765SOL    HW230195   6.702   0.494   1.881
 9766SOL     OW30196   1.627   2.251   2.972
 9766SOL    HW130197   1.553   2.193   2.939
 9766SOL    HW230198   1.598   2.346   2.973
 9767SOL     OW30199   2.617   1.372   5.213
 9767SOL    HW130200   2.675   1.378   5.132
 9767SOL    HW230201   2.530   1.419   5.195
 9768SOL     OW30202   5.743   3.174   0.630
 9768SOL    HW130203   5.764   3.076   0.632
 9768SOL    HW230204   5.673   3.191   0.561
 9769SOL     OW30205   3.050   1.647   5.461
 9769SOL    HW130206   3.004   1.699   5.533
 9769SOL    HW230207   3.087   1.709   5.393
 9770SOL     OW30208   1.927   2.908   5.505
 9770SOL    HW130209   1.877   2.994   5.489
 9770SOL    HW230210   1.942   2.896   5.603
 9771SOL     OW30211   3.375   0.147   1.537
 9771SOL    HW130212   3.314   0.225   1.546
 9771SOL    HW230213   3.440   0.163   1.463
 9772SOL     OW30214   1.000   0.512   1.562
 9772SOL    HW130215   1.085   0.514   1.615
 9772SOL    HW230216   1.020   0.487   1.468
 9773SOL     OW30217   6.051   5.489   2.549
 9773SOL    HW130218   5.986   5.564   2.555
 9773SOL    HW230219   6.100   5.481   2.636
 9774SOL     OW30220   1.630   4.617   4.633
 9774SOL    HW130221   1.566   4.553   4.676
 9774SOL    HW230222   1.691   4.655   4.702
 9775SOL     OW30223   2.352   1.525   3.239
 9775SOL    HW130224   2.400   1.610   3.261
 9775SOL    HW230225   2.382   1.493   3.148
 9776SOL     OW30226   2.743   5.212   0.936
 9776SOL    HW130227   2.831   5.166   0.931
 9776SOL    HW230228   2.708   5.227   0.843
 9777SOL     OW30229   4.688   0.889   5.302
 9777SOL    HW130230   4.607   0.943   5.322
 9777SOL    HW230231   4.668   0.826   5.227
 9778SOL     OW30232   1.353   4.158   3.321
 9778SOL    HW130233   1.380   4.237   3.378
 9778SOL    HW230234   1.256   4.138   3.336
 9779SOL     OW30235   2.757   1.023   3.490
 9779SOL    HW130236   2.806   0.964   3.554
 9779SOL    HW230237   2.823   1.062   3.424
 9780SOL     OW30238   0.807   2.533   2.034
 9780SOL    HW130239   0.878   2.571   2.094
 9780SOL    HW230240   0.820   2.566   1.941
 9781SOL     OW30241   1.805   1.570   2.140
 9781SOL    HW130242   1.818   1.517   2.224
 9781SOL    HW230243   1.712   1.606   2.137
 9782SOL     OW30244   0.519   2.280   0.544
 9782SOL    HW130245   0.470   2.367   0.538
 9782SOL    HW230246   0.494   2.222   0.466
 9783SOL     OW30247   4.356   1.500   2.918
 9783SOL    HW130248   4.403   1.418   2.886
 9783SOL    HW230249   4.271   1.475   2.963
 9784SOL     OW30250   2.105   1.102   6.516
 9784SOL    HW130251   2.186   1.148   6.478
 9784SOL    HW230252   2.104   1.115   6.615
 9785SOL     OW30253   0.581   3.988   4.429
 9785SOL    HW130254   0.644   3.978   4.507
 9785SOL    HW230255   0.627   3.955   4.346
 9786SOL     OW30256   2.436   4.455   6.446
 9786SOL    HW130257   2.506   4.511   6.491
 9786SOL    HW230258   2.457   4.358   6.459
 9787SOL     OW30259   3.020   3.663   2.566
 9787SOL    HW130260   3.016   3.580   2.509
 9787SOL    HW230261   2.986   3.741   2.514
 9788SOL     OW30262   3.829   6.863   1.817
 9788SOL    HW130263   3.916   6.815   1.820
 9788SOL    HW230264   3.841   6.956   1.853
 9789SOL     OW30265   3.868   1.404   6.787
 9789SOL    HW130266   3.867   1.503   6.779
 9789SOL    HW230267   3.857   1.378   6.883
 9790SOL     OW30268   5.759   5.959   4.437
 9790SOL    HW130269   5.847   5.913   4.427
 9790SOL    HW230270   5.709   5.919   4.514
 9791SOL     OW30271   0.672   0.141   1.786
 9791SOL    HW130272   0.664   0.082   1.705
 9791SOL    HW230273   0.731   0.096   1.853
 9792SOL     OW30274   4.070   4.768   0.659
 9792SOL    HW130275   4.127   4.836   0.706
 9792SOL    HW230276   4.097   4.676   0.688
 9793SOL     OW30277   5.801   1.084   3.573
 9793SOL    HW130278   5.787   1.182   3.583
 9793SOL    HW230279   5.867   1.067   3.500
 9794SOL     OW30280   4.364   4.645   4.569
 9794SOL    HW130281   4.384   4.582   4.494
 9794SOL    HW230282   4.403   4.609   4.654
 9795SOL     OW30283   1.237   3.647   2.972
 9795SOL    HW130284   1.155   3.683   2.929
 9795SOL    HW230285   1.255   3.554   2.940
 9796SOL     OW30286   3.276   4.051   4.225
 9796SOL    HW130287   3.326   3.988   4.284
 9796SOL    HW230288   3.187   4.012   4.203
 9797SOL     OW30289   2.395   5.149   0.274
 9797SOL    HW130290   2.364   5.222   0.335
 9797SOL    HW230291   2.335   5.070   0.282
 9798SOL     OW30292   6.957   4.085   6.362
 9798SOL    HW130293   7.024   4.070   6.435
 9798SOL    HW230294   6.975   4.173   6.317
 9799SOL     OW30295   3.169   0.276   6.976
 9799SOL    HW130296   3.198   0.183   6.998
 9799SOL    HW230297   3.103   0.273   6.901
 9800SOL     OW30298   0.183   3.294   3.913
 9800SOL    HW130299   0.205   3.338   4.000
 9800SOL    HW230300   0.230   3.206   3.907
 9801SOL     OW30301   5.410   6.656   0.486
 9801SOL    HW130302   5.323   6.641   0.534
 9801SOL    HW230303   5.392   6.685   0.392
 9802SOL     OW30304   4.274   3.942   0.201
 9802SOL    HW130305   4.269   3.884   0.120
 9802SOL    HW230306   4.231   3.896   0.278
 9803SOL     OW30307   1.007   3.089   6.233
 9803SOL    HW130308   1.057   3.075   6.319
 9803SOL    HW230309   1.024   3.182   6.200
 9804SOL     OW30310   0.466   5.105   2.359
 9804SOL    HW130311   0.516   5.123   2.274
 9804SOL    HW230312   0.530   5.106   2.436
 9805SOL     OW30313   0.333   5.478   3.964
 9805SOL    HW130314   0.417   5.474   3.910
 9805SOL    HW230315   0.338   5.553   4.029
 9806SOL     OW30316   3.854   1.884   0.218
 9806SOL    HW130317   3.865   1.970   0.267
 9806SOL    HW230318   3.939   1.859   0.173
 9807SOL     OW30319   3.981   3.160   3.171
 9807SOL    HW130320   4.073   3.129   3.146
 9807SOL    HW230321   3.964   3.250   3.131
 9808SOL     OW30322   4.024   5.672   2.110
 9808SOL    HW130323   4.016   5.747   2.176
 9808SOL    HW230324   3.934   5.629   2.098
 9809SOL     OW30325   6.524   3.396   0.644
 9809SOL    HW130326   6.484   3.386   0.553
 9809SOL    HW230327   6.485   3.327   0.705
 9810SOL     OW30328   2.669   1.958   6.958
 9810SOL    HW130329   2.591   1.904   6.925
 9810SOL    HW230330   2.754   1.907   6.942
 9811SOL     OW30331   5.684   3.976   4.415
 9811SOL    HW130332   5.739   3.959   4.333
 9811SOL    HW230333   5.721   3.924   4.491
 9812SOL     OW30334   3.379   6.317   5.832
 9812SOL    HW130335   3.475   6.344   5.828
 9812SOL    HW230336   3.361   6.248   5.762
 9813SOL     OW30337   5.035   0.426   1.950
 9813SOL    HW130338   5.060   0.431   2.046
 9813SOL    HW230339   5.071   0.506   1.902
 9814SOL     OW30340   6.281   0.999   0.118
 9814SOL    HW130341   6.303   1.039   0.207
 9814SOL    HW230342   6.306   1.064   0.045
 9815SOL     OW30343   4.656   2.705   4.166
 9815SOL    HW130344   4.695   2.797   4.165
 9815SOL    HW230345   4.612   2.689   4.255
 9816SOL     OW30346   2.081   0.972   1.455
 9816SOL    HW130347   2.121   1.034   1.388
 9816SOL    HW230348   2.018   1.022   1.514
 9817SOL     OW30349   6.537   6.823   2.647
 9817SOL    HW130350   6.520   6.768   2.566
 9817SOL    HW230351   6.612   6.887   2.629
 9818SOL     OW30352   5.322   2.552   5.099
 9818SOL    HW130353   5.380   2.537   5.019
 9818SOL    HW230354   5.254   2.622   5.079
 9819SOL     OW30355   4.301   0.691   2.596
 9819SOL    HW130356   4.340   0.636   2.522
 9819SOL    HW230357   4.203   0.672   2.604
 9820SOL     OW30358   4.137   2.902   5.943
 9820SOL    HW130359   4.198   2.824   5.957
 9820SOL    HW230360   4.067   2.903   6.015
 9821SOL     OW30361   6.595   4.974   0.385
 9821SOL    HW130362   6.683   4.973   0.432
 9821SOL    HW230363   6.570   4.880   0.360
 9822SOL     OW30364   0.749   6.718   2.406
 9822SOL    HW130365   0.703   6.788   2.461
 9822SOL    HW230366   0.847   6.737   2.402
 9823SOL     OW30367   3.806   0.095   1.878
 9823SOL    HW130368   3.808   0.164   1.806
 9823SOL    HW230369   3.720   0.103   1.930
 9824SOL     OW30370   1.520   3.935   5.848
 9824SOL    HW130371   1.589   3.966   5.782
 9824SOL    HW230372   1.559   3.860   5.902
 9825SOL     OW30373   4.262   5.162   5.174
 9825SOL    HW130374   4.192   5.116   5.228
 9825SOL    HW230375   4.251   5.138   5.077
 9826SOL     OW30376   5.178   0.802   6.001
 9826SOL    HW130377   5.166   0.784   5.903
 9826SOL    HW230378   5.177   0.715   6.050
 9827SOL     OW30379   1.263   3.862   4.281
 9827SOL    HW130380   1.197   3.839   4.210
 9827SOL    HW230381   1.223   3.843   4.371
 9828SOL     OW30382   3.240   3.208   6.875
 9828SOL    HW130383   3.245   3.150   6.793
 9828SOL    HW230384   3.215   3.152   6.954
 9829SOL     OW30385   3.360   4.670   0.664
 9829SOL    HW130386   3.311   4.657   0.578
 9829SOL    HW230387   3.380   4.768   0.677
 9830SOL     OW30388   6.185   0.220   0.683
 9830SOL    HW130389   6.205   0.305   0.633
 9830SOL    HW230390   6.175   0.145   0.618
 9831SOL     OW30391   6.336   6.918   0.638
 9831SOL    HW130392   6.303   6.970   0.560
 9831SOL    HW230393   6.390   6.978   0.697
 9832SOL     OW30394   4.266   4.372   1.016
 9832SOL    HW130395   4.213   4.455   0.997
 9832SOL    HW230396   4.361   4.387   0.987
 9833SOL     OW30397   3.798   4.100   5.490
 9833SOL    HW130398   3.877   4.162   5.489
 9833SOL    HW230399   3.815   4.026   5.555
 9834SOL     OW30400   0.681   3.617   4.487
 9834SOL    HW130401   0.691   3.627   4.388
 9834SOL    HW230402   0.758   3.564   4.523
 9835SOL     OW30403   5.053   1.369   4.117
 9835SOL    HW130404   5.056   1.295   4.185
 9835SOL    HW230405   4.967   1.419   4.127
 9836SOL     OW30406   5.034   5.481   3.148
 9836SOL    HW130407   5.102   5.530   3.203
 9836SOL    HW230408   5.022   5.528   3.061
 9837SOL     OW30409   1.674   6.302   4.370
 9837SOL    HW130410   1.718   6.392   4.379
 9837SOL    HW230411   1.667   6.278   4.274
 9838SOL     OW30412   0.332   5.412   5.640
 9838SOL    HW130413   0.395   5.488   5.620
 9838SOL    HW230414   0.273   5.396   5.561
 9839SOL     OW30415   6.624   1.619   1.877
 9839SOL    HW130416   6.524   1.630   1.883
 9839SOL    HW230417   6.645   1.522   1.863
 9840SOL     OW30418   0.004   0.544   1.262
 9840SOL    HW130419   0.062   0.595   1.325
 9840SOL    HW230420   6.963   0.489   1.313
 9841SOL     OW30421   1.738   3.882   4.008
 9841SOL    HW130422   1.641   3.906   4.017
 9841SOL    HW230423   1.755   3.796   4.055
 9842SOL     OW30424   3.657   3.066   2.294
 9842SOL    HW130425   3.604   2.987   2.326
 9842SOL    HW230426   3.689   3.048   2.201
 9843SOL     OW30427   6.076   2.886   2.099
 9843SOL    HW130428   6.030   2.898   2.187
 9843SOL    HW230429   6.167   2.849   2.114
 9844SOL     OW30430   5.090   6.881   2.637
 9844SOL    HW130431   5.023   6.869   2.563
 9844SOL    HW230432   5.042   6.902   2.722
 9845SOL     OW30433   0.604   2.109   3.224
 9845SOL    HW130434   0.596   2.124   3.322
 9845SOL    HW230435   0.521   2.063   3.190
 9846SOL     OW30436   2.912   3.304   2.829
 9846SOL    HW130437   2.849   3.289   2.753
 9846SOL    HW230438   2.963   3.220   2.848
 9847SOL     OW30439   1.941   4.480   5.649
 9847SOL    HW130440   2.037   4.507   5.657
 9847SOL    HW230441   1.895   4.539   5.583
 9848SOL     OW30442   4.680   3.526   0.303
 9848SOL    HW130443   4.628   3.593   0.249
 9848SOL    HW230444   4.770   3.513   0.260
 9849SOL     OW30445   0.204   0.138   5.806
 9849SOL    HW130446   0.211   0.174   5.899
 9849SOL    HW230447   0.113   0.158   5.770
 9850SOL     OW30448   3.704   6.318   2.377
 9850SOL    HW130449   3.668   6.272   2.458
 9850SOL    HW230450   3.774   6.261   2.335
 9851SOL     OW30451   5.833   1.989   5.268
 9851SOL    HW130452   5.838   1.993   5.169
 9851SOL    HW230453   5.830   2.082   5.305
 9852SOL     OW30454   5.023   1.682   3.992
 9852SOL    HW130455   5.109   1.644   4.028
 9852SOL    HW230456   5.036   1.706   3.896
 9853SOL     OW30457   6.182   4.101   1.990
 9853SOL    HW130458   6.274   4.115   1.954
 9853SOL    HW230459   6.125   4.059   1.919
 9854SOL     OW30460   5.124   5.660   3.919
 9854SOL    HW130461   5.053   5.728   3.899
 9854SOL    HW230462   5.189   5.698   3.985
 9855SOL     OW30463   1.196   3.278   1.328
 9855SOL    HW130464   1.295   3.292   1.320
 9855SOL    HW230465   1.165   3.313   1.416
 9856SOL     OW30466   4.003   2.931   1.167
 9856SOL    HW130467   3.932   2.987   1.210
 9856SOL    HW230468   3.999   2.838   1.203
 9857SOL     OW30469   5.051   4.170   3.104
 9857SOL    HW130470   5.094   4.260   3.111
 9857SOL    HW230471   4.990   4.168   3.025
 9858SOL     OW30472   5.147   0.592   1.254
 9858SOL    HW130473   5.212   0.639   1.194
 9858SOL    HW230474   5.174   0.496   1.265
 9859SOL     OW30475   6.462   0.471   2.218
 9859SOL    HW130476   6.544   0.507   2.262
 9859SOL    HW230477   6.391   0.541   2.217
 9860SOL     OW30478   0.595   1.213   2.475
 9860SOL    HW130479   0.579   1.255   2.385
 9860SOL    HW230480   0.655   1.271   2.529
 9861SOL     OW30481   3.690   6.774   4.382
 9861SOL    HW130482   3.760   6.705   4.363
 9861SOL    HW230483   3.693   6.845   4.311
 9862SOL     OW30484   0.988   2.535   0.585
 9862SOL    HW130485   1.061   2.587   0.540
 9862SOL    HW230486   1.018   2.509   0.676
 9863SOL     OW30487   3.353   6.793   1.479
 9863SOL    HW130488   3.421   6.859   1.512
 9863SOL    HW230489   3.400   6.711   1.445
 9864SOL     OW30490   4.723   5.626   2.164
 9864SOL    HW130491   4.684   5.646   2.073
 9864SOL    HW230492   4.682   5.687   2.232
 9865SOL     OW30493   0.318   1.528   4.624
 9865SOL    HW130494   0.291   1.607   4.569
 9865SOL    HW230495   0.406   1.547   4.668
 9866SOL     OW30496   4.582   4.392   3.777
 9866SOL    HW130497   4.533   4.472   3.742
 9866SOL    HW230498   4.569   4.385   3.876
 9867SOL     OW30499   4.469   1.147   6.888
 9867SOL    HW130500   4.504   1.098   6.808
 9867SOL    HW230501   4.478   1.246   6.873
 9868SOL     OW30502   0.169   5.152   0.082
 9868SOL    HW130503   0.245   5.155   0.146
 9868SOL    HW230504   0.116   5.236   0.088
 9869SOL     OW30505   1.804   4.086   3.084
 9869SOL    HW130506   1.787   3.987   3.090
 9869SOL    HW230507   1.868   4.112   3.155
 9870SOL     OW30508   4.913   4.789   2.937
 9870SOL    HW130509   4.943   4.873   2.982
 9870SOL    HW230510   4.897   4.808   2.840
 9871SOL     OW30511   2.060   1.013   5.213
 9871SOL    HW130512   1.965   1.041   5.199
 9871SOL    HW230513   2.112   1.029   5.129
 9872SOL     OW30514   1.924   4.781   3.583
 9872SOL    HW130515   1.988   4.733   3.644
 9872SOL    HW230516   1.861   4.715   3.542
 9873SOL     OW30517   1.269   2.850   0.280
 9873SOL    HW130518   1.239   2.756   0.298
 9873SOL    HW230519   1.341   2.875   0.345
 9874SOL     OW30520   0.894   2.665   3.840
 9874SOL    HW130521   0.830   2.601   3.797
 9874SOL    HW230522   0.882   2.662   3.939
 9875SOL     OW30523   1.458   0.638   3.527
 9875SOL    HW130524   1.537   0.655   3.586
 9875SOL    HW230525   1.489   0.630   3.432
 9876SOL     OW30526   0.080   6.119   2.632
 9876SOL    HW130527   0.160   6.063   2.608
 9876SOL    HW230528   7.021   6.066   2.619
 9877SOL     OW30529   3.257   0.233   2.465
 9877SOL    HW130530   3.314   0.206   2.387
 9877SOL    HW230531   3.164   0.253   2.432
 9878SOL     OW30532   0.603   6.260   5.272
 9878SOL    HW130533   0.554   6.219   5.196
 9878SOL    HW230534   0.568   6.352   5.290
 9879SOL     OW30535   4.465   5.702   6.243
 9879SOL    HW130536   4.493   5.784   6.293
 9879SOL    HW230537   4.448   5.725   6.147
 9880SOL     OW30538   1.703   1.501   5.704
 9880SOL    HW130539   1.722   1.424   5.643
 9880SOL    HW230540   1.728   1.476   5.798
 9881SOL     OW30541   0.375   2.705   6.057
 9881SOL    HW130542   0.297   2.663   6.101
 9881SOL    HW230543   0.430   2.635   6.010
 9882SOL     OW30544   1.540   1.865   3.962
 9882SOL    HW130545   1.572   1.923   4.037
 9882SOL    HW230546   1.566   1.770   3.979
 9883SOL     OW30547   1.797   0.765   2.100
 9883SOL    HW130548   1.775   0.683   2.153
 9883SOL    HW230549   1.897   0.774   2.094
 9884SOL     OW30550   4.073   0.439   4.284
 9884SOL    HW130551   4.058   0.535   4.308
 9884SOL    HW230552   4.066   0.382   4.367
 9885SOL     OW30553   6.340   4.692   3.981
 9885SOL    HW130554   6.310   4.771   3.929
 9885SOL    HW230555   6.273   4.671   4.052
 9886SOL     OW30556   1.122   4.078   2.403
 9886SOL    HW130557   1.141   4.154   2.342
 9886SOL    HW230558   1.093   3.998   2.349
 9887SOL     OW30559   3.938   0.792   6.937
 9887SOL    HW130560   3.947   0.868   7.001
 9887SOL    HW230561   3.947   0.826   6.843
 9888SOL     OW30562   0.476   4.265   0.319
 9888SOL    HW130563   0.545   4.310   0.262
 9888SOL    HW230564   0.436   4.332   0.381
 9889SOL     OW30565   6.612   4.822   0.710
 9889SOL    HW130566   6.550   4.861   0.778
 9889SOL    HW230567   6.690   4.883   0.697
 9890SOL     OW30568   1.427   2.654   1.051
 9890SOL    HW130569   1.506   2.713   1.069
 9890SOL    HW230570   1.351   2.682   1.109
 9891SOL     OW30571   5.046   2.370   0.665
 9891SOL    HW130572   4.983   2.304   0.708
 9891SOL    HW230573   5.069   2.441   0.731
 9892SOL     OW30574   6.597   5.337   7.008
 9892SOL    HW130575   6.597   5.262   0.050
 9892SOL    HW230576   6.587   5.299   6.916
 9893SOL     OW30577   2.439   1.653   0.598
 9893SOL    HW130578   2.378   1.647   0.677
 9893SOL    HW230579   2.530   1.682   0.629
 9894SOL     OW30580   1.631   2.236   0.223
 9894SOL    HW130581   1.536   2.209   0.234
 9894SOL    HW230582   1.690   2.156   0.235
 9895SOL     OW30583   5.489   3.236   5.552
 9895SOL    HW130584   5.440   3.165   5.603
 9895SOL    HW230585   5.474   3.325   5.595
 9896SOL     OW30586   6.244   0.039   0.068
 9896SOL    HW130587   6.281   6.982   0.023
 9896SOL    HW230588   6.319   0.102   0.088
 9897SOL     OW30589   5.713   5.531   3.319
 9897SOL    HW130590   5.688   5.526   3.416
 9897SOL    HW230591   5.651   5.475   3.265
 9898SOL     OW30592   3.452   6.331   5.430
 9898SOL    HW130593   3.464   6.276   5.347
 9898SOL    HW230594   3.422   6.271   5.505
 9899SOL     OW30595   0.051   5.556   6.823
 9899SOL    HW130596   0.035   5.600   6.735
 9899SOL    HW230597   0.010   5.612   6.896
 9900SOL     OW30598   2.106   4.008   3.485
 9900SOL    HW130599   2.150   4.017   3.575
 9900SOL    HW230600   2.176   4.014   3.414
 9901SOL     OW30601   2.460   1.948   5.402
 9901SOL    HW130602   2.520   1.870   5.422
 9901SOL    HW230603   2.429   1.944   5.307
 9902SOL     OW30604   2.405   4.767   6.742
 9902SOL    HW130605   2.495   4.736   6.714
 9902SOL    HW230606   2.390   4.744   6.838
 9903SOL     OW30607   5.227   0.885   2.939
 9903SOL    HW130608   5.169   0.949   2.990
 9903SOL    HW230609   5.294   0.845   3.002
 9904SOL     OW30610   6.399   3.077   6.875
 9904SOL    HW130611   6.354   3.163   6.899
 9904SOL    HW230612   6.481   3.065   6.931
 9905SOL     OW30613   3.963   1.678   0.582
 9905SOL    HW130614   3.955   1.660   0.484
 9905SOL    HW230615   3.934   1.597   0.634
 9906SOL     OW30616   4.045   3.161   3.502
 9906SOL    HW130617   4.062   3.216   3.421
 9906SOL    HW230618   4.005   3.073   3.475
 9907SOL     OW30619   0.628   0.160   2.180
 9907SOL    HW130620   0.592   0.080   2.227
 9907SOL    HW230621   0.691   0.131   2.108
 9908SOL     OW30622   5.081   3.184   3.080
 9908SOL    HW130623   5.127   3.215   2.997
 9908SOL    HW230624   4.998   3.238   3.094
 9909SOL     OW30625   1.802   6.735   4.741
 9909SOL    HW130626   1.810   6.790   4.824
 9909SOL    HW230627   1.837   6.787   4.662
 9910SOL     OW30628   1.120   4.551   3.096
 9910SOL    HW130629   1.111   4.493   3.015
 9910SOL    HW230630   1.052   4.524   3.164
 9911SOL     OW30631   3.458   6.577   1.315
 9911SOL    HW130632   3.399   6.526   1.377
 9911SOL    HW230633   3.551   6.582   1.353
 9912SOL     OW30634   4.523   1.764   0.461
 9912SOL    HW130635   4.479   1.677   0.436
 9912SOL    HW230636   4.619   1.748   0.482
 9913SOL     OW30637   5.790   3.177   0.188
 9913SOL    HW130638   5.868   3.221   0.145
 9913SOL    HW230639   5.731   3.136   0.119
 9914SOL     OW30640   0.766   2.963   4.605
 9914SOL    HW130641   0.691   2.907   4.640
 9914SOL    HW230642   0.836   2.972   4.676
 9915SOL     OW30643   5.570   1.284   3.429
 9915SOL    HW130644   5.654   1.327   3.462
 9915SOL    HW230645   5.498   1.353   3.423
 9916SOL     OW30646   2.298   2.801   2.256
 9916SOL    HW130647   2.274   2.705   2.243
 9916SOL    HW230648   2.354   2.832   2.179
 9917SOL     OW30649   6.678   4.240   5.744
 9917SOL    HW130650   6.728   4.155   5.728
 9917SOL    HW230651   6.642   4.274   5.658
 9918SOL     OW30652   3.947   1.947   3.029
 9918SOL    HW130653   4.029   1.996   2.999
 9918SOL    HW230654   3.866   2.004   3.013
 9919SOL     OW30655   6.098   5.855   1.020
 9919SOL    HW130656   6.006   5.894   1.030
 9919SOL    HW230657   6.165   5.916   1.062
 9920SOL     OW30658   4.610   1.515   2.568
 9920SOL    HW130659   4.515   1.505   2.600
 9920SOL    HW230660   4.670   1.464   2.629
 9921SOL     OW30661   3.503   5.404   6.004
 9921SOL    HW130662   3.565   5.366   5.935
 9921SOL    HW230663   3.537   5.492   6.035
 9922SOL     OW30664   0.503   5.886   0.796
 9922SOL    HW130665   0.530   5.904   0.890
 9922SOL    HW230666   0.463   5.795   0.789
 9923SOL     OW30667   5.011   4.985   6.956
 9923SOL    HW130668   5.082   4.985   0.002
 9923SOL    HW230669   5.034   5.053   6.886
 9924SOL     OW30670   0.730   3.457   4.997
 9924SOL    HW130671   0.799   3.409   5.052
 9924SOL    HW230672   0.650   3.476   5.054
 9925SOL     OW30673   5.453   2.856   4.501
 9925SOL    HW130674   5.368   2.838   4.452
 9925SOL    HW230675   5.471   2.954   4.503
 9926SOL     OW30676   1.562   4.487   6.551
 9926SOL    HW130677   1.538   4.573   6.506
 9926SOL    HW230678   1.597   4.422   6.484
 9927SOL     OW30679   6.222   0.144   3.319
 9927SOL    HW130680   6.157   0.182   3.253
 9927SOL    HW230681   6.309   0.126   3.273
 9928SOL     OW30682   4.590   4.402   1.230
 9928SOL    HW130683   4.536   4.371   1.308
 9928SOL    HW230684   4.661   4.465   1.262
 9929SOL     OW30685   2.630   4.632   4.492
 9929SOL    HW130686   2.561   4.596   4.555
 9929SOL    HW230687   2.664   4.558   4.435
 9930SOL     OW30688   6.752   0.405   4.464
 9930SOL    HW130689   6.788   0.316   4.435
 9930SOL    HW230690   6.696   0.444   4.391
 9931SOL     OW30691   0.885   4.218   4.886
 9931SOL    HW130692   0.907   4.156   4.961
 9931SOL    HW230693   0.886   4.312   4.920
 9932SOL     OW30694   0.745   6.398   6.277
 9932SOL    HW130695   0.784   6.332   6.213
 9932SOL    HW230696   0.658   6.363   6.312
 9933SOL     OW30697   0.960   5.465   2.373
 9933SOL    HW130698   0.972   5.382   2.428
 9933SOL    HW230699   0.920   5.537   2.429
 9934SOL     OW30700   6.664   1.952   5.818
 9934SOL    HW130701   6.667   1.868   5.871
 9934SOL    HW230702   6.569   1.975   5.798
 9935SOL     OW30703   2.880   1.002   6.656
 9935SOL    HW130704   2.880   1.030   6.560
 9935SOL    HW230705   2.790   1.021   6.696
 9936SOL     OW30706   0.364   4.136   4.404
 9936SOL    HW130707   0.448   4.084   4.417
 9936SOL    HW230708   0.352   4.198   4.482
 9937SOL     OW30709   6.997   2.515   6.068
 9937SOL    HW130710   0.035   2.443   6.037
 9937SOL    HW230711   6.920   2.473   6.118
 9938SOL     OW30712   6.573   6.424   3.077
 9938SOL    HW130713   6.538   6.417   2.984
 9938SOL    HW230714   6.515   6.486   3.130
 9939SOL     OW30715   3.301   2.865   2.027
 9939SOL    HW130716   3.392   2.830   2.049
 9939SOL    HW230717   3.252   2.797   1.972
 9940SOL     OW30718   6.806   1.165   0.777
 9940SOL    HW130719   6.802   1.114   0.691
 9940SOL    HW230720   6.737   1.237   0.777
 9941SOL     OW30721   3.079   4.724   5.617
 9941SOL    HW130722   3.129   4.644   5.650
 9941SOL    HW230723   2.981   4.706   5.624
 9942SOL     OW30724   2.839   5.667   3.164
 9942SOL    HW130725   2.759   5.609   3.181
 9942SOL    HW230726   2.901   5.620   3.101
 9943SOL     OW30727   0.869   6.184   6.159
 9943SOL    HW130728   0.920   6.106   6.195
 9943SOL    HW230729   0.798   6.150   6.096
 9944SOL     OW30730   0.820   4.126   6.920
 9944SOL    HW130731   0.799   4.222   6.903
 9944SOL    HW230732   0.833   4.112   7.018
 9945SOL     OW30733   6.762   5.329   0.467
 9945SOL    HW130734   6.831   5.347   0.397
 9945SOL    HW230735   6.674   5.312   0.423
 9946SOL     OW30736   5.055   0.556   5.274
 9946SOL    HW130737   4.979   0.601   5.229
 9946SOL    HW230738   5.101   0.494   5.210
 9947SOL     OW30739   6.301   4.370   4.199
 9947SOL    HW130740   6.256   4.449   4.157
 9947SOL    HW230741   6.363   4.328   4.133
 9948SOL     OW30742   4.806   4.609   4.923
 9948SOL    HW130743   4.869   4.537   4.952
 9948SOL    HW230744   4.728   4.612   4.985
 9949SOL     OW30745   5.571   5.364   3.134
 9949SOL    HW130746   5.642   5.294   3.142
 9949SOL    HW230747   5.572   5.402   3.042
 9950SOL     OW30748   4.179   6.214   5.491
 9950SOL    HW130749   4.149   6.243   5.400
 9950SOL    HW230750   4.124   6.262   5.560
 9951SOL     OW30751   5.432   2.343   2.812
 9951SOL    HW130752   5.506   2.397   2.772
 9951SOL    HW230753   5.344   2.374   2.776
 9952SOL     OW30754   6.777   4.505   0.537
 9952SOL    HW130755   6.761   4.552   0.450
 9952SOL    HW230756   6.690   4.470   0.572
 9953SOL     OW30757   6.712   1.104   4.037
 9953SOL    HW130758   6.789   1.141   4.088
 9953SOL    HW230759   6.653   1.052   4.099
 9954SOL     OW30760   5.333   0.254   5.363
 9954SOL    HW130761   5.272   0.215   5.433
 9954SOL    HW230762   5.353   0.184   5.294
 9955SOL     OW30763   0.166   3.859   4.518
 9955SOL    HW130764   0.246   3.913   4.541
 9955SOL    HW230765   0.142   3.799   4.595
 9956SOL     OW30766   1.725   6.767   1.625
 9956SOL    HW130767   1.813   6.759   1.579
 9956SOL    HW230768   1.739   6.777   1.723
 9957SOL     OW30769   6.847   4.273   3.746
 9957SOL    HW130770   6.801   4.359   3.768
 9957SOL    HW230771   6.944   4.281   3.766
 9958SOL     OW30772   2.539   4.225   1.379
 9958SOL    HW130773   2.474   4.301   1.379
 9958SOL    HW230774   2.581   4.218   1.469
 9959SOL     OW30775   3.994   3.569   0.527
 9959SOL    HW130776   3.967   3.650   0.475
 9959SOL    HW230777   4.074   3.591   0.583
 9960SOL     OW30778   0.229   1.406   2.876
 9960SOL    HW130779   0.183   1.327   2.917
 9960SOL    HW230780   0.263   1.382   2.786
 9961SOL     OW30781   1.931   5.571   4.472
 9961SOL    HW130782   1.884   5.601   4.556
 9961SOL    HW230783   1.988   5.492   4.492
 9962SOL     OW30784   4.837   6.253   5.182
 9962SOL    HW130785   4.876   6.345   5.187
 9962SOL    HW230786   4.751   6.256   5.132
 9963SOL     OW30787   3.264   1.025   0.838
 9963SOL    HW130788   3.351   1.048   0.883
 9963SOL    HW230789   3.227   1.106   0.794
 9964SOL     OW30790   4.337   5.889   5.252
 9964SOL    HW130791   4.271   5.914   5.182
 9964SOL    HW230792   4.417   5.848   5.210
 9965SOL     OW30793   4.262   0.261   0.231
 9965SOL    HW130794   4.248   0.266   0.330
 9965SOL    HW230795   4.183   0.300   0.184
 9966SOL     OW30796   0.880   6.546   2.175
 9966SOL    HW130797   0.913   6.573   2.265
 9966SOL    HW230798   0.958   6.528   2.115
 9967SOL     OW30799   1.192   5.417   0.775
 9967SOL    HW130800   1.265   5.468   0.729
 9967SOL    HW230801   1.103   5.447   0.740
 9968SOL     OW30802   4.124   3.309   2.341
 9968SOL    HW130803   4.107   3.397   2.384
 9968SOL    HW230804   4.222   3.301   2.319
 9969SOL     OW30805   1.094   3.377   1.841
 9969SOL    HW130806   1.087   3.380   1.741
 9969SOL    HW230807   1.051   3.458   1.880
 9970SOL     OW30808   5.844   4.129   1.571
 9970SOL    HW130809   5.754   4.136   1.614
 9970SOL    HW230810   5.851   4.040   1.525
 9971SOL     OW30811   1.873   4.671   0.514
 9971SOL    HW130812   1.845   4.629   0.600
 9971SOL    HW230813   1.885   4.769   0.526
 9972SOL     OW30814   6.848   4.349   2.288
 9972SOL    HW130815   6.844   4.427   2.226
 9972SOL    HW230816   6.811   4.268   2.242
 9973SOL     OW30817   5.944   0.829   4.347
 9973SOL    HW130818   5.890   0.910   4.321
 9973SOL    HW230819   5.972   0.839   4.443
 9974SOL     OW30820   1.912   1.292   4.349
 9974SOL    HW130821   1.882   1.260   4.438
 9974SOL    HW230822   1.864   1.241   4.277
 9975SOL     OW30823   0.592   2.894   0.391
 9975SOL    HW130824   0.650   2.912   0.311
 9975SOL    HW230825   0.496   2.909   0.366
 9976SOL     OW30826   1.944   6.963   4.867
 9976SOL    HW130827   1.914   0.002   4.938
 9976SOL    HW230828   1.984   6.882   4.910
 9977SOL     OW30829   6.513   4.452   4.789
 9977SOL    HW130830   6.582   4.385   4.761
 9977SOL    HW230831   6.466   4.419   4.871
 9978SOL     OW30832   6.320   1.588   4.342
 9978SOL    HW130833   6.307   1.504   4.291
 9978SOL    HW230834   6.303   1.667   4.283
 9979SOL     OW30835   6.916   3.844   5.259
 9979SOL    HW130836   6.972   3.770   5.298
 9979SOL    HW230837   6.830   3.806   5.225
 9980SOL     OW30838   3.583   0.174   6.095
 9980SOL    HW130839   3.573   0.214   6.186
 9980SOL    HW230840   3.636   0.090   6.101
 9981SOL     OW30841   3.137   2.069   4.209
 9981SOL    HW130842   3.154   1.993   4.271
 9981SOL    HW230843   3.047   2.109   4.228
 9982SOL     OW30844   6.826   6.419   4.422
 9982SOL    HW130845   6.852   6.514   4.437
 9982SOL    HW230846   6.887   6.359   4.473
 9983SOL     OW30847   0.036   1.482   1.831
 9983SOL    HW130848   6.978   1.517   1.785
 9983SOL    HW230849   0.106   1.463   1.762
 9984SOL     OW30850   3.260   1.514   6.579
 9984SOL    HW130851   3.289   1.420   6.595
 9984SOL    HW230852   3.278   1.569   6.661
 9985SOL     OW30853   1.223   0.509   2.059
 9985SOL    HW130854   1.172   0.463   1.985
 9985SOL    HW230855   1.171   0.590   2.089
 9986SOL     OW30856   5.195   4.300   4.603
 9986SOL    HW130857   5.258   4.260   4.537
 9986SOL    HW230858   5.156   4.384   4.565
 9987SOL     OW30859   6.707   3.602   6.079
 9987SOL    HW130860   6.796   3.557   6.086
 9987SOL    HW230861   6.719   3.701   6.087
 9988SOL     OW30862   6.840   6.656   5.453
 9988SOL    HW130863   6.788   6.577   5.488
 9988SOL    HW230864   6.813   6.738   5.504
 9989SOL     OW30865   0.793   3.286   5.426
 9989SOL    HW130866   0.829   3.330   5.508
 9989SOL    HW230867   0.868   3.264   5.364
 9990SOL     OW30868   1.427   5.409   2.409
 9990SOL    HW130869   1.386   5.342   2.471
 9990SOL    HW230870   1.462   5.363   2.328
 9991SOL     OW30871   3.600   2.144   3.742
 9991SOL    HW130872   3.624   2.108   3.832
 9991SOL    HW230873   3.509   2.112   3.716
 9992SOL     OW30874   6.396   5.410   6.145
 9992SOL    HW130875   6.356   5.343   6.083
 9992SOL    HW230876   6.369   5.502   6.117
 9993SOL     OW30877   0.791   1.591   1.995
 9993SOL    HW130878   0.706   1.544   1.974
 9993SOL    HW230879   0.827   1.634   1.911
 9994SOL     OW30880   5.740   4.745   3.232
 9994SOL    HW130881   5.713   4.816   3.166
 9994SOL    HW230882   5.666   4.679   3.243
 9995SOL     OW30883   4.948   0.990   4.768
 9995SOL    HW130884   5.047   0.998   4.758
 9995SOL    HW230885   4.912   1.072   4.813
 9996SOL     OW30886   2.171   3.886   6.829
 9996SOL    HW130887   2.176   3.786   6.835
 9996SOL    HW230888   2.153   3.913   6.734
 9997SOL     OW30889   2.913   0.099   5.026
 9997SOL    HW130890   2.957   0.154   4.955
 9997SOL    HW230891   2.876   0.015   4.987
 9998SOL     OW30892   6.043   5.701   5.313
 9998SOL    HW130893   6.137   5.684   5.282
 9998SOL    HW230894   5.992   5.747   5.240
 9999SOL     OW30895   6.916   2.255   4.872
 9999SOL    HW130896   6.995   2.284   4.926
 9999SOL    HW230897   6.885   2.165   4.905
10000SOL     OW30898   6.837   2.836   6.718
10000SOL    HW130899   6.825   2.936   6.720
10000SOL    HW230900   6.903   2.809   6.788
10001SOL     OW30901   4.091   0.033   2.685
10001SOL    HW130902   4.080   0.125   2.722
10001SOL    HW230903   4.188   0.016   2.666
10002SOL     OW30904   0.759   1.186   2.092
10002SOL    HW130905   0.709   1.249   2.151
10002SOL    HW230906   0.694   1.126   2.045
10003SOL     OW30907   4.605   2.059   3.462
10003SOL    HW130908   4.544   2.056   3.383
10003SOL    HW230909   4.595   1.975   3.515
10004SOL     OW30910   0.231   1.577   3.190
10004SOL    HW130911   0.280   1.529   3.117
10004SOL    HW230912   0.282   1.568   3.275
10005SOL     OW30913   5.141   6.438   4.535
10005SOL    HW130914   5.201   6.384   4.477
10005SOL    HW230915   5.045   6.415   4.516
10006SOL     OW30916   3.643   0.496   4.563
10006SOL    HW130917   3.672   0.587   4.532
10006SOL    HW230918   3.631   0.436   4.484
10007SOL     OW30919   6.594   3.283   3.641
10007SOL    HW130920   6.598   3.190   3.605
10007SOL    HW230921   6.523   3.335   3.593
10008SOL     OW30922   3.482   0.058   4.200
10008SOL    HW130923   3.518   0.144   4.236
10008SOL    HW230924   3.386   0.048   4.226
10009SOL     OW30925   0.713   4.480   1.732
10009SOL    HW130926   0.776   4.435   1.669
10009SOL    HW230927   0.765   4.539   1.794
10010SOL     OW30928   0.745   1.382   6.409
10010SOL    HW130929   0.744   1.371   6.309
10010SOL    HW230930   0.799   1.309   6.450
10011SOL     OW30931   0.132   6.685   4.981
10011SOL    HW130932   0.076   6.685   5.064
10011SOL    HW230933   0.125   6.774   4.936
10012SOL     OW30934   5.681   1.345   3.841
10012SOL    HW130935   5.666   1.404   3.921
10012SOL    HW230936   5.594   1.303   3.815
10013SOL     OW30937   0.743   0.581   3.132
10013SOL    HW130938   0.685   0.663   3.123
10013SOL    HW230939   0.831   0.598   3.088
10014SOL     OW30940   1.079   4.673   5.999
10014SOL    HW130941   1.034   4.748   5.951
10014SOL    HW230942   1.013   4.626   6.057
10015SOL     OW30943   1.820   4.440   0.005
10015SOL    HW130944   1.751   4.473   6.965
10015SOL    HW230945   1.862   4.357   6.993
10016SOL     OW30946   2.414   0.359   5.631
10016SOL    HW130947   2.323   0.345   5.593
10016SOL    HW230948   2.454   0.442   5.592
10017SOL     OW30949   1.588   2.107   4.475
10017SOL    HW130950   1.673   2.093   4.527
10017SOL    HW230951   1.561   2.022   4.431
10018SOL     OW30952   4.854   0.106   6.440
10018SOL    HW130953   4.886   0.199   6.460
10018SOL    HW230954   4.930   0.052   6.405
10019SOL     OW30955   1.182   1.089   2.788
10019SOL    HW130956   1.279   1.083   2.766
10019SOL    HW230957   1.148   1.180   2.766
10020SOL     OW30958   0.433   2.878   0.862
10020SOL    HW130959   0.477   2.846   0.778
10020SOL    HW230960   0.501   2.887   0.934
10021SOL     OW30961   6.695   3.700   0.515
10021SOL    HW130962   6.700   3.669   0.421
10021SOL    HW230963   6.784   3.689   0.560
10022SOL     OW30964   1.782   0.970   6.577
10022SOL    HW130965   1.877   0.968   6.610
10022SOL    HW230966   1.755   1.064   6.558
10023SOL     OW30967   6.954   3.360   0.848
10023SOL    HW130968   7.024   3.329   0.783
10023SOL    HW230969   6.991   3.434   0.904
10024SOL     OW30970   1.672   4.660   3.772
10024SOL    HW130971   1.691   4.748   3.816
10024SOL    HW230972   1.707   4.586   3.829
10025SOL     OW30973   1.280   1.586   0.589
10025SOL    HW130974   1.370   1.591   0.547
10025SOL    HW230975   1.284   1.528   0.670
10026SOL     OW30976   6.869   0.906   3.870
10026SOL    HW130977   6.850   0.894   3.773
10026SOL    HW230978   6.791   0.950   3.914
10027SOL     OW30979   4.576   2.382   5.473
10027SOL    HW130980   4.480   2.373   5.499
10027SOL    HW230981   4.582   2.412   5.377
10028SOL     OW30982   1.821   1.112   0.889
10028SOL    HW130983   1.811   1.139   0.985
10028SOL    HW230984   1.849   1.191   0.835
10029SOL     OW30985   5.620   2.239   3.660
10029SOL    HW130986   5.565   2.290   3.593
10029SOL    HW230987   5.713   2.229   3.625
10030SOL     OW30988   2.041   0.640   3.855
10030SOL    HW130989   2.030   0.732   3.817
10030SOL    HW230990   1.986   0.575   3.802
10031SOL     OW30991   6.747   4.289   4.715
10031SOL    HW130992   6.699   4.213   4.758
10031SOL    HW230993   6.818   4.254   4.654
10032SOL     OW30994   3.157   1.469   4.943
10032SOL    HW130995   3.153   1.501   4.849
10032SOL    HW230996   3.151   1.370   4.946
10033SOL     OW30997   5.472   2.489   4.880
10033SOL    HW130998   5.430   2.545   4.809
10033SOL    HW230999   5.445   2.394   4.868
10034SOL     OW31000   5.404   0.950   6.416
10034SOL    HW131001   5.483   0.946   6.354
10034SOL    HW231002   5.326   0.991   6.367
10035SOL     OW31003   0.242   6.342   2.517
10035SOL    HW131004   0.165   6.291   2.555
10035SOL    HW231005   0.263   6.310   2.425
10036SOL     OW31006   0.006   1.191   0.437
10036SOL    HW131007   6.948   1.134   0.441
10036SOL    HW231008   0.020   1.236   0.525
10037SOL     OW31009   0.528   6.829   1.162
10037SOL    HW131010   0.443   6.834   1.215
10037SOL    HW231011   0.559   6.734   1.158
10038SOL     OW31012   6.843   0.957   1.293
10038SOL    HW131013   6.810   1.018   1.221
10038SOL    HW231014   6.798   0.868   1.284
10039SOL     OW31015   3.175   0.543   3.292
10039SOL    HW131016   3.197   0.458   3.245
10039SOL    HW231017   3.231   0.617   3.254
10040SOL     OW31018   0.643   2.926   1.030
10040SOL    HW131019   0.706   2.975   0.971
10040SOL    HW231020   0.694   2.873   1.098
10041SOL     OW31021   1.935   6.007   0.539
10041SOL    HW131022   1.847   6.023   0.495
10041SOL    HW231023   1.998   6.080   0.514
10042SOL     OW31024   5.717   3.222   2.802
10042SOL    HW131025   5.629   3.262   2.827
10042SOL    HW231026   5.702   3.135   2.754
10043SOL     OW31027   0.537   2.527   4.461
10043SOL    HW131028   0.451   2.499   4.505
10043SOL    HW231029   0.608   2.538   4.530
10044SOL     OW31030   3.701   1.225   5.771
10044SOL    HW131031   3.739   1.298   5.714
10044SOL    HW231032   3.776   1.177   5.817
10045SOL     OW31033   2.673   1.419   0.765
10045SOL    HW131034   2.648   1.335   0.813
10045SOL    HW231035   2.738   1.397   0.692
10046SOL     OW31036   0.899   5.252   0.875
10046SOL    HW131037   0.922   5.156   0.885
10046SOL    HW231038   0.916   5.280   0.780
10047SOL     OW31039   0.772   3.776   1.079
10047SOL    HW131040   0.853   3.809   1.127
10047SOL    HW231041   0.735   3.696   1.127
10048SOL     OW31042   5.744   5.158   3.170
10048SOL    HW131043   5.725   5.126   3.263
10048SOL    HW231044   5.839   5.138   3.147
10049SOL     OW31045   6.535   0.887   5.439
10049SOL    HW131046   6.565   0.923   5.350
10049SOL    HW231047   6.492   0.960   5.492
10050SOL     OW31048   6.966   2.840   6.957
10050SOL    HW131049   0.041   2.832   6.946
10050SOL    HW231050   6.943   2.935   6.978
10051SOL     OW31051   2.579   2.084   3.977
10051SOL    HW131052   2.513   2.086   3.902
10051SOL    HW231053   2.632   2.170   3.978
10052SOL     OW31054   1.093   6.871   3.159
10052SOL    HW131055   1.125   6.781   3.129
10052SOL    HW231056   0.994   6.877   3.146
10053SOL     OW31057   6.039   5.254   3.108
10053SOL    HW131058   6.094   5.260   3.191
10053SOL    HW231059   5.991   5.341   3.094
10054SOL     OW31060   6.944   3.906   4.460
10054SOL    HW131061   6.945   4.006   4.462
10054SOL    HW231062   0.006   3.871   4.496
10055SOL     OW31063   1.434   2.716   6.404
10055SOL    HW131064   1.528   2.738   6.433
10055SOL    HW231065   1.422   2.743   6.309
10056SOL     OW31066   6.064   1.910   3.458
10056SOL    HW131067   6.135   1.914   3.529
10056SOL    HW231068   5.979   1.877   3.498
10057SOL     OW31069   5.407   5.136   5.527
10057SOL    HW131070   5.371   5.207   5.587
10057SOL    HW231071   5.460   5.071   5.580
10058SOL     OW31072   0.062   3.779   4.966
10058SOL    HW131073   0.106   3.745   4.883
10058SOL    HW231074   6.990   3.750   4.966
10059SOL     OW31075   5.348   0.125   6.976
10059SOL    HW131076   5.346   0.207   6.919
10059SOL    HW231077   5.280   0.060   6.943
10060SOL     OW31078   3.044   1.840   1.797
10060SOL    HW131079   2.988   1.758   1.798
10060SOL    HW231080   2.986   1.920   1.812
10061SOL     OW31081   3.493   0.146   1.877
10061SOL    HW131082   3.474   0.231   1.828
10061SOL    HW231083   3.447   0.070   1.830
10062SOL     OW31084   0.724   6.451   5.024
10062SOL    HW131085   0.659   6.382   5.056
10062SOL    HW231086   0.678   6.539   5.014
10063SOL     OW31087   2.466   2.374   5.183
10063SOL    HW131088   2.454   2.275   5.182
10063SOL    HW231089   2.507   2.403   5.269
10064SOL     OW31090   2.454   6.850   0.525
10064SOL    HW131091   2.459   6.947   0.549
10064SOL    HW231092   2.544   6.807   0.539
10065SOL     OW31093   0.540   2.064   1.727
10065SOL    HW131094   0.561   2.118   1.645
10065SOL    HW231095   0.619   2.062   1.788
10066SOL     OW31096   6.078   4.618   3.829
10066SOL    HW131097   6.164   4.668   3.817
10066SOL    HW231098   6.004   4.669   3.784
10067SOL     OW31099   6.958   2.608   4.943
10067SOL    HW131100   6.893   2.592   5.017
10067SOL    HW231101   6.917   2.671   4.876
10068SOL     OW31102   1.477   3.671   2.555
10068SOL    HW131103   1.559   3.707   2.600
10068SOL    HW231104   1.396   3.702   2.603
10069SOL     OW31105   3.148   4.626   0.500
10069SOL    HW131106   3.059   4.670   0.492
10069SOL    HW231107   3.136   4.527   0.509
10070SOL     OW31108   4.693   6.988   6.929
10070SOL    HW131109   4.735   6.996   6.838
10070SOL    HW231110   4.761   7.011   6.999
10071SOL     OW31111   5.714   0.390   5.147
10071SOL    HW131112   5.780   0.420   5.079
10071SOL    HW231113   5.700   0.462   5.215
10072SOL     OW31114   6.004   3.228   1.695
10072SOL    HW131115   5.946   3.167   1.750
10072SOL    HW231116   6.098   3.195   1.696
10073SOL     OW31117   5.969   4.849   4.667
10073SOL    HW131118   6.019   4.857   4.753
10073SOL    HW231119   6.024   4.796   4.602
10074SOL     OW31120   2.219   4.937   0.248
10074SOL    HW131121   2.140   4.953   0.187
10074SOL    HW231122   2.244   4.841   0.245
10075SOL     OW31123   1.023   3.112   1.897
10075SOL    HW131124   1.035   3.114   1.996
10075SOL    HW231125   1.035   3.204   1.860
10076SOL     OW31126   5.748   5.257   4.096
10076SOL    HW131127   5.683   5.291   4.163
10076SOL    HW231128   5.700   5.233   4.012
10077SOL     OW31129   4.481   3.850   6.782
10077SOL    HW131130   4.479   3.794   6.699
10077SOL    HW231131   4.495   3.946   6.757
10078SOL     OW31132   6.361   5.279   4.675
10078SOL    HW131133   6.435   5.237   4.728
10078SOL    HW231134   6.401   5.340   4.606
10079SOL     OW31135   4.807   4.156   4.076
10079SOL    HW131136   4.866   4.236   4.089
10079SOL    HW231137   4.785   4.146   3.979
10080SOL     OW31138   5.469   1.702   5.688
10080SOL    HW131139   5.419   1.627   5.647
10080SOL    HW231140   5.418   1.787   5.677
10081SOL     OW31141   0.885   4.703   0.984
10081SOL    HW131142   0.807   4.666   1.034
10081SOL    HW231143   0.961   4.638   0.988
10082SOL     OW31144   1.097   4.615   1.576
10082SOL    HW131145   1.033   4.539   1.564
10082SOL    HW231146   1.184   4.580   1.611
10083SOL     OW31147   2.859   6.026   2.400
10083SOL    HW131148   2.915   5.978   2.468
10083SOL    HW231149   2.776   5.972   2.382
10084SOL     OW31150   0.803   1.796   4.703
10084SOL    HW131151   0.864   1.850   4.761
10084SOL    HW231152   0.813   1.699   4.725
10085SOL     OW31153   5.704   6.989   1.178
10085SOL    HW131154   5.607   6.982   1.199
10085SOL    HW231155   5.737   0.056   1.204
10086SOL     OW31156   4.421   6.335   3.530
10086SOL    HW131157   4.358   6.257   3.540
10086SOL    HW231158   4.375   6.419   3.558
10087SOL     OW31159   1.694   5.643   5.315
10087SOL    HW131160   1.741   5.631   5.402
10087SOL    HW231161   1.601   5.607   5.322
10088SOL     OW31162   6.188   2.478   1.758
10088SOL    HW131163   6.229   2.532   1.684
10088SOL    HW231164   6.255   2.468   1.832
10089SOL     OW31165   3.876   0.635   1.639
10089SOL    HW131166   3.853   0.731   1.657
10089SOL    HW231167   3.882   0.621   1.540
10090SOL     OW31168   1.733   6.675   3.183
10090SOL    HW131169   1.804   6.737   3.150
10090SOL    HW231170   1.757   6.642   3.274
10091SOL     OW31171   5.723   4.771   4.618
10091SOL    HW131172   5.813   4.790   4.658
10091SOL    HW231173   5.662   4.848   4.635
10092SOL     OW31174   1.247   2.369   4.195
10092SOL    HW131175   1.149   2.366   4.211
10092SOL    HW231176   1.293   2.297   4.246
10093SOL     OW31177   4.311   4.065   6.216
10093SOL    HW131178   4.393   4.123   6.218
10093SOL    HW231179   4.237   4.115   6.171
10094SOL     OW31180   3.688   1.976   0.936
10094SOL    HW131181   3.668   1.998   0.840
10094SOL    HW231182   3.727   2.057   0.981
10095SOL     OW31183   4.255   3.276   5.259
10095SOL    HW131184   4.306   3.198   5.297
10095SOL    HW231185   4.168   3.243   5.223
10096SOL     OW31186   6.626   3.276   2.292
10096SOL    HW131187   6.670   3.335   2.360
10096SOL    HW231188   6.589   3.195   2.338
10097SOL     OW31189   0.231   1.338   0.909
10097SOL    HW131190   0.279   1.331   0.997
10097SOL    HW231191   0.201   1.432   0.895
10098SOL     OW31192   3.163   5.422   4.406
10098SOL    HW131193   3.095   5.491   4.434
10098SOL    HW231194   3.136   5.383   4.318
10099SOL     OW31195   0.193   5.129   3.046
10099SOL    HW131196   0.257   5.161   3.116
10099SOL    HW231197   0.107   5.181   3.054
10100SOL     OW31198   5.221   4.936   3.947
10100SOL    HW131199   5.283   4.905   3.875
10100SOL    HW231200   5.151   4.996   3.908
10101SOL     OW31201   6.603   3.331   0.096
10101SOL    HW131202   6.592   3.239   0.133
10101SOL    HW231203   6.543   3.394   0.145
10102SOL     OW31204   6.901   4.645   3.706
10102SOL    HW131205   6.938   4.680   3.792
10102SOL    HW231206   6.932   4.703   3.630
10103SOL     OW31207   0.433   5.983   6.986
10103SOL    HW131208   0.466   6.077   6.972
10103SOL    HW231209   0.406   5.971   0.057
10104SOL     OW31210   3.144   1.066   4.667
10104SOL    HW131211   3.050   1.098   4.648
10104SOL    HW231212   3.207   1.113   4.605
10105SOL     OW31213   2.545   1.104   4.088
10105SOL    HW131214   2.616   1.052   4.136
10105SOL    HW231215   2.457   1.086   4.131
10106SOL     OW31216   5.625   4.220   1.809
10106SOL    HW131217   5.531   4.249   1.825
10106SOL    HW231218   5.628   4.121   1.792
10107SOL     OW31219   5.196   5.596   6.687
10107SOL    HW131220   5.224   5.558   6.599
10107SOL    HW231221   5.257   5.671   6.713
10108SOL     OW31222   1.964   2.737   4.704
10108SOL    HW131223   2.025   2.659   4.691
10108SOL    HW231224   2.000   2.795   4.777
10109SOL     OW31225   1.218   2.267   0.790
10109SOL    HW131226   1.159   2.343   0.817
10109SOL    HW231227   1.254   2.221   0.871
10110SOL     OW31228   5.684   6.013   2.424
10110SOL    HW131229   5.777   5.997   2.390
10110SOL    HW231230   5.687   6.076   2.501
10111SOL     OW31231   6.619   2.488   2.107
10111SOL    HW131232   6.691   2.484   2.038
10111SOL    HW231233   6.530   2.475   2.064
10112SOL     OW31234   6.165   2.452   3.819
10112SOL    HW131235   6.095   2.410   3.876
10112SOL    HW231236   6.226   2.382   3.782
10113SOL     OW31237   6.164   0.127   6.554
10113SOL    HW131238   6.234   0.194   6.581
10113SOL    HW231239   6.166   0.050   6.618
10114SOL     OW31240   5.806   3.289   2.099
10114SOL    HW131241   5.744   3.242   2.036
10114SOL    HW231242   5.899   3.256   2.084
10115SOL     OW31243   3.216   2.810   5.877
10115SOL    HW131244   3.246   2.864   5.799
10115SOL    HW231245   3.117   2.819   5.888
10116SOL     OW31246   0.456   0.430   6.221
10116SOL    HW131247   0.520   0.359   6.251
10116SOL    HW231248   0.434   0.490   6.298
10117SOL     OW31249   6.697   3.827   2.782
10117SOL    HW131250   6.676   3.895   2.711
10117SOL    HW231251   6.775   3.859   2.836
10118SOL     OW31252   3.688   4.987   3.650
10118SOL    HW131253   3.592   4.981   3.622
10118SOL    HW231254   3.713   5.083   3.660
10119SOL     OW31255   6.042   6.236   6.773
10119SOL    HW131256   6.107   6.304   6.808
10119SOL    HW231257   5.951   6.278   6.766
10120SOL     OW31258   2.628   2.124   3.217
10120SOL    HW131259   2.592   2.161   3.302
10120SOL    HW231260   2.685   2.044   3.236
10121SOL     OW31261   6.730   4.998   1.395
10121SOL    HW131262   6.664   5.019   1.467
10121SOL    HW231263   6.812   5.053   1.407
10122SOL     OW31264   2.092   0.306   3.445
10122SOL    HW131265   2.133   0.392   3.475
10122SOL    HW231266   2.003   0.295   3.489
10123SOL     OW31267   6.871   5.695   6.410
10123SOL    HW131268   6.853   5.746   6.325
10123SOL    HW231269   6.904   5.759   6.480
10124SOL     OW31270   2.572   5.616   2.559
10124SOL    HW131271   2.580   5.605   2.658
10124SOL    HW231272   2.622   5.542   2.513
10125SOL     OW31273   1.002   0.897   4.895
10125SOL    HW131274   1.061   0.977   4.898
10125SOL    HW231275   0.908   0.926   4.878
10126SOL     OW31276   6.642   6.109   5.557
10126SOL    HW131277   6.582   6.186   5.579
10126SOL    HW231278   6.709   6.138   5.489
10127SOL     OW31279   1.967   6.553   5.835
10127SOL    HW131280   1.883   6.582   5.788
10127SOL    HW231281   2.039   6.621   5.820
10128SOL     OW31282   2.142   2.407   7.000
10128SOL    HW131283   2.241   2.393   7.012
10128SOL    HW231284   2.120   2.503   7.012
10129SOL     OW31285   6.353   2.021   4.812
10129SOL    HW131286   6.394   2.110   4.796
10129SOL    HW231287   6.339   1.974   4.725
10130SOL     OW31288   0.835   2.019   3.784
10130SOL    HW131289   0.894   2.033   3.705
10130SOL    HW231290   0.884   2.045   3.867
10131SOL     OW31291   2.063   6.606   5.170
10131SOL    HW131292   1.974   6.633   5.208
10131SOL    HW231293   2.107   6.686   5.130
10132SOL     OW31294   5.485   0.101   2.617
10132SOL    HW131295   5.468   0.152   2.533
10132SOL    HW231296   5.524   0.011   2.596
10133SOL     OW31297   5.572   6.488   1.181
10133SOL    HW131298   5.570   6.540   1.266
10133SOL    HW231299   5.661   6.499   1.137
10134SOL     OW31300   0.202   6.696   3.452
10134SOL    HW131301   0.153   6.744   3.525
10134SOL    HW231302   0.190   6.745   3.366
10135SOL     OW31303   6.369   6.806   3.121
10135SOL    HW131304   6.388   6.716   3.161
10135SOL    HW231305   6.444   6.830   3.058
10136SOL     OW31306   4.867   1.519   3.376
10136SOL    HW131307   4.946   1.504   3.436
10136SOL    HW231308   4.807   1.439   3.380
10137SOL     OW31309   6.577   5.783   4.407
10137SOL    HW131310   6.666   5.788   4.452
10137SOL    HW231311   6.582   5.720   4.330
10138SOL     OW31312   0.135   2.587   2.111
10138SOL    HW131313   0.126   2.628   2.020
10138SOL    HW231314   0.128   2.487   2.103
10139SOL     OW31315   3.263   2.880   6.285
10139SOL    HW131316   3.236   2.970   6.251
10139SOL    HW231317   3.217   2.861   6.372
10140SOL     OW31318   0.437   5.719   5.174
10140SOL    HW131319   0.520   5.678   5.211
10140SOL    HW231320   0.422   5.809   5.215
10141SOL     OW31321   1.832   2.424   4.069
10141SOL    HW131322   1.812   2.428   4.167
10141SOL    HW231323   1.819   2.514   4.029
10142SOL     OW31324   4.790   5.652   2.932
10142SOL    HW131325   4.851   5.731   2.947
10142SOL    HW231326   4.784   5.633   2.834
10143SOL     OW31327   5.717   2.973   5.893
10143SOL    HW131328   5.795   2.953   5.834
10143SOL    HW231329   5.634   2.980   5.838
10144SOL     OW31330   3.304   0.071   0.826
10144SOL    HW131331   3.300   7.008   0.777
10144SOL    HW231332   3.346   0.056   0.916
10145SOL     OW31333   6.477   6.646   6.202
10145SOL    HW131334   6.465   6.610   6.110
10145SOL    HW231335   6.497   6.744   6.197
10146SOL     OW31336   1.625   3.017   5.242
10146SOL    HW131337   1.629   2.962   5.325
10146SOL    HW231338   1.672   3.104   5.258
10147SOL     OW31339   3.721   5.709   6.493
10147SOL    HW131340   3.678   5.727   6.582
10147SOL    HW231341   3.650   5.701   6.423
10148SOL     OW31342   0.641   4.827   6.433
10148SOL    HW131343   0.604   4.758   6.494
10148SOL    HW231344   0.731   4.855   6.466
10149SOL     OW31345   3.497   3.886   1.636
10149SOL    HW131346   3.416   3.838   1.669
10149SOL    HW231347   3.577   3.855   1.687
10150SOL     OW31348   4.700   4.165   1.118
10150SOL    HW131349   4.692   4.100   1.193
10150SOL    HW231350   4.681   4.258   1.151
10151SOL     OW31351   6.876   0.713   6.273
10151SOL    HW131352   6.873   0.769   6.191
10151SOL    HW231353   6.942   0.750   6.338
10152SOL     OW31354   3.980   6.825   2.579
10152SOL    HW131355   3.884   6.852   2.567
10152SOL    HW231356   4.036   6.907   2.592
10153SOL     OW31357   4.521   3.980   1.709
10153SOL    HW131358   4.505   3.966   1.611
10153SOL    HW231359   4.513   4.078   1.730
10154SOL     OW31360   3.839   5.451   5.384
10154SOL    HW131361   3.767   5.486   5.324
10154SOL    HW231362   3.803   5.376   5.440
10155SOL     OW31363   4.450   1.567   3.587
10155SOL    HW131364   4.409   1.594   3.500
10155SOL    HW231365   4.434   1.638   3.655
10156SOL     OW31366   4.258   1.595   6.036
10156SOL    HW131367   4.226   1.564   5.946
10156SOL    HW231368   4.230   1.690   6.051
10157SOL     OW31369   0.453   4.620   1.314
10157SOL    HW131370   0.489   4.531   1.343
10157SOL    HW231371   0.492   4.692   1.371
10158SOL     OW31372   5.592   5.235   6.476
10158SOL    HW131373   5.618   5.149   6.432
10158SOL    HW231374   5.560   5.217   6.569
10159SOL     OW31375   3.245   3.106   1.906
10159SOL    HW131376   3.287   3.169   1.972
10159SOL    HW231377   3.239   3.015   1.947
10160SOL     OW31378   0.337   3.881   2.475
10160SOL    HW131379   0.422   3.922   2.507
10160SOL    HW231380   0.282   3.853   2.554
10161SOL     OW31381   5.411   3.207   6.217
10161SOL    HW131382   5.503   3.231   6.186
10161SOL    HW231383   5.404   3.107   6.227
10162SOL     OW31384   1.925   2.945   2.457
10162SOL    HW131385   1.891   2.852   2.443
10162SOL    HW231386   2.007   2.960   2.401
10163SOL     OW31387   3.055   5.056   4.775
10163SOL    HW131388   3.105   5.134   4.811
10163SOL    HW231389   3.014   5.004   4.851
10164SOL     OW31390   0.176   1.151   3.805
10164SOL    HW131391   0.233   1.198   3.873
10164SOL    HW231392   0.233   1.089   3.751
10165SOL     OW31393   1.261   3.394   4.130
10165SOL    HW131394   1.236   3.305   4.091
10165SOL    HW231395   1.259   3.464   4.057
10166SOL     OW31396   2.831   6.519   2.583
10166SOL    HW131397   2.822   6.419   2.580
10166SOL    HW231398   2.742   6.561   2.563
10167SOL     OW31399   2.696   2.271   6.358
10167SOL    HW131400   2.664   2.291   6.266
10167SOL    HW231401   2.711   2.172   6.368
10168SOL     OW31402   0.420   0.134   0.027
10168SOL    HW131403   0.499   0.076   0.046
10168SOL    HW231404   0.367   0.147   0.110
10169SOL     OW31405   4.608   5.147   3.823
10169SOL    HW131406   4.516   5.134   3.862
10169SOL    HW231407   4.628   5.073   3.759
10170SOL     OW31408   5.254   6.215   0.652
10170SOL    HW131409   5.302   6.237   0.567
10170SOL    HW231410   5.270   6.119   0.676
10171SOL     OW31411   2.210   4.232   4.854
10171SOL    HW131412   2.254   4.157   4.903
10171SOL    HW231413   2.255   4.319   4.878
10172SOL     OW31414   0.386   1.050   2.551
10172SOL    HW131415   0.440   1.118   2.502
10172SOL    HW231416   0.447   0.988   2.600
10173SOL     OW31417   3.923   3.432   5.070
10173SOL    HW131418   3.844   3.430   5.131
10173SOL    HW231419   3.961   3.340   5.062
10174SOL     OW31420   4.519   5.121   0.845
10174SOL    HW131421   4.499   5.131   0.942
10174SOL    HW231422   4.615   5.142   0.829
10175SOL     OW31423   6.284   0.036   4.732
10175SOL    HW131424   6.273   0.026   4.633
10175SOL    HW231425   6.379   0.018   4.758
10176SOL     OW31426   0.290   0.510   4.587
10176SOL    HW131427   0.263   0.560   4.669
10176SOL    HW231428   0.346   0.431   4.613
10177SOL     OW31429   2.702   0.595   4.120
10177SOL    HW131430   2.793   0.616   4.155
10177SOL    HW231431   2.682   0.499   4.137
10178SOL     OW31432   0.431   1.758   1.478
10178SOL    HW131433   0.398   1.785   1.568
10178SOL    HW231434   0.521   1.799   1.461
10179SOL     OW31435   0.100   5.923   0.564
10179SOL    HW131436   0.142   5.947   0.651
10179SOL    HW231437   0.104   5.824   0.552
10180SOL     OW31438   3.548   6.696   6.533
10180SOL    HW131439   3.596   6.773   6.575
10180SOL    HW231440   3.611   6.619   6.524
10181SOL     OW31441   0.075   3.602   3.176
10181SOL    HW131442   0.083   3.701   3.172
10181SOL    HW231443   0.135   3.566   3.247
10182SOL     OW31444   4.100   0.731   0.749
10182SOL    HW131445   4.013   0.723   0.701
10182SOL    HW231446   4.102   0.666   0.825
10183SOL     OW31447   4.443   6.436   5.991
10183SOL    HW131448   4.420   6.422   6.087
10183SOL    HW231449   4.361   6.427   5.935
10184SOL     OW31450   5.289   2.128   5.396
10184SOL    HW131451   5.288   2.224   5.366
10184SOL    HW231452   5.384   2.100   5.413
10185SOL     OW31453   3.182   5.155   1.876
10185SOL    HW131454   3.159   5.155   1.973
10185SOL    HW231455   3.107   5.113   1.824
10186SOL     OW31456   3.560   3.213   6.919
10186SOL    HW131457   3.570   3.219   7.018
10186SOL    HW231458   3.468   3.180   6.897
10187SOL     OW31459   2.217   4.507   5.631
10187SOL    HW131460   2.259   4.525   5.542
10187SOL    HW231461   2.288   4.511   5.702
10188SOL     OW31462   2.744   6.898   6.533
10188SOL    HW131463   2.762   6.898   6.435
10188SOL    HW231464   2.819   6.854   6.581
10189SOL     OW31465   2.229   1.432   4.615
10189SOL    HW131466   2.163   1.447   4.541
10189SOL    HW231467   2.182   1.392   4.694
10190SOL     OW31468   4.310   3.972   1.038
10190SOL    HW131469   4.278   3.995   1.130
10190SOL    HW231470   4.343   3.877   1.038
10191SOL     OW31471   5.313   0.435   0.140
10191SOL    HW131472   5.261   0.410   0.058
10191SOL    HW231473   5.385   0.500   0.116
10192SOL     OW31474   1.666   0.715   4.410
10192SOL    HW131475   1.711   0.714   4.499
10192SOL    HW231476   1.571   0.742   4.421
10193SOL     OW31477   3.808   3.946   3.918
10193SOL    HW131478   3.867   3.865   3.917
10193SOL    HW231479   3.712   3.918   3.910
10194SOL     OW31480   3.153   0.283   3.174
10194SOL    HW131481   3.151   0.200   3.119
10194SOL    HW231482   3.095   0.270   3.255
10195SOL     OW31483   5.652   0.238   2.798
10195SOL    HW131484   5.595   0.181   2.739
10195SOL    HW231485   5.665   0.193   2.886
10196SOL     OW31486   5.128   3.849   4.444
10196SOL    HW131487   5.181   3.831   4.361
10196SOL    HW231488   5.189   3.878   4.518
10197SOL     OW31489   5.599   1.274   2.962
10197SOL    HW131490   5.609   1.331   2.880
10197SOL    HW231491   5.523   1.210   2.949
10198SOL     OW31492   3.349   0.912   1.623
10198SOL    HW131493   3.273   0.976   1.634
10198SOL    HW231494   3.328   0.847   1.550
10199SOL     OW31495   1.367   2.134   0.228
10199SOL    HW131496   1.374   2.048   0.278
10199SOL    HW231497   1.320   2.202   0.285
10200SOL     OW31498   5.878   5.800   5.103
10200SOL    HW131499   5.837   5.713   5.073
10200SOL    HW231500   5.806   5.866   5.123
10201SOL     OW31501   1.854   4.711   2.878
10201SOL    HW131502   1.837   4.624   2.925
10201SOL    HW231503   1.768   4.753   2.853
10202SOL     OW31504   0.342   2.169   2.933
10202SOL    HW131505   0.398   2.188   2.852
10202SOL    HW231506   0.358   2.241   3.001
10203SOL     OW31507   0.680   2.880   1.517
10203SOL    HW131508   0.736   2.944   1.569
10203SOL    HW231509   0.592   2.868   1.562
10204SOL     OW31510   2.932   4.890   3.908
10204SOL    HW131511   2.842   4.847   3.897
10204SOL    HW231512   2.951   4.946   3.827
10205SOL     OW31513   4.508   0.571   1.350
10205SOL    HW131514   4.545   0.645   1.293
10205SOL    HW231515   4.434   0.607   1.407
10206SOL     OW31516   4.944   0.342   6.491
10206SOL    HW131517   4.913   0.421   6.438
10206SOL    HW231518   4.916   0.354   6.587
10207SOL     OW31519   3.971   1.485   3.167
10207SOL    HW131520   3.913   1.562   3.139
10207SOL    HW231521   4.016   1.507   3.254
10208SOL     OW31522   6.816   3.741   5.633
10208SOL    HW131523   6.895   3.712   5.687
10208SOL    HW231524   6.832   3.834   5.599
10209SOL     OW31525   4.484   6.653   6.837
10209SOL    HW131526   4.508   6.732   6.779
10209SOL    HW231527   4.567   6.600   6.857
10210SOL     OW31528   5.654   5.970   0.865
10210SOL    HW131529   5.675   6.003   0.773
10210SOL    HW231530   5.559   5.941   0.870
10211SOL     OW31531   3.302   5.503   5.015
10211SOL    HW131532   3.351   5.590   5.007
10211SOL    HW231533   3.329   5.457   5.100
10212SOL     OW31534   5.986   5.774   5.892
10212SOL    HW131535   5.925   5.848   5.862
10212SOL    HW231536   5.994   5.706   5.819
10213SOL     OW31537   4.599   0.680   4.712
10213SOL    HW131538   4.528   0.705   4.777
10213SOL    HW231539   4.585   0.730   4.627
10214SOL     OW31540   0.520   1.112   1.167
10214SOL    HW131541   0.430   1.151   1.147
10214SOL    HW231542   0.512   1.013   1.182
10215SOL     OW31543   3.675   2.613   6.729
10215SOL    HW131544   3.742   2.548   6.765
10215SOL    HW231545   3.616   2.567   6.663
10216SOL     OW31546   4.720   7.003   2.547
10216SOL    HW131547   4.676   7.021   2.459
10216SOL    HW231548   4.699   0.052   2.611
10217SOL     OW31549   3.399   2.177   5.818
10217SOL    HW131550   3.335   2.212   5.750
10217SOL    HW231551   3.439   2.091   5.785
10218SOL     OW31552   3.003   2.229   6.873
10218SOL    HW131553   2.938   2.294   6.835
10218SOL    HW231554   3.093   2.273   6.883
10219SOL     OW31555   0.632   4.417   6.721
10219SOL    HW131556   0.626   4.346   6.651
10219SOL    HW231557   0.711   4.399   6.780
10220SOL     OW31558   4.035   2.930   0.294
10220SOL    HW131559   4.036   2.850   0.353
10220SOL    HW231560   3.967   2.995   0.329
10221SOL     OW31561   3.031   0.994   4.358
10221SOL    HW131562   2.988   1.070   4.408
10221SOL    HW231563   3.011   1.002   4.261
10222SOL     OW31564   1.526   4.810   5.852
10222SOL    HW131565   1.553   4.846   5.762
10222SOL    HW231566   1.567   4.866   5.924
10223SOL     OW31567   0.052   4.245   0.861
10223SOL    HW131568   0.097   4.318   0.810
10223SOL    HW231569   6.980   4.240   0.835
10224SOL     OW31570   2.619   0.288   4.692
10224SOL    HW131571   2.557   0.322   4.763
10224SOL    HW231572   2.584   0.314   4.602
10225SOL     OW31573   4.915   6.228   4.273
10225SOL    HW131574   4.845   6.260   4.209
10225SOL    HW231575   4.904   6.130   4.289
10226SOL     OW31576   0.368   2.783   0.026
10226SOL    HW131577   0.280   2.773   0.073
10226SOL    HW231578   0.417   2.696   0.028
10227SOL     OW31579   6.003   5.529   5.707
10227SOL    HW131580   6.095   5.564   5.692
10227SOL    HW231581   5.997   5.487   5.798
10228SOL     OW31582   1.193   3.902   2.588
10228SOL    HW131583   1.271   3.934   2.640
10228SOL    HW231584   1.170   3.969   2.517
10229SOL     OW31585   1.704   1.395   1.723
10229SOL    HW131586   1.625   1.395   1.662
10229SOL    HW231587   1.696   1.319   1.788
10230SOL     OW31588   5.877   6.554   4.173
10230SOL    HW131589   5.901   6.649   4.191
10230SOL    HW231590   5.948   6.511   4.118
10231SOL     OW31591   4.831   0.078   4.571
10231SOL    HW131592   4.869   0.154   4.624
10231SOL    HW231593   4.906   0.019   4.541
10232SOL     OW31594   4.344   1.631   3.338
10232SOL    HW131595   4.404   1.634   3.258
10232SOL    HW231596   4.327   1.724   3.371
10233SOL     OW31597   4.881   0.905   5.554
10233SOL    HW131598   4.867   0.845   5.633
10233SOL    HW231599   4.842   0.862   5.472
10234SOL     OW31600   4.794   5.658   1.445
10234SOL    HW131601   4.852   5.726   1.402
10234SOL    HW231602   4.824   5.643   1.539
10235SOL     OW31603   4.717   1.519   0.079
10235SOL    HW131604   4.741   1.500   0.174
10235SOL    HW231605   4.751   1.446   0.020
10236SOL     OW31606   2.275   5.974   1.722
10236SOL    HW131607   2.370   5.975   1.691
10236SOL    HW231608   2.230   5.893   1.685
10237SOL     OW31609   5.482   2.668   3.334
10237SOL    HW131610   5.558   2.617   3.373
10237SOL    HW231611   5.476   2.758   3.378
10238SOL     OW31612   4.357   5.702   4.885
10238SOL    HW131613   4.424   5.721   4.956
10238SOL    HW231614   4.329   5.606   4.890
10239SOL     OW31615   6.691   3.284   4.256
10239SOL    HW131616   6.671   3.301   4.160
10239SOL    HW231617   6.638   3.206   4.289
10240SOL     OW31618   5.916   3.306   3.929
10240SOL    HW131619   5.873   3.323   3.840
10240SOL    HW231620   5.865   3.354   4.000
10241SOL     OW31621   2.081   1.488   3.308
10241SOL    HW131622   2.079   1.395   3.271
10241SOL    HW231623   2.169   1.530   3.287
10242SOL     OW31624   0.655   5.880   6.535
10242SOL    HW131625   0.609   5.964   6.567
10242SOL    HW231626   0.586   5.810   6.518
10243SOL     OW31627   0.906   6.447   2.813
10243SOL    HW131628   0.815   6.419   2.843
10243SOL    HW231629   0.946   6.376   2.755
10244SOL     OW31630   1.525   5.763   0.092
10244SOL    HW131631   1.574   5.771   0.005
10244SOL    HW231632   1.496   5.668   0.105
10245SOL     OW31633   2.199   2.703   7.018
10245SOL    HW131634   2.110   2.743   0.013
10245SOL    HW231635   2.233   2.736   6.929
10246SOL     OW31636   3.363   3.343   3.910
10246SOL    HW131637   3.325   3.256   3.878
10246SOL    HW231638   3.462   3.335   3.921
10247SOL     OW31639   0.810   5.832   5.655
10247SOL    HW131640   0.846   5.909   5.602
10247SOL    HW231641   0.866   5.751   5.639
10248SOL     OW31642   4.846   0.825   2.648
10248SOL    HW131643   4.925   0.877   2.613
10248SOL    HW231644   4.836   0.841   2.746
10249SOL     OW31645   4.884   1.327   6.831
10249SOL    HW131646   4.878   1.227   6.823
10249SOL    HW231647   4.899   1.352   6.926
10250SOL     OW31648   4.962   0.565   0.321
10250SOL    HW131649   5.033   0.632   0.343
10250SOL    HW231650   4.880   0.584   0.376
10251SOL     OW31651   3.981   4.232   0.037
10251SOL    HW131652   3.911   4.302   0.052
10251SOL    HW231653   4.041   4.260   6.986
10252SOL     OW31654   6.717   4.872   1.798
10252SOL    HW131655   6.682   4.784   1.768
10252SOL    HW231656   6.796   4.858   1.857
10253SOL     OW31657   3.815   5.013   0.203
10253SOL    HW131658   3.854   5.049   0.288
10253SOL    HW231659   3.844   4.918   0.192
10254SOL     OW31660   2.319   1.305   4.405
10254SOL    HW131661   2.306   1.337   4.499
10254SOL    HW231662   2.359   1.213   4.407
10255SOL     OW31663   3.019   5.510   3.002
10255SOL    HW131664   3.090   5.458   3.050
10255SOL    HW231665   3.062   5.562   2.928
10256SOL     OW31666   6.008   6.230   0.112
10256SOL    HW131667   5.911   6.213   0.093
10256SOL    HW231668   6.019   6.326   0.140
10257SOL     OW31669   2.189   6.206   5.955
10257SOL    HW131670   2.177   6.276   6.024
10257SOL    HW231671   2.105   6.151   5.948
10258SOL     OW31672   4.274   0.716   3.681
10258SOL    HW131673   4.369   0.736   3.707
10258SOL    HW231674   4.222   0.691   3.763
10259SOL     OW31675   1.021   3.620   3.949
10259SOL    HW131676   1.120   3.637   3.948
10259SOL    HW231677   1.005   3.521   3.951
10260SOL     OW31678   6.664   6.337   1.769
10260SOL    HW131679   6.642   6.404   1.698
10260SOL    HW231680   6.581   6.314   1.819
10261SOL     OW31681   1.521   0.149   1.952
10261SOL    HW131682   1.586   0.195   2.012
10261SOL    HW231683   1.501   0.208   1.873
10262SOL     OW31684   1.056   5.614   4.580
10262SOL    HW131685   1.016   5.699   4.544
10262SOL    HW231686   1.097   5.633   4.669
10263SOL     OW31687   6.855   2.470   5.705
10263SOL    HW131688   6.915   2.545   5.733
10263SOL    HW231689   6.907   2.384   5.708
10264SOL     OW31690   0.367   6.895   0.236
10264SOL    HW131691   0.312   6.822   0.195
10264SOL    HW231692   0.443   6.919   0.176
10265SOL     OW31693   4.081   2.123   2.303
10265SOL    HW131694   3.982   2.128   2.288
10265SOL    HW231695   4.128   2.165   2.225
10266SOL     OW31696   4.144   3.448   6.591
10266SOL    HW131697   4.103   3.507   6.522
10266SOL    HW231698   4.237   3.479   6.611
10267SOL     OW31699   0.298   1.448   6.352
10267SOL    HW131700   0.206   1.458   6.390
10267SOL    HW231701   0.359   1.515   6.393
10268SOL     OW31702   6.069   4.462   1.667
10268SOL    HW131703   6.087   4.529   1.596
10268SOL    HW231704   6.100   4.498   1.755
10269SOL     OW31705   3.273   2.254   6.071
10269SOL    HW131706   3.310   2.224   5.983
10269SOL    HW231707   3.180   2.289   6.058
10270SOL     OW31708   2.887   6.903   0.759
10270SOL    HW131709   2.938   6.979   0.800
10270SOL    HW231710   2.833   6.857   0.830
10271SOL     OW31711   3.349   5.107   0.887
10271SOL    HW131712   3.284   5.177   0.857
10271SOL    HW231713   3.333   5.085   0.983
10272SOL     OW31714   1.394   1.582   4.983
10272SOL    HW131715   1.471   1.564   5.044
10272SOL    HW231716   1.348   1.666   5.011
10273SOL     OW31717   4.078   6.859   4.147
10273SOL    HW131718   4.122   6.918   4.080
10273SOL    HW231719   4.138   6.782   4.169
10274SOL     OW31720   2.327   5.312   6.648
10274SOL    HW131721   2.344   5.353   6.737
10274SOL    HW231722   2.406   5.326   6.589
10275SOL     OW31723   1.195   6.314   2.421
10275SOL    HW131724   1.291   6.337   2.439
10275SOL    HW231725   1.185   6.214   2.422
10276SOL     OW31726   0.032   6.283   7.015
10276SOL    HW131727   0.052   6.270   6.918
10276SOL    HW231728   6.966   6.324   0.001
10277SOL     OW31729   1.234   6.047   2.418
10277SOL    HW131730   1.199   5.969   2.367
10277SOL    HW231731   1.316   6.021   2.469
10278SOL     OW31732   6.831   0.289   6.409
10278SOL    HW131733   6.818   0.337   6.322
10278SOL    HW231734   6.928   0.286   6.431
10279SOL     OW31735   3.858   6.193   4.077
10279SOL    HW131736   3.936   6.132   4.059
10279SOL    HW231737   3.778   6.137   4.097
10280SOL     OW31738   3.244   2.332   6.400
10280SOL    HW131739   3.217   2.388   6.478
10280SOL    HW231740   3.313   2.380   6.347
10281SOL     OW31741   4.092   0.239   4.088
10281SOL    HW131742   4.086   0.318   4.149
10281SOL    HW231743   4.155   0.172   4.126
10282SOL     OW31744   0.986   2.938   4.768
10282SOL    HW131745   1.031   2.870   4.711
10282SOL    HW231746   1.003   2.918   4.865
10283SOL     OW31747   1.633   3.511   5.741
10283SOL    HW131748   1.646   3.569   5.661
10283SOL    HW231749   1.549   3.538   5.789
10284SOL     OW31750   5.109   2.641   6.855
10284SOL    HW131751   5.194   2.637   6.803
10284SOL    HW231752   5.127   2.613   6.950
10285SOL     OW31753   5.794   0.726   0.168
10285SOL    HW131754   5.795   0.735   0.267
10285SOL    HW231755   5.748   0.640   0.142
10286SOL     OW31756   4.159   0.824   4.100
10286SOL    HW131757   4.141   0.922   4.094
10286SOL    HW231758   4.145   0.793   4.194
10287SOL     OW31759   1.272   4.888   1.839
10287SOL    HW131760   1.214   4.926   1.767
10287SOL    HW231761   1.275   4.789   1.830
10288SOL     OW31762   4.888   6.389   4.502
10288SOL    HW131763   4.836   6.472   4.484
10288SOL    HW231764   4.895   6.335   4.418
10289SOL     OW31765   2.506   1.670   1.427
10289SOL    HW131766   2.553   1.739   1.482
10289SOL    HW231767   2.429   1.633   1.479
10290SOL     OW31768   2.941   3.247   2.143
10290SOL    HW131769   2.858   3.218   2.095
10290SOL    HW231770   2.983   3.168   2.188
10291SOL     OW31771   4.787   0.311   6.080
10291SOL    HW131772   4.826   0.220   6.095
10291SOL    HW231773   4.858   0.380   6.097
10292SOL     OW31774   0.486   0.825   5.148
10292SOL    HW131775   0.472   0.794   5.242
10292SOL    HW231776   0.481   0.925   5.146
10293SOL     OW31777   2.815   5.609   3.549
10293SOL    HW131778   2.771   5.669   3.483
10293SOL    HW231779   2.788   5.514   3.531
10294SOL     OW31780   6.442   1.186   3.056
10294SOL    HW131781   6.370   1.172   2.988
10294SOL    HW231782   6.405   1.175   3.148
10295SOL     OW31783   1.771   4.353   4.534
10295SOL    HW131784   1.800   4.277   4.593
10295SOL    HW231785   1.753   4.433   4.591
10296SOL     OW31786   6.797   2.828   1.638
10296SOL    HW131787   6.727   2.822   1.566
10296SOL    HW231788   6.753   2.852   1.725
10297SOL     OW31789   2.715   5.391   4.501
10297SOL    HW131790   2.741   5.310   4.449
10297SOL    HW231791   2.680   5.363   4.590
10298SOL     OW31792   6.064   3.276   3.199
10298SOL    HW131793   6.068   3.309   3.293
10298SOL    HW231794   5.978   3.304   3.156
10299SOL     OW31795   4.861   3.919   1.960
10299SOL    HW131796   4.867   3.822   1.985
10299SOL    HW231797   4.923   3.972   2.017
10300SOL     OW31798   1.940   6.163   1.693
10300SOL    HW131799   1.925   6.070   1.726
10300SOL    HW231800   1.904   6.228   1.759
10301SOL     OW31801   5.196   1.666   1.510
10301SOL    HW131802   5.198   1.625   1.419
10301SOL    HW231803   5.230   1.760   1.506
10302SOL     OW31804   1.184   5.240   3.873
10302SOL    HW131805   1.187   5.224   3.971
10302SOL    HW231806   1.092   5.221   3.839
10303SOL     OW31807   3.865   3.047   1.377
10303SOL    HW131808   3.766   3.062   1.369
10303SOL    HW231809   3.912   3.135   1.378
10304SOL     OW31810   6.109   6.488   3.945
10304SOL    HW131811   6.188   6.546   3.964
10304SOL    HW231812   6.074   6.508   3.854
10305SOL     OW31813   1.947   5.302   1.114
10305SOL    HW131814   2.002   5.238   1.060
10305SOL    HW231815   1.986   5.310   1.206
10306SOL     OW31816   3.838   4.718   0.198
10306SOL    HW131817   3.837   4.701   0.296
10306SOL    HW231818   3.932   4.733   0.167
10307SOL     OW31819   2.840   1.165   5.689
10307SOL    HW131820   2.832   1.244   5.749
10307SOL    HW231821   2.757   1.109   5.695
10308SOL     OW31822   2.672   5.383   3.748
10308SOL    HW131823   2.610   5.454   3.780
10308SOL    HW231824   2.683   5.314   3.819
10309SOL     OW31825   0.300   6.277   3.653
10309SOL    HW131826   0.222   6.330   3.620
10309SOL    HW231827   0.381   6.336   3.659
10310SOL     OW31828   3.094   3.031   3.608
10310SOL    HW131829   3.058   3.124   3.608
10310SOL    HW231830   3.040   2.975   3.545
10311SOL     OW31831   0.311   0.057   1.160
10311SOL    HW131832   0.312   0.014   1.251
10311SOL    HW231833   0.352   7.019   1.093
10312SOL     OW31834   2.083   4.729   0.778
10312SOL    HW131835   2.096   4.640   0.734
10312SOL    HW231836   2.170   4.762   0.813
10313SOL     OW31837   6.334   6.082   4.035
10313SOL    HW131838   6.422   6.087   4.081
10313SOL    HW231839   6.304   5.987   4.030
10314SOL     OW31840   6.066   5.165   4.971
10314SOL    HW131841   6.004   5.232   4.931
10314SOL    HW231842   6.097   5.101   4.901
10315SOL     OW31843   4.844   6.297   6.167
10315SOL    HW131844   4.771   6.302   6.099
10315SOL    HW231845   4.877   6.390   6.187
10316SOL     OW31846   0.267   3.261   2.491
10316SOL    HW131847   0.223   3.350   2.503
10316SOL    HW231848   0.219   3.192   2.546
10317SOL     OW31849   4.553   4.881   0.686
10317SOL    HW131850   4.475   4.820   0.701
10317SOL    HW231851   4.551   4.954   0.754
10318SOL     OW31852   6.198   5.840   2.739
10318SOL    HW131853   6.267   5.777   2.704
10318SOL    HW231854   6.186   5.916   2.674
10319SOL     OW31855   5.390   6.129   4.685
10319SOL    HW131856   5.426   6.163   4.598
10319SOL    HW231857   5.294   6.156   4.695
10320SOL     OW31858   4.247   5.830   1.267
10320SOL    HW131859   4.229   5.925   1.242
10320SOL    HW231860   4.336   5.801   1.230
10321SOL     OW31861   3.559   0.078   3.946
10321SOL    HW131862   3.557   0.176   3.930
10321SOL    HW231863   3.538   0.058   4.041
10322SOL     OW31864   0.505   2.539   0.043
10322SOL    HW131865   0.535   2.564   0.135
10322SOL    HW231866   0.489   2.440   0.039
10323SOL     OW31867   0.507   2.130   5.568
10323SOL    HW131868   0.525   2.203   5.635
10323SOL    HW231869   0.503   2.170   5.476
10324SOL     OW31870   4.014   3.104   3.828
10324SOL    HW131871   3.945   3.043   3.788
10324SOL    HW231872   4.067   3.147   3.755
10325SOL     OW31873   0.109   3.731   2.656
10325SOL    HW131874   0.164   3.767   2.732
10325SOL    HW231875   0.013   3.724   2.684
10326SOL     OW31876   5.115   1.843   1.115
10326SOL    HW131877   5.073   1.929   1.144
10326SOL    HW231878   5.078   1.816   1.026
10327SOL     OW31879   6.755   0.605   3.240
10327SOL    HW131880   6.712   0.542   3.176
10327SOL    HW231881   6.751   0.567   3.332
10328SOL     OW31882   6.255   3.383   2.559
10328SOL    HW131883   6.240   3.306   2.498
10328SOL    HW231884   6.350   3.382   2.591
10329SOL     OW31885   3.478   6.601   3.024
10329SOL    HW131886   3.528   6.655   2.956
10329SOL    HW231887   3.526   6.515   3.040
10330SOL     OW31888   3.342   4.263   0.913
10330SOL    HW131889   3.387   4.233   0.997
10330SOL    HW231890   3.249   4.293   0.934
10331SOL     OW31891   5.087   0.675   4.440
10331SOL    HW131892   5.023   0.623   4.384
10331SOL    HW231893   5.095   0.633   4.530
10332SOL     OW31894   0.351   1.714   0.036
10332SOL    HW131895   0.313   1.621   0.041
10332SOL    HW231896   0.327   1.764   0.119
10333SOL     OW31897   5.310   4.550   5.310
10333SOL    HW131898   5.245   4.499   5.253
10333SOL    HW231899   5.363   4.486   5.365
10334SOL     OW31900   0.911   5.014   4.878
10334SOL    HW131901   0.832   4.957   4.856
10334SOL    HW231902   0.994   4.968   4.849
10335SOL     OW31903   2.896   5.277   1.933
10335SOL    HW131904   2.941   5.296   1.846
10335SOL    HW231905   2.797   5.274   1.920
10336SOL     OW31906   4.774   6.154   2.854
10336SOL    HW131907   4.772   6.215   2.776
10336SOL    HW231908   4.763   6.059   2.823
10337SOL     OW31909   0.622   4.660   5.144
10337SOL    HW131910   0.547   4.725   5.136
10337SOL    HW231911   0.603   4.580   5.086
10338SOL     OW31912   3.231   5.041   3.111
10338SOL    HW131913   3.313   5.039   3.053
10338SOL    HW231914   3.249   4.987   3.194
10339SOL     OW31915   3.034   5.768   0.708
10339SOL    HW131916   3.034   5.672   0.682
10339SOL    HW231917   2.941   5.803   0.710
10340SOL     OW31918   1.592   6.567   0.328
10340SOL    HW131919   1.506   6.606   0.293
10340SOL    HW231920   1.647   6.536   0.250
10341SOL     OW31921   1.231   2.566   2.281
10341SOL    HW131922   1.143   2.599   2.245
10341SOL    HW231923   1.263   2.630   2.351
10342SOL     OW31924   3.449   6.317   4.002
10342SOL    HW131925   3.353   6.293   3.984
10342SOL    HW231926   3.502   6.310   3.917
10343SOL     OW31927   2.291   2.825   3.848
10343SOL    HW131928   2.318   2.861   3.937
10343SOL    HW231929   2.309   2.894   3.777
10344SOL     OW31930   4.362   3.859   0.680
10344SOL    HW131931   4.451   3.829   0.714
10344SOL    HW231932   4.292   3.844   0.750
10345SOL     OW31933   2.213   2.232   5.522
10345SOL    HW131934   2.174   2.221   5.431
10345SOL    HW231935   2.245   2.144   5.556
10346SOL     OW31936   5.673   4.994   0.134
10346SOL    HW131937   5.702   4.955   0.221
10346SOL    HW231938   5.744   4.978   0.065
10347SOL     OW31939   4.833   0.230   1.926
10347SOL    HW131940   4.837   0.175   1.843
10347SOL    HW231941   4.913   0.291   1.930
10348SOL     OW31942   6.316   4.745   5.699
10348SOL    HW131943   6.235   4.723   5.645
10348SOL    HW231944   6.395   4.693   5.665
10349SOL     OW31945   6.526   2.188   0.934
10349SOL    HW131946   6.517   2.090   0.952
10349SOL    HW231947   6.610   2.205   0.883
10350SOL     OW31948   2.262   4.910   4.921
10350SOL    HW131949   2.251   5.008   4.903
10350SOL    HW231950   2.280   4.862   4.836
10351SOL     OW31951   4.192   4.833   4.685
10351SOL    HW131952   4.219   4.753   4.631
10351SOL    HW231953   4.264   4.855   4.750
10352SOL     OW31954   6.662   1.014   0.243
10352SOL    HW131955   6.613   1.068   0.311
10352SOL    HW231956   6.611   1.013   0.157
10353SOL     OW31957   6.573   1.749   3.563
10353SOL    HW131958   6.532   1.729   3.652
10353SOL    HW231959   6.504   1.738   3.491
10354SOL     OW31960   6.078   2.927   1.093
10354SOL    HW131961   6.017   2.928   1.014
10354SOL    HW231962   6.128   2.840   1.095
10355SOL     OW31963   0.939   1.476   0.808
10355SOL    HW131964   0.953   1.571   0.836
10355SOL    HW231965   0.945   1.416   0.888
10356SOL     OW31966   5.753   2.708   6.096
10356SOL    HW131967   5.722   2.784   6.040
10356SOL    HW231968   5.761   2.625   6.040
10357SOL     OW31969   1.498   0.191   6.259
10357SOL    HW131970   1.468   0.281   6.289
10357SOL    HW231971   1.597   0.191   6.248
10358SOL     OW31972   0.038   2.733   2.981
10358SOL    HW131973   0.063   2.738   3.077
10358SOL    HW231974   0.026   2.638   2.954
10359SOL     OW31975   6.972   1.679   2.543
10359SOL    HW131976   7.007   1.657   2.634
10359SOL    HW231977   7.024   1.755   2.504
10360SOL     OW31978   5.461   3.944   1.821
10360SOL    HW131979   5.365   3.972   1.817
10360SOL    HW231980   5.484   3.895   1.736
10361SOL     OW31981   5.799   1.806   2.509
10361SOL    HW131982   5.723   1.798   2.574
10361SOL    HW231983   5.811   1.719   2.461
10362SOL     OW31984   1.579   5.560   1.289
10362SOL    HW131985   1.648   5.573   1.360
10362SOL    HW231986   1.520   5.641   1.285
10363SOL     OW31987   5.314   4.612   6.303
10363SOL    HW131988   5.260   4.553   6.363
10363SOL    HW231989   5.354   4.686   6.357
10364SOL     OW31990   5.630   4.973   2.559
10364SOL    HW131991   5.553   4.989   2.621
10364SOL    HW231992   5.713   5.013   2.598
10365SOL     OW31993   5.975   4.977   0.878
10365SOL    HW131994   6.003   5.043   0.947
10365SOL    HW231995   6.044   4.975   0.805
10366SOL     OW31996   2.926   6.046   3.963
10366SOL    HW131997   2.857   6.119   3.964
10366SOL    HW231998   2.957   6.032   3.869
10367SOL     OW31999   5.376   6.190   1.389
10367SOL    HW132000   5.291   6.161   1.433
10367SOL    HW232001   5.445   6.206   1.459
10368SOL     OW32002   1.725   6.342   1.329
10368SOL    HW132003   1.711   6.269   1.262
10368SOL    HW232004   1.823   6.358   1.342
10369SOL     OW32005   2.735   0.132   6.320
10369SOL    HW132006   2.680   0.050   6.336
10369SOL    HW232007   2.711   0.203   6.386
10370SOL     OW32008   1.887   1.080   5.500
10370SOL    HW132009   1.893   1.080   5.600
10370SOL    HW232010   1.954   1.144   5.463
10371SOL     OW32011   4.621   5.698   3.334
10371SOL    HW132012   4.657   5.628   3.272
10371SOL    HW232013   4.676   5.782   3.324
10372SOL     OW32014   2.102   6.856   1.026
10372SOL    HW132015   2.135   6.940   1.068
10372SOL    HW232016   2.157   6.779   1.057
10373SOL     OW32017   6.251   1.404   6.663
10373SOL    HW132018   6.275   1.488   6.711
10373SOL    HW232019   6.152   1.390   6.665
10374SOL     OW32020   3.342   4.905   3.367
10374SOL    HW132021   3.355   4.933   3.462
10374SOL    HW232022   3.431   4.883   3.326
10375SOL     OW32023   2.589   5.091   0.711
10375SOL    HW132024   2.592   5.089   0.611
10375SOL    HW232025   2.494   5.092   0.741
10376SOL     OW32026   2.589   4.986   4.558
10376SOL    HW132027   2.572   4.995   4.460
10376SOL    HW232028   2.678   5.025   4.581
10377SOL     OW32029   2.002   1.047   2.539
10377SOL    HW132030   1.979   1.060   2.635
10377SOL    HW232031   2.095   1.010   2.532
10378SOL     OW32032   0.004   5.774   4.223
10378SOL    HW132033   7.020   5.833   4.303
10378SOL    HW232034   0.064   5.817   4.156
10379SOL     OW32035   1.888   0.140   3.868
10379SOL    HW132036   1.983   0.151   3.898
10379SOL    HW232037   1.885   0.076   3.791
10380SOL     OW32038   2.755   2.391   4.262
10380SOL    HW132039   2.658   2.364   4.261
10380SOL    HW232040   2.795   2.364   4.350
10381SOL     OW32041   4.032   6.458   2.556
10381SOL    HW132042   3.944   6.464   2.508
10381SOL    HW232043   4.094   6.398   2.505
10382SOL     OW32044   4.351   5.359   1.024
10382SOL    HW132045   4.349   5.383   1.121
10382SOL    HW232046   4.260   5.327   0.996
10383SOL     OW32047   1.039   4.847   0.223
10383SOL    HW132048   1.107   4.807   0.160
10383SOL    HW232049   1.056   4.813   0.315
10384SOL     OW32050   5.472   5.396   0.949
10384SOL    HW132051   5.431   5.304   0.947
10384SOL    HW232052   5.521   5.413   0.863
10385SOL     OW32053   4.109   4.460   0.364
10385SOL    HW132054   4.171   4.383   0.349
10385SOL    HW232055   4.036   4.432   0.427
10386SOL     OW32056   0.307   0.723   0.631
10386SOL    HW132057   0.386   0.740   0.574
10386SOL    HW232058   0.336   0.708   0.726
10387SOL     OW32059   4.910   3.201   1.925
10387SOL    HW132060   4.839   3.143   1.964
10387SOL    HW232061   4.870   3.284   1.888
10388SOL     OW32062   1.705   6.583   5.588
10388SOL    HW132063   1.692   6.541   5.678
10388SOL    HW232064   1.644   6.539   5.522
10389SOL     OW32065   0.456   4.054   6.831
10389SOL    HW132066   0.471   4.113   6.910
10389SOL    HW232067   0.503   4.092   6.751
10390SOL     OW32068   2.460   2.451   1.918
10390SOL    HW132069   2.543   2.429   1.866
10390SOL    HW232070   2.480   2.447   2.016
10391SOL     OW32071   5.670   6.855   3.967
10391SOL    HW132072   5.721   6.787   3.913
10391SOL    HW232073   5.728   6.934   3.984
10392SOL     OW32074   6.486   3.566   4.585
10392SOL    HW132075   6.431   3.647   4.562
10392SOL    HW232076   6.434   3.506   4.645
10393SOL     OW32077   1.598   3.423   3.298
10393SOL    HW132078   1.674   3.432   3.233
10393SOL    HW232079   1.629   3.370   3.377
10394SOL     OW32080   3.511   0.259   4.376
10394SOL    HW132081   3.509   0.187   4.445
10394SOL    HW232082   3.420   0.302   4.370
10395SOL     OW32083   1.143   6.767   1.086
10395SOL    HW132084   1.176   6.717   1.166
10395SOL    HW232085   1.144   6.865   1.105
10396SOL     OW32086   3.355   2.055   4.575
10396SOL    HW132087   3.359   1.985   4.647
10396SOL    HW232088   3.447   2.084   4.551
10397SOL     OW32089   4.660   1.885   3.765
10397SOL    HW132090   4.566   1.868   3.733
10397SOL    HW232091   4.664   1.972   3.813
10398SOL     OW32092   5.792   3.022   1.765
10398SOL    HW132093   5.717   3.037   1.829
10398SOL    HW232094   5.756   2.992   1.677
10399SOL     OW32095   0.637   3.881   1.828
10399SOL    HW132096   0.610   3.804   1.772
10399SOL    HW232097   0.676   3.953   1.770
10400SOL     OW32098   2.929   6.078   0.507
10400SOL    HW132099   3.019   6.047   0.478
10400SOL    HW232100   2.940   6.149   0.577
10401SOL     OW32101   0.489   0.954   5.859
10401SOL    HW132102   0.439   0.875   5.894
10401SOL    HW232103   0.575   0.963   5.909
10402SOL     OW32104   0.208   2.635   5.035
10402SOL    HW132105   0.108   2.641   5.026
10402SOL    HW232106   0.250   2.708   4.981
10403SOL     OW32107   3.663   0.769   1.082
10403SOL    HW132108   3.574   0.724   1.073
10403SOL    HW232109   3.692   0.803   0.993
10404SOL     OW32110   6.922   6.370   6.584
10404SOL    HW132111   6.897   6.462   6.614
10404SOL    HW232112   6.843   6.328   6.539
10405SOL     OW32113   0.490   2.620   6.344
10405SOL    HW132114   0.391   2.624   6.354
10405SOL    HW232115   0.516   2.667   6.259
10406SOL     OW32116   2.548   4.869   1.512
10406SOL    HW132117   2.595   4.844   1.597
10406SOL    HW232118   2.600   4.833   1.434
10407SOL     OW32119   2.753   6.423   6.527
10407SOL    HW132120   2.792   6.406   6.617
10407SOL    HW232121   2.810   6.378   6.457
10408SOL     OW32122   4.063   1.862   0.019
10408SOL    HW132123   4.021   1.949   7.016
10408SOL    HW232124   4.163   1.873   0.019
10409SOL     OW32125   6.112   4.731   1.120
10409SOL    HW132126   6.057   4.679   1.185
10409SOL    HW232127   6.134   4.673   1.041
10410SOL     OW32128   5.924   0.742   0.671
10410SOL    HW132129   5.828   0.767   0.676
10410SOL    HW232130   5.934   0.644   0.686
10411SOL     OW32131   2.435   5.107   3.556
10411SOL    HW132132   2.360   5.060   3.603
10411SOL    HW232133   2.405   5.197   3.526
10412SOL     OW32134   6.579   0.801   0.699
10412SOL    HW132135   6.678   0.793   0.689
10412SOL    HW232136   6.539   0.709   0.707
10413SOL     OW32137   0.103   2.962   1.748
10413SOL    HW132138   0.018   3.010   1.728
10413SOL    HW232139   0.168   3.027   1.789
10414SOL     OW32140   4.979   2.816   3.886
10414SOL    HW132141   4.966   2.756   3.807
10414SOL    HW232142   4.998   2.762   3.967
10415SOL     OW32143   0.221   6.872   6.032
10415SOL    HW132144   0.235   6.830   5.942
10415SOL    HW232145   0.226   6.801   6.102
10416SOL     OW32146   5.702   2.756   4.412
10416SOL    HW132147   5.610   2.781   4.442
10416SOL    HW232148   5.763   2.834   4.425
10417SOL     OW32149   2.446   4.469   3.860
10417SOL    HW132150   2.399   4.385   3.890
10417SOL    HW232151   2.480   4.456   3.767
10418SOL     OW32152   1.046   4.506   5.754
10418SOL    HW132153   1.042   4.534   5.849
10418SOL    HW232154   0.989   4.567   5.699
10419SOL     OW32155   1.179   1.144   0.768
10419SOL    HW132156   1.106   1.205   0.737
10419SOL    HW232157   1.257   1.151   0.706
10420SOL     OW32158   0.167   3.621   3.598
10420SOL    HW132159   0.152   3.673   3.514
10420SOL    HW232160   0.240   3.554   3.582
10421SOL     OW32161   0.249   0.906   3.199
10421SOL    HW132162   0.314   0.890   3.273
10421SOL    HW232163   0.181   0.974   3.228
10422SOL     OW32164   5.867   3.144   6.075
10422SOL    HW132165   5.839   3.091   5.995
10422SOL    HW232166   5.883   3.082   6.152
10423SOL     OW32167   5.270   4.595   3.218
10423SOL    HW132168   5.368   4.572   3.216
10423SOL    HW232169   5.258   4.690   3.190
10424SOL     OW32170   4.714   2.065   6.173
10424SOL    HW132171   4.786   2.129   6.145
10424SOL    HW232172   4.637   2.116   6.210
10425SOL     OW32173   2.021   6.623   1.776
10425SOL    HW132174   1.981   6.639   1.685
10425SOL    HW232175   2.097   6.560   1.769
10426SOL     OW32176   6.747   3.973   6.698
10426SOL    HW132177   6.746   3.997   6.795
10426SOL    HW232178   6.840   3.954   6.669
10427SOL     OW32179   5.025   1.615   0.430
10427SOL    HW132180   5.064   1.568   0.510
10427SOL    HW232181   5.096   1.632   0.363
10428SOL     OW32182   4.795   0.942   4.530
10428SOL    HW132183   4.829   0.914   4.440
10428SOL    HW232184   4.864   0.919   4.599
10429SOL     OW32185   6.435   6.250   2.068
10429SOL    HW132186   6.510   6.207   2.119
10429SOL    HW232187   6.437   6.349   2.081
10430SOL     OW32188   3.710   6.422   3.284
10430SOL    HW132189   3.728   6.419   3.186
10430SOL    HW232190   3.696   6.517   3.313
10431SOL     OW32191   2.948   1.110   5.141
10431SOL    HW132192   2.895   1.037   5.097
10431SOL    HW232193   2.910   1.128   5.232
10432SOL     OW32194   6.180   0.706   5.389
10432SOL    HW132195   6.108   0.638   5.403
10432SOL    HW232196   6.267   0.659   5.377
10433SOL     OW32197   2.442   6.525   0.858
10433SOL    HW132198   2.366   6.481   0.809
10433SOL    HW232199   2.471   6.467   0.934
10434SOL     OW32200   2.621   1.498   3.808
10434SOL    HW132201   2.683   1.468   3.735
10434SOL    HW232202   2.660   1.473   3.897
10435SOL     OW32203   5.122   6.552   0.187
10435SOL    HW132204   5.197   6.603   0.229
10435SOL    HW232205   5.082   6.491   0.255
10436SOL     OW32206   1.369   6.554   2.765
10436SOL    HW132207   1.325   6.575   2.852
10436SOL    HW232208   1.414   6.636   2.730
10437SOL     OW32209   6.721   4.773   6.152
10437SOL    HW132210   6.720   4.749   6.249
10437SOL    HW232211   6.742   4.870   6.142
10438SOL     OW32212   2.854   5.886   6.576
10438SOL    HW132213   2.942   5.906   6.533
10438SOL    HW232214   2.795   5.837   6.511
10439SOL     OW32215   4.099   6.967   6.077
10439SOL    HW132216   4.087   6.868   6.085
10439SOL    HW232217   4.185   6.994   6.121
10440SOL     OW32218   1.906   5.453   0.593
10440SOL    HW132219   1.834   5.520   0.609
10440SOL    HW232220   1.992   5.500   0.574
10441SOL     OW32221   4.734   1.505   6.651
10441SOL    HW132222   4.783   1.578   6.698
10441SOL    HW232223   4.758   1.417   6.692
10442SOL     OW32224   4.465   5.439   5.785
10442SOL    HW132225   4.437   5.369   5.719
10442SOL    HW232226   4.461   5.400   5.877
10443SOL     OW32227   6.179   2.886   5.113
10443SOL    HW132228   6.107   2.950   5.139
10443SOL    HW232229   6.138   2.800   5.084
10444SOL     OW32230   3.946   5.129   3.991
10444SOL    HW132231   3.846   5.127   3.985
10444SOL    HW232232   3.981   5.035   3.990
10445SOL     OW32233   6.387   6.112   4.994
10445SOL    HW132234   6.451   6.151   4.928
10445SOL    HW232235   6.300   6.160   4.989
10446SOL     OW32236   0.669   5.412   6.136
10446SOL    HW132237   0.611   5.417   6.054
10446SOL    HW232238   0.613   5.385   6.214
10447SOL     OW32239   6.024   2.308   1.366
10447SOL    HW132240   6.023   2.249   1.285
10447SOL    HW232241   6.083   2.267   1.436
10448SOL     OW32242   3.424   4.152   2.414
10448SOL    HW132243   3.420   4.229   2.350
10448SOL    HW232244   3.400   4.068   2.366
10449SOL     OW32245   1.739   5.190   4.401
10449SOL    HW132246   1.833   5.215   4.424
10449SOL    HW232247   1.722   5.095   4.428
10450SOL     OW32248   0.302   2.701   1.044
10450SOL    HW132249   0.354   2.763   0.986
10450SOL    HW232250   0.205   2.705   1.019
10451SOL     OW32251   2.272   4.151   2.723
10451SOL    HW132252   2.260   4.070   2.665
10451SOL    HW232253   2.317   4.223   2.671
10452SOL     OW32254   1.187   3.665   5.088
10452SOL    HW132255   1.193   3.578   5.039
10452SOL    HW232256   1.178   3.740   5.022
10453SOL     OW32257   5.005   0.129   1.698
10453SOL    HW132258   4.995   0.070   1.617
10453SOL    HW232259   4.999   0.225   1.670
10454SOL     OW32260   5.051   3.434   2.420
10454SOL    HW132261   5.086   3.359   2.364
10454SOL    HW232262   4.963   3.464   2.384
10455SOL     OW32263   0.148   4.452   3.375
10455SOL    HW132264   0.070   4.455   3.313
10455SOL    HW232265   0.164   4.358   3.404
10456SOL     OW32266   4.157   5.830   0.572
10456SOL    HW132267   4.206   5.808   0.656
10456SOL    HW232268   4.211   5.803   0.492
10457SOL     OW32269   3.579   3.828   3.939
10457SOL    HW132270   3.592   3.757   4.008
10457SOL    HW232271   3.524   3.902   3.977
10458SOL     OW32272   6.955   0.031   1.582
10458SOL    HW132273   6.954   6.981   1.648
10458SOL    HW232274   6.988   0.114   1.626
10459SOL     OW32275   6.761   5.552   2.530
10459SOL    HW132276   6.768   5.462   2.572
10459SOL    HW232277   6.737   5.542   2.433
10460SOL     OW32278   2.112   5.713   2.304
10460SOL    HW132279   2.046   5.788   2.306
10460SOL    HW232280   2.146   5.701   2.211
10461SOL     OW32281   2.417   1.539   6.559
10461SOL    HW132282   2.332   1.518   6.608
10461SOL    HW232283   2.451   1.629   6.586
10462SOL     OW32284   6.749   0.045   1.383
10462SOL    HW132285   6.839   0.019   1.418
10462SOL    HW232286   6.688   6.990   1.388
10463SOL     OW32287   2.595   3.933   1.311
10463SOL    HW132288   2.565   4.027   1.329
10463SOL    HW232289   2.614   3.923   1.213
10464SOL     OW32290   5.460   0.058   1.728
10464SOL    HW132291   5.402   0.017   1.798
10464SOL    HW232292   5.494   0.146   1.760
10465SOL     OW32293   6.341   4.964   5.499
10465SOL    HW132294   6.387   4.896   5.443
10465SOL    HW232295   6.272   4.919   5.556
10466SOL     OW32296   4.960   5.826   6.166
10466SOL    HW132297   5.020   5.901   6.196
10466SOL    HW232298   4.876   5.865   6.128
10467SOL     OW32299   4.089   0.708   4.349
10467SOL    HW132300   4.002   0.756   4.341
10467SOL    HW232301   4.133   0.733   4.435
10468SOL     OW32302   3.731   5.715   2.964
10468SOL    HW132303   3.651   5.718   3.023
10468SOL    HW232304   3.761   5.808   2.943
10469SOL     OW32305   1.273   4.622   0.694
10469SOL    HW132306   1.317   4.558   0.631
10469SOL    HW232307   1.315   4.712   0.684
10470SOL     OW32308   3.008   1.644   4.187
10470SOL    HW132309   3.035   1.741   4.193
10470SOL    HW232310   3.089   1.587   4.177
10471SOL     OW32311   4.131   3.790   0.808
10471SOL    HW132312   4.081   3.840   0.738
10471SOL    HW232313   4.070   3.771   0.885
10472SOL     OW32314   4.379   1.153   2.511
10472SOL    HW132315   4.353   1.085   2.443
10472SOL    HW232316   4.418   1.233   2.465
10473SOL     OW32317   5.020   5.485   0.874
10473SOL    HW132318   5.100   5.441   0.834
10473SOL    HW232319   4.972   5.420   0.933
10474SOL     OW32320   4.300   0.072   4.220
10474SOL    HW132321   4.246   0.012   4.161
10474SOL    HW232322   4.391   0.086   4.180
10475SOL     OW32323   4.478   5.722   1.155
10475SOL    HW132324   4.514   5.727   1.062
10475SOL    HW232325   4.520   5.645   1.203
10476SOL     OW32326   0.176   4.398   0.664
10476SOL    HW132327   0.247   4.419   0.597
10476SOL    HW232328   0.164   4.476   0.726
10477SOL     OW32329   5.397   4.653   4.984
10477SOL    HW132330   5.323   4.694   5.037
10477SOL    HW232331   5.411   4.705   4.900
10478SOL     OW32332   0.356   6.174   1.937
10478SOL    HW132333   0.425   6.106   1.911
10478SOL    HW232334   0.276   6.127   1.973
10479SOL     OW32335   1.842   4.953   3.315
10479SOL    HW132336   1.747   4.980   3.300
10479SOL    HW232337   1.846   4.886   3.389
10480SOL     OW32338   6.378   0.257   2.678
10480SOL    HW132339   6.292   0.281   2.633
10480SOL    HW232340   6.437   0.206   2.615
10481SOL     OW32341   2.550   0.336   4.952
10481SOL    HW132342   2.605   0.274   5.007
10481SOL    HW232343   2.590   0.427   4.954
10482SOL     OW32344   0.847   5.418   5.837
10482SOL    HW132345   0.836   5.371   5.924
10482SOL    HW232346   0.757   5.441   5.799
10483SOL     OW32347   6.892   5.444   0.645
10483SOL    HW132348   6.830   5.403   0.579
10483SOL    HW232349   6.840   5.495   0.713
10484SOL     OW32350   5.629   2.257   1.619
10484SOL    HW132351   5.699   2.323   1.591
10484SOL    HW232352   5.654   2.217   1.706
10485SOL     OW32353   3.447   4.077   3.740
10485SOL    HW132354   3.348   4.069   3.746
10485SOL    HW232355   3.485   4.094   3.831
10486SOL     OW32356   6.063   6.074   5.280
10486SOL    HW132357   5.974   6.049   5.240
10486SOL    HW232358   6.064   6.048   5.377
10487SOL     OW32359   4.603   1.830   2.183
10487SOL    HW132360   4.647   1.784   2.260
10487SOL    HW232361   4.572   1.921   2.212
10488SOL     OW32362   6.786   2.041   5.401
10488SOL    HW132363   6.801   1.986   5.320
10488SOL    HW232364   6.825   2.132   5.388
10489SOL     OW32365   6.120   4.183   4.814
10489SOL    HW132366   6.134   4.279   4.838
10489SOL    HW232367   6.207   4.143   4.786
10490SOL     OW32368   5.824   6.848   0.503
10490SOL    HW132369   5.732   6.820   0.528
10490SOL    HW232370   5.841   6.825   0.407
10491SOL     OW32371   2.190   2.523   5.310
10491SOL    HW132372   2.257   2.538   5.382
10491SOL    HW232373   2.116   2.590   5.319
10492SOL     OW32374   3.932   6.402   6.775
10492SOL    HW132375   3.911   6.432   6.868
10492SOL    HW232376   3.901   6.307   6.763
10493SOL     OW32377   3.357   5.377   1.380
10493SOL    HW132378   3.374   5.474   1.398
10493SOL    HW232379   3.380   5.323   1.462
10494SOL     OW32380   1.272   4.196   4.806
10494SOL    HW132381   1.214   4.177   4.727
10494SOL    HW232382   1.365   4.216   4.775
10495SOL     OW32383   6.915   6.110   0.664
10495SOL    HW132384   6.960   6.197   0.681
10495SOL    HW232385   6.983   6.039   0.648
10496SOL     OW32386   0.589   3.723   5.916
10496SOL    HW132387   0.525   3.800   5.920
10496SOL    HW232388   0.538   3.638   5.926
10497SOL     OW32389   2.771   0.115   1.864
10497SOL    HW132390   2.728   0.159   1.943
10497SOL    HW232391   2.846   0.058   1.895
10498SOL     OW32392   4.897   3.972   6.891
10498SOL    HW132393   4.993   3.984   6.865
10498SOL    HW232394   4.842   4.045   6.852
10499SOL     OW32395   6.140   4.054   2.804
10499SOL    HW132396   6.046   4.086   2.797
10499SOL    HW232397   6.164   4.043   2.901
10500SOL     OW32398   0.810   3.817   5.058
10500SOL    HW132399   0.847   3.783   4.972
10500SOL    HW232400   0.844   3.909   5.076
10501SOL     OW32401   3.575   4.969   3.214
10501SOL    HW132402   3.669   4.949   3.187
10501SOL    HW232403   3.517   4.974   3.132
10502SOL     OW32404   3.757   3.720   2.511
10502SOL    HW132405   3.739   3.624   2.532
10502SOL    HW232406   3.713   3.744   2.424
10503SOL     OW32407   0.420   1.664   6.497
10503SOL    HW132408   0.342   1.728   6.492
10503SOL    HW232409   0.482   1.693   6.569
10504SOL     OW32410   0.563   3.097   5.460
10504SOL    HW132411   0.650   3.144   5.442
10504SOL    HW232412   0.564   3.060   5.553
10505SOL     OW32413   5.963   0.178   0.815
10505SOL    HW132414   5.907   0.105   0.778
10505SOL    HW232415   6.044   0.191   0.757
10506SOL     OW32416   1.081   3.328   6.126
10506SOL    HW132417   1.129   3.251   6.083
10506SOL    HW232418   1.039   3.385   6.056
10507SOL     OW32419   1.108   5.326   5.780
10507SOL    HW132420   1.013   5.345   5.805
10507SOL    HW232421   1.110   5.265   5.701
10508SOL     OW32422   1.603   5.570   5.812
10508SOL    HW132423   1.521   5.547   5.865
10508SOL    HW232424   1.679   5.585   5.874
10509SOL     OW32425   4.569   2.456   2.262
10509SOL    HW132426   4.481   2.438   2.305
10509SOL    HW232427   4.571   2.550   2.228
10510SOL     OW32428   5.947   5.780   3.509
10510SOL    HW132429   6.042   5.804   3.529
10510SOL    HW232430   5.928   5.796   3.413
10511SOL     OW32431   4.380   1.326   1.223
10511SOL    HW132432   4.383   1.303   1.320
10511SOL    HW232433   4.471   1.315   1.183
10512SOL     OW32434   4.546   0.949   4.929
10512SOL    HW132435   4.511   0.900   5.009
10512SOL    HW232436   4.508   0.909   4.846
10513SOL     OW32437   3.843   2.829   0.608
10513SOL    HW132438   3.882   2.779   0.686
10513SOL    HW232439   3.859   2.927   0.620
10514SOL     OW32440   1.774   3.688   1.873
10514SOL    HW132441   1.764   3.782   1.907
10514SOL    HW232442   1.858   3.648   1.910
10515SOL     OW32443   2.351   2.731   4.867
10515SOL    HW132444   2.290   2.691   4.936
10515SOL    HW232445   2.417   2.791   4.912
10516SOL     OW32446   4.985   2.471   1.403
10516SOL    HW132447   4.974   2.560   1.358
10516SOL    HW232448   4.906   2.453   1.462
10517SOL     OW32449   0.912   2.869   2.423
10517SOL    HW132450   0.819   2.904   2.424
10517SOL    HW232451   0.965   2.912   2.496
10518SOL     OW32452   0.869   5.357   2.796
10518SOL    HW132453   0.770   5.367   2.810
10518SOL    HW232454   0.896   5.262   2.810
10519SOL     OW32455   4.152   0.262   0.905
10519SOL    HW132456   4.241   0.240   0.864
10519SOL    HW232457   4.079   0.222   0.850
10520SOL     OW32458   0.874   2.463   5.953
10520SOL    HW132459   0.892   2.507   5.865
10520SOL    HW232460   0.943   2.492   6.019
10521SOL     OW32461   6.228   2.594   3.210
10521SOL    HW132462   6.194   2.500   3.212
10521SOL    HW232463   6.175   2.647   3.143
10522SOL     OW32464   5.720   2.027   4.029
10522SOL    HW132465   5.771   2.053   4.110
10522SOL    HW232466   5.655   2.099   4.005
10523SOL     OW32467   1.487   4.225   2.876
10523SOL    HW132468   1.434   4.192   2.798
10523SOL    HW232469   1.443   4.196   2.961
10524SOL     OW32470   6.446   6.650   5.425
10524SOL    HW132471   6.404   6.635   5.335
10524SOL    HW232472   6.444   6.564   5.476
10525SOL     OW32473   5.256   1.525   4.112
10525SOL    HW132474   5.327   1.471   4.068
10525SOL    HW232475   5.173   1.470   4.122
10526SOL     OW32476   0.640   4.725   0.218
10526SOL    HW132477   0.724   4.680   0.248
10526SOL    HW232478   0.625   4.707   0.121
10527SOL     OW32479   0.855   0.082   5.846
10527SOL    HW132480   0.812   0.002   5.804
10527SOL    HW232481   0.938   0.105   5.796
10528SOL     OW32482   1.076   4.333   5.528
10528SOL    HW132483   1.060   4.372   5.619
10528SOL    HW232484   1.165   4.361   5.495
10529SOL     OW32485   0.085   5.639   0.567
10529SOL    HW132486   0.114   5.655   0.661
10529SOL    HW232487   7.019   5.595   0.567
10530SOL     OW32488   0.009   6.082   1.333
10530SOL    HW132489   0.038   6.153   1.397
10530SOL    HW232490   6.966   6.121   1.269
10531SOL     OW32491   3.162   3.163   5.015
10531SOL    HW132492   3.138   3.070   4.986
10531SOL    HW232493   3.260   3.168   5.032
10532SOL     OW32494   5.157   6.088   6.626
10532SOL    HW132495   5.207   6.042   6.700
10532SOL    HW232496   5.220   6.146   6.575
10533SOL     OW32497   3.819   0.570   3.084
10533SOL    HW132498   3.829   0.499   3.153
10533SOL    HW232499   3.870   0.652   3.113
10534SOL     OW32500   1.522   6.198   3.836
10534SOL    HW132501   1.560   6.153   3.756
10534SOL    HW232502   1.534   6.139   3.916
10535SOL     OW32503   3.167   2.176   2.861
10535SOL    HW132504   3.118   2.216   2.784
10535SOL    HW232505   3.133   2.084   2.879
10536SOL     OW32506   5.014   3.409   4.709
10536SOL    HW132507   5.085   3.340   4.713
10536SOL    HW232508   5.055   3.500   4.709
10537SOL     OW32509   3.579   0.337   4.035
10537SOL    HW132510   3.649   0.345   4.107
10537SOL    HW232511   3.491   0.367   4.071
10538SOL     OW32512   7.020   3.137   3.083
10538SOL    HW132513   0.029   3.152   3.176
10538SOL    HW232514   6.936   3.190   3.069
10539SOL     OW32515   7.004   0.198   3.395
10539SOL    HW132516   7.004   0.276   3.458
10539SOL    HW232517   6.971   0.227   3.306
10540SOL     OW32518   1.198   4.743   6.623
10540SOL    HW132519   1.247   4.685   6.687
10540SOL    HW232520   1.195   4.699   6.533
10541SOL     OW32521   2.879   3.384   5.372
10541SOL    HW132522   2.945   3.381   5.296
10541SOL    HW232523   2.811   3.312   5.361
10542SOL     OW32524   5.104   6.619   3.318
10542SOL    HW132525   5.173   6.549   3.298
10542SOL    HW232526   5.052   6.638   3.235
10543SOL     OW32527   1.612   3.557   3.893
10543SOL    HW132528   1.646   3.469   3.859
10543SOL    HW232529   1.668   3.586   3.971
10544SOL     OW32530   2.638   1.520   3.062
10544SOL    HW132531   2.646   1.474   3.151
10544SOL    HW232532   2.671   1.614   3.070
10545SOL     OW32533   2.275   2.665   2.524
10545SOL    HW132534   2.278   2.589   2.459
10545SOL    HW232535   2.259   2.751   2.475
10546SOL     OW32536   2.759   0.107   6.688
10546SOL    HW132537   2.688   0.165   6.647
10546SOL    HW232538   2.771   0.025   6.631
10547SOL     OW32539   4.226   6.478   5.856
10547SOL    HW132540   4.194   6.548   5.792
10547SOL    HW232541   4.147   6.436   5.901
10548SOL     OW32542   0.060   5.895   3.352
10548SOL    HW132543   0.026   5.934   3.267
10548SOL    HW232544   0.023   5.803   3.363
10549SOL     OW32545   6.508   0.532   1.545
10549SOL    HW132546   6.409   0.521   1.545
10549SOL    HW232547   6.531   0.624   1.515
10550SOL     OW32548   5.385   6.064   2.948
10550SOL    HW132549   5.410   6.156   2.919
10550SOL    HW232550   5.390   6.057   3.047
10551SOL     OW32551   2.962   0.398   5.093
10551SOL    HW132552   2.951   0.474   5.157
10551SOL    HW232553   2.941   0.429   5.000
10552SOL     OW32554   2.826   0.034   3.658
10552SOL    HW132555   2.922   0.054   3.638
10552SOL    HW232556   2.808   0.051   3.755
10553SOL     OW32557   6.357   5.547   1.209
10553SOL    HW132558   6.263   5.577   1.200
10553SOL    HW232559   6.394   5.579   1.297
10554SOL     OW32560   5.846   6.259   2.497
10554SOL    HW132561   5.860   6.348   2.453
10554SOL    HW232562   5.888   6.188   2.440
10555SOL     OW32563   3.550   3.359   1.022
10555SOL    HW132564   3.512   3.412   0.947
10555SOL    HW232565   3.478   3.305   1.065
10556SOL     OW32566   2.426   1.647   2.203
10556SOL    HW132567   2.347   1.588   2.188
10556SOL    HW232568   2.434   1.669   2.300
10557SOL     OW32569   2.294   4.763   3.495
10557SOL    HW132570   2.313   4.825   3.419
10557SOL    HW232571   2.245   4.683   3.461
10558SOL     OW32572   3.461   5.188   5.125
10558SOL    HW132573   3.505   5.123   5.062
10558SOL    HW232574   3.366   5.161   5.140
10559SOL     OW32575   4.228   6.490   1.040
10559SOL    HW132576   4.163   6.563   1.019
10559SOL    HW232577   4.179   6.404   1.052
10560SOL     OW32578   5.808   6.898   3.269
10560SOL    HW132579   5.901   6.884   3.303
10560SOL    HW232580   5.773   6.812   3.233
10561SOL     OW32581   6.847   4.756   6.924
10561SOL    HW132582   6.831   4.776   7.020
10561SOL    HW232583   6.786   4.682   6.895
10562SOL     OW32584   4.597   5.773   2.385
10562SOL    HW132585   4.618   5.870   2.393
10562SOL    HW232586   4.504   5.763   2.349
10563SOL     OW32587   0.464   7.011   2.370
10563SOL    HW132588   0.518   6.993   2.452
10563SOL    HW232589   0.403   6.934   2.352
10564SOL     OW32590   4.986   4.355   3.382
10564SOL    HW132591   5.071   4.331   3.335
10564SOL    HW232592   4.929   4.273   3.392
10565SOL     OW32593   1.018   0.941   6.230
10565SOL    HW132594   1.011   0.843   6.212
10565SOL    HW232595   1.023   0.990   6.142
10566SOL     OW32596   3.603   2.403   0.078
10566SOL    HW132597   3.668   2.446   0.140
10566SOL    HW232598   3.645   2.390   7.013
10567SOL     OW32599   1.996   2.646   5.789
10567SOL    HW132600   2.055   2.601   5.856
10567SOL    HW232601   1.987   2.587   5.708
10568SOL     OW32602   4.622   2.435   6.194
10568SOL    HW132603   4.701   2.419   6.135
10568SOL    HW232604   4.632   2.524   6.239
10569SOL     OW32605   5.863   0.192   0.324
10569SOL    HW132606   5.805   0.183   0.405
10569SOL    HW232607   5.931   0.119   0.324
10570SOL     OW32608   1.283   3.816   3.187
10570SOL    HW132609   1.270   3.794   3.091
10570SOL    HW232610   1.350   3.754   3.227
10571SOL     OW32611   6.100   4.493   5.350
10571SOL    HW132612   6.050   4.531   5.272
10571SOL    HW232613   6.076   4.397   5.360
10572SOL     OW32614   5.980   3.931   1.041
10572SOL    HW132615   6.040   3.860   1.078
10572SOL    HW232616   5.952   3.993   1.115
10573SOL     OW32617   6.609   2.144   2.451
10573SOL    HW132618   6.707   2.143   2.470
10573SOL    HW232619   6.561   2.186   2.528
10574SOL     OW32620   5.482   2.929   2.503
10574SOL    HW132621   5.507   2.872   2.425
10574SOL    HW232622   5.436   3.011   2.470
10575SOL     OW32623   5.750   6.956   2.289
10575SOL    HW132624   5.693   6.905   2.225
10575SOL    HW232625   5.755   6.907   2.376
10576SOL     OW32626   1.294   4.447   4.035
10576SOL    HW132627   1.332   4.506   4.107
10576SOL    HW232628   1.358   4.443   3.958
10577SOL     OW32629   3.786   3.866   0.377
10577SOL    HW132630   3.779   3.930   0.301
10577SOL    HW232631   3.840   3.907   0.451
10578SOL     OW32632   0.619   3.878   3.633
10578SOL    HW132633   0.575   3.906   3.718
10578SOL    HW232634   0.595   3.782   3.613
10579SOL     OW32635   0.460   3.577   7.022
10579SOL    HW132636   0.432   3.672   0.009
10579SOL    HW232637   0.545   3.560   0.048
10580SOL     OW32638   6.036   6.978   0.249
10580SOL    HW132639   6.102   7.009   0.180
10580SOL    HW232640   5.996   6.891   0.221
10581SOL     OW32641   4.387   0.306   2.911
10581SOL    HW132642   4.471   0.254   2.918
10581SOL    HW232643   4.406   0.396   2.871
10582SOL     OW32644   6.464   3.688   6.246
10582SOL    HW132645   6.536   3.621   6.225
10582SOL    HW232646   6.396   3.687   6.172
10583SOL     OW32647   3.202   1.767   5.273
10583SOL    HW132648   3.277   1.708   5.244
10583SOL    HW232649   3.228   1.863   5.258
10584SOL     OW32650   0.765   6.782   3.422
10584SOL    HW132651   0.799   6.692   3.449
10584SOL    HW232652   0.816   6.853   3.470
10585SOL     OW32653   1.439   0.797   5.477
10585SOL    HW132654   1.479   0.768   5.564
10585SOL    HW232655   1.512   0.806   5.409
10586SOL     OW32656   4.186   4.311   5.370
10586SOL    HW132657   4.206   4.386   5.432
10586SOL    HW232658   4.189   4.343   5.276
10587SOL     OW32659   2.260   4.800   5.595
10587SOL    HW132660   2.251   4.731   5.523
10587SOL    HW232661   2.354   4.834   5.597
10588SOL     OW32662   1.726   3.758   3.510
10588SOL    HW132663   1.660   3.830   3.490
10588SOL    HW232664   1.749   3.758   3.607
10589SOL     OW32665   5.516   6.289   3.910
10589SOL    HW132666   5.570   6.312   3.829
10589SOL    HW232667   5.567   6.317   3.992
10590SOL     OW32668   0.580   4.799   2.218
10590SOL    HW132669   0.482   4.794   2.237
10590SOL    HW232670   0.603   4.891   2.187
10591SOL     OW32671   6.971   3.550   2.015
10591SOL    HW132672   6.880   3.578   1.984
10591SOL    HW232673   0.011   3.556   1.938
10592SOL     OW32674   0.188   1.130   5.258
10592SOL    HW132675   0.170   1.106   5.353
10592SOL    HW232676   0.223   1.223   5.253
10593SOL     OW32677   2.759   5.067   3.239
10593SOL    HW132678   2.840   5.115   3.272
10593SOL    HW232679   2.701   5.130   3.188
10594SOL     OW32680   3.235   5.423   3.530
10594SOL    HW132681   3.284   5.455   3.610
10594SOL    HW232682   3.283   5.345   3.490
10595SOL     OW32683   4.937   0.168   0.585
10595SOL    HW132684   4.842   0.200   0.583
10595SOL    HW232685   4.980   0.187   0.497
10596SOL     OW32686   4.932   3.462   0.218
10596SOL    HW132687   5.007   3.451   0.283
10596SOL    HW232688   4.967   3.453   0.125
10597SOL     OW32689   1.881   6.676   4.314
10597SOL    HW132690   1.833   6.614   4.251
10597SOL    HW232691   1.873   6.640   4.407
10598SOL     OW32692   3.309   0.951   6.389
10598SOL    HW132693   3.351   0.994   6.309
10598SOL    HW232694   3.218   0.918   6.366
10599SOL     OW32695   0.623   2.003   0.379
10599SOL    HW132696   0.526   2.019   0.397
10599SOL    HW232697   0.634   1.958   0.290
10600SOL     OW32698   3.730   1.680   1.507
10600SOL    HW132699   3.669   1.745   1.552
10600SOL    HW232700   3.766   1.616   1.574
10601SOL     OW32701   2.336   0.667   5.069
10601SOL    HW132702   2.365   0.762   5.069
10601SOL    HW232703   2.385   0.616   5.140
10602SOL     OW32704   6.930   6.885   1.780
10602SOL    HW132705   6.989   6.846   1.851
10602SOL    HW232706   6.843   6.834   1.778
10603SOL     OW32707   5.551   0.475   2.896
10603SOL    HW132708   5.570   0.388   2.851
10603SOL    HW232709   5.488   0.529   2.840
10604SOL     OW32710   5.074   0.611   4.763
10604SOL    HW132711   5.093   0.515   4.784
10604SOL    HW232712   4.984   0.636   4.797
10605SOL     OW32713   3.131   2.272   1.196
10605SOL    HW132714   3.113   2.359   1.241
10605SOL    HW232715   3.210   2.228   1.239
10606SOL     OW32716   6.908   0.869   0.194
10606SOL    HW132717   6.896   0.964   0.221
10606SOL    HW232718   6.840   0.812   0.242
10607SOL     OW32719   2.884   4.357   6.778
10607SOL    HW132720   2.965   4.340   6.834
10607SOL    HW232721   2.896   4.441   6.726
10608SOL     OW32722   5.484   4.253   4.091
10608SOL    HW132723   5.446   4.174   4.044
10608SOL    HW232724   5.583   4.240   4.104
10609SOL     OW32725   6.064   0.784   6.588
10609SOL    HW132726   5.985   0.786   6.526
10609SOL    HW232727   6.047   0.717   6.661
10610SOL     OW32728   0.858   1.213   3.449
10610SOL    HW132729   0.950   1.214   3.410
10610SOL    HW232730   0.805   1.287   3.409
10611SOL     OW32731   3.647   5.389   4.872
10611SOL    HW132732   3.625   5.369   4.968
10611SOL    HW232733   3.578   5.348   4.813
10612SOL     OW32734   6.534   2.239   3.507
10612SOL    HW132735   6.491   2.327   3.528
10612SOL    HW232736   6.474   2.165   3.535
10613SOL     OW32737   4.310   6.402   4.226
10613SOL    HW132738   4.332   6.459   4.147
10613SOL    HW232739   4.365   6.318   4.223
10614SOL     OW32740   4.150   1.856   5.995
10614SOL    HW132741   4.143   1.829   5.900
10614SOL    HW232742   4.060   1.888   6.027
10615SOL     OW32743   2.293   1.790   4.895
10615SOL    HW132744   2.284   1.883   4.860
10615SOL    HW232745   2.289   1.791   4.995
10616SOL     OW32746   1.866   5.905   6.953
10616SOL    HW132747   1.931   5.831   6.967
10616SOL    HW232748   1.785   5.870   6.905
10617SOL     OW32749   2.112   2.948   1.481
10617SOL    HW132750   2.067   3.018   1.425
10617SOL    HW232751   2.109   2.860   1.433
10618SOL     OW32752   0.924   5.324   3.957
10618SOL    HW132753   0.882   5.403   3.912
10618SOL    HW232754   0.987   5.356   4.027
10619SOL     OW32755   1.266   2.770   2.452
10619SOL    HW132756   1.275   2.771   2.552
10619SOL    HW232757   1.283   2.861   2.416
10620SOL     OW32758   3.325   0.476   5.775
10620SOL    HW132759   3.400   0.538   5.751
10620SOL    HW232760   3.261   0.523   5.835
10621SOL     OW32761   0.549   3.280   3.150
10621SOL    HW132762   0.496   3.298   3.067
10621SOL    HW232763   0.590   3.366   3.182
10622SOL     OW32764   4.307   2.169   6.824
10622SOL    HW132765   4.233   2.221   6.782
10622SOL    HW232766   4.330   2.209   6.913
10623SOL     OW32767   5.183   6.382   5.847
10623SOL    HW132768   5.148   6.308   5.905
10623SOL    HW232769   5.108   6.419   5.793
10624SOL     OW32770   0.807   2.190   0.355
10624SOL    HW132771   0.734   2.127   0.380
10624SOL    HW232772   0.895   2.150   0.376
10625SOL     OW32773   6.206   5.455   0.275
10625SOL    HW132774   6.285   5.451   0.214
10625SOL    HW232775   6.185   5.551   0.295
10626SOL     OW32776   5.389   2.970   1.009
10626SOL    HW132777   5.437   2.906   0.950
10626SOL    HW232778   5.411   3.064   0.981
10627SOL     OW32779   5.748   5.566   5.091
10627SOL    HW132780   5.761   5.515   5.006
10627SOL    HW232781   5.785   5.514   5.168
10628SOL     OW32782   3.101   6.658   0.105
10628SOL    HW132783   3.140   6.617   0.188
10628SOL    HW232784   3.170   6.713   0.059
10629SOL     OW32785   3.961   5.482   4.909
10629SOL    HW132786   3.926   5.548   4.843
10629SOL    HW232787   3.940   5.390   4.879
10630SOL     OW32788   3.770   1.467   1.693
10630SOL    HW132789   3.820   1.382   1.708
10630SOL    HW232790   3.794   1.533   1.764
10631SOL     OW32791   3.473   5.558   1.055
10631SOL    HW132792   3.398   5.614   1.019
10631SOL    HW232793   3.480   5.474   1.001
10632SOL     OW32794   5.296   6.128   3.958
10632SOL    HW132795   5.259   6.184   4.032
10632SOL    HW232796   5.361   6.181   3.904
10633SOL     OW32797   1.967   3.548   0.844
10633SOL    HW132798   1.959   3.526   0.746
10633SOL    HW232799   1.950   3.466   0.898
10634SOL     OW32800   7.018   4.290   6.958
10634SOL    HW132801   7.011   4.319   6.863
10634SOL    HW232802   0.058   4.350   7.006
10635SOL     OW32803   2.550   5.327   6.523
10635SOL    HW132804   2.604   5.243   6.532
10635SOL    HW232805   2.570   5.370   6.435
10636SOL     OW32806   6.660   2.463   0.200
10636SOL    HW132807   6.615   2.394   0.144
10636SOL    HW232808   6.705   2.530   0.141
10637SOL     OW32809   2.338   0.584   0.012
10637SOL    HW132810   2.323   0.606   6.940
10637SOL    HW232811   2.386   0.497   0.019
10638SOL     OW32812   5.726   5.007   0.830
10638SOL    HW132813   5.696   4.943   0.760
10638SOL    HW232814   5.825   5.020   0.822
10639SOL     OW32815   0.411   5.423   1.740
10639SOL    HW132816   0.416   5.427   1.640
10639SOL    HW232817   0.322   5.457   1.771
10640SOL     OW32818   4.659   6.589   3.723
10640SOL    HW132819   4.642   6.496   3.690
10640SOL    HW232820   4.574   6.642   3.720
10641SOL     OW32821   1.317   1.360   3.227
10641SOL    HW132822   1.335   1.403   3.316
10641SOL    HW232823   1.394   1.378   3.166
10642SOL     OW32824   6.875   3.350   5.709
10642SOL    HW132825   6.832   3.428   5.754
10642SOL    HW232826   6.844   3.265   5.753
10643SOL     OW32827   2.428   5.232   5.862
10643SOL    HW132828   2.523   5.261   5.871
10643SOL    HW232829   2.420   5.135   5.883
10644SOL     OW32830   6.440   2.995   3.186
10644SOL    HW132831   6.346   3.029   3.183
10644SOL    HW232832   6.468   2.966   3.094
10645SOL     OW32833   1.809   2.217   3.203
10645SOL    HW132834   1.850   2.133   3.169
10645SOL    HW232835   1.742   2.251   3.137
10646SOL     OW32836   5.242   0.652   3.408
10646SOL    HW132837   5.179   0.579   3.382
10646SOL    HW232838   5.330   0.612   3.434
10647SOL     OW32839   3.527   5.621   5.637
10647SOL    HW132840   3.508   5.523   5.637
10647SOL    HW232841   3.625   5.636   5.647
10648SOL     OW32842   4.812   4.361   5.653
10648SOL    HW132843   4.727   4.307   5.655
10648SOL    HW232844   4.800   4.439   5.592
10649SOL     OW32845   6.184   3.172   2.925
10649SOL    HW132846   6.143   3.207   3.010
10649SOL    HW232847   6.202   3.074   2.935
10650SOL     OW32848   0.926   6.956   3.570
10650SOL    HW132849   1.023   6.942   3.591
10650SOL    HW232850   0.879   6.991   3.651
10651SOL     OW32851   3.073   6.264   5.835
10651SOL    HW132852   3.161   6.269   5.882
10651SOL    HW232853   2.999   6.283   5.900
10652SOL     OW32854   1.800   0.265   0.503
10652SOL    HW132855   1.730   0.335   0.494
10652SOL    HW232856   1.809   0.214   0.418
10653SOL     OW32857   4.846   5.915   4.209
10653SOL    HW132858   4.771   5.867   4.164
10653SOL    HW232859   4.908   5.849   4.250
10654SOL     OW32860   6.058   1.696   4.184
10654SOL    HW132861   6.067   1.630   4.259
10654SOL    HW232862   5.981   1.669   4.126
10655SOL     OW32863   0.161   4.498   1.948
10655SOL    HW132864   0.163   4.436   1.870
10655SOL    HW232865   0.134   4.448   2.031
10656SOL     OW32866   5.945   2.292   3.939
10656SOL    HW132867   5.858   2.342   3.941
10656SOL    HW232868   5.977   2.278   4.033
10657SOL     OW32869   4.751   6.664   4.388
10657SOL    HW132870   4.679   6.675   4.457
10657SOL    HW232871   4.716   6.614   4.310
10658SOL     OW32872   0.600   2.669   5.341
10658SOL    HW132873   0.654   2.601   5.391
10658SOL    HW232874   0.517   2.691   5.393
10659SOL     OW32875   0.726   5.953   0.689
10659SOL    HW132876   0.628   5.945   0.707
10659SOL    HW232877   0.740   5.967   0.591
10660SOL     OW32878   5.662   2.794   5.373
10660SOL    HW132879   5.680   2.703   5.335
10660SOL    HW232880   5.743   2.851   5.362
10661SOL     OW32881   2.832   4.975   5.508
10661SOL    HW132882   2.915   4.932   5.473
10661SOL    HW232883   2.757   4.959   5.444
10662SOL     OW32884   2.095   1.352   1.855
10662SOL    HW132885   2.066   1.286   1.924
10662SOL    HW232886   2.026   1.425   1.847
10663SOL     OW32887   1.153   1.803   3.378
10663SOL    HW132888   1.245   1.786   3.412
10663SOL    HW232889   1.086   1.763   3.441
10664SOL     OW32890   0.770   5.124   5.097
10664SOL    HW132891   0.809   5.057   5.161
10664SOL    HW232892   0.819   5.119   5.010
10665SOL     OW32893   2.962   3.358   0.025
10665SOL    HW132894   2.951   3.261   0.047
10665SOL    HW232895   3.010   3.366   6.962
10666SOL     OW32896   3.337   4.152   1.327
10666SOL    HW132897   3.247   4.177   1.363
10666SOL    HW232898   3.407   4.170   1.396
10667SOL     OW32899   5.086   2.327   3.402
10667SOL    HW132900   5.159   2.378   3.356
10667SOL    HW232901   5.110   2.314   3.498
10668SOL     OW32902   3.301   2.935   5.665
10668SOL    HW132903   3.225   2.994   5.636
10668SOL    HW232904   3.313   2.861   5.599
10669SOL     OW32905   5.322   1.685   1.767
10669SOL    HW132906   5.393   1.635   1.718
10669SOL    HW232907   5.232   1.656   1.734
10670SOL     OW32908   4.862   3.779   4.434
10670SOL    HW132909   4.957   3.806   4.423
10670SOL    HW232910   4.825   3.820   4.518
10671SOL     OW32911   1.493   3.412   4.934
10671SOL    HW132912   1.508   3.456   5.023
10671SOL    HW232913   1.455   3.321   4.949
10672SOL     OW32914   5.858   3.566   2.003
10672SOL    HW132915   5.844   3.657   2.041
10672SOL    HW232916   5.850   3.497   2.075
10673SOL     OW32917   2.042   1.424   1.124
10673SOL    HW132918   2.059   1.338   1.076
10673SOL    HW232919   1.966   1.412   1.188
10674SOL     OW32920   3.710   4.079   3.221
10674SOL    HW132921   3.642   4.127   3.276
10674SOL    HW232922   3.693   4.096   3.124
10675SOL     OW32923   4.106   6.640   5.364
10675SOL    HW132924   4.027   6.631   5.424
10675SOL    HW232925   4.132   6.550   5.329
10676SOL     OW32926   1.218   0.473   5.553
10676SOL    HW132927   1.305   0.448   5.509
10676SOL    HW232928   1.143   0.427   5.507
10677SOL     OW32929   0.357   1.501   0.372
10677SOL    HW132930   0.298   1.508   0.292
10677SOL    HW232931   0.303   1.472   0.451
10678SOL     OW32932   4.106   5.879   3.148
10678SOL    HW132933   4.058   5.919   3.070
10678SOL    HW232934   4.177   5.817   3.115
10679SOL     OW32935   4.410   3.491   6.741
10679SOL    HW132936   4.459   3.414   6.701
10679SOL    HW232937   4.444   3.506   6.834
10680SOL     OW32938   4.235   1.256   4.413
10680SOL    HW132939   4.335   1.244   4.417
10680SOL    HW232940   4.205   1.303   4.496
10681SOL     OW32941   1.466   2.804   5.111
10681SOL    HW132942   1.506   2.893   5.134
10681SOL    HW232943   1.429   2.808   5.018
10682SOL     OW32944   5.034   3.249   6.090
10682SOL    HW132945   5.102   3.308   6.134
10682SOL    HW232946   5.018   3.169   6.147
10683SOL     OW32947   2.765   0.178   3.876
10683SOL    HW132948   2.678   0.211   3.839
10683SOL    HW232949   2.826   0.256   3.890
10684SOL     OW32950   4.273   5.024   2.363
10684SOL    HW132951   4.358   4.975   2.339
10684SOL    HW232952   4.295   5.098   2.426
10685SOL     OW32953   0.701   6.296   1.657
10685SOL    HW132954   0.628   6.364   1.669
10685SOL    HW232955   0.713   6.245   1.742
10686SOL     OW32956   3.019   1.309   6.686
10686SOL    HW132957   2.998   1.225   6.636
10686SOL    HW232958   3.016   1.386   6.623
10687SOL     OW32959   0.719   3.983   3.390
10687SOL    HW132960   0.693   3.950   3.481
10687SOL    HW232961   0.669   3.931   3.321
10688SOL     OW32962   4.979   1.712   2.369
10688SOL    HW132963   4.959   1.673   2.280
10688SOL    HW232964   4.894   1.731   2.417
10689SOL     OW32965   0.111   0.461   3.022
10689SOL    HW132966   0.166   0.396   3.074
10689SOL    HW232967   0.157   0.550   3.021
10690SOL     OW32968   0.196   6.945   4.383
10690SOL    HW132969   0.260   7.021   4.399
10690SOL    HW232970   0.246   6.858   4.392
10691SOL     OW32971   3.200   0.280   2.871
10691SOL    HW132972   3.268   0.250   2.938
10691SOL    HW232973   3.172   0.201   2.815
10692SOL     OW32974   2.201   0.748   4.225
10692SOL    HW132975   2.110   0.708   4.215
10692SOL    HW232976   2.199   0.843   4.195
10693SOL     OW32977   1.512   5.154   0.296
10693SOL    HW132978   1.579   5.152   0.370
10693SOL    HW232979   1.467   5.244   0.295
10694SOL     OW32980   4.478   6.561   5.371
10694SOL    HW132981   4.558   6.574   5.312
10694SOL    HW232982   4.498   6.597   5.463
10695SOL     OW32983   5.978   4.004   2.126
10695SOL    HW132984   6.069   3.977   2.095
10695SOL    HW232985   5.970   4.103   2.125
10696SOL     OW32986   6.932   5.002   4.308
10696SOL    HW132987   6.970   4.911   4.323
10696SOL    HW232988   6.834   4.995   4.293
10697SOL     OW32989   1.441   5.256   5.302
10697SOL    HW132990   1.496   5.187   5.256
10697SOL    HW232991   1.412   5.221   5.391
10698SOL     OW32992   4.537   2.814   0.281
10698SOL    HW132993   4.575   2.905   0.270
10698SOL    HW232994   4.592   2.748   0.230
10699SOL     OW32995   3.243   3.100   0.152
10699SOL    HW132996   3.216   3.056   0.237
10699SOL    HW232997   3.277   3.192   0.171
10700SOL     OW32998   5.104   1.091   1.551
10700SOL    HW132999   5.128   1.184   1.523
10700SOL    HW233000   5.054   1.094   1.638
10701SOL     OW33001   2.918   0.551   6.192
10701SOL    HW133002   2.974   0.632   6.213
10701SOL    HW233003   2.859   0.571   6.114
10702SOL     OW33004   6.180   2.216   1.845
10702SOL    HW133005   6.181   2.306   1.801
10702SOL    HW233006   6.111   2.214   1.917
10703SOL     OW33007   1.130   2.857   6.111
10703SOL    HW133008   1.070   2.931   6.141
10703SOL    HW233009   1.160   2.874   6.017
10704SOL     OW33010   6.143   6.843   1.355
10704SOL    HW133011   6.231   6.884   1.332
10704SOL    HW233012   6.083   6.847   1.275
10705SOL     OW33013   5.618   4.513   1.647
10705SOL    HW133014   5.696   4.503   1.585
10705SOL    HW233015   5.616   4.435   1.710
10706SOL     OW33016   4.797   0.535   1.320
10706SOL    HW133017   4.713   0.583   1.346
10706SOL    HW233018   4.777   0.467   1.250
10707SOL     OW33019   6.054   0.330   4.184
10707SOL    HW133020   6.116   0.338   4.106
10707SOL    HW233021   6.049   0.418   4.231
10708SOL     OW33022   4.332   1.674   2.301
10708SOL    HW133023   4.238   1.644   2.287
10708SOL    HW233024   4.345   1.763   2.257
10709SOL     OW33025   5.706   4.935   3.942
10709SOL    HW133026   5.663   4.882   3.868
10709SOL    HW233027   5.687   5.032   3.928
10710SOL     OW33028   4.989   1.108   3.426
10710SOL    HW133029   4.947   1.018   3.423
10710SOL    HW233030   4.919   1.177   3.448
10711SOL     OW33031   3.964   6.954   1.444
10711SOL    HW133032   3.895   7.015   1.483
10711SOL    HW233033   4.055   6.980   1.477
10712SOL     OW33034   4.995   6.702   3.024
10712SOL    HW133035   5.005   6.801   3.018
10712SOL    HW233036   4.915   6.680   3.079
10713SOL     OW33037   1.510   4.150   1.280
10713SOL    HW133038   1.587   4.190   1.329
10713SOL    HW233039   1.488   4.206   1.200
10714SOL     OW33040   3.629   3.832   4.399
10714SOL    HW133041   3.644   3.837   4.497
10714SOL    HW233042   3.531   3.821   4.381
10715SOL     OW33043   6.000   1.042   2.140
10715SOL    HW133044   5.954   1.130   2.152
10715SOL    HW233045   6.094   1.058   2.108
10716SOL     OW33046   6.034   2.082   3.238
10716SOL    HW133047   6.038   2.014   3.312
10716SOL    HW233048   6.126   2.098   3.203
10717SOL     OW33049   1.470   2.567   6.862
10717SOL    HW133050   1.430   2.576   6.771
10717SOL    HW233051   1.502   2.473   6.875
10718SOL     OW33052   1.142   4.718   5.493
10718SOL    HW133053   1.171   4.812   5.475
10718SOL    HW233054   1.129   4.671   5.406
10719SOL     OW33055   6.339   5.879   4.526
10719SOL    HW133056   6.325   5.965   4.478
10719SOL    HW233057   6.436   5.852   4.520
10720SOL     OW33058   6.259   5.444   3.879
10720SOL    HW133059   6.204   5.526   3.865
10720SOL    HW233060   6.223   5.392   3.957
10721SOL     OW33061   5.030   3.650   5.274
10721SOL    HW133062   5.017   3.706   5.193
10721SOL    HW233063   5.086   3.570   5.252
10722SOL     OW33064   0.059   3.951   5.937
10722SOL    HW133065   0.100   4.042   5.938
10722SOL    HW233066   0.091   3.899   6.016
10723SOL     OW33067   6.922   0.276   0.612
10723SOL    HW133068   6.824   0.260   0.602
10723SOL    HW233069   6.966   0.193   0.647
10724SOL     OW33070   6.760   6.631   0.620
10724SOL    HW133071   6.799   6.570   0.551
10724SOL    HW233072   6.681   6.678   0.582
10725SOL     OW33073   2.529   5.709   5.384
10725SOL    HW133074   2.434   5.728   5.410
10725SOL    HW233075   2.546   5.611   5.390
10726SOL     OW33076   4.724   0.716   4.235
10726SOL    HW133077   4.639   0.667   4.256
10726SOL    HW233078   4.718   0.756   4.143
10727SOL     OW33079   1.583   5.870   5.916
10727SOL    HW133080   1.538   5.958   5.900
10727SOL    HW233081   1.596   5.823   5.828
10728SOL     OW33082   6.353   5.502   0.773
10728SOL    HW133083   6.347   5.437   0.849
10728SOL    HW233084   6.353   5.595   0.809
10729SOL     OW33085   6.852   2.757   1.055
10729SOL    HW133086   6.800   2.711   1.126
10729SOL    HW233087   6.790   2.807   0.994
10730SOL     OW33088   4.450   0.082   1.908
10730SOL    HW133089   4.481   0.175   1.930
10730SOL    HW233090   4.510   0.042   1.839
10731SOL     OW33091   4.194   1.525   0.612
10731SOL    HW133092   4.150   1.435   0.604
10731SOL    HW233093   4.124   1.596   0.608
10732SOL     OW33094   0.908   4.988   5.300
10732SOL    HW133095   1.000   5.016   5.271
10732SOL    HW233096   0.875   5.050   5.370
10733SOL     OW33097   5.854   2.790   6.671
10733SOL    HW133098   5.817   2.786   6.578
10733SOL    HW233099   5.830   2.706   6.719
10734SOL     OW33100   0.323   1.898   1.708
10734SOL    HW133101   0.258   1.930   1.776
10734SOL    HW233102   0.410   1.945   1.720
10735SOL     OW33103   0.530   3.414   1.997
10735SOL    HW133104   0.475   3.399   2.079
10735SOL    HW233105   0.579   3.330   1.973
10736SOL     OW33106   3.335   6.960   3.532
10736SOL    HW133107   3.264   6.959   3.602
10736SOL    HW233108   3.425   6.962   3.575
10737SOL     OW33109   0.274   2.867   1.505
10737SOL    HW133110   0.216   2.902   1.578
10737SOL    HW233111   0.345   2.934   1.483
10738SOL     OW33112   4.429   0.911   2.716
10738SOL    HW133113   4.387   0.828   2.678
10738SOL    HW233114   4.362   0.985   2.716
10739SOL     OW33115   2.287   2.511   1.681
10739SOL    HW133116   2.196   2.471   1.693
10739SOL    HW233117   2.333   2.517   1.769
10740SOL     OW33118   4.788   4.532   4.270
10740SOL    HW133119   4.818   4.618   4.228
10740SOL    HW233120   4.815   4.455   4.211
10741SOL     OW33121   3.605   0.903   2.535
10741SOL    HW133122   3.673   0.961   2.580
10741SOL    HW233123   3.629   0.807   2.549
10742SOL     OW33124   5.629   5.332   0.588
10742SOL    HW133125   5.549   5.277   0.613
10742SOL    HW233126   5.709   5.273   0.581
10743SOL     OW33127   2.203   2.034   3.975
10743SOL    HW133128   2.113   2.078   3.966
10743SOL    HW233129   2.244   2.060   4.062
10744SOL     OW33130   3.766   2.650   0.931
10744SOL    HW133131   3.677   2.681   0.897
10744SOL    HW233132   3.773   2.672   1.029
10745SOL     OW33133   0.104   5.727   5.797
10745SOL    HW133134   0.049   5.805   5.826
10745SOL    HW233135   0.195   5.759   5.770
10746SOL     OW33136   0.271   4.145   4.935
10746SOL    HW133137   0.204   4.080   4.969
10746SOL    HW233138   0.278   4.222   4.998
10747SOL     OW33139   3.183   0.771   4.630
10747SOL    HW133140   3.276   0.761   4.594
10747SOL    HW233141   3.155   0.866   4.623
10748SOL     OW33142   4.885   0.749   1.769
10748SOL    HW133143   4.951   0.736   1.844
10748SOL    HW233144   4.823   0.671   1.766
10749SOL     OW33145   1.765   6.561   4.549
10749SOL    HW133146   1.834   6.490   4.564
10749SOL    HW233147   1.771   6.629   4.622
10750SOL     OW33148   3.879   0.872   5.412
10750SOL    HW133149   3.794   0.865   5.464
10750SOL    HW233150   3.858   0.870   5.314
10751SOL     OW33151   2.074   4.597   4.519
10751SOL    HW133152   2.046   4.597   4.615
10751SOL    HW233153   2.094   4.690   4.491
10752SOL     OW33154   5.546   5.232   4.622
10752SOL    HW133155   5.629   5.196   4.663
10752SOL    HW233156   5.491   5.157   4.586
10753SOL     OW33157   0.357   3.054   3.880
10753SOL    HW133158   0.437   3.007   3.919
10753SOL    HW233159   0.382   3.094   3.792
10754SOL     OW33160   1.745   0.576   3.258
10754SOL    HW133161   1.815   0.604   3.193
10754SOL    HW233162   1.665   0.542   3.209
10755SOL     OW33163   6.399   6.146   1.624
10755SOL    HW133164   6.314   6.177   1.581
10755SOL    HW233165   6.423   6.207   1.699
10756SOL     OW33166   6.525   6.834   5.111
10756SOL    HW133167   6.469   6.754   5.130
10756SOL    HW233168   6.483   6.915   5.150
10757SOL     OW33169   2.082   3.077   0.546
10757SOL    HW133170   2.033   2.994   0.517
10757SOL    HW233171   2.089   3.140   0.468
10758SOL     OW33172   0.749   6.124   3.577
10758SOL    HW133173   0.662   6.097   3.536
10758SOL    HW233174   0.766   6.069   3.658
10759SOL     OW33175   0.593   2.618   0.325
10759SOL    HW133176   0.594   2.707   0.371
10759SOL    HW233177   0.664   2.615   0.255
10760SOL     OW33178   6.080   1.269   3.551
10760SOL    HW133179   6.064   1.230   3.460
10760SOL    HW233180   5.993   1.303   3.588
10761SOL     OW33181   2.509   5.046   5.431
10761SOL    HW133182   2.422   5.089   5.408
10761SOL    HW233183   2.570   5.048   5.352
10762SOL     OW33184   3.300   0.456   4.358
10762SOL    HW133185   3.351   0.537   4.327
10762SOL    HW233186   3.225   0.486   4.418
10763SOL     OW33187   4.133   0.872   3.045
10763SOL    HW133188   4.093   0.838   3.130
10763SOL    HW233189   4.067   0.861   2.971
10764SOL     OW33190   5.105   0.729   3.858
10764SOL    HW133191   5.094   0.828   3.853
10764SOL    HW233192   5.165   0.698   3.784
10765SOL     OW33193   5.097   3.437   1.314
10765SOL    HW133194   5.062   3.373   1.382
10765SOL    HW233195   5.196   3.445   1.324
10766SOL     OW33196   3.539   3.097   1.397
10766SOL    HW133197   3.488   3.175   1.361
10766SOL    HW233198   3.488   3.013   1.380
10767SOL     OW33199   2.259   0.832   1.626
10767SOL    HW133200   2.175   0.837   1.571
10767SOL    HW233201   2.330   0.889   1.585
10768SOL     OW33202   6.537   4.427   0.653
10768SOL    HW133203   6.512   4.518   0.621
10768SOL    HW233204   6.508   4.416   0.749
10769SOL     OW33205   2.182   3.246   6.291
10769SOL    HW133206   2.126   3.184   6.347
10769SOL    HW233207   2.123   3.315   6.249
10770SOL     OW33208   4.645   6.135   3.106
10770SOL    HW133209   4.625   6.218   3.158
10770SOL    HW233210   4.711   6.156   3.034
10771SOL     OW33211   3.079   0.104   3.613
10771SOL    HW133212   3.150   0.173   3.626
10771SOL    HW233213   3.104   0.020   3.663
10772SOL     OW33214   6.219   5.836   3.514
10772SOL    HW133215   6.267   5.804   3.432
10772SOL    HW233216   6.284   5.849   3.588
10773SOL     OW33217   5.350   5.070   4.154
10773SOL    HW133218   5.320   5.025   4.070
10773SOL    HW233219   5.363   5.001   4.226
10774SOL     OW33220   1.537   1.163   4.487
10774SOL    HW133221   1.581   1.143   4.574
10774SOL    HW233222   1.512   1.078   4.441
10775SOL     OW33223   0.384   4.256   1.976
10775SOL    HW133224   0.398   4.355   1.986
10775SOL    HW233225   0.427   4.209   2.053
10776SOL     OW33226   1.988   0.107   6.801
10776SOL    HW133227   1.934   0.111   6.717
10776SOL    HW233228   2.048   0.186   6.807
10777SOL     OW33229   3.225   6.266   1.342
10777SOL    HW133230   3.163   6.275   1.264
10777SOL    HW233231   3.271   6.178   1.338
10778SOL     OW33232   5.657   6.182   3.348
10778SOL    HW133233   5.695   6.261   3.301
10778SOL    HW233234   5.719   6.153   3.420
10779SOL     OW33235   5.253   2.546   3.303
10779SOL    HW133236   5.201   2.588   3.229
10779SOL    HW233237   5.334   2.602   3.323
10780SOL     OW33238   1.134   1.193   3.320
10780SOL    HW133239   1.197   1.270   3.314
10780SOL    HW233240   1.152   1.130   3.244
10781SOL     OW33241   3.220   0.179   4.262
10781SOL    HW133242   3.238   0.271   4.296
10781SOL    HW233243   3.123   0.157   4.275
10782SOL     OW33244   6.235   6.251   4.617
10782SOL    HW133245   6.267   6.343   4.642
10782SOL    HW233246   6.230   6.243   4.518
10783SOL     OW33247   6.390   1.878   2.456
10783SOL    HW133248   6.315   1.924   2.408
10783SOL    HW233249   6.461   1.945   2.479
10784SOL     OW33250   2.697   1.361   4.083
10784SOL    HW133251   2.691   1.262   4.078
10784SOL    HW233252   2.625   1.396   4.143
10785SOL     OW33253   0.439   3.854   0.061
10785SOL    HW133254   0.539   3.847   0.070
10785SOL    HW233255   0.417   3.922   7.015
10786SOL     OW33256   7.013   5.608   3.391
10786SOL    HW133257   6.944   5.537   3.377
10786SOL    HW233258   0.049   5.580   3.465
10787SOL     OW33259   1.812   1.908   5.270
10787SOL    HW133260   1.841   2.000   5.296
10787SOL    HW233261   1.878   1.842   5.306
10788SOL     OW33262   6.395   3.944   6.034
10788SOL    HW133263   6.362   3.953   6.128
10788SOL    HW233264   6.406   4.034   5.993
10789SOL     OW33265   6.932   2.256   0.047
10789SOL    HW133266   6.905   2.228   0.138
10789SOL    HW233267   7.003   2.195   0.012
10790SOL     OW33268   0.187   0.141   2.336
10790SOL    HW133269   0.203   0.195   2.253
10790SOL    HW233270   0.270   0.088   2.358
10791SOL     OW33271   6.471   6.154   2.428
10791SOL    HW133272   6.540   6.105   2.376
10791SOL    HW233273   6.506   6.244   2.453
10792SOL     OW33274   4.053   3.874   5.193
10792SOL    HW133275   4.045   3.966   5.154
10792SOL    HW233276   4.040   3.880   5.292
10793SOL     OW33277   5.577   3.381   4.860
10793SOL    HW133278   5.652   3.356   4.799
10793SOL    HW233279   5.496   3.403   4.806
10794SOL     OW33280   3.217   3.504   4.055
10794SOL    HW133281   3.122   3.474   4.058
10794SOL    HW233282   3.264   3.459   3.979
10795SOL     OW33283   1.122   4.292   2.939
10795SOL    HW133284   1.024   4.279   2.949
10795SOL    HW233285   1.171   4.218   2.985
10796SOL     OW33286   1.242   5.836   4.725
10796SOL    HW133287   1.299   5.901   4.776
10796SOL    HW233288   1.167   5.885   4.682
10797SOL     OW33289   3.583   2.906   0.741
10797SOL    HW133290   3.619   2.956   0.663
10797SOL    HW233291   3.656   2.889   0.807
10798SOL     OW33292   1.053   1.696   0.944
10798SOL    HW133293   1.118   1.762   0.906
10798SOL    HW233294   1.009   1.735   1.024
10799SOL     OW33295   4.178   1.328   2.285
10799SOL    HW133296   4.096   1.370   2.323
10799SOL    HW233297   4.259   1.371   2.325
10800SOL     OW33298   1.363   6.676   0.255
10800SOL    HW133299   1.295   6.662   0.327
10800SOL    HW233300   1.327   6.740   0.187
10801SOL     OW33301   1.631   1.043   1.254
10801SOL    HW133302   1.719   1.058   1.209
10801SOL    HW233303   1.624   0.946   1.280
10802SOL     OW33304   6.224   6.952   3.630
10802SOL    HW133305   6.247   6.956   3.533
10802SOL    HW233306   6.251   6.864   3.668
10803SOL     OW33307   2.017   5.178   6.296
10803SOL    HW133308   2.114   5.194   6.316
10803SOL    HW233309   2.003   5.081   6.277
10804SOL     OW33310   6.957   3.311   3.495
10804SOL    HW133311   6.950   3.402   3.536
10804SOL    HW233312   6.959   3.241   3.567
10805SOL     OW33313   6.192   0.849   5.631
10805SOL    HW133314   6.270   0.911   5.639
10805SOL    HW233315   6.194   0.805   5.542
10806SOL     OW33316   1.868   4.745   6.867
10806SOL    HW133317   1.950   4.740   6.925
10806SOL    HW233318   1.791   4.704   6.915
10807SOL     OW33319   2.626   6.157   3.978
10807SOL    HW133320   2.586   6.066   3.979
10807SOL    HW233321   2.613   6.201   4.068
10808SOL     OW33322   0.522   2.172   6.378
10808SOL    HW133323   0.572   2.085   6.377
10808SOL    HW233324   0.586   2.248   6.385
10809SOL     OW33325   2.312   5.661   4.897
10809SOL    HW133326   2.253   5.730   4.940
10809SOL    HW233327   2.361   5.610   4.968
10810SOL     OW33328   0.040   0.288   4.661
10810SOL    HW133329   6.985   0.329   4.704
10810SOL    HW233330   0.108   0.266   4.730
10811SOL     OW33331   4.911   5.437   5.082
10811SOL    HW133332   4.983   5.396   5.138
10811SOL    HW233333   4.945   5.453   4.990
10812SOL     OW33334   6.686   2.563   6.631
10812SOL    HW133335   6.770   2.557   6.685
10812SOL    HW233336   6.623   2.628   6.673
10813SOL     OW33337   0.109   3.795   6.172
10813SOL    HW133338   0.136   3.852   6.250
10813SOL    HW233339   0.191   3.754   6.132
10814SOL     OW33340   2.303   0.735   1.067
10814SOL    HW133341   2.400   0.750   1.088
10814SOL    HW233342   2.249   0.749   1.149
10815SOL     OW33343   4.774   1.211   4.459
10815SOL    HW133344   4.748   1.204   4.363
10815SOL    HW233345   4.788   1.119   4.497
10816SOL     OW33346   3.711   3.231   3.340
10816SOL    HW133347   3.642   3.303   3.345
10816SOL    HW233348   3.698   3.178   3.257
10817SOL     OW33349   2.505   6.808   3.332
10817SOL    HW133350   2.581   6.849   3.383
10817SOL    HW233351   2.478   6.723   3.377
10818SOL     OW33352   4.434   5.221   6.022
10818SOL    HW133353   4.492   5.290   6.066
10818SOL    HW233354   4.400   5.157   6.091
10819SOL     OW33355   6.666   5.303   6.525
10819SOL    HW133356   6.696   5.310   6.429
10819SOL    HW233357   6.718   5.369   6.580
10820SOL     OW33358   2.453   4.506   5.806
10820SOL    HW133359   2.524   4.577   5.800
10820SOL    HW233360   2.416   4.504   5.899
10821SOL     OW33361   4.794   5.041   3.387
10821SOL    HW133362   4.798   5.112   3.316
10821SOL    HW233363   4.775   4.953   3.344
10822SOL     OW33364   5.794   2.697   1.360
10822SOL    HW133365   5.754   2.732   1.275
10822SOL    HW233366   5.815   2.774   1.421
10823SOL     OW33367   6.459   6.607   2.500
10823SOL    HW133368   6.500   6.516   2.490
10823SOL    HW233369   6.401   6.627   2.421
10824SOL     OW33370   1.112   2.152   4.360
10824SOL    HW133371   1.012   2.159   4.362
10824SOL    HW233372   1.149   2.180   4.448
10825SOL     OW33373   1.128   1.781   0.467
10825SOL    HW133374   1.028   1.783   0.477
10825SOL    HW233375   1.164   1.698   0.509
10826SOL     OW33376   1.036   2.575   2.541
10826SOL    HW133377   1.008   2.559   2.447
10826SOL    HW233378   1.099   2.653   2.545
10827SOL     OW33379   6.743   3.279   4.730
10827SOL    HW133380   6.801   3.284   4.811
10827SOL    HW233381   6.800   3.258   4.650
10828SOL     OW33382   6.181   4.924   5.867
10828SOL    HW133383   6.237   4.870   5.804
10828SOL    HW233384   6.160   4.868   5.948
10829SOL     OW33385   3.909   3.381   5.494
10829SOL    HW133386   3.960   3.328   5.562
10829SOL    HW233387   3.859   3.318   5.434
10830SOL     OW33388   4.550   1.131   3.713
10830SOL    HW133389   4.470   1.079   3.743
10830SOL    HW233390   4.601   1.077   3.646
10831SOL     OW33391   3.815   1.256   2.869
10831SOL    HW133392   3.740   1.321   2.862
10831SOL    HW233393   3.900   1.304   2.890
10832SOL     OW33394   6.967   3.318   0.051
10832SOL    HW133395   6.943   3.359   0.139
10832SOL    HW233396   6.894   3.334   7.010
10833SOL     OW33397   0.658   1.074   0.412
10833SOL    HW133398   0.733   1.113   0.357
10833SOL    HW233399   0.571   1.096   0.370
10834SOL     OW33400   6.895   6.481   0.936
10834SOL    HW133401   6.932   6.571   0.960
10834SOL    HW233402   6.795   6.485   0.932
10835SOL     OW33403   6.988   2.672   5.853
10835SOL    HW133404   6.998   2.607   5.927
10835SOL    HW233405   6.926   2.746   5.881
10836SOL     OW33406   7.008   1.550   3.778
10836SOL    HW133407   0.064   1.602   3.749
10836SOL    HW233408   6.927   1.609   3.774
10837SOL     OW33409   0.246   3.891   2.862
10837SOL    HW133410   0.273   3.985   2.838
10837SOL    HW233411   0.299   3.860   2.941
10838SOL     OW33412   6.682   5.685   3.564
10838SOL    HW133413   6.610   5.615   3.554
10838SOL    HW233414   6.652   5.769   3.519
10839SOL     OW33415   4.503   2.989   0.764
10839SOL    HW133416   4.456   2.922   0.706
10839SOL    HW233417   4.601   2.977   0.755
10840SOL     OW33418   3.154   0.727   1.058
10840SOL    HW133419   3.193   0.721   0.965
10840SOL    HW233420   3.083   0.658   1.068
10841SOL     OW33421   1.629   5.411   4.905
10841SOL    HW133422   1.610   5.318   4.872
10841SOL    HW233423   1.672   5.406   4.995
10842SOL     OW33424   5.147   4.162   0.558
10842SOL    HW133425   5.090   4.195   0.482
10842SOL    HW233426   5.229   4.219   0.565
10843SOL     OW33427   2.310   2.278   1.274
10843SOL    HW133428   2.263   2.233   1.350
10843SOL    HW233429   2.374   2.214   1.232
10844SOL     OW33430   1.358   5.391   5.067
10844SOL    HW133431   1.417   5.472   5.061
10844SOL    HW233432   1.391   5.332   5.140
10845SOL     OW33433   4.574   6.225   5.102
10845SOL    HW133434   4.550   6.161   5.029
10845SOL    HW233435   4.513   6.212   5.179
10846SOL     OW33436   5.201   0.338   0.563
10846SOL    HW133437   5.199   0.349   0.662
10846SOL    HW233438   5.189   0.241   0.540
10847SOL     OW33439   1.713   0.993   6.886
10847SOL    HW133440   1.765   1.025   6.807
10847SOL    HW233441   1.629   1.047   6.896
10848SOL     OW33442   1.678   4.518   1.680
10848SOL    HW133443   1.707   4.431   1.641
10848SOL    HW233444   1.751   4.586   1.667
10849SOL     OW33445   2.374   6.334   3.811
10849SOL    HW133446   2.428   6.382   3.880
10849SOL    HW233447   2.301   6.394   3.779
10850SOL     OW33448   3.353   5.872   0.167
10850SOL    HW133449   3.398   5.961   0.175
10850SOL    HW233450   3.335   5.853   0.071
10851SOL     OW33451   2.516   5.089   1.302
10851SOL    HW133452   2.583   5.155   1.335
10851SOL    HW233453   2.526   5.003   1.353
10852SOL     OW33454   1.842   1.811   1.497
10852SOL    HW133455   1.757   1.846   1.457
10852SOL    HW233456   1.919   1.840   1.440
10853SOL     OW33457   2.520   1.701   5.980
10853SOL    HW133458   2.576   1.781   5.961
10853SOL    HW233459   2.546   1.662   6.068
10854SOL     OW33460   4.043   6.322   5.958
10854SOL    HW133461   3.960   6.374   5.977
10854SOL    HW233462   4.063   6.261   6.034
10855SOL     OW33463   3.726   1.410   0.030
10855SOL    HW133464   3.751   1.501   0.064
10855SOL    HW233465   3.765   1.340   0.091
10856SOL     OW33466   0.611   0.608   0.193
10856SOL    HW133467   0.564   0.527   0.159
10856SOL    HW233468   0.551   0.688   0.185
10857SOL     OW33469   6.118   2.230   2.480
10857SOL    HW133470   6.038   2.253   2.534
10857SOL    HW233471   6.131   2.131   2.479
10858SOL     OW33472   2.509   6.125   1.709
10858SOL    HW133473   2.533   6.135   1.806
10858SOL    HW233474   2.454   6.203   1.680
10859SOL     OW33475   1.449   5.745   3.526
10859SOL    HW133476   1.500   5.765   3.609
10859SOL    HW233477   1.469   5.651   3.497
10860SOL     OW33478   0.079   2.080   3.513
10860SOL    HW133479   7.021   2.132   3.490
10860SOL    HW233480   0.055   1.983   3.522
10861SOL     OW33481   4.086   3.158   4.070
10861SOL    HW133482   4.049   3.129   3.982
10861SOL    HW233483   4.081   3.083   4.135
10862SOL     OW33484   1.332   0.571   4.750
10862SOL    HW133485   1.280   0.622   4.818
10862SOL    HW233486   1.360   0.633   4.676
10863SOL     OW33487   3.172   5.779   4.711
10863SOL    HW133488   3.131   5.869   4.727
10863SOL    HW233489   3.116   5.708   4.754
10864SOL     OW33490   3.451   6.107   2.801
10864SOL    HW133491   3.466   6.020   2.755
10864SOL    HW233492   3.354   6.128   2.804
10865SOL     OW33493   6.037   2.249   6.172
10865SOL    HW133494   6.052   2.237   6.270
10865SOL    HW233495   5.939   2.251   6.153
10866SOL     OW33496   5.445   4.626   0.292
10866SOL    HW133497   5.437   4.703   0.355
10866SOL    HW233498   5.372   4.632   0.223
10867SOL     OW33499   3.347   2.887   0.554
10867SOL    HW133500   3.438   2.854   0.530
10867SOL    HW233501   3.316   2.841   0.638
10868SOL     OW33502   3.039   1.913   2.880
10868SOL    HW133503   3.056   1.885   2.785
10868SOL    HW233504   2.982   1.844   2.925
10869NA      NA33505   6.614   2.295   5.669
10870NA      NA33506   4.188   4.669   5.195
10871NA      NA33507   2.287   3.535   1.403
10872NA      NA33508   4.816   3.566   5.334
10873NA      NA33509   4.279   2.287   5.199
10874NA      NA33510   3.693   4.660   1.608
10875NA      NA33511   6.627   5.857   5.623
10876NA      NA33512   4.024   3.620   5.164
10877NA      NA33513   4.510   6.931   0.044
10878NA      NA33514   4.036   6.823   5.199
10879NA      NA33515   6.693   4.741   2.689
10880NA      NA33516   2.494   0.722   3.161
10881NA      NA33517   3.426   4.474   0.806
10882NA      NA33518   3.429   3.746   2.865
   7.02443   7.02443   7.02443
