Generated by trjconv : CNT in water t= 135.00000
33518
    1C        C    1   2.836   2.762   4.744
    1C        C    2   2.891   2.711   4.864
    1C        C    3   2.842   2.775   4.978
    1C        C    4   2.847   2.771   4.257
    1C        C    5   2.901   2.725   4.379
    1C        C    6   2.843   2.770   4.500
    1C        C    7   3.008   2.639   4.624
    1C        C    8   2.890   2.717   4.622
    1C        C    9   3.072   2.601   4.743
    1C        C   10   3.004   2.627   4.864
    1C        C   11   3.180   2.490   4.976
    1C        C   12   3.057   2.556   4.973
    1C        C   13   2.845   2.765   3.770
    1C        C   14   2.898   2.717   3.893
    1C        C   15   2.846   2.768   4.014
    1C        C   16   3.017   2.643   4.136
    1C        C   17   2.899   2.721   4.136
    1C        C   18   3.077   2.609   4.259
    1C        C   19   3.017   2.646   4.382
    1C        C   20   3.208   2.555   4.503
    1C        C   21   3.076   2.606   4.504
    1C        C   22   3.276   2.535   4.625
    1C        C   23   3.205   2.549   4.746
    1C        C   24   3.410   2.484   4.864
    1C        C   25   3.268   2.503   4.865
    1C        C   26   3.489   2.473   4.979
    1C        C   27   2.843   2.762   3.282
    1C        C   28   2.896   2.716   3.404
    1C        C   29   2.844   2.764   3.526
    1C        C   30   3.016   2.640   3.648
    1C        C   31   2.896   2.715   3.648
    1C        C   32   3.081   2.610   3.770
    1C        C   33   3.018   2.642   3.892
    1C        C   34   3.209   2.553   4.015
    1C        C   35   3.078   2.605   4.014
    1C        C   36   3.276   2.536   4.138
    1C        C   37   3.208   2.556   4.260
    1C        C   38   3.415   2.508   4.379
    1C        C   39   3.275   2.532   4.382
    1C        C   40   3.486   2.502   4.501
    1C        C   41   3.415   2.510   4.623
    1C        C   42   3.627   2.485   4.745
    1C        C   43   3.485   2.484   4.743
    1C        C   44   3.705   2.483   4.863
    1C        C   45   3.628   2.471   4.980
    1C        C   46   2.837   2.750   2.791
    1C        C   47   2.891   2.708   2.915
    1C        C   48   2.843   2.761   3.036
    1C        C   49   3.015   2.639   3.160
    1C        C   50   2.895   2.715   3.159
    1C        C   51   3.074   2.602   3.283
    1C        C   52   3.014   2.639   3.406
    1C        C   53   3.209   2.551   3.526
    1C        C   54   3.077   2.603   3.527
    1C        C   55   3.276   2.530   3.648
    1C        C   56   3.210   2.552   3.771
    1C        C   57   3.418   2.510   3.893
    1C        C   58   3.278   2.531   3.893
    1C        C   59   3.487   2.505   4.015
    1C        C   60   3.415   2.511   4.137
    1C        C   61   3.628   2.494   4.259
    1C        C   62   3.487   2.504   4.258
    1C        C   63   3.699   2.503   4.381
    1C        C   64   3.627   2.503   4.502
    1C        C   65   3.835   2.538   4.622
    1C        C   66   3.698   2.503   4.625
    1C        C   67   3.904   2.560   4.744
    1C        C   68   3.840   2.522   4.864
    1C        C   69   4.055   2.576   4.976
    1C        C   70   3.926   2.520   4.975
    1C        C   71   2.827   2.735   2.304
    1C        C   72   2.881   2.690   2.426
    1C        C   73   2.834   2.742   2.549
    1C        C   74   3.009   2.624   2.673
    1C        C   75   2.889   2.698   2.671
    1C        C   76   3.071   2.595   2.796
    1C        C   77   3.008   2.629   2.918
    1C        C   78   3.205   2.545   3.038
    1C        C   79   3.075   2.600   3.039
    1C        C   80   3.273   2.530   3.161
    1C        C   81   3.205   2.549   3.283
    1C        C   82   3.415   2.502   3.399
    1C        C   83   3.276   2.528   3.404
    1C        C   84   3.483   2.497   3.523
    1C        C   85   3.415   2.504   3.646
    1C        C   86   3.626   2.495   3.767
    1C        C   87   3.485   2.498   3.769
    1C        C   88   3.697   2.502   3.889
    1C        C   89   3.629   2.501   4.013
    1C        C   90   3.834   2.544   4.135
    1C        C   91   3.696   2.512   4.136
    1C        C   92   3.901   2.565   4.258
    1C        C   93   3.835   2.540   4.380
    1C        C   94   4.029   2.630   4.499
    1C        C   95   3.903   2.566   4.501
    1C        C   96   4.091   2.667   4.620
    1C        C   97   4.030   2.624   4.740
    1C        C   98   4.191   2.759   4.863
    1C        C   99   4.099   2.650   4.862
    1C        C  100   4.213   2.838   4.977
    1C        C  101   2.820   2.725   2.066
    1C        C  102   2.989   2.589   2.191
    1C        C  103   2.875   2.676   2.185
    1C        C  104   3.061   2.569   2.311
    1C        C  105   2.997   2.609   2.431
    1C        C  106   3.200   2.533   2.550
    1C        C  107   3.070   2.588   2.550
    1C        C  108   3.270   2.516   2.671
    1C        C  109   3.201   2.538   2.793
    1C        C  110   3.409   2.497   2.914
    1C        C  111   3.270   2.521   2.915
    1C        C  112   3.484   2.495   3.034
    1C        C  113   3.413   2.511   3.156
    1C        C  114   3.626   2.494   3.279
    1C        C  115   3.485   2.497   3.277
    1C        C  116   3.693   2.508   3.402
    1C        C  117   3.624   2.499   3.526
    1C        C  118   3.836   2.533   3.646
    1C        C  119   3.698   2.502   3.646
    1C        C  120   3.902   2.561   3.768
    1C        C  121   3.833   2.538   3.890
    1C        C  122   4.023   2.633   4.012
    1C        C  123   3.899   2.565   4.012
    1C        C  124   4.087   2.666   4.134
    1C        C  125   4.028   2.628   4.256
    1C        C  126   4.196   2.759   4.377
    1C        C  127   4.090   2.666   4.377
    1C        C  128   4.242   2.816   4.498
    1C        C  129   4.196   2.761   4.620
    1C        C  130   4.324   2.930   4.740
    1C        C  131   4.242   2.814   4.742
    1C        C  132   4.347   3.002   4.859
    1C        C  133   4.284   2.957   4.976
    1C        C  134   3.171   2.464   2.082
    1C        C  135   3.039   2.508   2.083
    1C        C  136   3.261   2.476   2.190
    1C        C  137   3.193   2.518   2.307
    1C        C  138   3.406   2.487   2.427
    1C        C  139   3.265   2.505   2.428
    1C        C  140   3.479   2.485   2.548
    1C        C  141   3.409   2.495   2.670
    1C        C  142   3.621   2.494   2.789
    1C        C  143   3.480   2.491   2.792
    1C        C  144   3.694   2.497   2.910
    1C        C  145   3.625   2.493   3.033
    1C        C  146   3.832   2.535   3.155
    1C        C  147   3.696   2.497   3.155
    1C        C  148   3.898   2.561   3.277
    1C        C  149   3.831   2.538   3.399
    1C        C  150   4.023   2.623   3.521
    1C        C  151   3.898   2.556   3.522
    1C        C  152   4.084   2.661   3.642
    1C        C  153   4.026   2.629   3.767
    1C        C  154   4.190   2.761   3.888
    1C        C  155   4.080   2.672   3.889
    1C        C  156   4.242   2.807   4.011
    1C        C  157   4.194   2.758   4.135
    1C        C  158   4.334   2.922   4.251
    1C        C  159   4.246   2.811   4.255
    1C        C  160   4.376   2.981   4.372
    1C        C  161   4.329   2.928   4.494
    1C        C  162   4.430   3.113   4.613
    1C        C  163   4.366   2.987   4.617
    1C        C  164   4.458   3.182   4.733
    1C        C  165   4.426   3.119   4.856
    1C        C  166   4.508   3.317   4.972
    1C        C  167   4.473   3.182   4.972
    1C        C  168   3.476   2.433   2.070
    1C        C  169   3.400   2.457   2.186
    1C        C  170   3.616   2.465   2.305
    1C        C  171   3.474   2.467   2.306
    1C        C  172   3.691   2.486   2.423
    1C        C  173   3.621   2.485   2.546
    1C        C  174   3.829   2.535   2.665
    1C        C  175   3.692   2.501   2.667
    1C        C  176   3.895   2.556   2.788
    1C        C  177   3.831   2.530   2.911
    1C        C  178   4.025   2.621   3.032
    1C        C  179   3.899   2.558   3.032
    1C        C  180   4.085   2.661   3.153
    1C        C  181   4.025   2.623   3.275
    1C        C  182   4.195   2.745   3.396
    1C        C  183   4.084   2.658   3.398
    1C        C  184   4.245   2.798   3.518
    1C        C  185   4.192   2.753   3.640
    1C        C  186   4.330   2.913   3.764
    1C        C  187   4.237   2.807   3.763
    1C        C  188   4.370   2.973   3.886
    1C        C  189   4.329   2.918   4.010
    1C        C  190   4.437   3.107   4.125
    1C        C  191   4.371   2.982   4.129
    1C        C  192   4.464   3.172   4.247
    1C        C  193   4.439   3.108   4.371
    1C        C  194   4.501   3.313   4.490
    1C        C  195   4.462   3.177   4.492
    1C        C  196   4.514   3.384   4.611
    1C        C  197   4.503   3.317   4.734
    1C        C  198   4.550   3.532   4.848
    1C        C  199   4.522   3.391   4.854
    1C        C  200   4.585   3.617   4.958
    1C        C  201   3.614   2.415   2.069
    1C        C  202   3.824   2.505   2.181
    1C        C  203   3.690   2.456   2.183
    1C        C  204   3.896   2.536   2.299
    1C        C  205   3.829   2.515   2.422
    1C        C  206   4.022   2.612   2.541
    1C        C  207   3.896   2.548   2.541
    1C        C  208   4.080   2.655   2.662
    1C        C  209   4.021   2.620   2.786
    1C        C  210   4.196   2.742   2.904
    1C        C  211   4.083   2.657   2.908
    1C        C  212   4.251   2.788   3.026
    1C        C  213   4.200   2.744   3.150
    1C        C  214   4.331   2.907   3.271
    1C        C  215   4.247   2.793   3.274
    1C        C  216   4.367   2.967   3.394
    1C        C  217   4.332   2.910   3.518
    1C        C  218   4.426   3.099   3.640
    1C        C  219   4.368   2.970   3.641
    1C        C  220   4.451   3.168   3.760
    1C        C  221   4.429   3.101   3.883
    1C        C  222   4.497   3.308   4.002
    1C        C  223   4.457   3.173   4.002
    1C        C  224   4.512   3.379   4.123
    1C        C  225   4.497   3.309   4.245
    1C        C  226   4.512   3.523   4.365
    1C        C  227   4.504   3.382   4.366
    1C        C  228   4.509   3.597   4.485
    1C        C  229   4.521   3.526   4.607
    1C        C  230   4.495   3.739   4.725
    1C        C  231   4.529   3.601   4.726
    1C        C  232   4.491   3.814   4.844
    1C        C  233   4.539   3.749   4.958
    1C        C  234   4.013   2.607   2.061
    1C        C  235   3.891   2.541   2.063
    1C        C  236   4.079   2.649   2.177
    1C        C  237   4.018   2.610   2.298
    1C        C  238   4.198   2.729   2.421
    1C        C  239   4.085   2.643   2.418
    1C        C  240   4.246   2.786   2.541
    1C        C  241   4.194   2.739   2.663
    1C        C  242   4.333   2.904   2.782
    1C        C  243   4.247   2.792   2.783
    1C        C  244   4.372   2.960   2.906
    1C        C  245   4.335   2.901   3.029
    1C        C  246   4.432   3.094   3.151
    1C        C  247   4.371   2.966   3.149
    1C        C  248   4.455   3.161   3.273
    1C        C  249   4.426   3.095   3.395
    1C        C  250   4.486   3.300   3.513
    1C        C  251   4.450   3.163   3.516
    1C        C  252   4.497   3.373   3.634
    1C        C  253   4.492   3.303   3.757
    1C        C  254   4.512   3.516   3.876
    1C        C  255   4.508   3.375   3.877
    1C        C  256   4.513   3.588   3.998
    1C        C  257   4.523   3.519   4.121
    1C        C  258   4.490   3.730   4.241
    1C        C  259   4.517   3.592   4.242
    1C        C  260   4.468   3.802   4.360
    1C        C  261   4.483   3.735   4.484
    1C        C  262   4.424   3.942   4.605
    1C        C  263   4.464   3.806   4.605
    1C        C  264   4.403   4.012   4.726
    1C        C  265   4.436   3.944   4.845
    1C        C  266   4.323   4.131   4.955
    1C        C  267   4.385   4.007   4.960
    1C        C  268   4.253   2.780   2.063
    1C        C  269   4.188   2.739   2.180
    1C        C  270   4.344   2.887   2.297
    1C        C  271   4.249   2.781   2.300
    1C        C  272   4.384   2.949   2.418
    1C        C  273   4.341   2.891   2.539
    1C        C  274   4.441   3.083   2.661
    1C        C  275   4.374   2.959   2.659
    1C        C  276   4.467   3.150   2.782
    1C        C  277   4.437   3.085   2.904
    1C        C  278   4.496   3.291   3.025
    1C        C  279   4.459   3.154   3.026
    1C        C  280   4.502   3.364   3.145
    1C        C  281   4.484   3.299   3.270
    1C        C  282   4.510   3.510   3.387
    1C        C  283   4.501   3.369   3.391
    1C        C  284   4.511   3.583   3.508
    1C        C  285   4.511   3.513   3.631
    1C        C  286   4.490   3.725   3.752
    1C        C  287   4.506   3.584   3.753
    1C        C  288   4.475   3.796   3.873
    1C        C  289   4.486   3.727   3.995
    1C        C  290   4.425   3.930   4.117
    1C        C  291   4.473   3.797   4.117
    1C        C  292   4.398   3.999   4.237
    1C        C  293   4.425   3.937   4.361
    1C        C  294   4.332   4.130   4.478
    1C        C  295   4.396   4.004   4.482
    1C        C  296   4.289   4.190   4.599
    1C        C  297   4.333   4.135   4.721
    1C        C  298   4.197   4.313   4.838
    1C        C  299   4.282   4.198   4.839
    1C        C  300   4.165   4.399   4.947
    1C        C  301   4.343   2.886   2.059
    1C        C  302   4.465   3.067   2.176
    1C        C  303   4.393   2.944   2.177
    1C        C  304   4.475   3.142   2.297
    1C        C  305   4.446   3.075   2.418
    1C        C  306   4.496   3.286   2.536
    1C        C  307   4.467   3.147   2.538
    1C        C  308   4.508   3.358   2.657
    1C        C  309   4.497   3.288   2.779
    1C        C  310   4.516   3.499   2.897
    1C        C  311   4.507   3.358   2.901
    1C        C  312   4.514   3.573   3.018
    1C        C  313   4.513   3.505   3.141
    1C        C  314   4.485   3.716   3.262
    1C        C  315   4.511   3.577   3.263
    1C        C  316   4.474   3.789   3.383
    1C        C  317   4.493   3.723   3.506
    1C        C  318   4.426   3.924   3.626
    1C        C  319   4.476   3.792   3.629
    1C        C  320   4.394   3.989   3.747
    1C        C  321   4.425   3.928   3.871
    1C        C  322   4.319   4.110   3.989
    1C        C  323   4.396   3.992   3.993
    1C        C  324   4.276   4.168   4.110
    1C        C  325   4.323   4.118   4.234
    1C        C  326   4.190   4.285   4.354
    1C        C  327   4.288   4.183   4.355
    1C        C  328   4.138   4.340   4.473
    1C        C  329   4.194   4.295   4.595
    1C        C  330   4.024   4.432   4.712
    1C        C  331   4.139   4.349   4.713
    1C        C  332   3.972   4.494   4.828
    1C        C  333   4.054   4.485   4.941
    1C        C  334   4.546   3.265   2.058
    1C        C  335   4.533   3.125   2.065
    1C        C  336   4.533   3.349   2.169
    1C        C  337   4.512   3.279   2.290
    1C        C  338   4.514   3.493   2.409
    1C        C  339   4.510   3.351   2.412
    1C        C  340   4.515   3.566   2.530
    1C        C  341   4.516   3.499   2.654
    1C        C  342   4.493   3.710   2.772
    1C        C  343   4.519   3.571   2.776
    1C        C  344   4.480   3.782   2.893
    1C        C  345   4.494   3.713   3.015
    1C        C  346   4.429   3.915   3.135
    1C        C  347   4.472   3.781   3.137
    1C        C  348   4.399   3.983   3.255
    1C        C  349   4.428   3.923   3.380
    1C        C  350   4.325   4.106   3.500
    1C        C  351   4.403   3.989   3.502
    1C        C  352   4.277   4.162   3.621
    1C        C  353   4.322   4.111   3.744
    1C        C  354   4.180   4.269   3.864
    1C        C  355   4.277   4.166   3.866
    1C        C  356   4.127   4.317   3.986
    1C        C  357   4.183   4.274   4.108
    1C        C  358   4.014   4.400   4.229
    1C        C  359   4.133   4.323   4.231
    1C        C  360   3.954   4.442   4.350
    1C        C  361   4.017   4.412   4.472
    1C        C  362   3.828   4.517   4.590
    1C        C  363   3.958   4.462   4.590
    1C        C  364   3.763   4.550   4.711
    1C        C  365   3.839   4.541   4.830
    1C        C  366   3.630   4.586   4.948
    1C        C  367   3.768   4.567   4.947
    1C        C  368   4.508   3.565   2.049
    1C        C  369   4.524   3.490   2.167
    1C        C  370   4.508   3.704   2.286
    1C        C  371   4.512   3.563   2.287
    1C        C  372   4.487   3.778   2.405
    1C        C  373   4.498   3.706   2.525
    1C        C  374   4.425   3.906   2.644
    1C        C  375   4.474   3.773   2.647
    1C        C  376   4.395   3.973   2.765
    1C        C  377   4.428   3.913   2.889
    1C        C  378   4.321   4.094   3.006
    1C        C  379   4.401   3.978   3.011
    1C        C  380   4.280   4.153   3.127
    1C        C  381   4.321   4.101   3.252
    1C        C  382   4.181   4.256   3.376
    1C        C  383   4.282   4.157   3.376
    1C        C  384   4.123   4.303   3.496
    1C        C  385   4.177   4.262   3.620
    1C        C  386   4.007   4.390   3.740
    1C        C  387   4.127   4.314   3.741
    1C        C  388   3.944   4.421   3.862
    1C        C  389   4.006   4.389   3.984
    1C        C  390   3.814   4.473   4.106
    1C        C  391   3.945   4.420   4.108
    1C        C  392   3.750   4.502   4.228
    1C        C  393   3.823   4.496   4.349
    1C        C  394   3.616   4.544   4.473
    1C        C  395   3.756   4.526   4.469
    1C        C  396   3.545   4.558   4.595
    1C        C  397   3.622   4.563   4.713
    1C        C  398   3.410   4.549   4.834
    1C        C  399   3.550   4.567   4.834
    1C        C  400   3.343   4.508   4.950
    1C        C  401   4.502   3.704   2.051
    1C        C  402   4.452   3.914   2.164
    1C        C  403   4.496   3.780   2.168
    1C        C  404   4.413   3.979   2.283
    1C        C  405   4.434   3.909   2.404
    1C        C  406   4.329   4.097   2.522
    1C        C  407   4.400   3.975   2.524
    1C        C  408   4.284   4.155   2.643
    1C        C  409   4.322   4.093   2.764
    1C        C  410   4.177   4.252   2.886
    1C        C  411   4.277   4.151   2.885
    1C        C  412   4.127   4.299   3.009
    1C        C  413   4.179   4.252   3.132
    1C        C  414   4.003   4.371   3.252
    1C        C  415   4.124   4.298   3.253
    1C        C  416   3.941   4.408   3.374
    1C        C  417   4.005   4.380   3.497
    1C        C  418   3.811   4.471   3.617
    1C        C  419   3.943   4.420   3.617
    1C        C  420   3.746   4.497   3.739
    1C        C  421   3.814   4.476   3.861
    1C        C  422   3.610   4.532   3.985
    1C        C  423   3.747   4.499   3.984
    1C        C  424   3.541   4.541   4.108
    1C        C  425   3.612   4.535   4.230
    1C        C  426   3.402   4.544   4.352
    1C        C  427   3.543   4.547   4.352
    1C        C  428   3.331   4.538   4.474
    1C        C  429   3.404   4.554   4.594
    1C        C  430   3.193   4.517   4.720
    1C        C  431   3.333   4.543   4.716
    1C        C  432   3.123   4.491   4.841
    1C        C  433   3.205   4.487   4.954
    1C        C  434   4.383   4.120   2.048
    1C        C  435   4.445   3.994   2.049
    1C        C  436   4.301   4.163   2.157
    1C        C  437   4.335   4.098   2.279
    1C        C  438   4.184   4.251   2.399
    1C        C  439   4.283   4.151   2.399
    1C        C  440   4.130   4.299   2.520
    1C        C  441   4.180   4.251   2.643
    1C        C  442   4.001   4.368   2.762
    1C        C  443   4.121   4.294   2.764
    1C        C  444   3.942   4.403   2.886
    1C        C  445   4.005   4.370   3.008
    1C        C  446   3.816   4.468   3.125
    1C        C  447   3.943   4.407   3.129
    1C        C  448   3.748   4.490   3.248
    1C        C  449   3.812   4.466   3.371
    1C        C  450   3.607   4.519   3.494
    1C        C  451   3.745   4.487   3.493
    1C        C  452   3.540   4.535   3.617
    1C        C  453   3.608   4.531   3.740
    1C        C  454   3.398   4.537   3.864
    1C        C  455   3.539   4.539   3.863
    1C        C  456   3.328   4.529   3.987
    1C        C  457   3.400   4.539   4.108
    1C        C  458   3.195   4.494   4.234
    1C        C  459   3.330   4.533   4.231
    1C        C  460   3.127   4.475   4.356
    1C        C  461   3.194   4.505   4.477
    1C        C  462   2.995   4.436   4.599
    1C        C  463   3.125   4.492   4.599
    1C        C  464   2.928   4.404   4.719
    1C        C  465   2.988   4.443   4.842
    1C        C  466   2.804   4.334   4.955
    1C        C  467   2.905   4.431   4.958
    1C        C  468   4.120   4.281   2.037
    1C        C  469   4.184   4.246   2.156
    1C        C  470   4.006   4.368   2.277
    1C        C  471   4.126   4.292   2.277
    1C        C  472   3.939   4.396   2.398
    1C        C  473   4.005   4.365   2.519
    1C        C  474   3.811   4.459   2.639
    1C        C  475   3.941   4.403   2.639
    1C        C  476   3.745   4.481   2.762
    1C        C  477   3.814   4.462   2.884
    1C        C  478   3.606   4.513   3.006
    1C        C  479   3.744   4.487   3.005
    1C        C  480   3.536   4.520   3.128
    1C        C  481   3.609   4.515   3.249
    1C        C  482   3.397   4.524   3.376
    1C        C  483   3.538   4.528   3.371
    1C        C  484   3.326   4.522   3.499
    1C        C  485   3.398   4.531   3.620
    1C        C  486   3.190   4.497   3.742
    1C        C  487   3.328   4.527   3.742
    1C        C  488   3.124   4.473   3.865
    1C        C  489   3.192   4.492   3.988
    1C        C  490   2.998   4.415   4.113
    1C        C  491   3.126   4.474   4.112
    1C        C  492   2.940   4.379   4.236
    1C        C  493   2.997   4.420   4.358
    1C        C  494   2.824   4.300   4.481
    1C        C  495   2.932   4.391   4.481
    1C        C  496   2.771   4.256   4.604
    1C        C  497   2.814   4.319   4.724
    1C        C  498   2.661   4.164   4.844
    1C        C  499   2.748   4.276   4.841
    1C        C  500   2.595   4.115   4.957
    1C        C  501   4.008   4.364   2.038
    1C        C  502   3.811   4.455   2.154
    1C        C  503   3.942   4.401   2.156
    1C        C  504   3.743   4.481   2.275
    1C        C  505   3.809   4.451   2.396
    1C        C  506   3.604   4.509   2.520
    1C        C  507   3.743   4.481   2.518
    1C        C  508   3.532   4.513   2.641
    1C        C  509   3.606   4.505   2.762
    1C        C  510   3.394   4.523   2.886
    1C        C  511   3.535   4.517   2.883
    1C        C  512   3.323   4.519   3.008
    1C        C  513   3.395   4.528   3.129
    1C        C  514   3.191   4.485   3.254
    1C        C  515   3.328   4.521   3.253
    1C        C  516   3.124   4.462   3.376
    1C        C  517   3.188   4.493   3.498
    1C        C  518   2.997   4.408   3.623
    1C        C  519   3.119   4.478   3.621
    1C        C  520   2.939   4.368   3.745
    1C        C  521   3.000   4.406   3.867
    1C        C  522   2.832   4.282   3.993
    1C        C  523   2.941   4.372   3.991
    1C        C  524   2.785   4.235   4.117
    1C        C  525   2.830   4.290   4.239
    1C        C  526   2.692   4.131   4.364
    1C        C  527   2.773   4.246   4.360
    1C        C  528   2.647   4.078   4.487
    1C        C  529   2.684   4.145   4.605
    1C        C  530   2.581   3.960   4.728
    1C        C  531   2.637   4.091   4.726
    1C        C  532   2.542   3.901   4.851
    1C        C  533   2.525   3.994   4.959
    1C        C  534   3.615   4.547   2.038
    1C        C  535   3.749   4.505   2.039
    1C        C  536   3.535   4.528   2.155
    1C        C  537   3.603   4.507   2.278
    1C        C  538   3.390   4.512   2.398
    1C        C  539   3.531   4.517   2.399
    1C        C  540   3.321   4.502   2.521
    1C        C  541   3.391   4.514   2.643
    1C        C  542   3.183   4.483   2.764
    1C        C  543   3.321   4.514   2.765
    1C        C  544   3.116   4.463   2.887
    1C        C  545   3.186   4.484   3.008
    1C        C  546   2.997   4.396   3.133
    1C        C  547   3.122   4.462   3.133
    1C        C  548   2.937   4.360   3.256
    1C        C  549   2.999   4.398   3.378
    1C        C  550   2.824   4.281   3.501
    1C        C  551   2.940   4.362   3.501
    1C        C  552   2.773   4.233   3.624
    1C        C  553   2.829   4.279   3.745
    1C        C  554   2.693   4.123   3.874
    1C        C  555   2.783   4.232   3.870
    1C        C  556   2.655   4.066   3.997
    1C        C  557   2.694   4.127   4.119
    1C        C  558   2.595   3.942   4.243
    1C        C  559   2.652   4.071   4.242
    1C        C  560   2.564   3.880   4.366
    1C        C  561   2.583   3.952   4.486
    1C        C  562   2.528   3.749   4.614
    1C        C  563   2.555   3.888   4.609
    1C        C  564   2.517   3.681   4.737
    1C        C  565   2.520   3.760   4.855
    1C        C  566   2.532   3.547   4.975
    1C        C  567   2.528   3.686   4.974
    1C        C  568   3.326   4.472   2.038
    1C        C  569   3.394   4.512   2.154
    1C        C  570   3.183   4.469   2.280
    1C        C  571   3.320   4.506   2.275
    1C        C  572   3.114   4.451   2.402
    1C        C  573   3.182   4.479   2.523
    1C        C  574   2.986   4.397   2.645
    1C        C  575   3.111   4.462   2.644
    1C        C  576   2.928   4.358   2.768
    1C        C  577   2.990   4.400   2.888
    1C        C  578   2.823   4.274   3.015
    1C        C  579   2.934   4.361   3.012
    1C        C  580   2.776   4.219   3.137
    1C        C  581   2.829   4.270   3.257
    1C        C  582   2.691   4.113   3.384
    1C        C  583   2.777   4.225   3.381
    1C        C  584   2.654   4.056   3.507
    1C        C  585   2.690   4.119   3.629
    1C        C  586   2.592   3.935   3.755
    1C        C  587   2.652   4.063   3.752
    1C        C  588   2.564   3.872   3.878
    1C        C  589   2.592   3.940   3.999
    1C        C  590   2.531   3.738   4.127
    1C        C  591   2.568   3.874   4.122
    1C        C  592   2.520   3.670   4.251
    1C        C  593   2.529   3.744   4.371
    1C        C  594   2.508   3.534   4.495
    1C        C  595   2.517   3.675   4.494
    1C        C  596   2.518   3.466   4.619
    1C        C  597   2.514   3.539   4.740
    1C        C  598   2.527   3.325   4.860
    1C        C  599   2.523   3.466   4.861
    1C        C  600   2.531   3.249   4.978
    1C        C  601   3.195   4.430   2.044
    1C        C  602   2.979   4.395   2.158
    1C        C  603   3.115   4.439   2.158
    1C        C  604   2.921   4.357   2.282
    1C        C  605   2.985   4.393   2.403
    1C        C  606   2.812   4.271   2.528
    1C        C  607   2.922   4.359   2.525
    1C        C  608   2.766   4.221   2.652
    1C        C  609   2.819   4.269   2.774
    1C        C  610   2.683   4.107   2.894
    1C        C  611   2.770   4.218   2.897
    1C        C  612   2.645   4.050   3.018
    1C        C  613   2.683   4.112   3.139
    1C        C  614   2.587   3.926   3.263
    1C        C  615   2.649   4.053   3.262
    1C        C  616   2.567   3.863   3.388
    1C        C  617   2.596   3.927   3.511
    1C        C  618   2.528   3.730   3.635
    1C        C  619   2.566   3.866   3.635
    1C        C  620   2.518   3.663   3.760
    1C        C  621   2.535   3.734   3.881
    1C        C  622   2.509   3.527   4.008
    1C        C  623   2.525   3.668   4.005
    1C        C  624   2.512   3.457   4.130
    1C        C  625   2.509   3.529   4.251
    1C        C  626   2.545   3.323   4.377
    1C        C  627   2.514   3.461   4.375
    1C        C  628   2.562   3.256   4.500
    1C        C  629   2.536   3.326   4.620
    1C        C  630   2.587   3.117   4.741
    1C        C  631   2.545   3.252   4.740
    1C        C  632   2.615   3.047   4.862
    1C        C  633   2.564   3.113   4.980
    1C        C  634   2.777   4.303   2.050
    1C        C  635   2.889   4.387   2.046
    1C        C  636   2.742   4.230   2.164
    1C        C  637   2.807   4.272   2.282
    1C        C  638   2.677   4.109   2.409
    1C        C  639   2.761   4.222   2.406
    1C        C  640   2.637   4.049   2.530
    1C        C  641   2.678   4.110   2.651
    1C        C  642   2.574   3.924   2.774
    1C        C  643   2.642   4.048   2.773
    1C        C  644   2.549   3.857   2.896
    1C        C  645   2.582   3.924   3.017
    1C        C  646   2.529   3.723   3.146
    1C        C  647   2.560   3.861   3.141
    1C        C  648   2.515   3.656   3.269
    1C        C  649   2.530   3.727   3.390
    1C        C  650   2.503   3.518   3.516
    1C        C  651   2.513   3.659   3.513
    1C        C  652   2.511   3.451   3.640
    1C        C  653   2.507   3.523   3.762
    1C        C  654   2.529   3.316   3.889
    1C        C  655   2.507   3.455   3.887
    1C        C  656   2.551   3.248   4.011
    1C        C  657   2.539   3.318   4.133
    1C        C  658   2.615   3.121   4.254
    1C        C  659   2.563   3.253   4.256
    1C        C  660   2.638   3.057   4.378
    1C        C  661   2.600   3.119   4.499
    1C        C  662   2.707   2.938   4.622
    1C        C  663   2.627   3.054   4.621
    1C        C  664   2.748   2.875   4.741
    1C        C  665   2.696   2.930   4.861
    1C        C  666   2.740   2.869   4.980
    1C        C  667   2.669   4.025   2.054
    1C        C  668   2.673   4.107   2.167
    1C        C  669   2.583   3.914   2.290
    1C        C  670   2.639   4.044   2.289
    1C        C  671   2.554   3.848   2.412
    1C        C  672   2.578   3.920   2.531
    1C        C  673   2.517   3.718   2.656
    1C        C  674   2.551   3.855   2.653
    1C        C  675   2.509   3.647   2.778
    1C        C  676   2.526   3.718   2.900
    1C        C  677   2.510   3.511   3.029
    1C        C  678   2.515   3.652   3.024
    1C        C  679   2.513   3.442   3.152
    1C        C  680   2.505   3.515   3.273
    1C        C  681   2.532   3.307   3.400
    1C        C  682   2.503   3.445   3.396
    1C        C  683   2.556   3.242   3.524
    1C        C  684   2.537   3.313   3.645
    1C        C  685   2.603   3.113   3.768
    1C        C  686   2.552   3.245   3.768
    1C        C  687   2.640   3.052   3.890
    1C        C  688   2.606   3.118   4.010
    1C        C  689   2.706   2.931   4.137
    1C        C  690   2.636   3.053   4.132
    1C        C  691   2.756   2.879   4.259
    1C        C  692   2.712   2.937   4.380
    1C        C  693   2.752   2.878   4.502
    1C        C  694   2.627   3.891   2.056
    1C        C  695   2.526   3.702   2.175
    1C        C  696   2.574   3.835   2.173
    1C        C  697   2.503   3.634   2.296
    1C        C  698   2.518   3.712   2.413
    1C        C  699   2.489   3.504   2.541
    1C        C  700   2.503   3.645   2.536
    1C        C  701   2.504   3.435   2.663
    1C        C  702   2.505   3.506   2.784
    1C        C  703   2.527   3.298   2.908
    1C        C  704   2.510   3.438   2.908
    1C        C  705   2.546   3.233   3.032
    1C        C  706   2.534   3.302   3.155
    1C        C  707   2.603   3.106   3.279
    1C        C  708   2.547   3.236   3.279
    1C        C  709   2.633   3.042   3.401
    1C        C  710   2.604   3.110   3.522
    1C        C  711   2.709   2.929   3.649
    1C        C  712   2.635   3.049   3.647
    1C        C  713   2.755   2.873   3.771
    1C        C  714   2.715   2.933   3.893
    1C        C  715   2.759   2.879   4.016
    1C        C  716   2.446   3.497   2.064
    1C        C  717   2.486   3.631   2.061
    1C        C  718   2.467   3.417   2.181
    1C        C  719   2.483   3.493   2.300
    1C        C  720   2.516   3.288   2.424
    1C        C  721   2.480   3.425   2.424
    1C        C  722   2.538   3.219   2.545
    1C        C  723   2.525   3.295   2.664
    1C        C  724   2.593   3.096   2.790
    1C        C  725   2.543   3.228   2.786
    1C        C  726   2.622   3.033   2.914
    1C        C  727   2.598   3.102   3.034
    1C        C  728   2.701   2.917   3.157
    1C        C  729   2.631   3.040   3.157
    1C        C  730   2.749   2.868   3.281
    1C        C  731   2.704   2.920   3.404
    1C        C  732   2.750   2.870   3.528
    1C        C  733   2.489   3.193   2.070
    1C        C  734   2.486   3.276   2.183
    1C        C  735   2.588   3.085   2.305
    1C        C  736   2.530   3.215   2.304
    1C        C  737   2.618   3.020   2.426
    1C        C  738   2.587   3.087   2.547
    1C        C  739   2.699   2.909   2.667
    1C        C  740   2.626   3.030   2.670
    1C        C  741   2.742   2.855   2.790
    1C        C  742   2.701   2.915   2.911
    1C        C  743   2.744   2.861   3.035
    1C        C  744   2.534   3.061   2.075
    1C        C  745   2.684   2.895   2.181
    1C        C  746   2.608   3.014   2.184
    1C        C  747   2.732   2.841   2.302
    1C        C  748   2.692   2.899   2.424
    1C        C  749   2.738   2.846   2.547
    1C        C  750   2.738   2.838   2.065
    1C        C  751   3.658   2.299   1.988
    1C        O  752   3.675   2.192   2.052
    1C        O  753   3.758   2.315   1.890
    1C        C  754   4.649   3.057   2.002
    1C        O  755   4.674   3.073   1.879
    1C        O  756   4.709   2.944   2.057
    1C        C  757   4.450   4.215   1.957
    1C        O  758   4.549   4.273   2.010
    1C        O  759   4.463   4.204   1.818
    1C        C  760   3.585   4.656   1.942
    1C        O  761   3.543   4.770   1.975
    1C        O  762   3.623   4.657   1.807
    1C        C  763   2.902   4.480   1.932
    1C        O  764   2.952   4.433   1.826
    1C        O  765   2.821   4.593   1.926
    1C        C  766   2.330   3.472   1.975
    1C        O  767   2.336   3.453   1.851
    1C        O  768   2.197   3.478   2.019
    1C        C  769   4.692   3.585   5.055
    1C        O  770   4.674   3.556   5.177
    1C        O  771   4.825   3.573   5.013
    1C        C  772   4.265   4.445   5.047
    1C        O  773   4.285   4.395   5.161
    1C        O  774   4.343   4.558   5.023
    1C        C  775   4.138   2.523   5.087
    1C        O  776   4.177   2.403   5.080
    1C        O  777   4.138   2.588   5.211
    1C        C  778   2.883   4.538   5.058
    1C        O  779   2.791   4.622   5.040
    1C        O  780   2.890   4.508   5.195
    1C        C  781   2.467   3.045   5.068
    1C        O  782   2.361   2.993   5.022
    1C        O  783   2.452   3.076   5.203
    1C        C  784   2.389   4.005   5.017
    1C        O  785   2.308   4.085   4.964
    1C        O  786   2.378   3.975   5.154
    1C        C  787   2.955   2.413   2.007
    1C        O  788   2.940   2.407   1.882
    1C        O  789   2.846   2.347   2.064
    1C        C  790   3.199   2.386   5.081
    1C        O  791   3.154   2.269   5.072
    1C        O  792   3.229   2.435   5.208
    1C        H  793   4.301   3.009   5.068
    1C        H  794   4.135   2.833   5.050
    1C        H  795   4.519   3.118   5.044
    1C        H  796   4.513   3.367   5.066
    1C        H  797   4.588   3.814   5.027
    1C        H  798   4.371   3.945   5.046
    1C        H  799   4.325   4.194   5.042
    1C        H  800   4.028   4.536   5.031
    1C        H  801   3.811   4.544   5.042
    1C        H  802   3.583   4.626   5.036
    1C        H  803   3.403   4.451   5.018
    1C        H  804   3.170   4.462   5.052
    1C        H  805   3.899   2.467   5.063
    1C        H  806   3.675   2.407   5.052
    1C        H  807   3.001   2.553   5.065
    1C        H  808   3.442   2.484   5.075
    1C        H  809   2.897   2.761   5.069
    1C        H  810   2.663   2.838   5.047
    1C        H  811   2.476   3.289   5.060
    1C        H  812   2.571   3.503   5.065
    1C        H  813   2.548   3.738   5.065
    1C        H  814   2.616   4.155   5.054
    1C        H  815   2.797   4.280   5.047
    1C        H  816   2.735   2.899   1.977
    1C        H  817   2.806   2.651   1.990
    1C        H  818   3.202   2.397   2.004
    1C        H  819   3.445   2.478   1.977
    1C        H  820   3.833   2.542   1.973
    1C        H  821   4.081   2.564   1.990
    1C        H  822   4.250   2.716   1.977
    1C        H  823   4.390   2.902   1.965
    1C        H  824   4.589   3.305   1.969
    1C        H  825   4.535   3.521   1.956
    1C        H  826   4.519   3.752   1.957
    1C        H  827   3.810   4.541   1.959
    1C        H  828   3.965   4.386   1.942
    1C        H  829   4.120   4.203   1.964
    1C        H  830   4.497   3.967   1.959
    1C        H  831   2.656   3.832   1.972
    1C        H  832   2.682   4.068   1.957
    1C        H  833   2.696   4.322   1.984
    1C        H  834   3.356   4.515   1.945
    1C        H  835   3.156   4.373   1.961
    1C        H  836   2.459   2.995   2.039
    1C        H  837   2.410   3.210   2.000
    1C        H  838   2.449   3.688   1.979
    2V3OU   H29  839   2.798   3.545   1.537
    2V3OU   C27  840   2.781   3.499   1.637
    2V3OU   H27  841   2.719   3.568   1.700
    2V3OU   H28  842   2.727   3.402   1.620
    2V3OU   O11  843   2.910   3.475   1.695
    2V3OU   C15  844   2.923   3.393   1.805
    2V3OU   C13  845   3.049   3.372   1.865
    2V3OU   C14  846   3.076   3.264   1.950
    2V3OU   C16  847   2.969   3.183   1.988
    2V3OU    H6  848   2.989   3.104   2.062
    2V3OU   C12  849   3.207   3.235   2.012
    2V3OU    O2  850   3.228   3.134   2.083
    2V3OU   C10  851   3.324   3.310   1.962
    2V3OU    C8  852   3.454   3.269   1.987
    2V3OU   O10  853   3.484   3.152   2.049
    2V3OU   H26  854   3.401   3.109   2.076
    2V3OU    C6  855   3.567   3.347   1.948
    2V3OU    C5  856   3.537   3.464   1.879
    2V3OU    C4  857   3.705   3.292   1.946
    2V3OU    H4  858   3.719   3.220   2.032
    2V3OU    H5  859   3.714   3.228   1.854
    2V3OU    C2  860   3.819   3.394   1.945
    2V3OU    O6  861   3.802   3.467   2.067
    2V3OU   H21  862   3.758   3.544   2.026
    2V3OU    C3  863   3.782   3.494   1.835
    2V3OU    H2  864   3.863   3.571   1.827
    2V3OU    H3  865   3.777   3.436   1.740
    2V3OU   C25  866   3.953   3.323   1.926
    2V3OU    O7  867   3.999   3.296   1.815
    2V3OU   C26  868   4.032   3.287   2.050
    2V3OU   H22  869   4.062   3.383   2.099
    2V3OU   H23  870   4.119   3.222   2.024
    2V3OU    O8  871   3.955   3.210   2.139
    2V3OU   H24  872   3.915   3.272   2.202
    2V3OU    C1  873   3.646   3.562   1.846
    2V3OU    H1  874   3.623   3.617   1.749
    2V3OU    O3  875   3.660   3.654   1.955
    2V3OU   C19  876   3.616   3.790   1.957
    2V3OU    H9  877   3.513   3.798   1.910
    2V3OU    O4  878   3.712   3.851   1.875
    2V3OU   C20  879   3.843   3.876   1.927
    2V3OU   H10  880   3.899   3.780   1.947
    2V3OU   C24  881   3.610   3.849   2.098
    2V3OU   H16  882   3.546   3.784   2.163
    2V3OU   H17  883   3.566   3.952   2.097
    2V3OU   C23  884   3.749   3.874   2.157
    2V3OU   H15  885   3.796   3.772   2.176
    2V3OU    N1  886   3.735   3.949   2.280
    2V3OU   H19  887   3.803   3.912   2.345
    2V3OU   H20  888   3.645   3.925   2.316
    2V3OU   C21  889   3.847   3.949   2.062
    2V3OU   H11  890   3.950   3.929   2.104
    2V3OU    O5  891   3.822   4.088   2.069
    2V3OU   H18  892   3.783   4.101   2.157
    2V3OU   C22  893   3.909   3.946   1.810
    2V3OU   H12  894   3.866   4.048   1.797
    2V3OU   H13  895   3.900   3.884   1.717
    2V3OU   H14  896   4.019   3.955   1.824
    2V3OU   C11  897   3.159   3.469   1.854
    2V3OU    O1  898   3.142   3.591   1.834
    2V3OU    C9  899   3.297   3.420   1.878
    2V3OU    C7  900   3.405   3.498   1.837
    2V3OU    O9  901   3.384   3.613   1.764
    2V3OU   H25  902   3.289   3.634   1.773
    2V3OU   C17  903   2.820   3.309   1.853
    2V3OU    H7  904   2.719   3.346   1.838
    2V3OU   C18  905   2.839   3.207   1.946
    2V3OU    H8  906   2.750   3.154   1.983
    3SOL     OW  907   2.349   3.969   0.940
    3SOL    HW1  908   2.256   3.937   0.958
    3SOL    HW2  909   2.390   3.914   0.868
    4SOL     OW  910   6.910   5.764   1.900
    4SOL    HW1  911   6.940   5.699   1.831
    4SOL    HW2  912   6.851   5.718   1.966
    5SOL     OW  913   3.862   1.526   2.059
    5SOL    HW1  914   3.884   1.583   1.980
    5SOL    HW2  915   3.882   1.576   2.143
    6SOL     OW  916   3.447   2.068   2.134
    6SOL    HW1  917   3.419   2.100   2.225
    6SOL    HW2  918   3.532   2.112   2.107
    7SOL     OW  919   6.356   2.834   1.492
    7SOL    HW1  920   6.265   2.807   1.525
    7SOL    HW2  921   6.356   2.837   1.392
    8SOL     OW  922   2.412   6.623   5.181
    8SOL    HW1  923   2.340   6.561   5.213
    8SOL    HW2  924   2.476   6.572   5.124
    9SOL     OW  925   1.222   5.493   5.919
    9SOL    HW1  926   1.309   5.445   5.914
    9SOL    HW2  927   1.166   5.469   5.839
   10SOL     OW  928   0.394   4.139   5.828
   10SOL    HW1  929   0.468   4.154   5.893
   10SOL    HW2  930   0.385   4.041   5.808
   11SOL     OW  931   2.861   0.366   0.498
   11SOL    HW1  932   2.827   0.434   0.562
   11SOL    HW2  933   2.790   0.298   0.479
   12SOL     OW  934   4.583   6.392   3.324
   12SOL    HW1  935   4.574   6.378   3.225
   12SOL    HW2  936   4.545   6.481   3.348
   13SOL     OW  937   3.431   6.206   4.430
   13SOL    HW1  938   3.464   6.131   4.373
   13SOL    HW2  939   3.374   6.267   4.375
   14SOL     OW  940   3.925   5.888   6.030
   14SOL    HW1  941   3.861   5.942   6.084
   14SOL    HW2  942   3.939   5.799   6.074
   15SOL     OW  943   1.644   6.010   0.251
   15SOL    HW1  944   1.560   6.050   0.215
   15SOL    HW2  945   1.676   5.938   0.190
   16SOL     OW  946   6.362   2.079   5.718
   16SOL    HW1  947   6.335   2.174   5.707
   16SOL    HW2  948   6.308   2.022   5.657
   17SOL     OW  949   5.336   6.389   4.556
   17SOL    HW1  950   5.284   6.304   4.564
   17SOL    HW2  951   5.429   6.375   4.590
   18SOL     OW  952   3.071   2.310   6.680
   18SOL    HW1  953   3.155   2.287   6.730
   18SOL    HW2  954   3.093   2.324   6.583
   19SOL     OW  955   0.503   6.494   3.596
   19SOL    HW1  956   0.555   6.469   3.678
   19SOL    HW2  957   0.565   6.495   3.517
   20SOL     OW  958   3.005   0.640   4.422
   20SOL    HW1  959   2.917   0.598   4.398
   20SOL    HW2  960   3.069   0.630   4.346
   21SOL     OW  961   2.829   1.962   2.599
   21SOL    HW1  962   2.925   1.960   2.572
   21SOL    HW2  963   2.772   1.932   2.523
   22SOL     OW  964   1.873   0.504   0.067
   22SOL    HW1  965   1.811   0.538   7.016
   22SOL    HW2  966   1.966   0.500   0.030
   23SOL     OW  967   4.287   6.965   3.434
   23SOL    HW1  968   4.295   0.043   3.414
   23SOL    HW2  969   4.376   6.921   3.423
   24SOL     OW  970   5.211   1.072   4.420
   24SOL    HW1  971   5.204   1.018   4.337
   24SOL    HW2  972   5.270   1.151   4.405
   25SOL     OW  973   3.099   5.765   6.217
   25SOL    HW1  974   3.160   5.774   6.138
   25SOL    HW2  975   3.147   5.715   6.290
   26SOL     OW  976   5.857   1.317   1.305
   26SOL    HW1  977   5.849   1.413   1.279
   26SOL    HW2  978   5.885   1.263   1.226
   27SOL     OW  979   0.167   0.721   2.231
   27SOL    HW1  980   0.121   0.727   2.320
   27SOL    HW2  981   0.098   0.718   2.159
   28SOL     OW  982   4.670   0.719   6.982
   28SOL    HW1  983   4.610   0.772   6.923
   28SOL    HW2  984   4.757   0.768   6.993
   29SOL     OW  985   4.887   2.556   2.094
   29SOL    HW1  986   4.981   2.589   2.081
   29SOL    HW2  987   4.878   2.517   2.185
   30SOL     OW  988   3.057   6.822   5.757
   30SOL    HW1  989   3.054   6.917   5.725
   30SOL    HW2  990   3.017   6.762   5.687
   31SOL     OW  991   0.773   1.395   5.662
   31SOL    HW1  992   0.774   1.493   5.679
   31SOL    HW2  993   0.798   1.347   5.747
   32SOL     OW  994   0.221   2.536   3.028
   32SOL    HW1  995   0.245   2.594   3.106
   32SOL    HW2  996   0.156   2.583   2.969
   33SOL     OW  997   1.956   2.721   6.257
   33SOL    HW1  998   1.888   2.653   6.284
   33SOL    HW2  999   2.027   2.677   6.203
   34SOL     OW 1000   1.571   0.531   4.649
   34SOL    HW1 1001   1.572   0.574   4.740
   34SOL    HW2 1002   1.596   0.600   4.580
   35SOL     OW 1003   4.415   2.704   6.279
   35SOL    HW1 1004   4.450   2.694   6.186
   35SOL    HW2 1005   4.317   2.682   6.280
   36SOL     OW 1006   0.796   0.664   6.198
   36SOL    HW1 1007   0.744   0.749   6.205
   36SOL    HW2 1008   0.759   0.607   6.125
   37SOL     OW 1009   2.478   6.917   0.940
   37SOL    HW1 1010   2.516   6.844   0.997
   37SOL    HW2 1011   2.445   6.878   0.854
   38SOL     OW 1012   0.445   5.890   2.985
   38SOL    HW1 1013   0.438   5.925   3.078
   38SOL    HW2 1014   0.424   5.962   2.919
   39SOL     OW 1015   6.680   3.834   6.095
   39SOL    HW1 1016   6.624   3.751   6.098
   39SOL    HW2 1017   6.642   3.902   6.158
   40SOL     OW 1018   6.427   2.554   2.315
   40SOL    HW1 1019   6.350   2.572   2.254
   40SOL    HW2 1020   6.410   2.593   2.405
   41SOL     OW 1021   1.347   6.599   4.294
   41SOL    HW1 1022   1.341   6.652   4.378
   41SOL    HW2 1023   1.325   6.503   4.313
   42SOL     OW 1024   2.863   6.837   6.187
   42SOL    HW1 1025   2.888   6.756   6.135
   42SOL    HW2 1026   2.871   6.918   6.129
   43SOL     OW 1027   5.727   5.798   5.954
   43SOL    HW1 1028   5.781   5.865   6.004
   43SOL    HW2 1029   5.663   5.752   6.017
   44SOL     OW 1030   6.866   2.626   6.233
   44SOL    HW1 1031   6.837   2.543   6.280
   44SOL    HW2 1032   6.938   2.603   6.167
   45SOL     OW 1033   3.419   0.377   2.975
   45SOL    HW1 1034   3.406   0.318   3.055
   45SOL    HW2 1035   3.517   0.396   2.964
   46SOL     OW 1036   0.725   3.992   4.284
   46SOL    HW1 1037   0.668   3.920   4.244
   46SOL    HW2 1038   0.815   3.991   4.241
   47SOL     OW 1039   5.821   3.165   3.679
   47SOL    HW1 1040   5.797   3.239   3.741
   47SOL    HW2 1041   5.919   3.171   3.656
   48SOL     OW 1042   0.990   2.434   4.665
   48SOL    HW1 1043   0.990   2.532   4.644
   48SOL    HW2 1044   1.036   2.384   4.591
   49SOL     OW 1045   4.640   4.058   1.687
   49SOL    HW1 1046   4.589   4.109   1.756
   49SOL    HW2 1047   4.724   4.021   1.728
   50SOL     OW 1048   6.642   2.629   4.907
   50SOL    HW1 1049   6.650   2.534   4.937
   50SOL    HW2 1050   6.701   2.687   4.964
   51SOL     OW 1051   2.840   5.446   2.820
   51SOL    HW1 1052   2.898   5.496   2.756
   51SOL    HW2 1053   2.827   5.500   2.903
   52SOL     OW 1054   4.205   1.651   3.623
   52SOL    HW1 1055   4.188   1.737   3.574
   52SOL    HW2 1056   4.160   1.655   3.713
   53SOL     OW 1057   4.183   0.593   3.772
   53SOL    HW1 1058   4.197   0.586   3.673
   53SOL    HW2 1059   4.265   0.561   3.820
   54SOL     OW 1060   3.008   5.206   6.446
   54SOL    HW1 1061   2.954   5.188   6.528
   54SOL    HW2 1062   2.947   5.209   6.366
   55SOL     OW 1063   3.637   1.339   6.204
   55SOL    HW1 1064   3.670   1.394   6.280
   55SOL    HW2 1065   3.599   1.253   6.239
   56SOL     OW 1066   1.699   0.774   1.608
   56SOL    HW1 1067   1.764   0.759   1.533
   56SOL    HW2 1068   1.697   0.692   1.666
   57SOL     OW 1069   5.185   0.459   0.622
   57SOL    HW1 1070   5.138   0.382   0.665
   57SOL    HW2 1071   5.271   0.477   0.671
   58SOL     OW 1072   0.474   5.486   6.248
   58SOL    HW1 1073   0.445   5.411   6.308
   58SOL    HW2 1074   0.409   5.561   6.255
   59SOL     OW 1075   1.705   1.116   6.285
   59SOL    HW1 1076   1.798   1.117   6.321
   59SOL    HW2 1077   1.662   1.028   6.303
   60SOL     OW 1078   5.134   0.844   5.831
   60SOL    HW1 1079   5.107   0.844   5.735
   60SOL    HW2 1080   5.116   0.934   5.870
   61SOL     OW 1081   5.049   1.088   3.966
   61SOL    HW1 1082   4.961   1.048   3.940
   61SOL    HW2 1083   5.098   1.115   3.883
   62SOL     OW 1084   0.632   1.114   3.875
   62SOL    HW1 1085   0.569   1.173   3.926
   62SOL    HW2 1086   0.597   1.099   3.783
   63SOL     OW 1087   6.462   1.690   3.842
   63SOL    HW1 1088   6.526   1.765   3.830
   63SOL    HW2 1089   6.409   1.677   3.758
   64SOL     OW 1090   6.795   3.783   6.575
   64SOL    HW1 1091   6.804   3.862   6.636
   64SOL    HW2 1092   6.882   3.733   6.572
   65SOL     OW 1093   6.365   4.235   5.303
   65SOL    HW1 1094   6.432   4.162   5.313
   65SOL    HW2 1095   6.349   4.278   5.392
   66SOL     OW 1096   3.382   0.751   6.740
   66SOL    HW1 1097   3.372   0.817   6.815
   66SOL    HW2 1098   3.302   0.691   6.737
   67SOL     OW 1099   5.705   5.796   5.332
   67SOL    HW1 1100   5.704   5.773   5.429
   67SOL    HW2 1101   5.793   5.769   5.292
   68SOL     OW 1102   6.266   0.961   6.672
   68SOL    HW1 1103   6.359   0.941   6.643
   68SOL    HW2 1104   6.245   1.057   6.653
   69SOL     OW 1105   1.545   4.156   6.321
   69SOL    HW1 1106   1.544   4.254   6.342
   69SOL    HW2 1107   1.503   4.142   6.231
   70SOL     OW 1108   6.446   5.823   2.985
   70SOL    HW1 1109   6.370   5.851   3.043
   70SOL    HW2 1110   6.485   5.902   2.939
   71SOL     OW 1111   2.951   2.152   3.173
   71SOL    HW1 1112   2.963   2.107   3.084
   71SOL    HW2 1113   2.904   2.239   3.161
   72SOL     OW 1114   2.715   6.234   4.621
   72SOL    HW1 1115   2.801   6.193   4.653
   72SOL    HW2 1116   2.709   6.328   4.653
   73SOL     OW 1117   3.225   2.101   6.968
   73SOL    HW1 1118   3.257   2.192   6.993
   73SOL    HW2 1119   3.177   2.060   0.026
   74SOL     OW 1120   5.164   6.635   0.299
   74SOL    HW1 1121   5.216   6.701   0.244
   74SOL    HW2 1122   5.088   6.600   0.244
   75SOL     OW 1123   3.669   5.395   5.410
   75SOL    HW1 1124   3.712   5.485   5.405
   75SOL    HW2 1125   3.732   5.331   5.454
   76SOL     OW 1126   1.594   2.810   1.147
   76SOL    HW1 1127   1.693   2.800   1.157
   76SOL    HW2 1128   1.551   2.801   1.237
   77SOL     OW 1129   4.973   5.460   4.378
   77SOL    HW1 1130   4.913   5.469   4.298
   77SOL    HW2 1131   4.940   5.385   4.435
   78SOL     OW 1132   6.818   6.317   5.993
   78SOL    HW1 1133   6.836   6.400   6.045
   78SOL    HW2 1134   6.719   6.302   5.988
   79SOL     OW 1135   2.752   6.922   0.348
   79SOL    HW1 1136   2.843   6.882   0.339
   79SOL    HW2 1137   2.688   6.874   0.286
   80SOL     OW 1138   5.970   0.714   4.391
   80SOL    HW1 1139   5.995   0.750   4.481
   80SOL    HW2 1140   5.961   0.790   4.326
   81SOL     OW 1141   2.212   0.322   2.733
   81SOL    HW1 1142   2.249   0.335   2.642
   81SOL    HW2 1143   2.117   0.353   2.735
   82SOL     OW 1144   6.826   5.196   0.177
   82SOL    HW1 1145   6.856   5.102   0.157
   82SOL    HW2 1146   6.754   5.194   0.247
   83SOL     OW 1147   6.608   7.002   0.892
   83SOL    HW1 1148   6.591   6.953   0.806
   83SOL    HW2 1149   6.541   0.055   0.902
   84SOL     OW 1150   5.097   3.609   3.048
   84SOL    HW1 1151   5.180   3.598   2.994
   84SOL    HW2 1152   5.033   3.535   3.027
   85SOL     OW 1153   0.533   1.802   5.248
   85SOL    HW1 1154   0.459   1.845   5.197
   85SOL    HW2 1155   0.615   1.797   5.191
   86SOL     OW 1156   0.838   0.562   5.862
   86SOL    HW1 1157   0.927   0.529   5.893
   86SOL    HW2 1158   0.766   0.513   5.910
   87SOL     OW 1159   4.654   2.811   0.579
   87SOL    HW1 1160   4.639   2.766   0.667
   87SOL    HW2 1161   4.575   2.796   0.520
   88SOL     OW 1162   4.760   1.934   0.233
   88SOL    HW1 1163   4.795   1.946   0.140
   88SOL    HW2 1164   4.667   1.898   0.229
   89SOL     OW 1165   1.851   2.844   6.710
   89SOL    HW1 1166   1.766   2.872   6.754
   89SOL    HW2 1167   1.903   2.924   6.682
   90SOL     OW 1168   4.667   0.168   3.838
   90SOL    HW1 1169   4.656   0.073   3.867
   90SOL    HW2 1170   4.592   0.194   3.778
   91SOL     OW 1171   4.696   4.415   4.323
   91SOL    HW1 1172   4.769   4.422   4.254
   91SOL    HW2 1173   4.642   4.498   4.323
   92SOL     OW 1174   2.987   4.977   0.620
   92SOL    HW1 1175   3.078   4.952   0.653
   92SOL    HW2 1176   2.955   4.907   0.556
   93SOL     OW 1177   2.340   4.223   6.199
   93SOL    HW1 1178   2.352   4.299   6.137
   93SOL    HW2 1179   2.242   4.201   6.208
   94SOL     OW 1180   2.511   5.717   6.636
   94SOL    HW1 1181   2.602   5.703   6.596
   94SOL    HW2 1182   2.446   5.741   6.564
   95SOL     OW 1183   0.813   2.224   3.442
   95SOL    HW1 1184   0.782   2.130   3.457
   95SOL    HW2 1185   0.776   2.258   3.355
   96SOL     OW 1186   2.912   0.017   6.018
   96SOL    HW1 1187   2.882   0.110   6.037
   96SOL    HW2 1188   3.006   0.018   5.983
   97SOL     OW 1189   6.938   4.081   5.448
   97SOL    HW1 1190   6.982   4.042   5.368
   97SOL    HW2 1191   6.932   4.011   5.520
   98SOL     OW 1192   6.543   3.633   6.873
   98SOL    HW1 1193   6.513   3.727   6.857
   98SOL    HW2 1194   6.634   3.634   6.915
   99SOL     OW 1195   4.529   3.657   1.365
   99SOL    HW1 1196   4.603   3.590   1.366
   99SOL    HW2 1197   4.441   3.610   1.366
  100SOL     OW 1198   0.552   6.845   6.060
  100SOL    HW1 1199   0.507   6.822   6.146
  100SOL    HW2 1200   0.514   6.931   6.024
  101SOL     OW 1201   1.092   5.737   2.159
  101SOL    HW1 1202   1.092   5.822   2.212
  101SOL    HW2 1203   1.076   5.758   2.062
  102SOL     OW 1204   4.866   1.099   2.279
  102SOL    HW1 1205   4.769   1.114   2.297
  102SOL    HW2 1206   4.915   1.185   2.293
  103SOL     OW 1207   4.283   1.452   1.968
  103SOL    HW1 1208   4.204   1.404   2.006
  103SOL    HW2 1209   4.256   1.500   1.884
  104SOL     OW 1210   0.110   5.567   2.513
  104SOL    HW1 1211   0.174   5.493   2.535
  104SOL    HW2 1212   0.095   5.569   2.414
  105SOL     OW 1213   6.356   1.701   6.681
  105SOL    HW1 1214   6.302   1.621   6.705
  105SOL    HW2 1215   6.415   1.726   6.758
  106SOL     OW 1216   3.175   6.919   6.076
  106SOL    HW1 1217   3.187   6.827   6.112
  106SOL    HW2 1218   3.117   6.972   6.139
  107SOL     OW 1219   1.835   2.265   1.655
  107SOL    HW1 1220   1.778   2.340   1.690
  107SOL    HW2 1221   1.836   2.190   1.721
  108SOL     OW 1222   5.128   4.553   6.664
  108SOL    HW1 1223   5.049   4.547   6.603
  108SOL    HW2 1224   5.138   4.468   6.715
  109SOL     OW 1225   0.463   0.373   1.131
  109SOL    HW1 1226   0.475   0.452   1.070
  109SOL    HW2 1227   0.548   0.355   1.179
  110SOL     OW 1228   4.075   6.353   5.596
  110SOL    HW1 1229   4.089   6.373   5.499
  110SOL    HW2 1230   4.030   6.431   5.640
  111SOL     OW 1231   3.787   0.648   4.523
  111SOL    HW1 1232   3.757   0.739   4.496
  111SOL    HW2 1233   3.886   0.647   4.533
  112SOL     OW 1234   6.240   5.958   6.286
  112SOL    HW1 1235   6.218   5.970   6.383
  112SOL    HW2 1236   6.164   5.913   6.240
  113SOL     OW 1237   6.818   5.011   3.297
  113SOL    HW1 1238   6.806   4.912   3.296
  113SOL    HW2 1239   6.859   5.041   3.211
  114SOL     OW 1240   0.945   0.014   0.553
  114SOL    HW1 1241   0.940   6.973   0.475
  114SOL    HW2 1242   0.940   6.981   0.638
  115SOL     OW 1243   4.645   1.187   4.157
  115SOL    HW1 1244   4.633   1.116   4.226
  115SOL    HW2 1245   4.594   1.269   4.184
  116SOL     OW 1246   6.063   5.609   2.461
  116SOL    HW1 1247   6.148   5.564   2.438
  116SOL    HW2 1248   6.059   5.626   2.560
  117SOL     OW 1249   0.562   1.389   6.472
  117SOL    HW1 1250   0.487   1.353   6.416
  117SOL    HW2 1251   0.643   1.402   6.415
  118SOL     OW 1252   0.149   1.696   2.267
  118SOL    HW1 1253   0.190   1.615   2.310
  118SOL    HW2 1254   0.190   1.710   2.177
  119SOL     OW 1255   0.954   2.495   6.721
  119SOL    HW1 1256   0.975   2.420   6.658
  119SOL    HW2 1257   1.015   2.572   6.702
  120SOL     OW 1258   0.059   6.468   0.889
  120SOL    HW1 1259   7.017   6.476   0.967
  120SOL    HW2 1260   0.081   6.559   0.854
  121SOL     OW 1261   2.726   3.472   0.362
  121SOL    HW1 1262   2.671   3.389   0.351
  121SOL    HW2 1263   2.709   3.533   0.286
  122SOL     OW 1264   1.469   4.510   6.016
  122SOL    HW1 1265   1.566   4.530   6.003
  122SOL    HW2 1266   1.455   4.411   6.016
  123SOL     OW 1267   0.333   1.916   1.615
  123SOL    HW1 1268   0.248   1.869   1.591
  123SOL    HW2 1269   0.409   1.875   1.564
  124SOL     OW 1270   5.367   3.334   0.342
  124SOL    HW1 1271   5.401   3.409   0.398
  124SOL    HW2 1272   5.348   3.367   0.249
  125SOL     OW 1273   2.284   1.617   2.323
  125SOL    HW1 1274   2.270   1.604   2.421
  125SOL    HW2 1275   2.251   1.708   2.296
  126SOL     OW 1276   2.845   5.206   0.670
  126SOL    HW1 1277   2.901   5.123   0.676
  126SOL    HW2 1278   2.749   5.182   0.682
  127SOL     OW 1279   0.076   4.649   6.085
  127SOL    HW1 1280   0.056   4.601   6.000
  127SOL    HW2 1281   0.171   4.633   6.111
  128SOL     OW 1282   4.411   2.866   1.255
  128SOL    HW1 1283   4.476   2.881   1.330
  128SOL    HW2 1284   4.394   2.952   1.208
  129SOL     OW 1285   4.476   3.941   5.723
  129SOL    HW1 1286   4.530   4.022   5.746
  129SOL    HW2 1287   4.535   3.873   5.679
  130SOL     OW 1288   0.829   0.966   4.290
  130SOL    HW1 1289   0.795   0.943   4.381
  130SOL    HW2 1290   0.907   0.906   4.268
  131SOL     OW 1291   5.002   0.866   2.449
  131SOL    HW1 1292   4.929   0.928   2.420
  131SOL    HW2 1293   4.963   0.778   2.475
  132SOL     OW 1294   1.868   2.928   0.848
  132SOL    HW1 1295   1.920   2.927   0.934
  132SOL    HW2 1296   1.783   2.980   0.861
  133SOL     OW 1297   5.535   6.786   3.204
  133SOL    HW1 1298   5.559   6.690   3.191
  133SOL    HW2 1299   5.448   6.805   3.160
  134SOL     OW 1300   5.746   2.315   3.258
  134SOL    HW1 1301   5.815   2.379   3.292
  134SOL    HW2 1302   5.672   2.308   3.324
  135SOL     OW 1303   5.143   2.948   2.252
  135SOL    HW1 1304   5.055   2.982   2.222
  135SOL    HW2 1305   5.206   2.942   2.174
  136SOL     OW 1306   4.546   3.909   6.854
  136SOL    HW1 1307   4.638   3.916   6.895
  136SOL    HW2 1308   4.483   3.969   6.903
  137SOL     OW 1309   4.316   0.150   5.300
  137SOL    HW1 1310   4.308   0.055   5.269
  137SOL    HW2 1311   4.343   0.151   5.397
  138SOL     OW 1312   0.409   5.009   4.224
  138SOL    HW1 1313   0.365   5.098   4.218
  138SOL    HW2 1314   0.449   4.997   4.315
  139SOL     OW 1315   2.289   6.247   5.163
  139SOL    HW1 1316   2.325   6.155   5.172
  139SOL    HW2 1317   2.304   6.280   5.070
  140SOL     OW 1318   6.912   6.049   3.624
  140SOL    HW1 1319   6.891   5.991   3.703
  140SOL    HW2 1320   6.976   6.001   3.565
  141SOL     OW 1321   0.105   1.762   5.237
  141SOL    HW1 1322   0.112   1.831   5.164
  141SOL    HW2 1323   0.079   1.674   5.196
  142SOL     OW 1324   1.737   6.023   0.883
  142SOL    HW1 1325   1.712   6.111   0.842
  142SOL    HW2 1326   1.816   5.985   0.834
  143SOL     OW 1327   5.174   4.649   2.232
  143SOL    HW1 1328   5.165   4.613   2.139
  143SOL    HW2 1329   5.266   4.629   2.266
  144SOL     OW 1330   1.566   6.838   5.990
  144SOL    HW1 1331   1.526   6.747   5.985
  144SOL    HW2 1332   1.624   6.853   5.910
  145SOL     OW 1333   0.839   4.789   0.726
  145SOL    HW1 1334   0.828   4.757   0.632
  145SOL    HW2 1335   0.750   4.790   0.771
  146SOL     OW 1336   4.476   6.712   5.951
  146SOL    HW1 1337   4.435   6.804   5.952
  146SOL    HW2 1338   4.406   6.644   5.972
  147SOL     OW 1339   6.235   2.843   0.016
  147SOL    HW1 1340   6.318   2.893   0.039
  147SOL    HW2 1341   6.230   2.830   6.937
  148SOL     OW 1342   0.627   5.146   6.071
  148SOL    HW1 1343   0.625   5.064   6.014
  148SOL    HW2 1344   0.574   5.130   6.154
  149SOL     OW 1345   2.876   1.505   4.171
  149SOL    HW1 1346   2.823   1.420   4.171
  149SOL    HW2 1347   2.818   1.580   4.202
  150SOL     OW 1348   6.275   5.017   6.211
  150SOL    HW1 1349   6.223   4.989   6.130
  150SOL    HW2 1350   6.300   5.113   6.203
  151SOL     OW 1351   3.686   2.226   1.312
  151SOL    HW1 1352   3.758   2.178   1.262
  151SOL    HW2 1353   3.597   2.196   1.279
  152SOL     OW 1354   1.815   1.191   4.291
  152SOL    HW1 1355   1.892   1.208   4.353
  152SOL    HW2 1356   1.735   1.243   4.322
  153SOL     OW 1357   2.685   0.136   1.897
  153SOL    HW1 1358   2.683   0.225   1.851
  153SOL    HW2 1359   2.593   0.095   1.894
  154SOL     OW 1360   0.286   3.304   2.833
  154SOL    HW1 1361   0.231   3.311   2.917
  154SOL    HW2 1362   0.290   3.209   2.805
  155SOL     OW 1363   0.680   1.367   3.572
  155SOL    HW1 1364   0.703   1.395   3.665
  155SOL    HW2 1365   0.665   1.447   3.515
  156SOL     OW 1366   6.744   2.009   1.572
  156SOL    HW1 1367   6.720   2.027   1.477
  156SOL    HW2 1368   6.784   1.918   1.580
  157SOL     OW 1369   5.946   3.349   1.912
  157SOL    HW1 1370   5.972   3.255   1.888
  157SOL    HW2 1371   6.027   3.408   1.910
  158SOL     OW 1372   2.541   6.915   2.323
  158SOL    HW1 1373   2.595   6.832   2.337
  158SOL    HW2 1374   2.577   6.966   2.245
  159SOL     OW 1375   4.890   4.660   1.082
  159SOL    HW1 1376   4.877   4.733   1.015
  159SOL    HW2 1377   4.802   4.614   1.098
  160SOL     OW 1378   0.250   4.543   6.602
  160SOL    HW1 1379   0.326   4.597   6.640
  160SOL    HW2 1380   0.283   4.487   6.527
  161SOL     OW 1381   1.966   4.907   4.590
  161SOL    HW1 1382   1.891   4.899   4.656
  161SOL    HW2 1383   1.979   5.003   4.565
  162SOL     OW 1384   4.357   6.520   0.263
  162SOL    HW1 1385   4.432   6.575   0.227
  162SOL    HW2 1386   4.281   6.519   0.197
  163SOL     OW 1387   4.872   5.794   1.364
  163SOL    HW1 1388   4.842   5.718   1.422
  163SOL    HW2 1389   4.885   5.875   1.421
  164SOL     OW 1390   0.212   3.846   1.699
  164SOL    HW1 1391   0.175   3.801   1.618
  164SOL    HW2 1392   0.136   3.881   1.755
  165SOL     OW 1393   5.166   3.153   1.161
  165SOL    HW1 1394   5.147   3.073   1.105
  165SOL    HW2 1395   5.138   3.236   1.111
  166SOL     OW 1396   0.046   5.401   3.412
  166SOL    HW1 1397   7.014   5.480   3.379
  166SOL    HW2 1398   7.004   5.339   3.460
  167SOL     OW 1399   6.052   2.092   0.369
  167SOL    HW1 1400   6.112   2.133   0.438
  167SOL    HW2 1401   5.970   2.148   0.359
  168SOL     OW 1402   2.997   3.498   1.046
  168SOL    HW1 1403   3.080   3.512   1.100
  168SOL    HW2 1404   2.922   3.552   1.085
  169SOL     OW 1405   3.548   0.055   2.134
  169SOL    HW1 1406   3.487   7.008   2.093
  169SOL    HW2 1407   3.495   0.127   2.178
  170SOL     OW 1408   0.544   1.821   3.657
  170SOL    HW1 1409   0.528   1.782   3.566
  170SOL    HW2 1410   0.490   1.772   3.725
  171SOL     OW 1411   3.615   4.023   0.345
  171SOL    HW1 1412   3.528   4.071   0.339
  171SOL    HW2 1413   3.628   3.988   0.438
  172SOL     OW 1414   5.930   1.233   4.562
  172SOL    HW1 1415   5.845   1.180   4.551
  172SOL    HW2 1416   5.922   1.292   4.643
  173SOL     OW 1417   6.130   0.662   4.833
  173SOL    HW1 1418   6.222   0.645   4.867
  173SOL    HW2 1419   6.080   0.576   4.826
  174SOL     OW 1420   2.798   5.714   3.801
  174SOL    HW1 1421   2.860   5.635   3.799
  174SOL    HW2 1422   2.703   5.683   3.799
  175SOL     OW 1423   2.055   0.003   1.905
  175SOL    HW1 1424   2.052   7.006   2.004
  175SOL    HW2 1425   2.123   6.962   1.863
  176SOL     OW 1426   1.844   3.929   0.525
  176SOL    HW1 1427   1.756   3.885   0.510
  176SOL    HW2 1428   1.845   3.971   0.616
  177SOL     OW 1429   5.484   2.988   2.826
  177SOL    HW1 1430   5.517   2.986   2.732
  177SOL    HW2 1431   5.389   2.956   2.829
  178SOL     OW 1432   4.927   3.581   6.094
  178SOL    HW1 1433   5.023   3.562   6.113
  178SOL    HW2 1434   4.910   3.679   6.101
  179SOL     OW 1435   3.372   1.649   6.173
  179SOL    HW1 1436   3.359   1.748   6.176
  179SOL    HW2 1437   3.355   1.610   6.264
  180SOL     OW 1438   1.366   0.857   6.433
  180SOL    HW1 1439   1.409   0.795   6.498
  180SOL    HW2 1440   1.319   0.930   6.482
  181SOL     OW 1441   3.571   1.485   6.947
  181SOL    HW1 1442   3.524   1.564   6.987
  181SOL    HW2 1443   3.604   1.426   0.000
  182SOL     OW 1444   4.106   2.263   4.722
  182SOL    HW1 1445   4.156   2.197   4.778
  182SOL    HW2 1446   4.151   2.352   4.728
  183SOL     OW 1447   3.705   0.997   3.415
  183SOL    HW1 1448   3.683   1.083   3.369
  183SOL    HW2 1449   3.794   1.005   3.461
  184SOL     OW 1450   1.733   5.682   3.598
  184SOL    HW1 1451   1.781   5.734   3.527
  184SOL    HW2 1452   1.667   5.741   3.644
  185SOL     OW 1453   1.619   2.782   6.380
  185SOL    HW1 1454   1.554   2.774   6.305
  185SOL    HW2 1455   1.575   2.758   6.466
  186SOL     OW 1456   6.671   1.066   3.743
  186SOL    HW1 1457   6.729   1.059   3.662
  186SOL    HW2 1458   6.710   1.131   3.807
  187SOL     OW 1459   4.810   1.248   3.067
  187SOL    HW1 1460   4.796   1.282   3.160
  187SOL    HW2 1461   4.908   1.250   3.046
  188SOL     OW 1462   5.835   2.444   3.021
  188SOL    HW1 1463   5.884   2.362   2.992
  188SOL    HW2 1464   5.767   2.419   3.091
  189SOL     OW 1465   1.828   5.410   2.829
  189SOL    HW1 1466   1.737   5.371   2.841
  189SOL    HW2 1467   1.891   5.369   2.895
  190SOL     OW 1468   3.929   1.535   4.896
  190SOL    HW1 1469   3.900   1.593   4.972
  190SOL    HW2 1470   3.860   1.465   4.878
  191SOL     OW 1471   5.899   5.587   6.301
  191SOL    HW1 1472   5.871   5.634   6.385
  191SOL    HW2 1473   5.932   5.495   6.325
  192SOL     OW 1474   0.282   6.470   2.207
  192SOL    HW1 1475   0.186   6.498   2.218
  192SOL    HW2 1476   0.286   6.381   2.162
  193SOL     OW 1477   5.027   2.802   5.874
  193SOL    HW1 1478   4.979   2.737   5.933
  193SOL    HW2 1479   4.996   2.895   5.895
  194SOL     OW 1480   3.515   0.764   3.013
  194SOL    HW1 1481   3.527   0.772   3.112
  194SOL    HW2 1482   3.427   0.805   2.987
  195SOL     OW 1483   1.776   6.133   3.767
  195SOL    HW1 1484   1.735   6.135   3.676
  195SOL    HW2 1485   1.712   6.093   3.832
  196SOL     OW 1486   2.151   2.868   6.632
  196SOL    HW1 1487   2.208   2.845   6.711
  196SOL    HW2 1488   2.176   2.810   6.554
  197SOL     OW 1489   2.541   1.419   1.125
  197SOL    HW1 1490   2.605   1.475   1.073
  197SOL    HW2 1491   2.502   1.473   1.199
  198SOL     OW 1492   4.442   1.215   3.229
  198SOL    HW1 1493   4.351   1.181   3.204
  198SOL    HW2 1494   4.437   1.313   3.246
  199SOL     OW 1495   1.169   2.784   3.838
  199SOL    HW1 1496   1.195   2.880   3.828
  199SOL    HW2 1497   1.094   2.763   3.776
  200SOL     OW 1498   0.608   2.690   1.092
  200SOL    HW1 1499   0.510   2.710   1.094
  200SOL    HW2 1500   0.656   2.766   1.049
  201SOL     OW 1501   0.450   0.066   5.959
  201SOL    HW1 1502   0.388   0.144   5.958
  201SOL    HW2 1503   0.507   0.068   5.877
  202SOL     OW 1504   4.422   1.103   6.824
  202SOL    HW1 1505   4.427   1.004   6.828
  202SOL    HW2 1506   4.356   1.131   6.754
  203SOL     OW 1507   5.968   2.091   5.624
  203SOL    HW1 1508   5.967   2.143   5.538
  203SOL    HW2 1509   5.916   2.007   5.612
  204SOL     OW 1510   0.559   0.183   5.510
  204SOL    HW1 1511   0.597   0.093   5.533
  204SOL    HW2 1512   0.616   0.254   5.551
  205SOL     OW 1513   1.622   2.247   3.158
  205SOL    HW1 1514   1.542   2.276   3.210
  205SOL    HW2 1515   1.668   2.327   3.120
  206SOL     OW 1516   0.842   2.971   1.506
  206SOL    HW1 1517   0.746   2.967   1.479
  206SOL    HW2 1518   0.855   2.925   1.593
  207SOL     OW 1519   5.087   1.289   3.078
  207SOL    HW1 1520   5.147   1.291   3.158
  207SOL    HW2 1521   5.135   1.332   3.000
  208SOL     OW 1522   6.988   4.492   5.495
  208SOL    HW1 1523   6.956   4.418   5.554
  208SOL    HW2 1524   6.996   4.460   5.401
  209SOL     OW 1525   6.398   4.351   2.735
  209SOL    HW1 1526   6.475   4.306   2.691
  209SOL    HW2 1527   6.347   4.404   2.667
  210SOL     OW 1528   4.005   1.919   0.381
  210SOL    HW1 1529   4.060   1.840   0.409
  210SOL    HW2 1530   4.015   1.992   0.448
  211SOL     OW 1531   0.703   0.123   2.525
  211SOL    HW1 1532   0.794   0.163   2.515
  211SOL    HW2 1533   0.637   0.179   2.475
  212SOL     OW 1534   1.563   3.770   2.814
  212SOL    HW1 1535   1.647   3.792   2.764
  212SOL    HW2 1536   1.521   3.688   2.776
  213SOL     OW 1537   1.987   5.535   0.811
  213SOL    HW1 1538   1.953   5.456   0.863
  213SOL    HW2 1539   1.922   5.556   0.738
  214SOL     OW 1540   3.895   4.816   2.430
  214SOL    HW1 1541   3.798   4.838   2.422
  214SOL    HW2 1542   3.930   4.786   2.341
  215SOL     OW 1543   2.391   4.489   1.206
  215SOL    HW1 1544   2.343   4.576   1.197
  215SOL    HW2 1545   2.481   4.503   1.247
  216SOL     OW 1546   0.822   6.955   2.905
  216SOL    HW1 1547   0.872   6.962   2.991
  216SOL    HW2 1548   0.747   6.890   2.915
  217SOL     OW 1549   1.083   2.619   5.023
  217SOL    HW1 1550   1.070   2.616   5.122
  217SOL    HW2 1551   1.032   2.545   4.980
  218SOL     OW 1552   0.672   1.961   4.674
  218SOL    HW1 1553   0.660   1.923   4.582
  218SOL    HW2 1554   0.740   2.034   4.671
  219SOL     OW 1555   4.543   0.682   0.653
  219SOL    HW1 1556   4.449   0.663   0.625
  219SOL    HW2 1557   4.600   0.602   0.635
  220SOL     OW 1558   2.642   7.010   1.168
  220SOL    HW1 1559   2.603   7.002   1.077
  220SOL    HW2 1560   2.621   0.081   1.205
  221SOL     OW 1561   6.299   4.386   1.618
  221SOL    HW1 1562   6.260   4.335   1.541
  221SOL    HW2 1563   6.246   4.470   1.632
  222SOL     OW 1564   1.643   4.331   6.752
  222SOL    HW1 1565   1.732   4.319   6.709
  222SOL    HW2 1566   1.602   4.242   6.769
  223SOL     OW 1567   0.043   2.759   4.831
  223SOL    HW1 1568   6.997   2.729   4.899
  223SOL    HW2 1569   7.018   2.770   4.742
  224SOL     OW 1570   3.400   2.131   6.205
  224SOL    HW1 1571   3.389   2.115   6.304
  224SOL    HW2 1572   3.377   2.047   6.156
  225SOL     OW 1573   4.259   3.393   6.239
  225SOL    HW1 1574   4.304   3.397   6.329
  225SOL    HW2 1575   4.327   3.412   6.168
  226SOL     OW 1576   0.770   1.706   6.257
  226SOL    HW1 1577   0.753   1.700   6.355
  226SOL    HW2 1578   0.841   1.774   6.239
  227SOL     OW 1579   2.406   4.367   2.691
  227SOL    HW1 1580   2.383   4.273   2.668
  227SOL    HW2 1581   2.444   4.413   2.610
  228SOL     OW 1582   2.018   0.915   2.971
  228SOL    HW1 1583   1.962   0.988   3.010
  228SOL    HW2 1584   2.004   0.830   3.021
  229SOL     OW 1585   5.310   4.966   6.411
  229SOL    HW1 1586   5.365   4.903   6.466
  229SOL    HW2 1587   5.335   5.060   6.435
  230SOL     OW 1588   4.399   5.985   4.664
  230SOL    HW1 1589   4.444   5.895   4.660
  230SOL    HW2 1590   4.301   5.974   4.646
  231SOL     OW 1591   5.609   0.867   0.000
  231SOL    HW1 1592   5.616   0.822   0.089
  231SOL    HW2 1593   5.601   0.966   0.014
  232SOL     OW 1594   6.945   2.837   6.393
  232SOL    HW1 1595   6.895   2.766   6.345
  232SOL    HW2 1596   6.895   2.864   6.475
  233SOL     OW 1597   3.601   1.853   3.831
  233SOL    HW1 1598   3.550   1.939   3.841
  233SOL    HW2 1599   3.575   1.809   3.746
  234SOL     OW 1600   6.223   0.740   6.421
  234SOL    HW1 1601   6.280   0.674   6.470
  234SOL    HW2 1602   6.151   0.774   6.482
  235SOL     OW 1603   5.345   3.254   2.458
  235SOL    HW1 1604   5.303   3.326   2.403
  235SOL    HW2 1605   5.433   3.286   2.494
  236SOL     OW 1606   5.265   3.099   0.162
  236SOL    HW1 1607   5.290   3.086   0.066
  236SOL    HW2 1608   5.348   3.099   0.219
  237SOL     OW 1609   0.293   4.268   1.936
  237SOL    HW1 1610   0.378   4.231   1.900
  237SOL    HW2 1611   0.298   4.368   1.939
  238SOL     OW 1612   6.614   1.197   0.810
  238SOL    HW1 1613   6.652   1.283   0.843
  238SOL    HW2 1614   6.515   1.196   0.827
  239SOL     OW 1615   1.240   3.960   0.058
  239SOL    HW1 1616   1.286   4.025   7.018
  239SOL    HW2 1617   1.150   3.997   0.084
  240SOL     OW 1618   0.195   2.944   3.347
  240SOL    HW1 1619   0.285   2.972   3.383
  240SOL    HW2 1620   0.150   3.023   3.306
  241SOL     OW 1621   2.480   2.588   4.351
  241SOL    HW1 1622   2.409   2.657   4.339
  241SOL    HW2 1623   2.438   2.498   4.364
  242SOL     OW 1624   3.538   3.739   3.058
  242SOL    HW1 1625   3.541   3.772   3.152
  242SOL    HW2 1626   3.631   3.739   3.020
  243SOL     OW 1627   4.689   1.670   6.994
  243SOL    HW1 1628   4.751   1.656   0.051
  243SOL    HW2 1629   4.693   1.766   6.965
  244SOL     OW 1630   5.893   3.701   6.185
  244SOL    HW1 1631   5.859   3.698   6.091
  244SOL    HW2 1632   5.856   3.623   6.236
  245SOL     OW 1633   4.296   1.815   4.112
  245SOL    HW1 1634   4.272   1.900   4.066
  245SOL    HW2 1635   4.381   1.780   4.075
  246SOL     OW 1636   4.991   1.915   3.100
  246SOL    HW1 1637   4.975   1.818   3.078
  246SOL    HW2 1638   4.907   1.967   3.082
  247SOL     OW 1639   3.133   1.681   1.484
  247SOL    HW1 1640   3.082   1.764   1.459
  247SOL    HW2 1641   3.229   1.692   1.459
  248SOL     OW 1642   2.076   0.861   2.698
  248SOL    HW1 1643   2.169   0.834   2.722
  248SOL    HW2 1644   2.018   0.861   2.779
  249SOL     OW 1645   5.287   6.988   5.248
  249SOL    HW1 1646   5.217   6.965   5.180
  249SOL    HW2 1647   5.341   0.045   5.215
  250SOL     OW 1648   3.889   3.466   0.644
  250SOL    HW1 1649   3.798   3.433   0.670
  250SOL    HW2 1650   3.882   3.517   0.558
  251SOL     OW 1651   4.739   3.372   5.364
  251SOL    HW1 1652   4.735   3.405   5.458
  251SOL    HW2 1653   4.699   3.441   5.303
  252SOL     OW 1654   6.066   7.007   5.511
  252SOL    HW1 1655   6.084   6.913   5.480
  252SOL    HW2 1656   5.969   0.008   5.498
  253SOL     OW 1657   3.942   4.932   6.351
  253SOL    HW1 1658   3.846   4.959   6.346
  253SOL    HW2 1659   3.992   4.996   6.410
  254SOL     OW 1660   7.000   2.128   3.395
  254SOL    HW1 1661   6.936   2.059   3.428
  254SOL    HW2 1662   6.981   2.215   3.441
  255SOL     OW 1663   1.754   4.566   5.957
  255SOL    HW1 1664   1.743   4.478   6.004
  255SOL    HW2 1665   1.808   4.552   5.874
  256SOL     OW 1666   5.372   3.421   6.208
  256SOL    HW1 1667   5.385   3.451   6.303
  256SOL    HW2 1668   5.307   3.482   6.163
  257SOL     OW 1669   5.385   0.130   2.841
  257SOL    HW1 1670   5.304   0.126   2.899
  257SOL    HW2 1671   5.437   0.213   2.861
  258SOL     OW 1672   2.374   3.791   5.354
  258SOL    HW1 1673   2.457   3.803   5.408
  258SOL    HW2 1674   2.373   3.856   5.278
  259SOL     OW 1675   5.879   1.390   2.054
  259SOL    HW1 1676   5.903   1.307   2.104
  259SOL    HW2 1677   5.794   1.375   2.004
  260SOL     OW 1678   3.772   5.746   3.169
  260SOL    HW1 1679   3.854   5.794   3.199
  260SOL    HW2 1680   3.780   5.723   3.072
  261SOL     OW 1681   5.515   4.544   1.466
  261SOL    HW1 1682   5.444   4.606   1.434
  261SOL    HW2 1683   5.476   4.453   1.478
  262SOL     OW 1684   1.562   3.795   0.569
  262SOL    HW1 1685   1.587   3.877   0.619
  262SOL    HW2 1686   1.588   3.714   0.622
  263SOL     OW 1687   1.510   0.536   4.306
  263SOL    HW1 1688   1.571   0.599   4.354
  263SOL    HW2 1689   1.560   0.491   4.232
  264SOL     OW 1690   6.562   2.649   0.329
  264SOL    HW1 1691   6.645   2.701   0.351
  264SOL    HW2 1692   6.525   2.608   0.412
  265SOL     OW 1693   6.115   6.325   2.679
  265SOL    HW1 1694   6.094   6.324   2.581
  265SOL    HW2 1695   6.109   6.232   2.715
  266SOL     OW 1696   4.526   2.999   5.906
  266SOL    HW1 1697   4.585   2.949   5.969
  266SOL    HW2 1698   4.470   3.064   5.957
  267SOL     OW 1699   0.987   1.433   5.442
  267SOL    HW1 1700   1.053   1.478   5.503
  267SOL    HW2 1701   0.894   1.446   5.478
  268SOL     OW 1702   2.581   1.061   6.364
  268SOL    HW1 1703   2.581   1.040   6.462
  268SOL    HW2 1704   2.524   1.142   6.347
  269SOL     OW 1705   2.324   3.149   0.585
  269SOL    HW1 1706   2.360   3.126   0.495
  269SOL    HW2 1707   2.307   3.065   0.636
  270SOL     OW 1708   0.786   6.144   0.488
  270SOL    HW1 1709   0.747   6.099   0.408
  270SOL    HW2 1710   0.832   6.076   0.545
  271SOL     OW 1711   0.207   1.552   6.521
  271SOL    HW1 1712   0.199   1.489   6.598
  271SOL    HW2 1713   0.147   1.630   6.535
  272SOL     OW 1714   3.721   6.479   3.702
  272SOL    HW1 1715   3.754   6.523   3.785
  272SOL    HW2 1716   3.667   6.399   3.726
  273SOL     OW 1717   1.992   4.778   5.082
  273SOL    HW1 1718   1.908   4.737   5.118
  273SOL    HW2 1719   2.042   4.710   5.029
  274SOL     OW 1720   3.618   1.572   3.339
  274SOL    HW1 1721   3.525   1.602   3.358
  274SOL    HW2 1722   3.674   1.581   3.422
  275SOL     OW 1723   6.795   6.204   2.618
  275SOL    HW1 1724   6.825   6.163   2.532
  275SOL    HW2 1725   6.820   6.144   2.694
  276SOL     OW 1726   0.244   6.536   3.664
  276SOL    HW1 1727   0.189   6.453   3.669
  276SOL    HW2 1728   0.333   6.516   3.624
  277SOL     OW 1729   1.682   3.906   7.002
  277SOL    HW1 1730   1.606   3.859   0.028
  277SOL    HW2 1731   1.694   3.997   0.023
  278SOL     OW 1732   0.155   3.548   2.726
  278SOL    HW1 1733   0.063   3.517   2.748
  278SOL    HW2 1734   0.221   3.499   2.782
  279SOL     OW 1735   5.552   2.678   4.786
  279SOL    HW1 1736   5.650   2.686   4.769
  279SOL    HW2 1737   5.507   2.634   4.708
  280SOL     OW 1738   2.730   5.533   1.883
  280SOL    HW1 1739   2.672   5.612   1.905
  280SOL    HW2 1740   2.817   5.541   1.931
  281SOL     OW 1741   1.992   4.478   1.716
  281SOL    HW1 1742   1.932   4.528   1.779
  281SOL    HW2 1743   1.946   4.395   1.686
  282SOL     OW 1744   2.945   1.144   5.702
  282SOL    HW1 1745   2.911   1.214   5.639
  282SOL    HW2 1746   2.906   1.159   5.793
  283SOL     OW 1747   5.964   2.466   6.661
  283SOL    HW1 1748   5.865   2.449   6.656
  283SOL    HW2 1749   5.983   2.559   6.633
  284SOL     OW 1750   1.682   3.496   4.436
  284SOL    HW1 1751   1.687   3.421   4.369
  284SOL    HW2 1752   1.749   3.566   4.412
  285SOL     OW 1753   5.491   5.127   4.231
  285SOL    HW1 1754   5.423   5.084   4.173
  285SOL    HW2 1755   5.582   5.114   4.192
  286SOL     OW 1756   3.426   4.231   6.873
  286SOL    HW1 1757   3.350   4.166   6.864
  286SOL    HW2 1758   3.414   4.305   6.807
  287SOL     OW 1759   1.374   2.699   1.070
  287SOL    HW1 1760   1.467   2.725   1.093
  287SOL    HW2 1761   1.335   2.646   1.145
  288SOL     OW 1762   3.784   1.749   6.300
  288SOL    HW1 1763   3.844   1.671   6.319
  288SOL    HW2 1764   3.724   1.766   6.378
  289SOL     OW 1765   1.810   4.097   5.494
  289SOL    HW1 1766   1.759   4.095   5.408
  289SOL    HW2 1767   1.895   4.045   5.483
  290SOL     OW 1768   6.515   1.397   5.115
  290SOL    HW1 1769   6.578   1.472   5.137
  290SOL    HW2 1770   6.557   1.310   5.141
  291SOL     OW 1771   0.667   1.527   3.817
  291SOL    HW1 1772   0.609   1.543   3.897
  291SOL    HW2 1773   0.743   1.592   3.817
  292SOL     OW 1774   1.902   1.217   3.357
  292SOL    HW1 1775   1.864   1.199   3.266
  292SOL    HW2 1776   1.938   1.310   3.360
  293SOL     OW 1777   4.447   6.162   3.293
  293SOL    HW1 1778   4.503   6.244   3.296
  293SOL    HW2 1779   4.426   6.139   3.197
  294SOL     OW 1780   5.913   6.144   7.004
  294SOL    HW1 1781   6.003   6.103   7.018
  294SOL    HW2 1782   5.902   6.222   0.046
  295SOL     OW 1783   3.841   0.734   2.867
  295SOL    HW1 1784   3.908   0.719   2.794
  295SOL    HW2 1785   3.888   0.763   2.950
  296SOL     OW 1786   3.839   1.771   2.912
  296SOL    HW1 1787   3.751   1.744   2.950
  296SOL    HW2 1788   3.841   1.750   2.814
  297SOL     OW 1789   2.477   4.471   3.439
  297SOL    HW1 1790   2.407   4.400   3.433
  297SOL    HW2 1791   2.520   4.468   3.530
  298SOL     OW 1792   5.689   5.926   0.740
  298SOL    HW1 1793   5.700   5.989   0.663
  298SOL    HW2 1794   5.728   5.967   0.822
  299SOL     OW 1795   6.129   2.729   5.037
  299SOL    HW1 1796   6.189   2.649   5.032
  299SOL    HW2 1797   6.035   2.702   5.013
  300SOL     OW 1798   6.685   0.550   3.157
  300SOL    HW1 1799   6.587   0.532   3.165
  300SOL    HW2 1800   6.714   0.611   3.231
  301SOL     OW 1801   5.412   3.667   6.863
  301SOL    HW1 1802   5.503   3.669   6.820
  301SOL    HW2 1803   5.421   3.680   6.961
  302SOL     OW 1804   0.779   0.649   3.640
  302SOL    HW1 1805   0.701   0.693   3.596
  302SOL    HW2 1806   0.841   0.719   3.677
  303SOL     OW 1807   5.244   0.852   2.255
  303SOL    HW1 1808   5.253   0.753   2.260
  303SOL    HW2 1809   5.197   0.885   2.337
  304SOL     OW 1810   1.881   0.218   2.911
  304SOL    HW1 1811   1.813   0.151   2.940
  304SOL    HW2 1812   1.957   0.171   2.866
  305SOL     OW 1813   0.870   3.568   6.747
  305SOL    HW1 1814   0.844   3.515   6.828
  305SOL    HW2 1815   0.968   3.588   6.750
  306SOL     OW 1816   1.740   1.161   4.014
  306SOL    HW1 1817   1.772   1.157   4.108
  306SOL    HW2 1818   1.654   1.111   4.006
  307SOL     OW 1819   4.825   0.409   1.004
  307SOL    HW1 1820   4.863   0.389   1.094
  307SOL    HW2 1821   4.761   0.336   0.978
  308SOL     OW 1822   0.458   6.002   3.251
  308SOL    HW1 1823   0.521   5.984   3.327
  308SOL    HW2 1824   0.454   6.100   3.233
  309SOL     OW 1825   3.759   4.541   5.319
  309SOL    HW1 1826   3.692   4.612   5.296
  309SOL    HW2 1827   3.718   4.451   5.306
  310SOL     OW 1828   6.897   6.597   5.710
  310SOL    HW1 1829   6.822   6.581   5.774
  310SOL    HW2 1830   6.976   6.542   5.738
  311SOL     OW 1831   6.584   5.573   1.913
  311SOL    HW1 1832   6.506   5.511   1.905
  311SOL    HW2 1833   6.560   5.662   1.874
  312SOL     OW 1834   4.931   1.433   5.022
  312SOL    HW1 1835   4.879   1.347   5.023
  312SOL    HW2 1836   5.019   1.418   4.977
  313SOL     OW 1837   2.467   4.195   1.777
  313SOL    HW1 1838   2.540   4.263   1.769
  313SOL    HW2 1839   2.429   4.198   1.870
  314SOL     OW 1840   3.413   5.521   0.412
  314SOL    HW1 1841   3.430   5.519   0.314
  314SOL    HW2 1842   3.331   5.575   0.431
  315SOL     OW 1843   0.723   2.751   3.355
  315SOL    HW1 1844   0.672   2.835   3.373
  315SOL    HW2 1845   0.663   2.672   3.368
  316SOL     OW 1846   2.238   2.846   4.117
  316SOL    HW1 1847   2.199   2.923   4.167
  316SOL    HW2 1848   2.227   2.861   4.019
  317SOL     OW 1849   0.279   1.106   6.829
  317SOL    HW1 1850   0.201   1.102   6.892
  317SOL    HW2 1851   0.363   1.115   6.882
  318SOL     OW 1852   1.521   4.660   0.923
  318SOL    HW1 1853   1.552   4.566   0.906
  318SOL    HW2 1854   1.442   4.680   0.865
  319SOL     OW 1855   1.035   6.653   1.154
  319SOL    HW1 1856   1.098   6.592   1.202
  319SOL    HW2 1857   1.048   6.746   1.188
  320SOL     OW 1858   6.334   2.781   0.530
  320SOL    HW1 1859   6.386   2.846   0.476
  320SOL    HW2 1860   6.391   2.702   0.552
  321SOL     OW 1861   1.555   2.217   1.831
  321SOL    HW1 1862   1.575   2.314   1.820
  321SOL    HW2 1863   1.456   2.203   1.831
  322SOL     OW 1864   3.741   3.004   4.609
  322SOL    HW1 1865   3.730   2.991   4.511
  322SOL    HW2 1866   3.652   3.024   4.650
  323SOL     OW 1867   0.470   4.277   0.706
  323SOL    HW1 1868   0.523   4.357   0.679
  323SOL    HW2 1869   0.439   4.289   0.801
  324SOL     OW 1870   0.967   3.116   4.613
  324SOL    HW1 1871   0.877   3.108   4.656
  324SOL    HW2 1872   0.956   3.151   4.521
  325SOL     OW 1873   1.773   3.054   1.329
  325SOL    HW1 1874   1.692   3.086   1.281
  325SOL    HW2 1875   1.772   3.088   1.423
  326SOL     OW 1876   2.000   6.455   6.831
  326SOL    HW1 1877   1.991   6.370   6.780
  326SOL    HW2 1878   1.984   6.532   6.769
  327SOL     OW 1879   0.256   4.617   4.622
  327SOL    HW1 1880   0.254   4.670   4.537
  327SOL    HW2 1881   0.316   4.662   4.688
  328SOL     OW 1882   4.126   5.084   2.200
  328SOL    HW1 1883   4.177   5.117   2.121
  328SOL    HW2 1884   4.190   5.039   2.263
  329SOL     OW 1885   2.986   3.750   3.402
  329SOL    HW1 1886   2.985   3.812   3.324
  329SOL    HW2 1887   2.937   3.666   3.378
  330SOL     OW 1888   3.600   6.603   1.427
  330SOL    HW1 1889   3.683   6.655   1.406
  330SOL    HW2 1890   3.533   6.663   1.470
  331SOL     OW 1891   4.431   5.403   6.189
  331SOL    HW1 1892   4.378   5.488   6.189
  331SOL    HW2 1893   4.371   5.327   6.214
  332SOL     OW 1894   3.233   1.818   3.839
  332SOL    HW1 1895   3.179   1.753   3.786
  332SOL    HW2 1896   3.314   1.773   3.876
  333SOL     OW 1897   3.930   6.691   6.136
  333SOL    HW1 1898   3.953   6.615   6.076
  333SOL    HW2 1899   3.846   6.734   6.104
  334SOL     OW 1900   3.519   6.774   2.027
  334SOL    HW1 1901   3.429   6.790   1.987
  334SOL    HW2 1902   3.519   6.686   2.075
  335SOL     OW 1903   3.668   5.636   3.651
  335SOL    HW1 1904   3.612   5.605   3.727
  335SOL    HW2 1905   3.673   5.565   3.581
  336SOL     OW 1906   2.594   0.869   3.345
  336SOL    HW1 1907   2.517   0.840   3.287
  336SOL    HW2 1908   2.582   0.832   3.437
  337SOL     OW 1909   0.532   3.122   1.830
  337SOL    HW1 1910   0.628   3.101   1.816
  337SOL    HW2 1911   0.512   3.212   1.792
  338SOL     OW 1912   3.193   3.153   1.587
  338SOL    HW1 1913   3.104   3.126   1.550
  338SOL    HW2 1914   3.213   3.099   1.669
  339SOL     OW 1915   3.623   0.138   2.926
  339SOL    HW1 1916   3.591   0.148   3.021
  339SOL    HW2 1917   3.710   0.184   2.915
  340SOL     OW 1918   5.566   4.541   4.766
  340SOL    HW1 1919   5.581   4.628   4.719
  340SOL    HW2 1920   5.611   4.468   4.716
  341SOL     OW 1921   5.130   6.094   4.289
  341SOL    HW1 1922   5.069   6.093   4.210
  341SOL    HW2 1923   5.216   6.137   4.263
  342SOL     OW 1924   5.808   4.742   0.180
  342SOL    HW1 1925   5.892   4.794   0.194
  342SOL    HW2 1926   5.739   4.800   0.136
  343SOL     OW 1927   3.568   6.532   1.823
  343SOL    HW1 1928   3.569   6.510   1.921
  343SOL    HW2 1929   3.634   6.604   1.804
  344SOL     OW 1930   2.012   5.241   0.498
  344SOL    HW1 1931   2.055   5.318   0.545
  344SOL    HW2 1932   1.976   5.176   0.565
  345SOL     OW 1933   0.799   0.370   5.556
  345SOL    HW1 1934   0.815   0.325   5.469
  345SOL    HW2 1935   0.822   0.467   5.549
  346SOL     OW 1936   1.451   0.160   2.950
  346SOL    HW1 1937   1.473   0.184   2.856
  346SOL    HW2 1938   1.533   0.128   2.997
  347SOL     OW 1939   5.522   6.891   6.706
  347SOL    HW1 1940   5.439   6.875   6.653
  347SOL    HW2 1941   5.557   6.982   6.686
  348SOL     OW 1942   3.917   5.208   1.110
  348SOL    HW1 1943   3.884   5.151   1.035
  348SOL    HW2 1944   3.863   5.190   1.192
  349SOL     OW 1945   0.430   4.585   2.750
  349SOL    HW1 1946   0.341   4.550   2.780
  349SOL    HW2 1947   0.418   4.643   2.670
  350SOL     OW 1948   3.978   3.627   1.587
  350SOL    HW1 1949   3.984   3.706   1.527
  350SOL    HW2 1950   4.043   3.637   1.663
  351SOL     OW 1951   2.616   1.554   0.437
  351SOL    HW1 1952   2.581   1.476   0.488
  351SOL    HW2 1953   2.699   1.527   0.387
  352SOL     OW 1954   3.326   0.605   5.835
  352SOL    HW1 1955   3.359   0.515   5.807
  352SOL    HW2 1956   3.391   0.645   5.900
  353SOL     OW 1957   1.887   6.409   0.875
  353SOL    HW1 1958   1.830   6.338   0.832
  353SOL    HW2 1959   1.900   6.484   0.811
  354SOL     OW 1960   4.260   1.913   6.843
  354SOL    HW1 1961   4.350   1.922   6.801
  354SOL    HW2 1962   4.208   1.840   6.798
  355SOL     OW 1963   6.655   2.928   2.740
  355SOL    HW1 1964   6.649   2.987   2.821
  355SOL    HW2 1965   6.600   2.846   2.754
  356SOL     OW 1966   4.580   4.652   4.315
  356SOL    HW1 1967   4.614   4.734   4.267
  356SOL    HW2 1968   4.501   4.615   4.265
  357SOL     OW 1969   0.290   5.508   5.311
  357SOL    HW1 1970   0.252   5.559   5.234
  357SOL    HW2 1971   0.356   5.441   5.277
  358SOL     OW 1972   6.253   7.019   1.568
  358SOL    HW1 1973   6.239   6.925   1.598
  358SOL    HW2 1974   6.172   0.030   1.518
  359SOL     OW 1975   1.565   2.293   2.543
  359SOL    HW1 1976   1.606   2.358   2.607
  359SOL    HW2 1977   1.635   2.263   2.477
  360SOL     OW 1978   4.657   6.776   6.714
  360SOL    HW1 1979   4.744   6.761   6.762
  360SOL    HW2 1980   4.658   6.866   6.671
  361SOL     OW 1981   5.326   5.790   3.280
  361SOL    HW1 1982   5.345   5.882   3.314
  361SOL    HW2 1983   5.229   5.782   3.256
  362SOL     OW 1984   2.528   4.210   0.710
  362SOL    HW1 1985   2.543   4.168   0.620
  362SOL    HW2 1986   2.439   4.180   0.745
  363SOL     OW 1987   3.949   5.250   4.429
  363SOL    HW1 1988   3.912   5.194   4.503
  363SOL    HW2 1989   4.033   5.295   4.460
  364SOL     OW 1990   1.146   5.463   5.648
  364SOL    HW1 1991   1.160   5.369   5.618
  364SOL    HW2 1992   1.150   5.524   5.568
  365SOL     OW 1993   5.245   5.955   2.483
  365SOL    HW1 1994   5.240   6.011   2.566
  365SOL    HW2 1995   5.268   5.860   2.508
  366SOL     OW 1996   6.410   1.065   7.009
  366SOL    HW1 1997   6.361   1.152   0.001
  366SOL    HW2 1998   6.388   1.027   6.919
  367SOL     OW 1999   5.535   3.302   0.874
  367SOL    HW1 2000   5.464   3.350   0.926
  367SOL    HW2 2001   5.568   3.361   0.801
  368SOL     OW 2002   1.476   4.467   5.009
  368SOL    HW1 2003   1.541   4.418   5.068
  368SOL    HW2 2004   1.517   4.554   4.980
  369SOL     OW 2005   0.064   4.498   1.651
  369SOL    HW1 2006   0.119   4.424   1.614
  369SOL    HW2 2007   0.031   4.473   1.742
  370SOL     OW 2008   2.539   0.574   6.188
  370SOL    HW1 2009   2.531   0.607   6.095
  370SOL    HW2 2010   2.565   0.649   6.249
  371SOL     OW 2011   3.053   3.325   0.208
  371SOL    HW1 2012   3.130   3.389   0.208
  371SOL    HW2 2013   2.989   3.350   0.281
  372SOL     OW 2014   6.682   6.628   5.883
  372SOL    HW1 2015   6.651   6.650   5.976
  372SOL    HW2 2016   6.630   6.682   5.817
  373SOL     OW 2017   0.096   6.121   0.717
  373SOL    HW1 2018   0.179   6.165   0.752
  373SOL    HW2 2019   0.089   6.136   0.618
  374SOL     OW 2020   3.415   0.419   2.543
  374SOL    HW1 2021   3.432   0.494   2.607
  374SOL    HW2 2022   3.372   0.343   2.593
  375SOL     OW 2023   6.199   4.949   3.314
  375SOL    HW1 2024   6.264   5.023   3.294
  375SOL    HW2 2025   6.240   4.862   3.289
  376SOL     OW 2026   1.456   2.608   3.869
  376SOL    HW1 2027   1.517   2.580   3.794
  376SOL    HW2 2028   1.390   2.674   3.836
  377SOL     OW 2029   5.131   2.213   2.687
  377SOL    HW1 2030   5.063   2.143   2.709
  377SOL    HW2 2031   5.088   2.287   2.636
  378SOL     OW 2032   4.293   3.486   5.734
  378SOL    HW1 2033   4.310   3.564   5.794
  378SOL    HW2 2034   4.208   3.501   5.684
  379SOL     OW 2035   5.716   3.904   1.306
  379SOL    HW1 2036   5.684   3.831   1.245
  379SOL    HW2 2037   5.638   3.947   1.351
  380SOL     OW 2038   1.517   1.441   1.277
  380SOL    HW1 2039   1.578   1.519   1.260
  380SOL    HW2 2040   1.473   1.414   1.191
  381SOL     OW 2041   3.119   4.552   1.206
  381SOL    HW1 2042   3.064   4.493   1.148
  381SOL    HW2 2043   3.064   4.629   1.238
  382SOL     OW 2044   3.260   5.729   0.213
  382SOL    HW1 2045   3.173   5.769   0.242
  382SOL    HW2 2046   3.335   5.787   0.243
  383SOL     OW 2047   6.731   2.658   6.998
  383SOL    HW1 2048   6.717   2.754   0.004
  383SOL    HW2 2049   6.675   2.599   0.035
  384SOL     OW 2050   0.869   5.346   5.380
  384SOL    HW1 2051   0.810   5.337   5.461
  384SOL    HW2 2052   0.848   5.273   5.315
  385SOL     OW 2053   4.591   6.269   0.246
  385SOL    HW1 2054   4.648   6.191   0.273
  385SOL    HW2 2055   4.495   6.241   0.242
  386SOL     OW 2056   3.862   6.534   5.670
  386SOL    HW1 2057   3.776   6.507   5.626
  386SOL    HW2 2058   3.894   6.620   5.631
  387SOL     OW 2059   0.098   0.616   5.161
  387SOL    HW1 2060   0.110   0.566   5.075
  387SOL    HW2 2061   0.026   0.573   5.215
  388SOL     OW 2062   0.041   2.150   5.154
  388SOL    HW1 2063   6.989   2.145   5.223
  388SOL    HW2 2064   0.016   2.218   5.085
  389SOL     OW 2065   4.375   4.648   1.585
  389SOL    HW1 2066   4.375   4.586   1.664
  389SOL    HW2 2067   4.296   4.629   1.528
  390SOL     OW 2068   3.834   1.426   0.181
  390SOL    HW1 2069   3.837   1.521   0.211
  390SOL    HW2 2070   3.922   1.400   0.142
  391SOL     OW 2071   2.846   3.539   6.352
  391SOL    HW1 2072   2.826   3.568   6.445
  391SOL    HW2 2073   2.764   3.499   6.310
  392SOL     OW 2074   1.400   3.959   2.473
  392SOL    HW1 2075   1.499   3.947   2.484
  392SOL    HW2 2076   1.380   4.057   2.461
  393SOL     OW 2077   0.830   4.134   0.982
  393SOL    HW1 2078   0.870   4.218   1.020
  393SOL    HW2 2079   0.745   4.113   1.030
  394SOL     OW 2080   6.759   1.952   6.569
  394SOL    HW1 2081   6.804   1.911   6.649
  394SOL    HW2 2082   6.695   1.885   6.530
  395SOL     OW 2083   5.428   4.834   1.706
  395SOL    HW1 2084   5.455   4.785   1.788
  395SOL    HW2 2085   5.499   4.826   1.637
  396SOL     OW 2086   2.756   1.701   2.894
  396SOL    HW1 2087   2.785   1.634   2.825
  396SOL    HW2 2088   2.707   1.653   2.967
  397SOL     OW 2089   4.330   1.554   5.250
  397SOL    HW1 2090   4.389   1.612   5.307
  397SOL    HW2 2091   4.373   1.539   5.162
  398SOL     OW 2092   2.375   0.528   4.935
  398SOL    HW1 2093   2.289   0.481   4.951
  398SOL    HW2 2094   2.451   0.474   4.972
  399SOL     OW 2095   5.465   6.216   3.823
  399SOL    HW1 2096   5.478   6.295   3.762
  399SOL    HW2 2097   5.384   6.232   3.880
  400SOL     OW 2098   6.532   0.415   4.797
  400SOL    HW1 2099   6.602   0.483   4.776
  400SOL    HW2 2100   6.514   0.358   4.717
  401SOL     OW 2101   6.726   5.807   5.633
  401SOL    HW1 2102   6.775   5.894   5.625
  401SOL    HW2 2103   6.762   5.742   5.565
  402SOL     OW 2104   6.896   0.244   2.568
  402SOL    HW1 2105   6.960   0.217   2.496
  402SOL    HW2 2106   6.926   0.329   2.610
  403SOL     OW 2107   2.909   0.905   6.168
  403SOL    HW1 2108   2.969   0.884   6.090
  403SOL    HW2 2109   2.880   0.821   6.212
  404SOL     OW 2110   4.422   5.042   4.592
  404SOL    HW1 2111   4.366   4.960   4.584
  404SOL    HW2 2112   4.385   5.101   4.664
  405SOL     OW 2113   2.426   4.424   4.006
  405SOL    HW1 2114   2.354   4.409   4.074
  405SOL    HW2 2115   2.504   4.469   4.049
  406SOL     OW 2116   0.085   5.267   5.962
  406SOL    HW1 2117   0.106   5.187   6.018
  406SOL    HW2 2118   0.009   5.245   5.900
  407SOL     OW 2119   1.659   2.948   4.335
  407SOL    HW1 2120   1.680   2.922   4.241
  407SOL    HW2 2121   1.679   2.871   4.396
  408SOL     OW 2122   3.276   1.320   3.424
  408SOL    HW1 2123   3.259   1.260   3.346
  408SOL    HW2 2124   3.268   1.268   3.509
  409SOL     OW 2125   1.138   3.778   2.792
  409SOL    HW1 2126   1.039   3.790   2.801
  409SOL    HW2 2127   1.169   3.821   2.708
  410SOL     OW 2128   1.902   2.068   1.282
  410SOL    HW1 2129   1.879   2.131   1.208
  410SOL    HW2 2130   1.983   2.101   1.329
  411SOL     OW 2131   0.534   2.010   1.369
  411SOL    HW1 2132   0.620   1.987   1.324
  411SOL    HW2 2133   0.553   2.046   1.460
  412SOL     OW 2134   1.741   4.754   1.787
  412SOL    HW1 2135   1.736   4.655   1.775
  412SOL    HW2 2136   1.812   4.791   1.727
  413SOL     OW 2137   4.605   5.355   2.582
  413SOL    HW1 2138   4.518   5.403   2.595
  413SOL    HW2 2139   4.611   5.278   2.646
  414SOL     OW 2140   2.574   6.241   3.565
  414SOL    HW1 2141   2.493   6.248   3.506
  414SOL    HW2 2142   2.597   6.332   3.600
  415SOL     OW 2143   6.679   0.656   0.606
  415SOL    HW1 2144   6.646   0.605   0.685
  415SOL    HW2 2145   6.629   0.742   0.599
  416SOL     OW 2146   4.938   3.280   4.704
  416SOL    HW1 2147   4.930   3.237   4.794
  416SOL    HW2 2148   4.912   3.376   4.709
  417SOL     OW 2149   3.523   2.491   6.692
  417SOL    HW1 2150   3.570   2.538   6.618
  417SOL    HW2 2151   3.565   2.402   6.709
  418SOL     OW 2152   4.329   6.389   4.780
  418SOL    HW1 2153   4.308   6.296   4.810
  418SOL    HW2 2154   4.357   6.444   4.858
  419SOL     OW 2155   0.905   0.098   1.754
  419SOL    HW1 2156   0.919   0.092   1.853
  419SOL    HW2 2157   0.822   0.151   1.736
  420SOL     OW 2158   6.129   0.889   6.196
  420SOL    HW1 2159   6.161   0.848   6.281
  420SOL    HW2 2160   6.029   0.895   6.197
  421SOL     OW 2161   5.498   3.938   3.031
  421SOL    HW1 2162   5.427   3.889   2.982
  421SOL    HW2 2163   5.533   4.013   2.974
  422SOL     OW 2164   4.950   3.155   1.682
  422SOL    HW1 2165   4.858   3.121   1.661
  422SOL    HW2 2166   4.965   3.241   1.634
  423SOL     OW 2167   3.344   1.625   5.901
  423SOL    HW1 2168   3.338   1.626   6.000
  423SOL    HW2 2169   3.419   1.684   5.871
  424SOL     OW 2170   1.187   4.153   2.858
  424SOL    HW1 2171   1.264   4.096   2.885
  424SOL    HW2 2172   1.168   4.220   2.930
  425SOL     OW 2173   2.440   0.270   5.715
  425SOL    HW1 2174   2.483   0.212   5.784
  425SOL    HW2 2175   2.424   0.216   5.632
  426SOL     OW 2176   2.276   2.759   4.369
  426SOL    HW1 2177   2.247   2.794   4.279
  426SOL    HW2 2178   2.262   2.830   4.438
  427SOL     OW 2179   3.958   2.110   3.695
  427SOL    HW1 2180   3.946   2.116   3.794
  427SOL    HW2 2181   3.892   2.169   3.649
  428SOL     OW 2182   2.639   1.358   5.680
  428SOL    HW1 2183   2.586   1.423   5.625
  428SOL    HW2 2184   2.639   1.269   5.635
  429SOL     OW 2185   1.249   5.886   4.032
  429SOL    HW1 2186   1.255   5.983   4.005
  429SOL    HW2 2187   1.294   5.874   4.120
  430SOL     OW 2188   1.338   0.135   3.356
  430SOL    HW1 2189   1.338   0.041   3.324
  430SOL    HW2 2190   1.255   0.182   3.324
  431SOL     OW 2191   3.055   1.548   1.971
  431SOL    HW1 2192   3.034   1.643   1.949
  431SOL    HW2 2193   2.971   1.495   1.976
  432SOL     OW 2194   4.202   1.883   1.418
  432SOL    HW1 2195   4.229   1.874   1.322
  432SOL    HW2 2196   4.251   1.961   1.459
  433SOL     OW 2197   2.149   6.571   0.354
  433SOL    HW1 2198   2.208   6.576   0.273
  433SOL    HW2 2199   2.205   6.566   0.436
  434SOL     OW 2200   3.807   6.191   3.356
  434SOL    HW1 2201   3.836   6.188   3.260
  434SOL    HW2 2202   3.815   6.284   3.391
  435SOL     OW 2203   2.942   1.374   6.186
  435SOL    HW1 2204   2.921   1.287   6.229
  435SOL    HW2 2205   2.966   1.442   6.256
  436SOL     OW 2206   4.756   0.156   2.900
  436SOL    HW1 2207   4.793   0.142   2.992
  436SOL    HW2 2208   4.807   0.230   2.855
  437SOL     OW 2209   6.761   0.211   4.795
  437SOL    HW1 2210   6.745   0.130   4.851
  437SOL    HW2 2211   6.716   0.290   4.836
  438SOL     OW 2212   0.436   3.885   2.837
  438SOL    HW1 2213   0.488   3.867   2.921
  438SOL    HW2 2214   0.341   3.858   2.850
  439SOL     OW 2215   6.027   0.480   3.419
  439SOL    HW1 2216   5.952   0.542   3.394
  439SOL    HW2 2217   5.994   0.385   3.417
  440SOL     OW 2218   4.627   0.826   0.333
  440SOL    HW1 2219   4.703   0.767   0.307
  440SOL    HW2 2220   4.561   0.774   0.387
  441SOL     OW 2221   7.016   4.461   3.122
  441SOL    HW1 2222   0.086   4.504   3.127
  441SOL    HW2 2223   7.013   4.398   3.044
  442SOL     OW 2224   5.742   3.503   6.301
  442SOL    HW1 2225   5.661   3.526   6.355
  442SOL    HW2 2226   5.717   3.438   6.230
  443SOL     OW 2227   4.908   3.461   2.669
  443SOL    HW1 2228   4.847   3.455   2.590
  443SOL    HW2 2229   4.944   3.370   2.689
  444SOL     OW 2230   4.318   0.898   1.432
  444SOL    HW1 2231   4.284   0.881   1.340
  444SOL    HW2 2232   4.372   0.982   1.433
  445SOL     OW 2233   1.438   5.387   2.336
  445SOL    HW1 2234   1.389   5.457   2.283
  445SOL    HW2 2235   1.396   5.379   2.427
  446SOL     OW 2236   5.678   0.034   1.732
  446SOL    HW1 2237   5.679   0.131   1.710
  446SOL    HW2 2238   5.646   7.002   1.653
  447SOL     OW 2239   6.581   4.389   0.759
  447SOL    HW1 2240   6.657   4.353   0.813
  447SOL    HW2 2241   6.498   4.337   0.779
  448SOL     OW 2242   2.640   6.373   3.083
  448SOL    HW1 2243   2.599   6.286   3.109
  448SOL    HW2 2244   2.577   6.447   3.108
  449SOL     OW 2245   2.141   3.736   4.607
  449SOL    HW1 2246   2.142   3.701   4.701
  449SOL    HW2 2247   2.213   3.804   4.595
  450SOL     OW 2248   0.984   4.939   3.346
  450SOL    HW1 2249   1.026   4.907   3.431
  450SOL    HW2 2250   0.931   4.865   3.305
  451SOL     OW 2251   0.699   1.866   2.808
  451SOL    HW1 2252   0.786   1.819   2.796
  451SOL    HW2 2253   0.649   1.867   2.722
  452SOL     OW 2254   4.833   5.997   2.573
  452SOL    HW1 2255   4.768   5.933   2.612
  452SOL    HW2 2256   4.881   6.046   2.646
  453SOL     OW 2257   3.590   0.645   6.930
  453SOL    HW1 2258   3.551   0.560   6.893
  453SOL    HW2 2259   3.596   0.714   6.858
  454SOL     OW 2260   0.013   3.649   6.561
  454SOL    HW1 2261   0.058   3.580   6.618
  454SOL    HW2 2262   0.028   3.627   6.465
  455SOL     OW 2263   6.118   4.569   6.514
  455SOL    HW1 2264   6.090   4.542   6.606
  455SOL    HW2 2265   6.208   4.612   6.517
  456SOL     OW 2266   2.878   0.602   2.375
  456SOL    HW1 2267   2.823   0.534   2.423
  456SOL    HW2 2268   2.833   0.628   2.290
  457SOL     OW 2269   2.548   0.473   0.062
  457SOL    HW1 2270   2.603   0.553   0.086
  457SOL    HW2 2271   2.453   0.501   0.050
  458SOL     OW 2272   2.801   1.153   3.573
  458SOL    HW1 2273   2.719   1.144   3.629
  458SOL    HW2 2274   2.865   1.079   3.594
  459SOL     OW 2275   2.703   0.235   4.081
  459SOL    HW1 2276   2.680   0.328   4.109
  459SOL    HW2 2277   2.772   0.238   4.008
  460SOL     OW 2278   1.041   2.024   5.038
  460SOL    HW1 2279   1.112   2.066   5.094
  460SOL    HW2 2280   1.081   1.989   4.953
  461SOL     OW 2281   0.911   5.009   5.645
  461SOL    HW1 2282   0.885   4.913   5.657
  461SOL    HW2 2283   0.907   5.055   5.734
  462SOL     OW 2284   3.054   3.926   4.288
  462SOL    HW1 2285   3.040   3.974   4.374
  462SOL    HW2 2286   3.027   3.830   4.299
  463SOL     OW 2287   5.618   6.894   2.517
  463SOL    HW1 2288   5.633   6.970   2.454
  463SOL    HW2 2289   5.684   6.901   2.593
  464SOL     OW 2290   3.756   5.640   5.848
  464SOL    HW1 2291   3.720   5.548   5.838
  464SOL    HW2 2292   3.811   5.646   5.932
  465SOL     OW 2293   1.193   3.321   0.121
  465SOL    HW1 2294   1.233   3.293   0.208
  465SOL    HW2 2295   1.142   3.406   0.133
  466SOL     OW 2296   4.184   5.759   4.810
  466SOL    HW1 2297   4.283   5.757   4.819
  466SOL    HW2 2298   4.159   5.817   4.732
  467SOL     OW 2299   6.497   0.118   1.528
  467SOL    HW1 2300   6.533   0.100   1.437
  467SOL    HW2 2301   6.402   0.087   1.533
  468SOL     OW 2302   3.885   0.054   6.602
  468SOL    HW1 2303   3.842   0.115   6.536
  468SOL    HW2 2304   3.969   0.017   6.562
  469SOL     OW 2305   3.014   5.035   6.042
  469SOL    HW1 2306   2.996   5.123   5.999
  469SOL    HW2 2307   2.941   4.971   6.018
  470SOL     OW 2308   2.123   5.162   2.712
  470SOL    HW1 2309   2.126   5.222   2.632
  470SOL    HW2 2310   2.210   5.113   2.720
  471SOL     OW 2311   2.132   2.587   4.511
  471SOL    HW1 2312   2.181   2.653   4.455
  471SOL    HW2 2313   2.182   2.572   4.596
  472SOL     OW 2314   5.577   4.037   6.047
  472SOL    HW1 2315   5.670   4.006   6.025
  472SOL    HW2 2316   5.521   3.958   6.073
  473SOL     OW 2317   7.013   2.941   2.192
  473SOL    HW1 2318   6.949   3.005   2.235
  473SOL    HW2 2319   0.078   2.989   2.172
  474SOL     OW 2320   5.019   6.220   3.735
  474SOL    HW1 2321   5.026   6.319   3.723
  474SOL    HW2 2322   4.927   6.190   3.707
  475SOL     OW 2323   5.981   1.607   0.790
  475SOL    HW1 2324   5.988   1.672   0.714
  475SOL    HW2 2325   6.045   1.531   0.774
  476SOL     OW 2326   0.854   4.725   1.358
  476SOL    HW1 2327   0.822   4.784   1.432
  476SOL    HW2 2328   0.945   4.755   1.328
  477SOL     OW 2329   1.465   4.632   3.992
  477SOL    HW1 2330   1.455   4.550   4.048
  477SOL    HW2 2331   1.518   4.700   4.043
  478SOL     OW 2332   4.892   6.040   1.486
  478SOL    HW1 2333   4.818   6.032   1.552
  478SOL    HW2 2334   4.895   6.134   1.450
  479SOL     OW 2335   3.501   3.788   3.495
  479SOL    HW1 2336   3.427   3.826   3.439
  479SOL    HW2 2337   3.490   3.689   3.503
  480SOL     OW 2338   1.683   0.072   3.075
  480SOL    HW1 2339   1.691   0.014   2.994
  480SOL    HW2 2340   1.715   0.022   3.155
  481SOL     OW 2341   0.318   6.815   0.872
  481SOL    HW1 2342   0.286   6.804   0.966
  481SOL    HW2 2343   0.340   6.910   0.855
  482SOL     OW 2344   4.221   5.384   1.333
  482SOL    HW1 2345   4.297   5.324   1.359
  482SOL    HW2 2346   4.230   5.408   1.236
  483SOL     OW 2347   5.126   1.916   3.357
  483SOL    HW1 2348   5.191   1.991   3.362
  483SOL    HW2 2349   5.110   1.892   3.262
  484SOL     OW 2350   2.252   4.249   4.597
  484SOL    HW1 2351   2.196   4.292   4.668
  484SOL    HW2 2352   2.327   4.310   4.572
  485SOL     OW 2353   5.217   3.279   1.725
  485SOL    HW1 2354   5.232   3.331   1.642
  485SOL    HW2 2355   5.120   3.256   1.733
  486SOL     OW 2356   6.125   6.062   6.532
  486SOL    HW1 2357   6.161   6.155   6.540
  486SOL    HW2 2358   6.116   6.021   6.622
  487SOL     OW 2359   6.757   6.918   5.429
  487SOL    HW1 2360   6.829   6.970   5.475
  487SOL    HW2 2361   6.789   6.826   5.408
  488SOL     OW 2362   1.295   6.020   2.962
  488SOL    HW1 2363   1.352   5.962   2.903
  488SOL    HW2 2364   1.280   5.975   3.050
  489SOL     OW 2365   1.166   6.035   5.906
  489SOL    HW1 2366   1.128   6.070   5.821
  489SOL    HW2 2367   1.099   5.975   5.951
  490SOL     OW 2368   1.142   4.141   5.572
  490SOL    HW1 2369   1.214   4.201   5.538
  490SOL    HW2 2370   1.163   4.046   5.548
  491SOL     OW 2371   0.673   2.494   0.450
  491SOL    HW1 2372   0.574   2.478   0.461
  491SOL    HW2 2373   0.713   2.418   0.398
  492SOL     OW 2374   1.728   2.120   5.757
  492SOL    HW1 2375   1.637   2.085   5.782
  492SOL    HW2 2376   1.745   2.205   5.807
  493SOL     OW 2377   2.209   5.666   4.714
  493SOL    HW1 2378   2.285   5.612   4.678
  493SOL    HW2 2379   2.135   5.667   4.647
  494SOL     OW 2380   2.660   6.168   5.241
  494SOL    HW1 2381   2.669   6.160   5.142
  494SOL    HW2 2382   2.650   6.264   5.266
  495SOL     OW 2383   3.651   4.636   5.936
  495SOL    HW1 2384   3.698   4.655   5.850
  495SOL    HW2 2385   3.703   4.677   6.011
  496SOL     OW 2386   5.084   1.626   2.794
  496SOL    HW1 2387   5.012   1.691   2.769
  496SOL    HW2 2388   5.158   1.674   2.841
  497SOL     OW 2389   3.280   1.514   0.193
  497SOL    HW1 2390   3.307   1.419   0.181
  497SOL    HW2 2391   3.180   1.522   0.187
  498SOL     OW 2392   0.915   6.604   1.547
  498SOL    HW1 2393   0.875   6.512   1.553
  498SOL    HW2 2394   1.014   6.598   1.555
  499SOL     OW 2395   2.729   6.013   6.402
  499SOL    HW1 2396   2.657   6.034   6.468
  499SOL    HW2 2397   2.778   6.097   6.379
  500SOL     OW 2398   6.286   2.633   0.186
  500SOL    HW1 2399   6.261   2.701   0.117
  500SOL    HW2 2400   6.359   2.670   0.244
  501SOL     OW 2401   1.008   0.796   3.713
  501SOL    HW1 2402   1.057   0.837   3.790
  501SOL    HW2 2403   1.055   0.714   3.682
  502SOL     OW 2404   2.225   4.934   6.749
  502SOL    HW1 2405   2.161   5.003   6.715
  502SOL    HW2 2406   2.179   4.876   6.817
  503SOL     OW 2407   4.009   4.793   6.874
  503SOL    HW1 2408   4.001   4.730   6.797
  503SOL    HW2 2409   3.918   4.828   6.898
  504SOL     OW 2410   5.777   6.500   2.231
  504SOL    HW1 2411   5.845   6.569   2.254
  504SOL    HW2 2412   5.698   6.510   2.292
  505SOL     OW 2413   5.225   6.629   5.153
  505SOL    HW1 2414   5.128   6.645   5.175
  505SOL    HW2 2415   5.282   6.663   5.228
  506SOL     OW 2416   4.058   5.143   2.926
  506SOL    HW1 2417   4.090   5.062   2.878
  506SOL    HW2 2418   4.117   5.162   3.005
  507SOL     OW 2419   3.355   0.811   0.508
  507SOL    HW1 2420   3.271   0.770   0.471
  507SOL    HW2 2421   3.371   0.777   0.601
  508SOL     OW 2422   6.941   5.167   3.533
  508SOL    HW1 2423   6.864   5.154   3.470
  508SOL    HW2 2424   7.005   5.091   3.524
  509SOL     OW 2425   4.669   6.923   5.662
  509SOL    HW1 2426   4.628   6.868   5.589
  509SOL    HW2 2427   4.597   6.958   5.722
  510SOL     OW 2428   6.665   3.488   0.265
  510SOL    HW1 2429   6.568   3.486   0.240
  510SOL    HW2 2430   6.720   3.497   0.182
  511SOL     OW 2431   0.796   1.972   0.579
  511SOL    HW1 2432   0.704   1.951   0.545
  511SOL    HW2 2433   0.844   1.887   0.600
  512SOL     OW 2434   6.574   2.525   5.621
  512SOL    HW1 2435   6.552   2.520   5.718
  512SOL    HW2 2436   6.594   2.620   5.596
  513SOL     OW 2437   5.352   0.845   2.557
  513SOL    HW1 2438   5.299   0.929   2.567
  513SOL    HW2 2439   5.312   0.774   2.614
  514SOL     OW 2440   6.503   6.567   4.081
  514SOL    HW1 2441   6.451   6.635   4.029
  514SOL    HW2 2442   6.596   6.601   4.096
  515SOL     OW 2443   3.794   0.244   6.423
  515SOL    HW1 2444   3.787   0.231   6.325
  515SOL    HW2 2445   3.876   0.299   6.444
  516SOL     OW 2446   2.436   5.947   1.666
  516SOL    HW1 2447   2.357   5.998   1.632
  516SOL    HW2 2448   2.493   6.008   1.722
  517SOL     OW 2449   3.414   5.392   1.951
  517SOL    HW1 2450   3.461   5.446   1.882
  517SOL    HW2 2451   3.445   5.297   1.947
  518SOL     OW 2452   2.107   3.257   3.610
  518SOL    HW1 2453   2.052   3.185   3.652
  518SOL    HW2 2454   2.202   3.226   3.600
  519SOL     OW 2455   0.299   6.883   3.114
  519SOL    HW1 2456   0.246   6.801   3.134
  519SOL    HW2 2457   0.370   6.894   3.184
  520SOL     OW 2458   0.976   2.867   0.260
  520SOL    HW1 2459   1.036   2.811   0.203
  520SOL    HW2 2460   0.912   2.808   0.308
  521SOL     OW 2461   6.258   5.643   4.654
  521SOL    HW1 2462   6.276   5.726   4.601
  521SOL    HW2 2463   6.161   5.619   4.646
  522SOL     OW 2464   4.013   3.880   1.443
  522SOL    HW1 2465   4.029   3.835   1.355
  522SOL    HW2 2466   3.985   3.975   1.427
  523SOL     OW 2467   0.606   6.545   1.612
  523SOL    HW1 2468   0.693   6.569   1.654
  523SOL    HW2 2469   0.619   6.535   1.513
  524SOL     OW 2470   6.822   2.235   1.689
  524SOL    HW1 2471   6.825   2.221   1.788
  524SOL    HW2 2472   6.792   2.151   1.644
  525SOL     OW 2473   1.946   3.501   5.944
  525SOL    HW1 2474   1.971   3.551   5.860
  525SOL    HW2 2475   2.008   3.527   6.018
  526SOL     OW 2476   2.824   6.746   4.214
  526SOL    HW1 2477   2.899   6.810   4.233
  526SOL    HW2 2478   2.834   6.711   4.121
  527SOL     OW 2479   0.904   1.655   0.436
  527SOL    HW1 2480   1.004   1.662   0.437
  527SOL    HW2 2481   0.867   1.696   0.519
  528SOL     OW 2482   6.775   3.205   4.310
  528SOL    HW1 2483   6.854   3.179   4.365
  528SOL    HW2 2484   6.799   3.280   4.249
  529SOL     OW 2485   1.794   0.393   6.546
  529SOL    HW1 2486   1.880   0.441   6.564
  529SOL    HW2 2487   1.743   0.385   6.632
  530SOL     OW 2488   4.008   3.731   0.853
  530SOL    HW1 2489   3.935   3.664   0.868
  530SOL    HW2 2490   4.088   3.685   0.815
  531SOL     OW 2491   1.530   0.494   1.327
  531SOL    HW1 2492   1.615   0.441   1.336
  531SOL    HW2 2493   1.517   0.520   1.231
  532SOL     OW 2494   2.752   2.081   1.092
  532SOL    HW1 2495   2.811   2.109   1.017
  532SOL    HW2 2496   2.751   2.154   1.161
  533SOL     OW 2497   3.270   0.319   4.094
  533SOL    HW1 2498   3.269   0.263   4.177
  533SOL    HW2 2499   3.360   0.313   4.050
  534SOL     OW 2500   1.196   5.228   1.349
  534SOL    HW1 2501   1.104   5.188   1.344
  534SOL    HW2 2502   1.200   5.308   1.288
  535SOL     OW 2503   5.219   3.680   3.879
  535SOL    HW1 2504   5.274   3.620   3.936
  535SOL    HW2 2505   5.126   3.684   3.914
  536SOL     OW 2506   6.407   6.171   2.279
  536SOL    HW1 2507   6.365   6.188   2.368
  536SOL    HW2 2508   6.450   6.255   2.246
  537SOL     OW 2509   2.827   1.237   4.630
  537SOL    HW1 2510   2.804   1.312   4.568
  537SOL    HW2 2511   2.797   1.150   4.590
  538SOL     OW 2512   2.861   4.699   5.666
  538SOL    HW1 2513   2.947   4.746   5.688
  538SOL    HW2 2514   2.789   4.767   5.650
  539SOL     OW 2515   1.162   0.002   0.118
  539SOL    HW1 2516   1.215   0.011   0.202
  539SOL    HW2 2517   1.097   6.947   0.127
  540SOL     OW 2518   0.714   0.631   4.073
  540SOL    HW1 2519   0.681   0.573   3.998
  540SOL    HW2 2520   0.692   0.727   4.054
  541SOL     OW 2521   4.406   6.204   4.429
  541SOL    HW1 2522   4.370   6.295   4.445
  541SOL    HW2 2523   4.424   6.159   4.517
  542SOL     OW 2524   3.017   0.303   6.665
  542SOL    HW1 2525   3.064   0.217   6.684
  542SOL    HW2 2526   2.939   0.286   6.604
  543SOL     OW 2527   5.547   2.121   4.006
  543SOL    HW1 2528   5.470   2.090   4.062
  543SOL    HW2 2529   5.631   2.078   4.038
  544SOL     OW 2530   1.215   3.984   1.152
  544SOL    HW1 2531   1.241   4.007   1.058
  544SOL    HW2 2532   1.295   3.952   1.202
  545SOL     OW 2533   6.037   1.708   1.186
  545SOL    HW1 2534   5.949   1.678   1.224
  545SOL    HW2 2535   6.021   1.761   1.103
  546SOL     OW 2536   0.486   3.825   2.567
  546SOL    HW1 2537   0.443   3.899   2.514
  546SOL    HW2 2538   0.461   3.835   2.663
  547SOL     OW 2539   3.902   1.509   6.245
  547SOL    HW1 2540   3.980   1.513   6.183
  547SOL    HW2 2541   3.905   1.423   6.298
  548SOL     OW 2542   3.199   2.993   6.871
  548SOL    HW1 2543   3.139   2.968   6.795
  548SOL    HW2 2544   3.181   3.088   6.899
  549SOL     OW 2545   6.202   2.310   0.928
  549SOL    HW1 2546   6.197   2.409   0.938
  549SOL    HW2 2547   6.221   2.268   1.017
  550SOL     OW 2548   0.115   5.689   3.156
  550SOL    HW1 2549   0.119   5.759   3.084
  550SOL    HW2 2550   0.207   5.674   3.193
  551SOL     OW 2551   6.297   1.437   0.498
  551SOL    HW1 2552   6.246   1.428   0.583
  551SOL    HW2 2553   6.308   1.347   0.456
  552SOL     OW 2554   6.093   5.423   5.639
  552SOL    HW1 2555   6.025   5.471   5.585
  552SOL    HW2 2556   6.183   5.434   5.597
  553SOL     OW 2557   3.354   0.708   5.303
  553SOL    HW1 2558   3.301   0.776   5.252
  553SOL    HW2 2559   3.292   0.652   5.358
  554SOL     OW 2560   5.973   6.047   0.719
  554SOL    HW1 2561   5.937   6.052   0.812
  554SOL    HW2 2562   5.956   6.134   0.672
  555SOL     OW 2563   2.121   4.553   5.999
  555SOL    HW1 2564   2.065   4.544   6.082
  555SOL    HW2 2565   2.211   4.513   6.015
  556SOL     OW 2566   5.213   1.102   3.722
  556SOL    HW1 2567   5.273   1.119   3.644
  556SOL    HW2 2568   5.249   1.024   3.774
  557SOL     OW 2569   6.387   4.394   6.385
  557SOL    HW1 2570   6.348   4.456   6.317
  557SOL    HW2 2571   6.328   4.315   6.396
  558SOL     OW 2572   3.357   3.806   2.332
  558SOL    HW1 2573   3.365   3.895   2.287
  558SOL    HW2 2574   3.438   3.789   2.388
  559SOL     OW 2575   6.122   6.443   5.487
  559SOL    HW1 2576   6.182   6.367   5.510
  559SOL    HW2 2577   6.052   6.413   5.422
  560SOL     OW 2578   6.299   3.295   2.641
  560SOL    HW1 2579   6.255   3.385   2.636
  560SOL    HW2 2580   6.243   3.228   2.592
  561SOL     OW 2581   1.018   3.068   6.417
  561SOL    HW1 2582   0.980   2.975   6.414
  561SOL    HW2 2583   1.118   3.062   6.419
  562SOL     OW 2584   3.918   0.552   5.709
  562SOL    HW1 2585   3.942   0.516   5.619
  562SOL    HW2 2586   3.825   0.589   5.707
  563SOL     OW 2587   1.859   1.981   4.320
  563SOL    HW1 2588   1.866   1.935   4.231
  563SOL    HW2 2589   1.768   1.964   4.359
  564SOL     OW 2590   0.118   1.920   5.007
  564SOL    HW1 2591   0.072   2.006   5.029
  564SOL    HW2 2592   0.210   1.921   5.046
  565SOL     OW 2593   3.431   3.220   3.404
  565SOL    HW1 2594   3.481   3.216   3.318
  565SOL    HW2 2595   3.333   3.232   3.385
  566SOL     OW 2596   3.118   6.301   2.909
  566SOL    HW1 2597   3.171   6.325   2.990
  566SOL    HW2 2598   3.121   6.202   2.895
  567SOL     OW 2599   2.151   3.280   6.609
  567SOL    HW1 2600   2.209   3.234   6.676
  567SOL    HW2 2601   2.172   3.378   6.609
  568SOL     OW 2602   6.893   6.923   0.836
  568SOL    HW1 2603   6.793   6.928   0.840
  568SOL    HW2 2604   6.931   7.016   0.837
  569SOL     OW 2605   0.158   1.953   0.464
  569SOL    HW1 2606   0.125   1.947   0.369
  569SOL    HW2 2607   0.216   2.034   0.474
  570SOL     OW 2608   2.813   0.300   5.929
  570SOL    HW1 2609   2.884   0.341   5.872
  570SOL    HW2 2610   2.728   0.352   5.919
  571SOL     OW 2611   2.645   4.989   2.711
  571SOL    HW1 2612   2.677   4.907   2.759
  571SOL    HW2 2613   2.695   5.069   2.744
  572SOL     OW 2614   2.416   6.591   4.119
  572SOL    HW1 2615   2.461   6.678   4.142
  572SOL    HW2 2616   2.411   6.582   4.020
  573SOL     OW 2617   6.880   1.482   5.450
  573SOL    HW1 2618   6.908   1.455   5.358
  573SOL    HW2 2619   6.957   1.524   5.498
  574SOL     OW 2620   2.724   1.852   5.481
  574SOL    HW1 2621   2.652   1.809   5.427
  574SOL    HW2 2622   2.799   1.879   5.420
  575SOL     OW 2623   3.072   3.538   0.791
  575SOL    HW1 2624   3.144   3.470   0.772
  575SOL    HW2 2625   3.035   3.521   0.883
  576SOL     OW 2626   1.806   2.942   2.949
  576SOL    HW1 2627   1.901   2.940   2.920
  576SOL    HW2 2628   1.790   2.870   3.018
  577SOL     OW 2629   0.853   1.459   1.784
  577SOL    HW1 2630   0.922   1.394   1.752
  577SOL    HW2 2631   0.831   1.439   1.880
  578SOL     OW 2632   2.123   5.668   6.609
  578SOL    HW1 2633   2.119   5.760   6.649
  578SOL    HW2 2634   2.048   5.658   6.544
  579SOL     OW 2635   2.374   4.589   2.172
  579SOL    HW1 2636   2.388   4.497   2.208
  579SOL    HW2 2637   2.457   4.619   2.124
  580SOL     OW 2638   4.304   5.217   4.816
  580SOL    HW1 2639   4.340   5.140   4.868
  580SOL    HW2 2640   4.317   5.301   4.867
  581SOL     OW 2641   1.430   3.093   4.051
  581SOL    HW1 2642   1.521   3.076   4.014
  581SOL    HW2 2643   1.416   3.035   4.132
  582SOL     OW 2644   5.459   5.200   3.597
  582SOL    HW1 2645   5.522   5.150   3.656
  582SOL    HW2 2646   5.465   5.298   3.616
  583SOL     OW 2647   3.375   4.865   5.658
  583SOL    HW1 2648   3.443   4.937   5.644
  583SOL    HW2 2649   3.302   4.899   5.717
  584SOL     OW 2650   4.488   0.821   6.802
  584SOL    HW1 2651   4.490   0.731   6.759
  584SOL    HW2 2652   4.403   0.831   6.855
  585SOL     OW 2653   2.506   6.451   1.484
  585SOL    HW1 2654   2.548   6.361   1.497
  585SOL    HW2 2655   2.578   6.520   1.477
  586SOL     OW 2656   4.488   6.910   1.084
  586SOL    HW1 2657   4.572   6.913   1.137
  586SOL    HW2 2658   4.413   6.947   1.138
  587SOL     OW 2659   5.355   2.174   2.088
  587SOL    HW1 2660   5.378   2.136   2.178
  587SOL    HW2 2661   5.290   2.249   2.099
  588SOL     OW 2662   1.279   5.545   2.201
  588SOL    HW1 2663   1.215   5.614   2.170
  588SOL    HW2 2664   1.260   5.458   2.155
  589SOL     OW 2665   3.541   6.077   1.565
  589SOL    HW1 2666   3.531   6.175   1.545
  589SOL    HW2 2667   3.493   6.024   1.496
  590SOL     OW 2668   4.892   1.632   0.148
  590SOL    HW1 2669   4.959   1.560   0.130
  590SOL    HW2 2670   4.936   1.721   0.139
  591SOL     OW 2671   4.178   6.084   4.363
  591SOL    HW1 2672   4.154   6.125   4.275
  591SOL    HW2 2673   4.268   6.116   4.391
  592SOL     OW 2674   4.436   2.488   4.542
  592SOL    HW1 2675   4.363   2.536   4.591
  592SOL    HW2 2676   4.525   2.525   4.571
  593SOL     OW 2677   3.463   1.651   5.443
  593SOL    HW1 2678   3.413   1.570   5.413
  593SOL    HW2 2679   3.538   1.623   5.502
  594SOL     OW 2680   6.199   1.229   1.664
  594SOL    HW1 2681   6.131   1.296   1.635
  594SOL    HW2 2682   6.281   1.238   1.608
  595SOL     OW 2683   5.239   6.043   2.753
  595SOL    HW1 2684   5.309   5.980   2.787
  595SOL    HW2 2685   5.227   6.118   2.818
  596SOL     OW 2686   6.721   4.120   3.815
  596SOL    HW1 2687   6.737   4.026   3.846
  596SOL    HW2 2688   6.721   4.181   3.894
  597SOL     OW 2689   2.878   0.187   6.469
  597SOL    HW1 2690   2.830   0.253   6.411
  597SOL    HW2 2691   2.828   0.101   6.470
  598SOL     OW 2692   3.178   3.042   4.631
  598SOL    HW1 2693   3.187   2.974   4.703
  598SOL    HW2 2694   3.144   3.128   4.671
  599SOL     OW 2695   0.981   5.828   1.918
  599SOL    HW1 2696   1.064   5.848   1.865
  599SOL    HW2 2697   0.923   5.765   1.866
  600SOL     OW 2698   7.002   4.099   5.025
  600SOL    HW1 2699   0.080   4.086   5.011
  600SOL    HW2 2700   6.956   4.010   5.023
  601SOL     OW 2701   1.372   0.739   5.221
  601SOL    HW1 2702   1.274   0.719   5.226
  601SOL    HW2 2703   1.420   0.689   5.293
  602SOL     OW 2704   2.800   6.034   4.444
  602SOL    HW1 2705   2.862   5.979   4.500
  602SOL    HW2 2706   2.742   6.091   4.503
  603SOL     OW 2707   1.894   0.774   5.372
  603SOL    HW1 2708   1.830   0.848   5.395
  603SOL    HW2 2709   1.976   0.814   5.330
  604SOL     OW 2710   6.546   2.689   1.797
  604SOL    HW1 2711   6.463   2.728   1.837
  604SOL    HW2 2712   6.616   2.760   1.792
  605SOL     OW 2713   0.087   5.190   2.364
  605SOL    HW1 2714   7.013   5.194   2.331
  605SOL    HW2 2715   0.110   5.095   2.388
  606SOL     OW 2716   3.475   0.203   4.669
  606SOL    HW1 2717   3.533   0.212   4.750
  606SOL    HW2 2718   3.490   0.281   4.609
  607SOL     OW 2719   1.182   4.825   6.222
  607SOL    HW1 2720   1.171   4.742   6.167
  607SOL    HW2 2721   1.110   4.890   6.201
  608SOL     OW 2722   3.546   0.581   5.557
  608SOL    HW1 2723   3.456   0.601   5.519
  608SOL    HW2 2724   3.573   0.488   5.531
  609SOL     OW 2725   4.011   2.601   1.687
  609SOL    HW1 2726   3.963   2.689   1.685
  609SOL    HW2 2727   4.086   2.603   1.621
  610SOL     OW 2728   4.629   3.524   0.658
  610SOL    HW1 2729   4.659   3.514   0.753
  610SOL    HW2 2730   4.700   3.486   0.597
  611SOL     OW 2731   3.759   6.951   1.994
  611SOL    HW1 2732   3.813   0.012   1.974
  611SOL    HW2 2733   3.676   6.977   2.042
  612SOL     OW 2734   3.835   4.350   5.882
  612SOL    HW1 2735   3.927   4.313   5.894
  612SOL    HW2 2736   3.824   4.383   5.788
  613SOL     OW 2737   4.292   5.400   5.265
  613SOL    HW1 2738   4.385   5.364   5.277
  613SOL    HW2 2739   4.274   5.468   5.336
  614SOL     OW 2740   5.309   5.704   5.943
  614SOL    HW1 2741   5.308   5.635   5.869
  614SOL    HW2 2742   5.372   5.778   5.919
  615SOL     OW 2743   0.330   4.931   0.816
  615SOL    HW1 2744   0.371   4.901   0.902
  615SOL    HW2 2745   0.245   4.981   0.834
  616SOL     OW 2746   5.766   2.959   3.204
  616SOL    HW1 2747   5.711   2.890   3.157
  616SOL    HW2 2748   5.739   2.962   3.301
  617SOL     OW 2749   2.515   5.258   6.117
  617SOL    HW1 2750   2.614   5.271   6.122
  617SOL    HW2 2751   2.490   5.171   6.160
  618SOL     OW 2752   1.127   1.130   1.966
  618SOL    HW1 2753   1.214   1.081   1.955
  618SOL    HW2 2754   1.136   1.198   2.038
  619SOL     OW 2755   1.076   1.307   6.449
  619SOL    HW1 2756   1.150   1.364   6.487
  619SOL    HW2 2757   0.989   1.335   6.490
  620SOL     OW 2758   4.814   3.436   0.208
  620SOL    HW1 2759   4.748   3.474   0.143
  620SOL    HW2 2760   4.898   3.411   0.159
  621SOL     OW 2761   0.604   4.736   0.491
  621SOL    HW1 2762   0.556   4.821   0.513
  621SOL    HW2 2763   0.693   4.757   0.450
  622SOL     OW 2764   2.106   1.504   0.330
  622SOL    HW1 2765   2.142   1.487   0.239
  622SOL    HW2 2766   2.148   1.586   0.368
  623SOL     OW 2767   0.640   4.823   6.279
  623SOL    HW1 2768   0.549   4.793   6.306
  623SOL    HW2 2769   0.671   4.895   6.341
  624SOL     OW 2770   0.933   2.768   2.915
  624SOL    HW1 2771   0.892   2.704   2.980
  624SOL    HW2 2772   1.032   2.774   2.932
  625SOL     OW 2773   2.654   1.364   2.333
  625SOL    HW1 2774   2.735   1.336   2.384
  625SOL    HW2 2775   2.661   1.461   2.309
  626SOL     OW 2776   2.102   6.657   4.346
  626SOL    HW1 2777   2.060   6.710   4.272
  626SOL    HW2 2778   2.177   6.602   4.310
  627SOL     OW 2779   5.179   0.856   0.454
  627SOL    HW1 2780   5.134   0.916   0.521
  627SOL    HW2 2781   5.205   0.910   0.374
  628SOL     OW 2782   4.694   4.149   4.299
  628SOL    HW1 2783   4.712   4.122   4.393
  628SOL    HW2 2784   4.686   4.248   4.293
  629SOL     OW 2785   0.398   6.852   1.304
  629SOL    HW1 2786   0.447   6.932   1.270
  629SOL    HW2 2787   0.418   6.840   1.401
  630SOL     OW 2788   4.327   1.169   1.071
  630SOL    HW1 2789   4.396   1.230   1.110
  630SOL    HW2 2790   4.370   1.107   1.005
  631SOL     OW 2791   2.276   6.980   5.730
  631SOL    HW1 2792   2.232   7.018   5.648
  631SOL    HW2 2793   2.320   0.034   5.782
  632SOL     OW 2794   2.416   0.950   1.114
  632SOL    HW1 2795   2.395   1.045   1.091
  632SOL    HW2 2796   2.345   0.914   1.175
  633SOL     OW 2797   3.202   6.703   6.502
  633SOL    HW1 2798   3.250   6.789   6.486
  633SOL    HW2 2799   3.260   6.627   6.473
  634SOL     OW 2800   4.200   5.777   0.806
  634SOL    HW1 2801   4.245   5.862   0.777
  634SOL    HW2 2802   4.105   5.778   0.775
  635SOL     OW 2803   2.733   6.947   2.882
  635SOL    HW1 2804   2.694   6.933   2.791
  635SOL    HW2 2805   2.670   6.914   2.951
  636SOL     OW 2806   5.067   5.335   6.649
  636SOL    HW1 2807   5.061   5.242   6.686
  636SOL    HW2 2808   5.049   5.334   6.551
  637SOL     OW 2809   5.011   4.743   1.339
  637SOL    HW1 2810   4.971   4.704   1.256
  637SOL    HW2 2811   4.943   4.745   1.412
  638SOL     OW 2812   4.686   1.104   2.000
  638SOL    HW1 2813   4.665   1.200   1.982
  638SOL    HW2 2814   4.656   1.080   2.092
  639SOL     OW 2815   4.065   4.741   2.184
  639SOL    HW1 2816   4.106   4.757   2.094
  639SOL    HW2 2817   4.105   4.660   2.226
  640SOL     OW 2818   3.132   4.200   5.237
  640SOL    HW1 2819   3.152   4.297   5.253
  640SOL    HW2 2820   3.035   4.190   5.217
  641SOL     OW 2821   6.876   5.885   4.915
  641SOL    HW1 2822   6.807   5.816   4.892
  641SOL    HW2 2823   6.841   5.976   4.889
  642SOL     OW 2824   0.443   4.752   4.789
  642SOL    HW1 2825   0.537   4.722   4.806
  642SOL    HW2 2826   0.409   4.800   4.870
  643SOL     OW 2827   6.255   5.306   5.983
  643SOL    HW1 2828   6.314   5.291   6.063
  643SOL    HW2 2829   6.164   5.333   6.014
  644SOL     OW 2830   0.606   6.695   2.578
  644SOL    HW1 2831   0.634   6.630   2.508
  644SOL    HW2 2832   0.592   6.647   2.665
  645SOL     OW 2833   5.566   2.715   4.030
  645SOL    HW1 2834   5.557   2.755   4.122
  645SOL    HW2 2835   5.538   2.619   4.032
  646SOL     OW 2836   1.426   1.191   4.616
  646SOL    HW1 2837   1.475   1.104   4.619
  646SOL    HW2 2838   1.381   1.207   4.704
  647SOL     OW 2839   6.016   3.183   0.312
  647SOL    HW1 2840   6.065   3.144   0.234
  647SOL    HW2 2841   5.923   3.209   0.284
  648SOL     OW 2842   5.700   4.210   2.074
  648SOL    HW1 2843   5.680   4.112   2.078
  648SOL    HW2 2844   5.776   4.226   2.011
  649SOL     OW 2845   4.156   4.738   0.794
  649SOL    HW1 2846   4.169   4.751   0.892
  649SOL    HW2 2847   4.163   4.641   0.772
  650SOL     OW 2848   4.777   4.178   0.359
  650SOL    HW1 2849   4.839   4.243   0.402
  650SOL    HW2 2850   4.810   4.085   0.376
  651SOL     OW 2851   0.952   5.979   0.615
  651SOL    HW1 2852   0.910   5.978   0.706
  651SOL    HW2 2853   1.048   5.952   0.622
  652SOL     OW 2854   4.650   1.428   2.635
  652SOL    HW1 2855   4.615   1.493   2.703
  652SOL    HW2 2856   4.575   1.372   2.601
  653SOL     OW 2857   3.661   4.921   4.056
  653SOL    HW1 2858   3.601   4.862   4.001
  653SOL    HW2 2859   3.615   4.944   4.142
  654SOL     OW 2860   0.087   4.925   6.661
  654SOL    HW1 2861   0.079   4.879   6.750
  654SOL    HW2 2862   0.083   4.857   6.588
  655SOL     OW 2863   0.864   0.711   0.703
  655SOL    HW1 2864   0.917   0.716   0.618
  655SOL    HW2 2865   0.906   0.643   0.764
  656SOL     OW 2866   2.180   6.535   2.677
  656SOL    HW1 2867   2.174   6.548   2.776
  656SOL    HW2 2868   2.088   6.538   2.638
  657SOL     OW 2869   3.736   1.484   0.518
  657SOL    HW1 2870   3.812   1.449   0.465
  657SOL    HW2 2871   3.681   1.407   0.553
  658SOL     OW 2872   2.867   3.888   6.876
  658SOL    HW1 2873   2.921   3.809   6.904
  658SOL    HW2 2874   2.839   3.878   6.781
  659SOL     OW 2875   3.299   6.870   6.943
  659SOL    HW1 2876   3.260   6.961   6.960
  659SOL    HW2 2877   3.236   6.816   6.887
  660SOL     OW 2878   3.522   5.512   2.686
  660SOL    HW1 2879   3.546   5.415   2.684
  660SOL    HW2 2880   3.597   5.565   2.646
  661SOL     OW 2881   4.262   5.503   2.850
  661SOL    HW1 2882   4.230   5.539   2.762
  661SOL    HW2 2883   4.188   5.454   2.895
  662SOL     OW 2884   3.360   1.339   6.174
  662SOL    HW1 2885   3.456   1.357   6.154
  662SOL    HW2 2886   3.303   1.401   6.120
  663SOL     OW 2887   2.436   4.995   5.308
  663SOL    HW1 2888   2.497   5.055   5.257
  663SOL    HW2 2889   2.436   4.904   5.266
  664SOL     OW 2890   6.568   0.313   6.854
  664SOL    HW1 2891   6.579   0.332   6.756
  664SOL    HW2 2892   6.609   0.224   6.875
  665SOL     OW 2893   2.604   5.588   3.380
  665SOL    HW1 2894   2.615   5.525   3.303
  665SOL    HW2 2895   2.668   5.563   3.453
  666SOL     OW 2896   3.796   0.475   1.771
  666SOL    HW1 2897   3.788   0.418   1.853
  666SOL    HW2 2898   3.842   0.560   1.794
  667SOL     OW 2899   0.869   6.456   1.825
  667SOL    HW1 2900   0.789   6.413   1.867
  667SOL    HW2 2901   0.880   6.421   1.732
  668SOL     OW 2902   5.474   4.306   6.160
  668SOL    HW1 2903   5.532   4.286   6.081
  668SOL    HW2 2904   5.523   4.284   6.244
  669SOL     OW 2905   5.438   1.257   2.607
  669SOL    HW1 2906   5.364   1.321   2.628
  669SOL    HW2 2907   5.430   1.226   2.512
  670SOL     OW 2908   1.149   2.417   3.665
  670SOL    HW1 2909   1.095   2.497   3.639
  670SOL    HW2 2910   1.145   2.406   3.764
  671SOL     OW 2911   2.083   6.322   1.425
  671SOL    HW1 2912   1.995   6.295   1.463
  671SOL    HW2 2913   2.114   6.254   1.358
  672SOL     OW 2914   0.389   6.619   2.012
  672SOL    HW1 2915   0.317   6.687   1.998
  672SOL    HW2 2916   0.367   6.565   2.093
  673SOL     OW 2917   5.428   6.413   1.056
  673SOL    HW1 2918   5.460   6.495   1.009
  673SOL    HW2 2919   5.338   6.388   1.022
  674SOL     OW 2920   6.803   1.030   4.966
  674SOL    HW1 2921   6.715   1.032   5.014
  674SOL    HW2 2922   6.871   1.079   5.020
  675SOL     OW 2923   6.097   2.437   2.626
  675SOL    HW1 2924   6.167   2.417   2.695
  675SOL    HW2 2925   6.018   2.479   2.671
  676SOL     OW 2926   2.253   4.524   5.404
  676SOL    HW1 2927   2.210   4.557   5.488
  676SOL    HW2 2928   2.349   4.506   5.421
  677SOL     OW 2929   4.667   1.146   1.184
  677SOL    HW1 2930   4.749   1.158   1.127
  677SOL    HW2 2931   4.651   1.049   1.199
  678SOL     OW 2932   2.375   4.236   5.566
  678SOL    HW1 2933   2.405   4.269   5.476
  678SOL    HW2 2934   2.309   4.161   5.554
  679SOL     OW 2935   4.975   1.504   5.277
  679SOL    HW1 2936   4.995   1.497   5.179
  679SOL    HW2 2937   4.885   1.544   5.290
  680SOL     OW 2938   5.267   6.786   3.930
  680SOL    HW1 2939   5.235   6.875   3.897
  680SOL    HW2 2940   5.265   6.786   4.030
  681SOL     OW 2941   5.237   5.862   2.126
  681SOL    HW1 2942   5.267   5.937   2.067
  681SOL    HW2 2943   5.287   5.866   2.213
  682SOL     OW 2944   1.152   1.094   2.604
  682SOL    HW1 2945   1.240   1.136   2.580
  682SOL    HW2 2946   1.137   1.013   2.548
  683SOL     OW 2947   4.158   3.749   1.258
  683SOL    HW1 2948   4.247   3.781   1.290
  683SOL    HW2 2949   4.167   3.658   1.217
  684SOL     OW 2950   6.303   0.169   6.274
  684SOL    HW1 2951   6.375   0.115   6.231
  684SOL    HW2 2952   6.242   0.205   6.203
  685SOL     OW 2953   3.528   0.803   3.303
  685SOL    HW1 2954   3.529   0.709   3.335
  685SOL    HW2 2955   3.600   0.856   3.348
  686SOL     OW 2956   4.058   1.298   4.343
  686SOL    HW1 2957   4.093   1.392   4.335
  686SOL    HW2 2958   4.131   1.238   4.376
  687SOL     OW 2959   1.172   1.990   4.753
  687SOL    HW1 2960   1.185   1.891   4.755
  687SOL    HW2 2961   1.106   2.013   4.680
  688SOL     OW 2962   6.578   1.663   6.855
  688SOL    HW1 2963   6.610   1.579   6.812
  688SOL    HW2 2964   6.657   1.719   6.881
  689SOL     OW 2965   1.677   5.103   5.571
  689SOL    HW1 2966   1.682   5.053   5.657
  689SOL    HW2 2967   1.763   5.153   5.557
  690SOL     OW 2968   6.311   3.592   2.660
  690SOL    HW1 2969   6.267   3.633   2.740
  690SOL    HW2 2970   6.260   3.616   2.578
  691SOL     OW 2971   4.095   1.699   6.746
  691SOL    HW1 2972   4.126   1.614   6.704
  691SOL    HW2 2973   4.060   1.681   6.838
  692SOL     OW 2974   2.839   1.736   5.218
  692SOL    HW1 2975   2.919   1.737   5.279
  692SOL    HW2 2976   2.851   1.804   5.146
  693SOL     OW 2977   4.978   6.092   3.443
  693SOL    HW1 2978   5.075   6.106   3.465
  693SOL    HW2 2979   4.929   6.179   3.451
  694SOL     OW 2980   4.460   5.725   4.800
  694SOL    HW1 2981   4.525   5.696   4.729
  694SOL    HW2 2982   4.474   5.669   4.882
  695SOL     OW 2983   3.044   6.550   3.854
  695SOL    HW1 2984   3.027   6.452   3.860
  695SOL    HW2 2985   2.973   6.599   3.906
  696SOL     OW 2986   5.132   4.062   3.034
  696SOL    HW1 2987   5.110   4.104   3.123
  696SOL    HW2 2988   5.076   3.981   3.021
  697SOL     OW 2989   0.621   4.750   2.347
  697SOL    HW1 2990   0.691   4.748   2.418
  697SOL    HW2 2991   0.659   4.789   2.263
  698SOL     OW 2992   5.147   6.713   1.485
  698SOL    HW1 2993   5.126   6.687   1.580
  698SOL    HW2 2994   5.176   6.808   1.483
  699SOL     OW 2995   2.864   1.982   0.565
  699SOL    HW1 2996   2.843   1.885   0.573
  699SOL    HW2 2997   2.962   1.996   0.574
  700SOL     OW 2998   3.348   0.209   2.721
  700SOL    HW1 2999   3.274   0.147   2.748
  700SOL    HW2 3000   3.393   0.244   2.803
  701SOL     OW 3001   6.227   4.812   1.644
  701SOL    HW1 3002   6.171   4.804   1.726
  701SOL    HW2 3003   6.201   4.741   1.579
  702SOL     OW 3004   2.763   1.252   4.133
  702SOL    HW1 3005   2.811   1.197   4.065
  702SOL    HW2 3006   2.719   1.192   4.200
  703SOL     OW 3007   3.077   2.886   5.915
  703SOL    HW1 3008   3.138   2.925   5.847
  703SOL    HW2 3009   3.013   2.957   5.947
  704SOL     OW 3010   1.733   3.085   5.999
  704SOL    HW1 3011   1.715   3.099   5.902
  704SOL    HW2 3012   1.646   3.071   6.047
  705SOL     OW 3013   6.851   6.000   4.076
  705SOL    HW1 3014   6.789   6.073   4.046
  705SOL    HW2 3015   6.900   5.963   3.997
  706SOL     OW 3016   4.500   1.023   5.291
  706SOL    HW1 3017   4.421   0.985   5.340
  706SOL    HW2 3018   4.472   1.104   5.240
  707SOL     OW 3019   3.494   4.934   3.574
  707SOL    HW1 3020   3.583   4.903   3.539
  707SOL    HW2 3021   3.444   4.980   3.502
  708SOL     OW 3022   2.823   0.991   3.248
  708SOL    HW1 3023   2.750   0.939   3.291
  708SOL    HW2 3024   2.806   1.089   3.259
  709SOL     OW 3025   2.046   0.264   1.741
  709SOL    HW1 3026   2.061   0.166   1.755
  709SOL    HW2 3027   1.947   0.283   1.744
  710SOL     OW 3028   4.701   2.859   1.667
  710SOL    HW1 3029   4.691   2.901   1.757
  710SOL    HW2 3030   4.648   2.775   1.663
  711SOL     OW 3031   0.336   2.145   5.767
  711SOL    HW1 3032   0.387   2.061   5.784
  711SOL    HW2 3033   0.309   2.186   5.855
  712SOL     OW 3034   4.603   3.099   0.630
  712SOL    HW1 3035   4.678   3.137   0.683
  712SOL    HW2 3036   4.634   3.019   0.580
  713SOL     OW 3037   4.028   2.778   5.335
  713SOL    HW1 3038   4.064   2.704   5.278
  713SOL    HW2 3039   3.947   2.818   5.291
  714SOL     OW 3040   5.840   4.618   3.422
  714SOL    HW1 3041   5.922   4.629   3.366
  714SOL    HW2 3042   5.815   4.706   3.462
  715SOL     OW 3043   6.467   5.124   5.894
  715SOL    HW1 3044   6.459   5.026   5.875
  715SOL    HW2 3045   6.376   5.164   5.900
  716SOL     OW 3046   1.880   0.883   2.502
  716SOL    HW1 3047   1.830   0.796   2.496
  716SOL    HW2 3048   1.956   0.873   2.566
  717SOL     OW 3049   5.487   4.989   3.857
  717SOL    HW1 3050   5.584   4.995   3.877
  717SOL    HW2 3051   5.469   4.912   3.796
  718SOL     OW 3052   5.221   1.795   4.157
  718SOL    HW1 3053   5.204   1.867   4.224
  718SOL    HW2 3054   5.161   1.806   4.078
  719SOL     OW 3055   6.404   0.737   2.481
  719SOL    HW1 3056   6.427   0.802   2.553
  719SOL    HW2 3057   6.485   0.682   2.458
  720SOL     OW 3058   1.778   1.071   0.113
  720SOL    HW1 3059   1.731   1.141   0.058
  720SOL    HW2 3060   1.807   0.996   0.054
  721SOL     OW 3061   0.132   2.525   2.731
  721SOL    HW1 3062   0.229   2.550   2.733
  721SOL    HW2 3063   0.123   2.426   2.728
  722SOL     OW 3064   4.299   0.112   6.947
  722SOL    HW1 3065   4.357   0.154   7.017
  722SOL    HW2 3066   4.211   0.160   6.943
  723SOL     OW 3067   2.164   6.297   4.045
  723SOL    HW1 3068   2.071   6.272   4.018
  723SOL    HW2 3069   2.196   6.373   3.988
  724SOL     OW 3070   1.121   1.228   3.826
  724SOL    HW1 3071   1.131   1.209   3.728
  724SOL    HW2 3072   1.033   1.274   3.842
  725SOL     OW 3073   1.954   4.574   2.002
  725SOL    HW1 3074   1.978   4.503   2.069
  725SOL    HW2 3075   2.016   4.652   2.013
  726SOL     OW 3076   2.252   5.031   0.508
  726SOL    HW1 3077   2.279   4.943   0.547
  726SOL    HW2 3078   2.215   5.089   0.580
  727SOL     OW 3079   4.409   5.267   5.828
  727SOL    HW1 3080   4.343   5.278   5.903
  727SOL    HW2 3081   4.359   5.261   5.741
  728SOL     OW 3082   0.018   3.238   4.978
  728SOL    HW1 3083   6.969   3.187   4.926
  728SOL    HW2 3084   7.010   3.243   5.074
  729SOL     OW 3085   0.232   3.183   1.206
  729SOL    HW1 3086   0.151   3.236   1.231
  729SOL    HW2 3087   0.259   3.125   1.283
  730SOL     OW 3088   4.951   0.632   2.799
  730SOL    HW1 3089   5.022   0.662   2.862
  730SOL    HW2 3090   4.874   0.696   2.802
  731SOL     OW 3091   4.585   4.516   6.842
  731SOL    HW1 3092   4.639   4.535   6.924
  731SOL    HW2 3093   4.642   4.473   6.773
  732SOL     OW 3094   4.753   1.650   3.004
  732SOL    HW1 3095   4.741   1.715   3.079
  732SOL    HW2 3096   4.846   1.612   3.008
  733SOL     OW 3097   6.486   6.419   3.323
  733SOL    HW1 3098   6.521   6.466   3.242
  733SOL    HW2 3099   6.500   6.477   3.404
  734SOL     OW 3100   5.932   5.379   2.877
  734SOL    HW1 3101   5.942   5.471   2.839
  734SOL    HW2 3102   5.902   5.386   2.972
  735SOL     OW 3103   5.695   0.790   1.970
  735SOL    HW1 3104   5.711   0.860   2.040
  735SOL    HW2 3105   5.597   0.779   1.955
  736SOL     OW 3106   1.483   1.694   4.252
  736SOL    HW1 3107   1.417   1.624   4.226
  736SOL    HW2 3108   1.535   1.665   4.332
  737SOL     OW 3109   5.730   1.218   6.520
  737SOL    HW1 3110   5.787   1.147   6.477
  737SOL    HW2 3111   5.726   1.202   6.619
  738SOL     OW 3112   2.609   4.220   1.382
  738SOL    HW1 3113   2.609   4.179   1.290
  738SOL    HW2 3114   2.516   4.219   1.419
  739SOL     OW 3115   2.933   6.766   4.900
  739SOL    HW1 3116   2.840   6.785   4.931
  739SOL    HW2 3117   2.931   6.739   4.803
  740SOL     OW 3118   5.648   2.076   3.094
  740SOL    HW1 3119   5.713   2.098   3.167
  740SOL    HW2 3120   5.631   1.977   3.092
  741SOL     OW 3121   2.553   0.520   3.848
  741SOL    HW1 3122   2.471   0.577   3.847
  741SOL    HW2 3123   2.529   0.428   3.879
  742SOL     OW 3124   1.530   6.606   1.241
  742SOL    HW1 3125   1.602   6.667   1.207
  742SOL    HW2 3126   1.571   6.522   1.276
  743SOL     OW 3127   1.024   6.045   3.726
  743SOL    HW1 3128   0.935   6.057   3.682
  743SOL    HW2 3129   1.060   5.954   3.706
  744SOL     OW 3130   5.563   1.315   0.466
  744SOL    HW1 3131   5.495   1.256   0.423
  744SOL    HW2 3132   5.621   1.259   0.526
  745SOL     OW 3133   2.023   5.633   4.982
  745SOL    HW1 3134   2.031   5.534   4.984
  745SOL    HW2 3135   2.010   5.664   4.888
  746SOL     OW 3136   5.560   4.622   5.812
  746SOL    HW1 3137   5.596   4.664   5.729
  746SOL    HW2 3138   5.493   4.551   5.788
  747SOL     OW 3139   5.495   5.417   3.285
  747SOL    HW1 3140   5.426   5.367   3.336
  747SOL    HW2 3141   5.583   5.370   3.291
  748SOL     OW 3142   5.596   5.975   2.571
  748SOL    HW1 3143   5.536   5.936   2.641
  748SOL    HW2 3144   5.654   5.903   2.534
  749SOL     OW 3145   5.160   4.396   3.691
  749SOL    HW1 3146   5.069   4.372   3.656
  749SOL    HW2 3147   5.172   4.356   3.782
  750SOL     OW 3148   2.674   1.702   2.006
  750SOL    HW1 3149   2.614   1.628   1.977
  750SOL    HW2 3150   2.745   1.717   1.937
  751SOL     OW 3151   4.732   1.276   0.201
  751SOL    HW1 3152   4.830   1.261   0.214
  751SOL    HW2 3153   4.699   1.223   0.123
  752SOL     OW 3154   3.252   2.702   5.247
  752SOL    HW1 3155   3.161   2.715   5.285
  752SOL    HW2 3156   3.259   2.611   5.206
  753SOL     OW 3157   3.821   4.128   4.990
  753SOL    HW1 3158   3.838   4.046   4.936
  753SOL    HW2 3159   3.907   4.176   5.006
  754SOL     OW 3160   5.353   0.837   6.326
  754SOL    HW1 3161   5.307   0.788   6.253
  754SOL    HW2 3162   5.334   0.793   6.414
  755SOL     OW 3163   3.256   4.406   5.360
  755SOL    HW1 3164   3.307   4.482   5.401
  755SOL    HW2 3165   3.162   4.408   5.393
  756SOL     OW 3166   2.722   5.414   6.503
  756SOL    HW1 3167   2.750   5.379   6.413
  756SOL    HW2 3168   2.744   5.511   6.509
  757SOL     OW 3169   1.872   6.890   2.397
  757SOL    HW1 3170   1.824   6.971   2.430
  757SOL    HW2 3171   1.819   6.808   2.423
  758SOL     OW 3172   3.305   1.464   3.928
  758SOL    HW1 3173   3.388   1.519   3.938
  758SOL    HW2 3174   3.321   1.373   3.966
  759SOL     OW 3175   0.284   3.035   4.233
  759SOL    HW1 3176   0.377   3.030   4.199
  759SOL    HW2 3177   0.225   2.975   4.180
  760SOL     OW 3178   6.696   6.939   3.768
  760SOL    HW1 3179   6.625   6.897   3.825
  760SOL    HW2 3180   6.667   0.010   3.739
  761SOL     OW 3181   4.588   4.192   5.672
  761SOL    HW1 3182   4.498   4.234   5.662
  761SOL    HW2 3183   4.618   4.157   5.583
  762SOL     OW 3184   2.664   6.116   4.977
  762SOL    HW1 3185   2.719   6.042   4.938
  762SOL    HW2 3186   2.567   6.095   4.966
  763SOL     OW 3187   5.794   0.643   6.494
  763SOL    HW1 3188   5.779   0.740   6.510
  763SOL    HW2 3189   5.767   0.620   6.401
  764SOL     OW 3190   5.347   6.747   5.375
  764SOL    HW1 3191   5.329   6.833   5.327
  764SOL    HW2 3192   5.353   6.765   5.473
  765SOL     OW 3193   0.812   6.388   0.983
  765SOL    HW1 3194   0.797   6.426   1.075
  765SOL    HW2 3195   0.888   6.437   0.940
  766SOL     OW 3196   1.578   2.567   5.125
  766SOL    HW1 3197   1.521   2.528   5.198
  766SOL    HW2 3198   1.576   2.506   5.045
  767SOL     OW 3199   0.278   6.791   3.798
  767SOL    HW1 3200   0.194   6.844   3.797
  767SOL    HW2 3201   0.257   6.695   3.779
  768SOL     OW 3202   2.317   6.336   2.169
  768SOL    HW1 3203   2.302   6.254   2.224
  768SOL    HW2 3204   2.409   6.332   2.130
  769SOL     OW 3205   2.829   1.914   5.009
  769SOL    HW1 3206   2.832   1.904   4.909
  769SOL    HW2 3207   2.873   2.000   5.035
  770SOL     OW 3208   2.355   4.831   4.361
  770SOL    HW1 3209   2.417   4.791   4.429
  770SOL    HW2 3210   2.270   4.779   4.359
  771SOL     OW 3211   1.213   5.385   2.527
  771SOL    HW1 3212   1.251   5.442   2.599
  771SOL    HW2 3213   1.188   5.295   2.564
  772SOL     OW 3214   5.103   4.858   6.673
  772SOL    HW1 3215   5.030   4.795   6.698
  772SOL    HW2 3216   5.075   4.952   6.693
  773SOL     OW 3217   1.008   3.365   3.696
  773SOL    HW1 3218   1.108   3.372   3.688
  773SOL    HW2 3219   0.981   3.270   3.680
  774SOL     OW 3220   2.120   1.091   3.449
  774SOL    HW1 3221   2.134   0.993   3.432
  774SOL    HW2 3222   2.035   1.120   3.405
  775SOL     OW 3223   2.052   3.994   4.195
  775SOL    HW1 3224   1.992   3.981   4.117
  775SOL    HW2 3225   2.054   3.911   4.250
  776SOL     OW 3226   1.914   6.359   6.453
  776SOL    HW1 3227   1.995   6.393   6.406
  776SOL    HW2 3228   1.835   6.363   6.392
  777SOL     OW 3229   2.344   3.961   0.074
  777SOL    HW1 3230   2.426   4.017   0.058
  777SOL    HW2 3231   2.345   3.883   0.010
  778SOL     OW 3232   3.479   6.814   1.582
  778SOL    HW1 3233   3.387   6.775   1.596
  778SOL    HW2 3234   3.539   6.785   1.657
  779SOL     OW 3235   0.243   2.216   2.228
  779SOL    HW1 3236   0.311   2.193   2.298
  779SOL    HW2 3237   0.154   2.227   2.271
  780SOL     OW 3238   1.425   1.980   5.388
  780SOL    HW1 3239   1.352   2.012   5.449
  780SOL    HW2 3240   1.460   1.892   5.420
  781SOL     OW 3241   0.507   4.003   0.953
  781SOL    HW1 3242   0.429   4.007   0.890
  781SOL    HW2 3243   0.579   3.946   0.913
  782SOL     OW 3244   1.730   3.821   6.229
  782SOL    HW1 3245   1.682   3.874   6.299
  782SOL    HW2 3246   1.752   3.730   6.265
  783SOL     OW 3247   5.716   4.414   6.549
  783SOL    HW1 3248   5.752   4.462   6.630
  783SOL    HW2 3249   5.647   4.471   6.505
  784SOL     OW 3250   3.237   6.160   0.883
  784SOL    HW1 3251   3.241   6.098   0.961
  784SOL    HW2 3252   3.310   6.229   0.891
  785SOL     OW 3253   0.411   0.501   4.403
  785SOL    HW1 3254   0.437   0.478   4.310
  785SOL    HW2 3255   0.488   0.547   4.449
  786SOL     OW 3256   6.711   0.899   3.355
  786SOL    HW1 3257   6.613   0.913   3.343
  786SOL    HW2 3258   6.759   0.985   3.337
  787SOL     OW 3259   2.671   0.143   0.460
  787SOL    HW1 3260   2.697   0.051   0.432
  787SOL    HW2 3261   2.594   0.175   0.405
  788SOL     OW 3262   4.061   3.396   0.856
  788SOL    HW1 3263   3.983   3.401   0.794
  788SOL    HW2 3264   4.035   3.435   0.945
  789SOL     OW 3265   4.811   5.368   1.257
  789SOL    HW1 3266   4.831   5.275   1.290
  789SOL    HW2 3267   4.823   5.433   1.332
  790SOL     OW 3268   0.587   3.071   2.098
  790SOL    HW1 3269   0.549   2.988   2.138
  790SOL    HW2 3270   0.533   3.097   2.018
  791SOL     OW 3271   3.376   5.041   5.047
  791SOL    HW1 3272   3.306   5.112   5.057
  791SOL    HW2 3273   3.460   5.081   5.012
  792SOL     OW 3274   1.145   1.172   0.945
  792SOL    HW1 3275   1.136   1.177   1.045
  792SOL    HW2 3276   1.081   1.235   0.902
  793SOL     OW 3277   3.496   5.995   3.886
  793SOL    HW1 3278   3.402   5.979   3.856
  793SOL    HW2 3279   3.557   5.931   3.840
  794SOL     OW 3280   3.175   3.460   3.467
  794SOL    HW1 3281   3.196   3.506   3.553
  794SOL    HW2 3282   3.115   3.518   3.412
  795SOL     OW 3283   4.085   0.498   6.254
  795SOL    HW1 3284   4.065   0.589   6.288
  795SOL    HW2 3285   4.030   0.479   6.173
  796SOL     OW 3286   1.833   3.190   6.885
  796SOL    HW1 3287   1.840   3.135   6.801
  796SOL    HW2 3288   1.745   3.236   6.887
  797SOL     OW 3289   4.877   0.003   0.766
  797SOL    HW1 3290   4.912   6.962   0.694
  797SOL    HW2 3291   4.781   0.022   0.749
  798SOL     OW 3292   4.023   6.928   0.476
  798SOL    HW1 3293   4.106   6.904   0.527
  798SOL    HW2 3294   4.025   0.006   0.456
  799SOL     OW 3295   1.454   1.831   6.803
  799SOL    HW1 3296   1.429   1.882   6.886
  799SOL    HW2 3297   1.479   1.737   6.828
  800SOL     OW 3298   6.282   2.066   1.114
  800SOL    HW1 3299   6.260   1.994   1.180
  800SOL    HW2 3300   6.264   2.032   1.021
  801SOL     OW 3301   1.967   5.288   5.341
  801SOL    HW1 3302   1.914   5.295   5.426
  801SOL    HW2 3303   2.052   5.238   5.359
  802SOL     OW 3304   5.390   2.338   6.880
  802SOL    HW1 3305   5.406   2.418   6.938
  802SOL    HW2 3306   5.309   2.353   6.824
  803SOL     OW 3307   2.747   0.601   5.568
  803SOL    HW1 3308   2.728   0.693   5.603
  803SOL    HW2 3309   2.792   0.608   5.479
  804SOL     OW 3310   6.650   0.370   1.613
  804SOL    HW1 3311   6.593   0.289   1.597
  804SOL    HW2 3312   6.637   0.401   1.707
  805SOL     OW 3313   3.192   0.831   3.809
  805SOL    HW1 3314   3.217   0.884   3.890
  805SOL    HW2 3315   3.266   0.837   3.741
  806SOL     OW 3316   1.283   6.453   5.213
  806SOL    HW1 3317   1.379   6.483   5.205
  806SOL    HW2 3318   1.276   6.359   5.181
  807SOL     OW 3319   0.578   6.315   5.496
  807SOL    HW1 3320   0.569   6.415   5.496
  807SOL    HW2 3321   0.525   6.276   5.421
  808SOL     OW 3322   5.684   2.803   0.255
  808SOL    HW1 3323   5.691   2.803   0.155
  808SOL    HW2 3324   5.726   2.720   0.292
  809SOL     OW 3325   1.198   5.338   0.278
  809SOL    HW1 3326   1.162   5.299   0.193
  809SOL    HW2 3327   1.249   5.268   0.328
  810SOL     OW 3328   2.947   3.393   0.480
  810SOL    HW1 3329   2.860   3.433   0.451
  810SOL    HW2 3330   2.968   3.422   0.573
  811SOL     OW 3331   5.483   4.798   4.551
  811SOL    HW1 3332   5.527   4.884   4.526
  811SOL    HW2 3333   5.386   4.802   4.527
  812SOL     OW 3334   0.747   2.675   2.094
  812SOL    HW1 3335   0.718   2.605   2.029
  812SOL    HW2 3336   0.697   2.664   2.179
  813SOL     OW 3337   1.674   1.926   4.964
  813SOL    HW1 3338   1.688   1.946   4.867
  813SOL    HW2 3339   1.592   1.869   4.975
  814SOL     OW 3340   1.091   5.465   2.860
  814SOL    HW1 3341   1.024   5.408   2.811
  814SOL    HW2 3342   1.108   5.426   2.950
  815SOL     OW 3343   4.965   2.297   3.957
  815SOL    HW1 3344   4.964   2.384   3.908
  815SOL    HW2 3345   4.903   2.303   4.036
  816SOL     OW 3346   5.302   3.733   0.317
  816SOL    HW1 3347   5.246   3.795   0.372
  816SOL    HW2 3348   5.362   3.681   0.378
  817SOL     OW 3349   1.122   4.947   0.243
  817SOL    HW1 3350   1.034   4.919   0.204
  817SOL    HW2 3351   1.117   4.944   0.343
  818SOL     OW 3352   5.800   2.804   3.838
  818SOL    HW1 3353   5.857   2.879   3.873
  818SOL    HW2 3354   5.716   2.799   3.892
  819SOL     OW 3355   5.149   2.651   2.064
  819SOL    HW1 3356   5.228   2.605   2.023
  819SOL    HW2 3357   5.143   2.744   2.029
  820SOL     OW 3358   2.292   2.001   5.328
  820SOL    HW1 3359   2.228   2.061   5.279
  820SOL    HW2 3360   2.383   2.009   5.288
  821SOL     OW 3361   5.637   4.040   5.192
  821SOL    HW1 3362   5.578   4.093   5.131
  821SOL    HW2 3363   5.607   3.945   5.195
  822SOL     OW 3364   0.792   4.564   3.704
  822SOL    HW1 3365   0.812   4.467   3.688
  822SOL    HW2 3366   0.715   4.572   3.767
  823SOL     OW 3367   0.904   3.505   5.668
  823SOL    HW1 3368   0.993   3.496   5.714
  823SOL    HW2 3369   0.883   3.602   5.655
  824SOL     OW 3370   5.312   0.943   5.346
  824SOL    HW1 3371   5.267   1.006   5.408
  824SOL    HW2 3372   5.400   0.915   5.384
  825SOL     OW 3373   6.735   6.080   1.024
  825SOL    HW1 3374   6.814   6.140   1.009
  825SOL    HW2 3375   6.663   6.102   0.958
  826SOL     OW 3376   3.880   1.204   5.488
  826SOL    HW1 3377   3.846   1.209   5.394
  826SOL    HW2 3378   3.811   1.241   5.550
  827SOL     OW 3379   3.312   3.910   4.284
  827SOL    HW1 3380   3.344   3.894   4.191
  827SOL    HW2 3381   3.214   3.928   4.284
  828SOL     OW 3382   6.138   5.773   4.884
  828SOL    HW1 3383   6.120   5.698   4.820
  828SOL    HW2 3384   6.212   5.749   4.945
  829SOL     OW 3385   3.440   2.990   2.938
  829SOL    HW1 3386   3.346   2.961   2.922
  829SOL    HW2 3387   3.457   3.076   2.889
  830SOL     OW 3388   6.768   4.537   0.094
  830SOL    HW1 3389   6.813   4.455   0.127
  830SOL    HW2 3390   6.723   4.584   0.170
  831SOL     OW 3391   5.785   6.000   0.979
  831SOL    HW1 3392   5.822   5.984   1.071
  831SOL    HW2 3393   5.766   6.097   0.967
  832SOL     OW 3394   3.348   2.046   4.922
  832SOL    HW1 3395   3.298   1.989   4.988
  832SOL    HW2 3396   3.446   2.024   4.927
  833SOL     OW 3397   1.845   3.196   6.228
  833SOL    HW1 3398   1.799   3.161   6.147
  833SOL    HW2 3399   1.929   3.144   6.245
  834SOL     OW 3400   4.907   3.456   6.773
  834SOL    HW1 3401   4.996   3.490   6.803
  834SOL    HW2 3402   4.868   3.396   6.844
  835SOL     OW 3403   1.322   0.303   4.185
  835SOL    HW1 3404   1.332   0.374   4.114
  835SOL    HW2 3405   1.337   0.343   4.275
  836SOL     OW 3406   3.174   1.203   5.301
  836SOL    HW1 3407   3.149   1.288   5.255
  836SOL    HW2 3408   3.096   1.168   5.353
  837SOL     OW 3409   1.720   0.541   0.786
  837SOL    HW1 3410   1.634   0.579   0.750
  837SOL    HW2 3411   1.755   0.474   0.721
  838SOL     OW 3412   2.020   5.987   3.776
  838SOL    HW1 3413   2.042   5.970   3.680
  838SOL    HW2 3414   1.951   6.059   3.782
  839SOL     OW 3415   1.637   1.666   1.231
  839SOL    HW1 3416   1.624   1.713   1.144
  839SOL    HW2 3417   1.728   1.686   1.267
  840SOL     OW 3418   5.325   5.696   0.115
  840SOL    HW1 3419   5.419   5.707   0.148
  840SOL    HW2 3420   5.319   5.729   0.021
  841SOL     OW 3421   3.688   4.812   5.704
  841SOL    HW1 3422   3.752   4.826   5.629
  841SOL    HW2 3423   3.595   4.832   5.673
  842SOL     OW 3424   3.115   0.451   0.419
  842SOL    HW1 3425   3.034   0.395   0.438
  842SOL    HW2 3426   3.178   0.446   0.496
  843SOL     OW 3427   0.979   1.602   2.157
  843SOL    HW1 3428   0.976   1.502   2.161
  843SOL    HW2 3429   1.058   1.630   2.101
  844SOL     OW 3430   6.253   6.960   1.116
  844SOL    HW1 3431   6.188   0.002   1.160
  844SOL    HW2 3432   6.324   7.015   1.071
  845SOL     OW 3433   3.376   1.862   2.819
  845SOL    HW1 3434   3.290   1.865   2.769
  845SOL    HW2 3435   3.366   1.808   2.902
  846SOL     OW 3436   2.545   1.842   0.365
  846SOL    HW1 3437   2.543   1.907   0.441
  846SOL    HW2 3438   2.520   1.751   0.399
  847SOL     OW 3439   2.637   3.901   1.372
  847SOL    HW1 3440   2.599   3.960   1.300
  847SOL    HW2 3441   2.562   3.859   1.423
  848SOL     OW 3442   6.720   6.368   6.297
  848SOL    HW1 3443   6.819   6.373   6.313
  848SOL    HW2 3444   6.698   6.285   6.246
  849SOL     OW 3445   6.080   4.184   0.391
  849SOL    HW1 3446   6.163   4.136   0.421
  849SOL    HW2 3447   6.104   4.251   0.321
  850SOL     OW 3448   0.155   0.670   5.590
  850SOL    HW1 3449   0.060   0.642   5.600
  850SOL    HW2 3450   0.215   0.593   5.611
  851SOL     OW 3451   6.712   3.136   6.411
  851SOL    HW1 3452   6.774   3.068   6.450
  851SOL    HW2 3453   6.725   3.223   6.458
  852SOL     OW 3454   7.006   3.361   2.122
  852SOL    HW1 3455   6.910   3.359   2.147
  852SOL    HW2 3456   0.008   3.281   2.066
  853SOL     OW 3457   2.117   3.919   0.221
  853SOL    HW1 3458   2.102   3.826   0.253
  853SOL    HW2 3459   2.210   3.926   0.183
  854SOL     OW 3460   6.147   6.393   6.940
  854SOL    HW1 3461   6.228   6.338   6.920
  854SOL    HW2 3462   6.067   6.350   6.898
  855SOL     OW 3463   6.563   1.071   0.402
  855SOL    HW1 3464   6.660   1.071   0.378
  855SOL    HW2 3465   6.510   1.027   0.329
  856SOL     OW 3466   2.261   6.461   6.884
  856SOL    HW1 3467   2.163   6.445   6.872
  856SOL    HW2 3468   2.279   6.486   6.979
  857SOL     OW 3469   6.971   5.193   4.170
  857SOL    HW1 3470   6.971   5.211   4.072
  857SOL    HW2 3471   6.885   5.150   4.196
  858SOL     OW 3472   3.648   3.441   0.385
  858SOL    HW1 3473   3.690   3.359   0.347
  858SOL    HW2 3474   3.565   3.416   0.434
  859SOL     OW 3475   3.951   6.927   5.239
  859SOL    HW1 3476   3.977   6.918   5.143
  859SOL    HW2 3477   3.902   6.846   5.268
  860SOL     OW 3478   5.173   2.793   5.282
  860SOL    HW1 3479   5.217   2.789   5.371
  860SOL    HW2 3480   5.089   2.846   5.288
  861SOL     OW 3481   2.271   5.830   2.362
  861SOL    HW1 3482   2.280   5.749   2.420
  861SOL    HW2 3483   2.175   5.843   2.338
  862SOL     OW 3484   1.670   4.307   3.623
  862SOL    HW1 3485   1.670   4.207   3.621
  862SOL    HW2 3486   1.597   4.339   3.683
  863SOL     OW 3487   0.463   0.432   6.435
  863SOL    HW1 3488   0.551   0.460   6.473
  863SOL    HW2 3489   0.469   0.337   6.404
  864SOL     OW 3490   4.911   6.983   5.282
  864SOL    HW1 3491   4.858   0.036   5.324
  864SOL    HW2 3492   4.889   6.978   5.184
  865SOL     OW 3493   1.750   5.596   4.440
  865SOL    HW1 3494   1.716   5.566   4.529
  865SOL    HW2 3495   1.695   5.555   4.368
  866SOL     OW 3496   2.353   6.582   1.875
  866SOL    HW1 3497   2.291   6.585   1.953
  866SOL    HW2 3498   2.315   6.635   1.800
  867SOL     OW 3499   5.827   2.241   0.388
  867SOL    HW1 3500   5.777   2.307   0.331
  867SOL    HW2 3501   5.781   2.231   0.476
  868SOL     OW 3502   6.729   2.309   2.174
  868SOL    HW1 3503   6.739   2.213   2.145
  868SOL    HW2 3504   6.710   2.366   2.094
  869SOL     OW 3505   0.198   3.994   3.676
  869SOL    HW1 3506   0.241   4.040   3.598
  869SOL    HW2 3507   0.202   4.054   3.756
  870SOL     OW 3508   3.139   5.088   1.432
  870SOL    HW1 3509   3.143   4.993   1.460
  870SOL    HW2 3510   3.089   5.141   1.500
  871SOL     OW 3511   4.946   1.869   3.571
  871SOL    HW1 3512   4.932   1.776   3.538
  871SOL    HW2 3513   5.010   1.917   3.511
  872SOL     OW 3514   6.565   2.648   4.021
  872SOL    HW1 3515   6.586   2.551   4.004
  872SOL    HW2 3516   6.467   2.663   4.010
  873SOL     OW 3517   4.505   6.591   5.700
  873SOL    HW1 3518   4.492   6.640   5.786
  873SOL    HW2 3519   4.598   6.552   5.698
  874SOL     OW 3520   5.628   4.013   0.533
  874SOL    HW1 3521   5.581   4.041   0.449
  874SOL    HW2 3522   5.727   4.015   0.518
  875SOL     OW 3523   5.122   5.208   1.316
  875SOL    HW1 3524   5.108   5.156   1.401
  875SOL    HW2 3525   5.218   5.237   1.310
  876SOL     OW 3526   0.377   5.813   1.984
  876SOL    HW1 3527   0.364   5.715   1.998
  876SOL    HW2 3528   0.289   5.855   1.960
  877SOL     OW 3529   3.242   4.492   0.073
  877SOL    HW1 3530   3.337   4.522   0.079
  877SOL    HW2 3531   3.219   4.472   6.997
  878SOL     OW 3532   3.807   0.177   3.935
  878SOL    HW1 3533   3.895   0.194   3.890
  878SOL    HW2 3534   3.748   0.123   3.875
  879SOL     OW 3535   4.704   0.471   0.576
  879SOL    HW1 3536   4.667   0.384   0.545
  879SOL    HW2 3537   4.803   0.465   0.583
  880SOL     OW 3538   3.090   3.806   3.657
  880SOL    HW1 3539   3.117   3.895   3.692
  880SOL    HW2 3540   3.060   3.816   3.562
  881SOL     OW 3541   4.603   2.342   5.421
  881SOL    HW1 3542   4.617   2.354   5.323
  881SOL    HW2 3543   4.558   2.254   5.437
  882SOL     OW 3544   0.723   3.169   4.699
  882SOL    HW1 3545   0.757   3.204   4.786
  882SOL    HW2 3546   0.623   3.158   4.704
  883SOL     OW 3547   2.981   0.313   2.568
  883SOL    HW1 3548   2.994   0.219   2.600
  883SOL    HW2 3549   3.049   0.372   2.612
  884SOL     OW 3550   4.805   2.995   5.061
  884SOL    HW1 3551   4.888   3.017   5.010
  884SOL    HW2 3552   4.799   3.055   5.141
  885SOL     OW 3553   2.730   1.535   5.868
  885SOL    HW1 3554   2.750   1.614   5.811
  885SOL    HW2 3555   2.692   1.461   5.811
  886SOL     OW 3556   3.398   0.640   0.122
  886SOL    HW1 3557   3.311   0.656   0.076
  886SOL    HW2 3558   3.473   0.648   0.056
  887SOL     OW 3559   3.924   0.564   3.760
  887SOL    HW1 3560   4.020   0.588   3.771
  887SOL    HW2 3561   3.916   0.481   3.705
  888SOL     OW 3562   0.723   1.039   2.919
  888SOL    HW1 3563   0.796   1.031   2.987
  888SOL    HW2 3564   0.760   1.021   2.828
  889SOL     OW 3565   0.860   3.851   6.754
  889SOL    HW1 3566   0.780   3.904   6.781
  889SOL    HW2 3567   0.836   3.754   6.750
  890SOL     OW 3568   2.056   5.488   3.776
  890SOL    HW1 3569   2.060   5.575   3.825
  890SOL    HW2 3570   1.962   5.453   3.778
  891SOL     OW 3571   5.293   5.150   0.899
  891SOL    HW1 3572   5.320   5.061   0.863
  891SOL    HW2 3573   5.364   5.184   0.960
  892SOL     OW 3574   2.450   4.111   5.800
  892SOL    HW1 3575   2.397   4.167   5.735
  892SOL    HW2 3576   2.461   4.019   5.763
  893SOL     OW 3577   2.023   6.321   2.862
  893SOL    HW1 3578   2.055   6.408   2.899
  893SOL    HW2 3579   1.993   6.335   2.767
  894SOL     OW 3580   1.065   3.711   1.554
  894SOL    HW1 3581   1.094   3.791   1.608
  894SOL    HW2 3582   1.070   3.734   1.457
  895SOL     OW 3583   0.518   5.285   3.146
  895SOL    HW1 3584   0.426   5.316   3.171
  895SOL    HW2 3585   0.584   5.326   3.209
  896SOL     OW 3586   6.512   5.369   0.328
  896SOL    HW1 3587   6.598   5.353   0.375
  896SOL    HW2 3588   6.439   5.318   0.373
  897SOL     OW 3589   5.090   1.287   0.532
  897SOL    HW1 3590   5.132   1.219   0.592
  897SOL    HW2 3591   4.998   1.308   0.564
  898SOL     OW 3592   3.259   5.554   2.568
  898SOL    HW1 3593   3.217   5.469   2.535
  898SOL    HW2 3594   3.345   5.532   2.616
  899SOL     OW 3595   0.914   5.595   6.011
  899SOL    HW1 3596   0.821   5.564   6.031
  899SOL    HW2 3597   0.967   5.599   6.096
  900SOL     OW 3598   5.766   6.589   0.073
  900SOL    HW1 3599   5.827   6.591   0.152
  900SOL    HW2 3600   5.713   6.674   0.069
  901SOL     OW 3601   1.854   0.297   2.608
  901SOL    HW1 3602   1.927   0.357   2.574
  901SOL    HW2 3603   1.820   0.333   2.695
  902SOL     OW 3604   6.583   3.253   0.442
  902SOL    HW1 3605   6.523   3.332   0.452
  902SOL    HW2 3606   6.678   3.282   0.440
  903SOL     OW 3607   6.994   2.349   6.253
  903SOL    HW1 3608   0.060   2.369   6.208
  903SOL    HW2 3609   6.960   2.260   6.224
  904SOL     OW 3610   2.966   2.196   3.802
  904SOL    HW1 3611   2.975   2.154   3.892
  904SOL    HW2 3612   2.953   2.124   3.733
  905SOL     OW 3613   5.544   2.452   0.438
  905SOL    HW1 3614   5.496   2.504   0.509
  905SOL    HW2 3615   5.627   2.500   0.411
  906SOL     OW 3616   0.474   1.911   5.947
  906SOL    HW1 3617   0.454   1.855   5.867
  906SOL    HW2 3618   0.464   1.855   6.030
  907SOL     OW 3619   5.119   3.590   6.903
  907SOL    HW1 3620   5.115   3.661   6.973
  907SOL    HW2 3621   5.205   3.596   6.853
  908SOL     OW 3622   2.655   4.692   2.321
  908SOL    HW1 3623   2.697   4.719   2.235
  908SOL    HW2 3624   2.599   4.768   2.356
  909SOL     OW 3625   4.410   5.059   6.679
  909SOL    HW1 3626   4.428   5.156   6.694
  909SOL    HW2 3627   4.495   5.007   6.690
  910SOL     OW 3628   2.652   2.896   1.275
  910SOL    HW1 3629   2.629   2.983   1.232
  910SOL    HW2 3630   2.639   2.822   1.209
  911SOL     OW 3631   1.677   5.736   6.028
  911SOL    HW1 3632   1.706   5.790   5.949
  911SOL    HW2 3633   1.726   5.768   6.110
  912SOL     OW 3634   5.172   2.995   3.469
  912SOL    HW1 3635   5.088   3.044   3.493
  912SOL    HW2 3636   5.173   2.978   3.371
  913SOL     OW 3637   5.444   6.529   3.390
  913SOL    HW1 3638   5.516   6.516   3.321
  913SOL    HW2 3639   5.355   6.537   3.345
  914SOL     OW 3640   2.654   0.500   6.777
  914SOL    HW1 3641   2.749   0.470   6.773
  914SOL    HW2 3642   2.631   0.526   6.871
  915SOL     OW 3643   5.976   5.162   0.411
  915SOL    HW1 3644   5.938   5.240   0.460
  915SOL    HW2 3645   5.921   5.144   0.329
  916SOL     OW 3646   0.931   2.293   2.489
  916SOL    HW1 3647   1.010   2.321   2.543
  916SOL    HW2 3648   0.934   2.339   2.400
  917SOL     OW 3649   0.290   6.694   0.577
  917SOL    HW1 3650   0.208   6.714   0.631
  917SOL    HW2 3651   0.371   6.725   0.627
  918SOL     OW 3652   2.356   6.633   0.959
  918SOL    HW1 3653   2.400   6.625   1.048
  918SOL    HW2 3654   2.423   6.613   0.887
  919SOL     OW 3655   5.900   1.812   3.647
  919SOL    HW1 3656   5.803   1.800   3.669
  919SOL    HW2 3657   5.956   1.768   3.717
  920SOL     OW 3658   2.533   4.539   1.570
  920SOL    HW1 3659   2.458   4.577   1.625
  920SOL    HW2 3660   2.579   4.466   1.622
  921SOL     OW 3661   5.441   5.862   4.540
  921SOL    HW1 3662   5.396   5.950   4.527
  921SOL    HW2 3663   5.462   5.850   4.637
  922SOL     OW 3664   3.834   3.471   4.341
  922SOL    HW1 3665   3.823   3.475   4.242
  922SOL    HW2 3666   3.905   3.404   4.364
  923SOL     OW 3667   2.264   2.980   5.619
  923SOL    HW1 3668   2.337   3.045   5.599
  923SOL    HW2 3669   2.290   2.889   5.588
  924SOL     OW 3670   6.918   4.196   2.211
  924SOL    HW1 3671   6.914   4.102   2.246
  924SOL    HW2 3672   7.012   4.217   2.184
  925SOL     OW 3673   6.767   1.839   0.434
  925SOL    HW1 3674   6.746   1.935   0.419
  925SOL    HW2 3675   6.708   1.782   0.377
  926SOL     OW 3676   0.287   1.909   1.916
  926SOL    HW1 3677   0.337   1.893   1.831
  926SOL    HW2 3678   0.246   2.000   1.913
  927SOL     OW 3679   5.581   4.098   3.961
  927SOL    HW1 3680   5.556   4.014   3.913
  927SOL    HW2 3681   5.635   4.076   4.042
  928SOL     OW 3682   3.434   5.977   6.598
  928SOL    HW1 3683   3.491   5.896   6.616
  928SOL    HW2 3684   3.489   6.059   6.607
  929SOL     OW 3685   6.428   1.283   6.757
  929SOL    HW1 3686   6.434   1.296   6.658
  929SOL    HW2 3687   6.513   1.311   6.800
  930SOL     OW 3688   4.251   4.796   6.296
  930SOL    HW1 3689   4.191   4.845   6.233
  930SOL    HW2 3690   4.333   4.768   6.248
  931SOL     OW 3691   6.220   2.551   3.636
  931SOL    HW1 3692   6.162   2.615   3.688
  931SOL    HW2 3693   6.189   2.547   3.542
  932SOL     OW 3694   3.815   0.689   3.560
  932SOL    HW1 3695   3.874   0.665   3.636
  932SOL    HW2 3696   3.722   0.703   3.593
  933SOL     OW 3697   1.759   4.956   2.854
  933SOL    HW1 3698   1.817   4.979   2.775
  933SOL    HW2 3699   1.807   4.979   2.938
  934SOL     OW 3700   2.265   5.509   6.212
  934SOL    HW1 3701   2.198   5.435   6.216
  934SOL    HW2 3702   2.342   5.482   6.154
  935SOL     OW 3703   5.432   3.776   3.422
  935SOL    HW1 3704   5.427   3.714   3.343
  935SOL    HW2 3705   5.375   3.856   3.403
  936SOL     OW 3706   1.609   0.100   6.103
  936SOL    HW1 3707   1.618   0.003   6.083
  936SOL    HW2 3708   1.661   0.122   6.186
  937SOL     OW 3709   4.293   0.903   5.420
  937SOL    HW1 3710   4.302   0.811   5.457
  937SOL    HW2 3711   4.204   0.940   5.444
  938SOL     OW 3712   6.673   5.554   3.720
  938SOL    HW1 3713   6.580   5.549   3.684
  938SOL    HW2 3714   6.676   5.506   3.808
  939SOL     OW 3715   7.010   6.823   5.084
  939SOL    HW1 3716   0.001   6.803   4.987
  939SOL    HW2 3717   6.914   6.838   5.105
  940SOL     OW 3718   1.556   4.939   0.517
  940SOL    HW1 3719   1.590   5.032   0.529
  940SOL    HW2 3720   1.571   4.886   0.600
  941SOL     OW 3721   4.297   0.120   6.235
  941SOL    HW1 3722   4.217   0.085   6.284
  941SOL    HW2 3723   4.286   0.103   6.137
  942SOL     OW 3724   7.019   5.645   0.967
  942SOL    HW1 3725   0.016   5.625   0.870
  942SOL    HW2 3726   6.926   5.679   0.978
  943SOL     OW 3727   2.823   4.745   2.522
  943SOL    HW1 3728   2.755   4.739   2.596
  943SOL    HW2 3729   2.793   4.690   2.444
  944SOL     OW 3730   0.351   6.216   4.243
  944SOL    HW1 3731   0.436   6.265   4.225
  944SOL    HW2 3732   0.324   6.230   4.338
  945SOL     OW 3733   0.781   5.722   5.527
  945SOL    HW1 3734   0.705   5.757   5.472
  945SOL    HW2 3735   0.757   5.632   5.563
  946SOL     OW 3736   4.835   4.496   4.057
  946SOL    HW1 3737   4.851   4.560   4.133
  946SOL    HW2 3738   4.824   4.547   3.972
  947SOL     OW 3739   3.975   3.964   3.950
  947SOL    HW1 3740   3.897   3.976   4.011
  947SOL    HW2 3741   4.059   3.952   4.004
  948SOL     OW 3742   4.988   1.629   2.168
  948SOL    HW1 3743   5.058   1.692   2.135
  948SOL    HW2 3744   4.942   1.669   2.248
  949SOL     OW 3745   3.254   6.484   6.894
  949SOL    HW1 3746   3.223   6.405   6.840
  949SOL    HW2 3747   3.237   6.466   6.991
  950SOL     OW 3748   6.721   6.167   2.112
  950SOL    HW1 3749   6.711   6.265   2.126
  950SOL    HW2 3750   6.641   6.133   2.061
  951SOL     OW 3751   1.525   0.304   3.270
  951SOL    HW1 3752   1.579   0.254   3.203
  951SOL    HW2 3753   1.446   0.250   3.298
  952SOL     OW 3754   4.242   2.031   1.965
  952SOL    HW1 3755   4.244   2.130   1.977
  952SOL    HW2 3756   4.208   2.009   1.874
  953SOL     OW 3757   0.112   5.305   4.955
  953SOL    HW1 3758   0.016   5.277   4.957
  953SOL    HW2 3759   0.166   5.243   5.011
  954SOL     OW 3760   4.869   5.592   2.458
  954SOL    HW1 3761   4.930   5.648   2.402
  954SOL    HW2 3762   4.777   5.631   2.456
  955SOL     OW 3763   1.115   4.418   6.725
  955SOL    HW1 3764   1.162   4.332   6.747
  955SOL    HW2 3765   1.145   4.450   6.635
  956SOL     OW 3766   6.557   0.373   1.075
  956SOL    HW1 3767   6.539   0.387   0.978
  956SOL    HW2 3768   6.646   0.413   1.098
  957SOL     OW 3769   6.471   2.275   3.556
  957SOL    HW1 3770   6.456   2.333   3.476
  957SOL    HW2 3771   6.474   2.331   3.639
  958SOL     OW 3772   5.420   6.817   2.341
  958SOL    HW1 3773   5.486   6.852   2.407
  958SOL    HW2 3774   5.332   6.864   2.353
  959SOL     OW 3775   3.406   7.017   3.904
  959SOL    HW1 3776   3.319   0.042   3.884
  959SOL    HW2 3777   3.416   7.008   4.004
  960SOL     OW 3778   0.840   0.414   0.251
  960SOL    HW1 3779   0.777   0.355   0.201
  960SOL    HW2 3780   0.933   0.399   0.217
  961SOL     OW 3781   3.082   6.243   3.284
  961SOL    HW1 3782   3.027   6.217   3.364
  961SOL    HW2 3783   3.028   6.301   3.224
  962SOL     OW 3784   6.510   6.888   5.274
  962SOL    HW1 3785   6.566   6.953   5.325
  962SOL    HW2 3786   6.476   6.931   5.191
  963SOL     OW 3787   4.533   2.705   1.079
  963SOL    HW1 3788   4.473   2.644   1.027
  963SOL    HW2 3789   4.477   2.773   1.127
  964SOL     OW 3790   5.155   4.126   5.082
  964SOL    HW1 3791   5.223   4.152   5.014
  964SOL    HW2 3792   5.123   4.207   5.130
  965SOL     OW 3793   5.475   2.277   2.949
  965SOL    HW1 3794   5.545   2.225   2.998
  965SOL    HW2 3795   5.406   2.214   2.912
  966SOL     OW 3796   5.230   1.884   3.746
  966SOL    HW1 3797   5.138   1.872   3.784
  966SOL    HW2 3798   5.240   1.830   3.663
  967SOL     OW 3799   4.759   4.417   6.160
  967SOL    HW1 3800   4.720   4.353   6.093
  967SOL    HW2 3801   4.700   4.419   6.241
  968SOL     OW 3802   3.917   0.257   1.621
  968SOL    HW1 3803   4.011   0.250   1.586
  968SOL    HW2 3804   3.907   0.342   1.672
  969SOL     OW 3805   3.439   4.578   5.492
  969SOL    HW1 3806   3.499   4.638   5.438
  969SOL    HW2 3807   3.490   4.540   5.569
  970SOL     OW 3808   5.970   0.439   5.821
  970SOL    HW1 3809   5.894   0.401   5.767
  970SOL    HW2 3810   5.936   0.468   5.910
  971SOL     OW 3811   6.380   4.336   3.191
  971SOL    HW1 3812   6.293   4.289   3.204
  971SOL    HW2 3813   6.424   4.349   3.280
  972SOL     OW 3814   0.107   2.407   1.289
  972SOL    HW1 3815   0.060   2.495   1.291
  972SOL    HW2 3816   0.090   2.358   1.374
  973SOL     OW 3817   0.113   3.987   6.468
  973SOL    HW1 3818   0.074   3.967   6.558
  973SOL    HW2 3819   0.043   3.976   6.398
  974SOL     OW 3820   0.060   5.030   4.346
  974SOL    HW1 3821   0.007   5.081   4.278
  974SOL    HW2 3822   0.083   5.091   4.422
  975SOL     OW 3823   2.018   6.947   2.181
  975SOL    HW1 3824   1.965   6.923   2.263
  975SOL    HW2 3825   2.115   6.928   2.196
  976SOL     OW 3826   6.190   4.418   1.936
  976SOL    HW1 3827   6.282   4.388   1.912
  976SOL    HW2 3828   6.176   4.410   2.034
  977SOL     OW 3829   0.280   1.490   2.398
  977SOL    HW1 3830   0.299   1.403   2.353
  977SOL    HW2 3831   0.337   1.498   2.480
  978SOL     OW 3832   5.503   2.491   2.214
  978SOL    HW1 3833   5.460   2.574   2.250
  978SOL    HW2 3834   5.567   2.455   2.281
  979SOL     OW 3835   7.015   3.360   0.437
  979SOL    HW1 3836   0.027   3.272   0.401
  979SOL    HW2 3837   6.955   3.343   0.515
  980SOL     OW 3838   3.745   1.443   5.126
  980SOL    HW1 3839   3.670   1.402   5.075
  980SOL    HW2 3840   3.716   1.530   5.165
  981SOL     OW 3841   6.707   0.003   4.961
  981SOL    HW1 3842   6.728   6.926   4.943
  981SOL    HW2 3843   6.746   0.030   5.049
  982SOL     OW 3844   0.403   1.612   5.420
  982SOL    HW1 3845   0.444   1.701   5.399
  982SOL    HW2 3846   0.395   1.559   5.335
  983SOL     OW 3847   0.857   3.585   3.787
  983SOL    HW1 3848   0.892   3.679   3.785
  983SOL    HW2 3849   0.919   3.526   3.736
  984SOL     OW 3850   1.631   1.812   2.614
  984SOL    HW1 3851   1.613   1.762   2.698
  984SOL    HW2 3852   1.563   1.885   2.603
  985SOL     OW 3853   6.310   3.853   4.177
  985SOL    HW1 3854   6.286   3.894   4.088
  985SOL    HW2 3855   6.334   3.757   4.164
  986SOL     OW 3856   5.209   4.436   1.320
  986SOL    HW1 3857   5.210   4.390   1.409
  986SOL    HW2 3858   5.268   4.517   1.325
  987SOL     OW 3859   5.956   5.070   3.327
  987SOL    HW1 3860   6.048   5.029   3.333
  987SOL    HW2 3861   5.957   5.161   3.368
  988SOL     OW 3862   3.423   3.973   1.441
  988SOL    HW1 3863   3.502   3.969   1.502
  988SOL    HW2 3864   3.347   4.017   1.488
  989SOL     OW 3865   0.151   1.968   0.904
  989SOL    HW1 3866   0.091   1.918   0.967
  989SOL    HW2 3867   0.110   1.968   0.812
  990SOL     OW 3868   3.386   0.202   3.181
  990SOL    HW1 3869   3.460   0.138   3.166
  990SOL    HW2 3870   3.303   0.152   3.206
  991SOL     OW 3871   7.001   4.134   4.077
  991SOL    HW1 3872   0.022   4.179   4.157
  991SOL    HW2 3873   0.053   4.091   4.022
  992SOL     OW 3874   0.637   2.780   1.365
  992SOL    HW1 3875   0.622   2.763   1.267
  992SOL    HW2 3876   0.590   2.864   1.392
  993SOL     OW 3877   1.968   5.262   0.935
  993SOL    HW1 3878   2.057   5.243   0.975
  993SOL    HW2 3879   1.898   5.257   1.007
  994SOL     OW 3880   3.405   6.381   0.962
  994SOL    HW1 3881   3.400   6.432   1.048
  994SOL    HW2 3882   3.500   6.354   0.945
  995SOL     OW 3883   5.069   3.957   5.358
  995SOL    HW1 3884   5.099   4.016   5.283
  995SOL    HW2 3885   5.103   3.864   5.342
  996SOL     OW 3886   3.858   6.192   5.638
  996SOL    HW1 3887   3.906   6.280   5.643
  996SOL    HW2 3888   3.783   6.192   5.704
  997SOL     OW 3889   1.523   6.223   4.124
  997SOL    HW1 3890   1.622   6.236   4.129
  997SOL    HW2 3891   1.491   6.246   4.032
  998SOL     OW 3892   5.790   0.192   6.304
  998SOL    HW1 3893   5.809   0.105   6.349
  998SOL    HW2 3894   5.864   0.256   6.323
  999SOL     OW 3895   4.929   3.457   1.855
  999SOL    HW1 3896   4.920   3.407   1.941
  999SOL    HW2 3897   4.853   3.433   1.794
 1000SOL     OW 3898   3.976   1.488   1.538
 1000SOL    HW1 3899   3.888   1.535   1.548
 1000SOL    HW2 3900   4.048   1.555   1.520
 1001SOL     OW 3901   2.873   6.825   2.510
 1001SOL    HW1 3902   2.912   6.769   2.583
 1001SOL    HW2 3903   2.946   6.860   2.452
 1002SOL     OW 3904   5.477   2.955   1.134
 1002SOL    HW1 3905   5.388   2.987   1.165
 1002SOL    HW2 3906   5.538   2.942   1.212
 1003SOL     OW 3907   1.346   6.019   2.184
 1003SOL    HW1 3908   1.273   5.967   2.227
 1003SOL    HW2 3909   1.425   5.960   2.167
 1004SOL     OW 3910   5.606   1.803   3.215
 1004SOL    HW1 3911   5.686   1.764   3.260
 1004SOL    HW2 3912   5.549   1.730   3.178
 1005SOL     OW 3913   1.331   4.869   4.653
 1005SOL    HW1 3914   1.340   4.956   4.702
 1005SOL    HW2 3915   1.417   4.848   4.607
 1006SOL     OW 3916   2.534   3.915   0.510
 1006SOL    HW1 3917   2.608   3.868   0.557
 1006SOL    HW2 3918   2.571   3.993   0.459
 1007SOL     OW 3919   4.579   1.980   6.378
 1007SOL    HW1 3920   4.660   1.932   6.411
 1007SOL    HW2 3921   4.537   1.927   6.304
 1008SOL     OW 3922   0.526   4.773   5.113
 1008SOL    HW1 3923   0.441   4.723   5.095
 1008SOL    HW2 3924   0.604   4.720   5.079
 1009SOL     OW 3925   6.044   5.095   5.333
 1009SOL    HW1 3926   6.124   5.079   5.390
 1009SOL    HW2 3927   6.049   5.186   5.293
 1010SOL     OW 3928   2.141   3.201   1.411
 1010SOL    HW1 3929   2.129   3.301   1.414
 1010SOL    HW2 3930   2.236   3.180   1.389
 1011SOL     OW 3931   0.744   4.800   2.630
 1011SOL    HW1 3932   0.794   4.717   2.603
 1011SOL    HW2 3933   0.809   4.875   2.642
 1012SOL     OW 3934   5.936   0.366   2.401
 1012SOL    HW1 3935   6.008   0.435   2.394
 1012SOL    HW2 3936   5.854   0.406   2.442
 1013SOL     OW 3937   6.964   0.937   6.177
 1013SOL    HW1 3938   6.884   0.892   6.136
 1013SOL    HW2 3939   7.012   0.989   6.107
 1014SOL     OW 3940   1.196   5.140   4.169
 1014SOL    HW1 3941   1.149   5.147   4.082
 1014SOL    HW2 3942   1.282   5.090   4.157
 1015SOL     OW 3943   3.276   0.206   6.436
 1015SOL    HW1 3944   3.373   0.201   6.460
 1015SOL    HW2 3945   3.222   0.170   6.512
 1016SOL     OW 3946   5.099   4.430   1.632
 1016SOL    HW1 3947   5.181   4.378   1.654
 1016SOL    HW2 3948   5.123   4.527   1.624
 1017SOL     OW 3949   1.907   1.316   2.296
 1017SOL    HW1 3950   1.851   1.256   2.240
 1017SOL    HW2 3951   1.889   1.411   2.273
 1018SOL     OW 3952   0.406   5.215   3.507
 1018SOL    HW1 3953   0.468   5.264   3.568
 1018SOL    HW2 3954   0.322   5.193   3.556
 1019SOL     OW 3955   0.168   5.080   0.442
 1019SOL    HW1 3956   0.104   5.004   0.437
 1019SOL    HW2 3957   0.256   5.052   0.404
 1020SOL     OW 3958   6.901   0.198   1.303
 1020SOL    HW1 3959   6.945   0.108   1.300
 1020SOL    HW2 3960   6.804   0.188   1.278
 1021SOL     OW 3961   6.064   5.606   1.490
 1021SOL    HW1 3962   6.001   5.606   1.412
 1021SOL    HW2 3963   6.151   5.649   1.463
 1022SOL     OW 3964   2.549   6.363   6.371
 1022SOL    HW1 3965   2.541   6.361   6.471
 1022SOL    HW2 3966   2.559   6.269   6.337
 1023SOL     OW 3967   0.175   1.700   3.491
 1023SOL    HW1 3968   0.272   1.674   3.486
 1023SOL    HW2 3969   0.122   1.624   3.528
 1024SOL     OW 3970   1.408   2.071   4.860
 1024SOL    HW1 3971   1.450   2.123   4.786
 1024SOL    HW2 3972   1.341   2.007   4.821
 1025SOL     OW 3973   5.160   3.750   0.095
 1025SOL    HW1 3974   5.171   3.837   0.048
 1025SOL    HW2 3975   5.201   3.756   0.186
 1026SOL     OW 3976   3.263   2.471   1.293
 1026SOL    HW1 3977   3.221   2.562   1.303
 1026SOL    HW2 3978   3.361   2.482   1.276
 1027SOL     OW 3979   1.151   6.275   1.465
 1027SOL    HW1 3980   1.073   6.271   1.527
 1027SOL    HW2 3981   1.194   6.365   1.471
 1028SOL     OW 3982   1.122   5.773   2.799
 1028SOL    HW1 3983   1.170   5.860   2.787
 1028SOL    HW2 3984   1.112   5.754   2.897
 1029SOL     OW 3985   1.503   1.989   5.899
 1029SOL    HW1 3986   1.538   2.013   5.989
 1029SOL    HW2 3987   1.404   1.978   5.903
 1030SOL     OW 3988   3.222   3.594   1.454
 1030SOL    HW1 3989   3.143   3.606   1.394
 1030SOL    HW2 3990   3.217   3.659   1.529
 1031SOL     OW 3991   3.592   3.480   1.545
 1031SOL    HW1 3992   3.577   3.574   1.516
 1031SOL    HW2 3993   3.508   3.428   1.536
 1032SOL     OW 3994   2.216   1.638   6.013
 1032SOL    HW1 3995   2.181   1.712   5.956
 1032SOL    HW2 3996   2.316   1.645   6.018
 1033SOL     OW 3997   0.898   6.060   2.055
 1033SOL    HW1 3998   0.807   6.051   2.098
 1033SOL    HW2 3999   0.925   5.971   2.017
 1034SOL     OW 4000   3.614   6.766   4.798
 1034SOL    HW1 4001   3.531   6.811   4.831
 1034SOL    HW2 4002   3.590   6.681   4.752
 1035SOL     OW 4003   0.539   1.468   5.933
 1035SOL    HW1 4004   0.631   1.437   5.910
 1035SOL    HW2 4005   0.506   1.530   5.862
 1036SOL     OW 4006   5.196   1.751   1.147
 1036SOL    HW1 4007   5.261   1.787   1.079
 1036SOL    HW2 4008   5.147   1.827   1.190
 1037SOL     OW 4009   1.756   2.496   2.655
 1037SOL    HW1 4010   1.792   2.404   2.672
 1037SOL    HW2 4011   1.766   2.552   2.737
 1038SOL     OW 4012   2.913   0.433   6.917
 1038SOL    HW1 4013   2.961   0.391   6.839
 1038SOL    HW2 4014   2.951   0.398   7.002
 1039SOL     OW 4015   3.473   3.100   3.635
 1039SOL    HW1 4016   3.477   3.104   3.535
 1039SOL    HW2 4017   3.496   3.008   3.666
 1040SOL     OW 4018   3.826   1.016   2.647
 1040SOL    HW1 4019   3.751   0.951   2.637
 1040SOL    HW2 4020   3.913   0.970   2.628
 1041SOL     OW 4021   6.431   6.281   5.209
 1041SOL    HW1 4022   6.461   6.264   5.303
 1041SOL    HW2 4023   6.424   6.379   5.194
 1042SOL     OW 4024   4.757   4.559   2.299
 1042SOL    HW1 4025   4.684   4.570   2.232
 1042SOL    HW2 4026   4.732   4.605   2.384
 1043SOL     OW 4027   3.219   1.189   3.155
 1043SOL    HW1 4028   3.124   1.214   3.136
 1043SOL    HW2 4029   3.223   1.096   3.191
 1044SOL     OW 4030   6.128   4.927   1.412
 1044SOL    HW1 4031   6.124   4.961   1.506
 1044SOL    HW2 4032   6.223   4.910   1.387
 1045SOL     OW 4033   2.310   0.637   3.891
 1045SOL    HW1 4034   2.307   0.631   3.991
 1045SOL    HW2 4035   2.239   0.700   3.859
 1046SOL     OW 4036   3.592   1.289   0.874
 1046SOL    HW1 4037   3.529   1.245   0.939
 1046SOL    HW2 4038   3.617   1.379   0.908
 1047SOL     OW 4039   3.217   7.006   3.186
 1047SOL    HW1 4040   3.290   6.955   3.231
 1047SOL    HW2 4041   3.157   0.027   3.256
 1048SOL     OW 4042   1.919   5.875   1.982
 1048SOL    HW1 4043   1.852   5.863   1.909
 1048SOL    HW2 4044   2.011   5.875   1.944
 1049SOL     OW 4045   3.900   0.155   5.142
 1049SOL    HW1 4046   3.826   0.163   5.208
 1049SOL    HW2 4047   3.968   0.090   5.175
 1050SOL     OW 4048   3.455   5.010   3.837
 1050SOL    HW1 4049   3.551   5.035   3.847
 1050SOL    HW2 4050   3.435   4.993   3.740
 1051SOL     OW 4051   0.074   0.134   0.363
 1051SOL    HW1 4052   0.098   0.069   0.435
 1051SOL    HW2 4053   0.141   0.128   0.289
 1052SOL     OW 4054   3.996   0.415   6.486
 1052SOL    HW1 4055   4.051   0.447   6.563
 1052SOL    HW2 4056   4.043   0.435   6.400
 1053SOL     OW 4057   6.076   3.684   2.210
 1053SOL    HW1 4058   6.112   3.714   2.121
 1053SOL    HW2 4059   6.107   3.746   2.281
 1054SOL     OW 4060   3.493   4.495   0.501
 1054SOL    HW1 4061   3.529   4.567   0.561
 1054SOL    HW2 4062   3.549   4.413   0.510
 1055SOL     OW 4063   3.825   5.867   6.827
 1055SOL    HW1 4064   3.790   5.960   6.827
 1055SOL    HW2 4065   3.807   5.824   6.916
 1056SOL     OW 4066   2.409   4.314   0.440
 1056SOL    HW1 4067   2.376   4.296   0.532
 1056SOL    HW2 4068   2.477   4.387   0.442
 1057SOL     OW 4069   3.684   1.903   1.523
 1057SOL    HW1 4070   3.751   1.943   1.459
 1057SOL    HW2 4071   3.675   1.963   1.602
 1058SOL     OW 4072   3.521   2.095   2.725
 1058SOL    HW1 4073   3.477   2.006   2.741
 1058SOL    HW2 4074   3.527   2.145   2.811
 1059SOL     OW 4075   2.579   6.136   1.823
 1059SOL    HW1 4076   2.514   6.197   1.868
 1059SOL    HW2 4077   2.671   6.153   1.858
 1060SOL     OW 4078   0.105   5.884   5.346
 1060SOL    HW1 4079   0.024   5.887   5.287
 1060SOL    HW2 4080   0.186   5.869   5.290
 1061SOL     OW 4081   6.976   4.386   0.627
 1061SOL    HW1 4082   0.047   4.413   0.660
 1061SOL    HW2 4083   6.980   4.294   0.589
 1062SOL     OW 4084   3.853   6.358   5.160
 1062SOL    HW1 4085   3.789   6.320   5.227
 1062SOL    HW2 4086   3.891   6.284   5.105
 1063SOL     OW 4087   1.410   6.623   5.553
 1063SOL    HW1 4088   1.497   6.578   5.529
 1063SOL    HW2 4089   1.334   6.562   5.532
 1064SOL     OW 4090   0.365   4.346   0.942
 1064SOL    HW1 4091   0.353   4.444   0.923
 1064SOL    HW2 4092   0.296   4.294   0.892
 1065SOL     OW 4093   3.577   0.433   4.551
 1065SOL    HW1 4094   3.538   0.413   4.461
 1065SOL    HW2 4095   3.672   0.462   4.539
 1066SOL     OW 4096   4.243   0.618   2.075
 1066SOL    HW1 4097   4.245   0.655   2.168
 1066SOL    HW2 4098   4.152   0.580   2.056
 1067SOL     OW 4099   3.117   1.549   0.497
 1067SOL    HW1 4100   3.138   1.566   0.593
 1067SOL    HW2 4101   3.161   1.464   0.468
 1068SOL     OW 4102   5.743   3.521   1.222
 1068SOL    HW1 4103   5.713   3.431   1.193
 1068SOL    HW2 4104   5.742   3.527   1.322
 1069SOL     OW 4105   6.627   4.166   0.991
 1069SOL    HW1 4106   6.702   4.231   0.981
 1069SOL    HW2 4107   6.622   4.107   0.911
 1070SOL     OW 4108   1.831   0.617   2.420
 1070SOL    HW1 4109   1.740   0.578   2.437
 1070SOL    HW2 4110   1.867   0.579   2.335
 1071SOL     OW 4111   6.373   2.514   4.754
 1071SOL    HW1 4112   6.436   2.586   4.782
 1071SOL    HW2 4113   6.415   2.425   4.774
 1072SOL     OW 4114   3.267   1.251   2.264
 1072SOL    HW1 4115   3.210   1.176   2.297
 1072SOL    HW2 4116   3.350   1.256   2.319
 1073SOL     OW 4117   5.269   2.009   2.991
 1073SOL    HW1 4118   5.279   2.028   3.089
 1073SOL    HW2 4119   5.172   2.012   2.967
 1074SOL     OW 4120   3.254   5.122   1.838
 1074SOL    HW1 4121   3.184   5.193   1.841
 1074SOL    HW2 4122   3.245   5.061   1.916
 1075SOL     OW 4123   5.727   2.210   5.201
 1075SOL    HW1 4124   5.654   2.273   5.178
 1075SOL    HW2 4125   5.697   2.116   5.181
 1076SOL     OW 4126   2.171   4.008   4.763
 1076SOL    HW1 4127   2.230   4.061   4.823
 1076SOL    HW2 4128   2.191   4.031   4.668
 1077SOL     OW 4129   6.608   0.542   0.010
 1077SOL    HW1 4130   6.604   0.461   6.972
 1077SOL    HW2 4131   6.684   0.533   0.075
 1078SOL     OW 4132   6.865   6.381   3.951
 1078SOL    HW1 4133   6.899   6.374   4.044
 1078SOL    HW2 4134   6.815   6.298   3.926
 1079SOL     OW 4135   1.430   6.003   2.523
 1079SOL    HW1 4136   1.495   6.075   2.546
 1079SOL    HW2 4137   1.457   5.959   2.437
 1080SOL     OW 4138   2.375   5.272   5.212
 1080SOL    HW1 4139   2.340   5.248   5.303
 1080SOL    HW2 4140   2.299   5.290   5.150
 1081SOL     OW 4141   6.064   5.843   4.291
 1081SOL    HW1 4142   6.128   5.904   4.337
 1081SOL    HW2 4143   6.008   5.796   4.359
 1082SOL     OW 4144   5.324   6.913   6.256
 1082SOL    HW1 4145   5.389   6.838   6.260
 1082SOL    HW2 4146   5.334   6.961   6.169
 1083SOL     OW 4147   5.288   4.203   1.130
 1083SOL    HW1 4148   5.244   4.280   1.176
 1083SOL    HW2 4149   5.292   4.220   1.032
 1084SOL     OW 4150   6.879   0.111   6.642
 1084SOL    HW1 4151   6.784   0.141   6.642
 1084SOL    HW2 4152   6.930   0.161   6.573
 1085SOL     OW 4153   1.832   3.908   4.039
 1085SOL    HW1 4154   1.847   3.847   4.117
 1085SOL    HW2 4155   1.763   3.977   4.064
 1086SOL     OW 4156   6.417   4.254   6.674
 1086SOL    HW1 4157   6.437   4.296   6.763
 1086SOL    HW2 4158   6.322   4.273   6.650
 1087SOL     OW 4159   1.666   0.411   5.444
 1087SOL    HW1 4160   1.752   0.459   5.460
 1087SOL    HW2 4161   1.632   0.374   5.530
 1088SOL     OW 4162   0.115   4.817   3.650
 1088SOL    HW1 4163   0.207   4.791   3.680
 1088SOL    HW2 4164   0.048   4.756   3.692
 1089SOL     OW 4165   6.748   4.861   4.837
 1089SOL    HW1 4166   6.673   4.894   4.894
 1089SOL    HW2 4167   6.834   4.868   4.887
 1090SOL     OW 4168   5.334   1.706   4.495
 1090SOL    HW1 4169   5.331   1.806   4.500
 1090SOL    HW2 4170   5.368   1.670   4.582
 1091SOL     OW 4171   2.227   2.916   3.827
 1091SOL    HW1 4172   2.198   2.848   3.759
 1091SOL    HW2 4173   2.234   3.006   3.783
 1092SOL     OW 4174   1.068   4.701   0.878
 1092SOL    HW1 4175   1.077   4.770   0.950
 1092SOL    HW2 4176   0.998   4.730   0.813
 1093SOL     OW 4177   2.297   6.534   1.307
 1093SOL    HW1 4178   2.358   6.509   1.382
 1093SOL    HW2 4179   2.332   6.496   1.221
 1094SOL     OW 4180   1.124   0.532   2.959
 1094SOL    HW1 4181   1.036   0.501   2.996
 1094SOL    HW2 4182   1.193   0.529   3.031
 1095SOL     OW 4183   6.841   3.097   7.005
 1095SOL    HW1 4184   6.785   3.135   0.059
 1095SOL    HW2 4185   6.815   3.140   6.918
 1096SOL     OW 4186   2.787   5.558   1.116
 1096SOL    HW1 4187   2.819   5.492   1.184
 1096SOL    HW2 4188   2.725   5.623   1.160
 1097SOL     OW 4189   2.420   5.151   3.884
 1097SOL    HW1 4190   2.491   5.095   3.841
 1097SOL    HW2 4191   2.409   5.123   3.979
 1098SOL     OW 4192   5.864   4.332   0.185
 1098SOL    HW1 4193   5.817   4.360   0.269
 1098SOL    HW2 4194   5.799   4.330   0.109
 1099SOL     OW 4195   4.573   1.375   5.932
 1099SOL    HW1 4196   4.628   1.331   5.861
 1099SOL    HW2 4197   4.594   1.335   6.021
 1100SOL     OW 4198   3.917   1.081   3.857
 1100SOL    HW1 4199   3.837   1.138   3.876
 1100SOL    HW2 4200   3.992   1.109   3.917
 1101SOL     OW 4201   5.857   3.394   5.453
 1101SOL    HW1 4202   5.871   3.319   5.518
 1101SOL    HW2 4203   5.789   3.457   5.490
 1102SOL     OW 4204   2.154   0.883   4.486
 1102SOL    HW1 4205   2.078   0.897   4.422
 1102SOL    HW2 4206   2.131   0.923   4.575
 1103SOL     OW 4207   3.085   0.801   6.647
 1103SOL    HW1 4208   3.155   0.738   6.612
 1103SOL    HW2 4209   3.026   0.752   6.712
 1104SOL     OW 4210   0.710   4.066   2.845
 1104SOL    HW1 4211   0.719   3.967   2.851
 1104SOL    HW2 4212   0.629   4.095   2.895
 1105SOL     OW 4213   5.393   1.697   5.088
 1105SOL    HW1 4214   5.456   1.738   5.021
 1105SOL    HW2 4215   5.446   1.659   5.164
 1106SOL     OW 4216   0.760   1.328   0.184
 1106SOL    HW1 4217   0.749   1.264   0.261
 1106SOL    HW2 4218   0.853   1.321   0.148
 1107SOL     OW 4219   1.236   0.796   6.783
 1107SOL    HW1 4220   1.161   0.768   6.723
 1107SOL    HW2 4221   1.213   0.884   6.826
 1108SOL     OW 4222   3.231   6.289   4.197
 1108SOL    HW1 4223   3.186   6.364   4.245
 1108SOL    HW2 4224   3.198   6.285   4.102
 1109SOL     OW 4225   5.403   1.606   3.996
 1109SOL    HW1 4226   5.323   1.630   4.052
 1109SOL    HW2 4227   5.427   1.682   3.937
 1110SOL     OW 4228   3.642   0.812   2.688
 1110SOL    HW1 4229   3.723   0.778   2.736
 1110SOL    HW2 4230   3.563   0.755   2.710
 1111SOL     OW 4231   4.911   3.878   6.132
 1111SOL    HW1 4232   4.893   3.921   6.044
 1111SOL    HW2 4233   4.899   3.945   6.205
 1112SOL     OW 4234   5.913   1.009   2.573
 1112SOL    HW1 4235   5.876   1.027   2.664
 1112SOL    HW2 4236   6.002   0.962   2.581
 1113SOL     OW 4237   6.257   4.403   2.465
 1113SOL    HW1 4238   6.266   4.485   2.521
 1113SOL    HW2 4239   6.198   4.422   2.387
 1114SOL     OW 4240   4.390   2.547   5.814
 1114SOL    HW1 4241   4.318   2.573   5.751
 1114SOL    HW2 4242   4.359   2.468   5.868
 1115SOL     OW 4243   2.881   4.057   6.076
 1115SOL    HW1 4244   2.973   4.095   6.069
 1115SOL    HW2 4245   2.817   4.117   6.028
 1116SOL     OW 4246   5.140   0.919   6.804
 1116SOL    HW1 4247   5.215   0.931   6.739
 1116SOL    HW2 4248   5.056   0.958   6.765
 1117SOL     OW 4249   1.157   2.362   1.657
 1117SOL    HW1 4250   1.163   2.462   1.653
 1117SOL    HW2 4251   1.250   2.323   1.657
 1118SOL     OW 4252   3.221   5.163   0.278
 1118SOL    HW1 4253   3.303   5.169   0.221
 1118SOL    HW2 4254   3.171   5.079   0.256
 1119SOL     OW 4255   4.205   4.791   3.568
 1119SOL    HW1 4256   4.182   4.768   3.474
 1119SOL    HW2 4257   4.290   4.745   3.595
 1120SOL     OW 4258   6.465   5.499   0.802
 1120SOL    HW1 4259   6.419   5.432   0.861
 1120SOL    HW2 4260   6.411   5.583   0.799
 1121SOL     OW 4261   0.902   4.625   4.290
 1121SOL    HW1 4262   0.827   4.688   4.310
 1121SOL    HW2 4263   0.933   4.583   4.375
 1122SOL     OW 4264   5.858   2.476   2.130
 1122SOL    HW1 4265   5.840   2.379   2.145
 1122SOL    HW2 4266   5.772   2.524   2.114
 1123SOL     OW 4267   4.335   2.364   3.052
 1123SOL    HW1 4268   4.246   2.320   3.064
 1123SOL    HW2 4269   4.381   2.371   3.141
 1124SOL     OW 4270   1.920   3.055   5.008
 1124SOL    HW1 4271   1.952   2.976   5.060
 1124SOL    HW2 4272   1.901   3.028   4.914
 1125SOL     OW 4273   1.654   3.331   4.000
 1125SOL    HW1 4274   1.650   3.330   3.900
 1125SOL    HW2 4275   1.693   3.418   4.031
 1126SOL     OW 4276   4.576   5.667   5.310
 1126SOL    HW1 4277   4.634   5.600   5.357
 1126SOL    HW2 4278   4.590   5.757   5.351
 1127SOL     OW 4279   5.247   5.856   3.637
 1127SOL    HW1 4280   5.307   5.836   3.560
 1127SOL    HW2 4281   5.301   5.893   3.712
 1128SOL     OW 4282   6.356   1.288   3.597
 1128SOL    HW1 4283   6.327   1.250   3.685
 1128SOL    HW2 4284   6.384   1.383   3.610
 1129SOL     OW 4285   1.688   0.241   1.235
 1129SOL    HW1 4286   1.612   0.214   1.176
 1129SOL    HW2 4287   1.771   0.194   1.205
 1130SOL     OW 4288   2.141   4.974   3.175
 1130SOL    HW1 4289   2.158   4.877   3.195
 1130SOL    HW2 4290   2.207   5.030   3.225
 1131SOL     OW 4291   0.862   6.892   3.934
 1131SOL    HW1 4292   0.932   6.822   3.946
 1131SOL    HW2 4293   0.906   6.979   3.913
 1132SOL     OW 4294   4.180   1.120   3.209
 1132SOL    HW1 4295   4.086   1.094   3.187
 1132SOL    HW2 4296   4.184   1.154   3.303
 1133SOL     OW 4297   1.050   6.572   5.123
 1133SOL    HW1 4298   1.133   6.526   5.155
 1133SOL    HW2 4299   1.007   6.619   5.199
 1134SOL     OW 4300   4.801   0.093   1.315
 1134SOL    HW1 4301   4.773   0.025   1.247
 1134SOL    HW2 4302   4.764   0.068   1.405
 1135SOL     OW 4303   1.813   6.517   3.609
 1135SOL    HW1 4304   1.879   6.591   3.594
 1135SOL    HW2 4305   1.835   6.441   3.547
 1136SOL     OW 4306   2.907   5.779   2.481
 1136SOL    HW1 4307   2.828   5.728   2.448
 1136SOL    HW2 4308   2.931   5.850   2.415
 1137SOL     OW 4309   0.373   5.867   6.602
 1137SOL    HW1 4310   0.333   5.777   6.619
 1137SOL    HW2 4311   0.451   5.881   6.663
 1138SOL     OW 4312   2.135   2.933   5.153
 1138SOL    HW1 4313   2.221   2.951   5.106
 1138SOL    HW2 4314   2.154   2.893   5.243
 1139SOL     OW 4315   2.804   4.745   4.077
 1139SOL    HW1 4316   2.870   4.801   4.026
 1139SOL    HW2 4317   2.824   4.749   4.174
 1140SOL     OW 4318   2.195   1.222   2.008
 1140SOL    HW1 4319   2.274   1.162   2.020
 1140SOL    HW2 4320   2.215   1.312   2.047
 1141SOL     OW 4321   6.035   4.918   6.069
 1141SOL    HW1 4322   5.997   4.934   5.978
 1141SOL    HW2 4323   6.002   4.830   6.104
 1142SOL     OW 4324   2.474   0.136   3.021
 1142SOL    HW1 4325   2.484   0.191   2.938
 1142SOL    HW2 4326   2.528   0.176   3.094
 1143SOL     OW 4327   0.806   4.089   1.675
 1143SOL    HW1 4328   0.761   4.001   1.657
 1143SOL    HW2 4329   0.872   4.107   1.602
 1144SOL     OW 4330   5.443   4.595   2.307
 1144SOL    HW1 4331   5.490   4.578   2.221
 1144SOL    HW2 4332   5.430   4.508   2.356
 1145SOL     OW 4333   1.166   1.629   0.472
 1145SOL    HW1 4334   1.215   1.689   0.409
 1145SOL    HW2 4335   1.206   1.538   0.470
 1146SOL     OW 4336   0.781   0.685   1.769
 1146SOL    HW1 4337   0.745   0.770   1.804
 1146SOL    HW2 4338   0.706   0.621   1.752
 1147SOL     OW 4339   3.167   6.128   1.173
 1147SOL    HW1 4340   3.108   6.200   1.135
 1147SOL    HW2 4341   3.115   6.043   1.180
 1148SOL     OW 4342   3.801   6.293   1.991
 1148SOL    HW1 4343   3.859   6.212   1.981
 1148SOL    HW2 4344   3.846   6.360   2.050
 1149SOL     OW 4345   5.733   2.380   1.458
 1149SOL    HW1 4346   5.683   2.294   1.469
 1149SOL    HW2 4347   5.741   2.426   1.546
 1150SOL     OW 4348   1.226   4.178   6.770
 1150SOL    HW1 4349   1.324   4.162   6.783
 1150SOL    HW2 4350   1.186   4.103   6.718
 1151SOL     OW 4351   6.429   5.109   3.628
 1151SOL    HW1 4352   6.510   5.069   3.585
 1151SOL    HW2 4353   6.404   5.054   3.708
 1152SOL     OW 4354   4.925   1.082   6.764
 1152SOL    HW1 4355   4.992   1.116   6.698
 1152SOL    HW2 4356   4.833   1.101   6.732
 1153SOL     OW 4357   6.416   6.787   1.351
 1153SOL    HW1 4358   6.498   6.797   1.407
 1153SOL    HW2 4359   6.422   6.847   1.271
 1154SOL     OW 4360   1.442   3.410   2.188
 1154SOL    HW1 4361   1.470   3.405   2.093
 1154SOL    HW2 4362   1.463   3.323   2.233
 1155SOL     OW 4363   2.153   6.738   4.626
 1155SOL    HW1 4364   2.199   6.742   4.537
 1155SOL    HW2 4365   2.090   6.661   4.627
 1156SOL     OW 4366   3.888   1.919   4.893
 1156SOL    HW1 4367   3.943   1.901   4.975
 1156SOL    HW2 4368   3.943   1.904   4.811
 1157SOL     OW 4369   4.168   0.315   5.590
 1157SOL    HW1 4370   4.224   0.236   5.566
 1157SOL    HW2 4371   4.165   0.326   5.689
 1158SOL     OW 4372   5.478   5.636   3.451
 1158SOL    HW1 4373   5.440   5.711   3.398
 1158SOL    HW2 4374   5.490   5.556   3.392
 1159SOL     OW 4375   6.843   5.858   2.695
 1159SOL    HW1 4376   6.901   5.936   2.722
 1159SOL    HW2 4377   6.833   5.857   2.595
 1160SOL     OW 4378   4.162   0.013   0.802
 1160SOL    HW1 4379   4.122   0.048   0.887
 1160SOL    HW2 4380   4.143   0.076   0.727
 1161SOL     OW 4381   6.865   5.632   7.003
 1161SOL    HW1 4382   6.797   5.621   0.055
 1161SOL    HW2 4383   6.891   5.543   6.967
 1162SOL     OW 4384   2.025   2.997   5.479
 1162SOL    HW1 4385   2.035   3.041   5.568
 1162SOL    HW2 4386   2.077   2.911   5.478
 1163SOL     OW 4387   5.994   4.509   1.795
 1163SOL    HW1 4388   5.975   4.462   1.709
 1163SOL    HW2 4389   6.084   4.481   1.830
 1164SOL     OW 4390   5.099   2.013   4.269
 1164SOL    HW1 4391   5.012   1.988   4.226
 1164SOL    HW2 4392   5.081   2.065   4.352
 1165SOL     OW 4393   4.281   6.654   3.250
 1165SOL    HW1 4394   4.216   6.601   3.306
 1165SOL    HW2 4395   4.350   6.695   3.310
 1166SOL     OW 4396   2.314   6.487   6.620
 1166SOL    HW1 4397   2.368   6.565   6.587
 1166SOL    HW2 4398   2.297   6.498   6.718
 1167SOL     OW 4399   5.233   4.077   2.306
 1167SOL    HW1 4400   5.210   4.167   2.268
 1167SOL    HW2 4401   5.189   4.006   2.251
 1168SOL     OW 4402   5.760   2.639   2.549
 1168SOL    HW1 4403   5.818   2.693   2.489
 1168SOL    HW2 4404   5.804   2.627   2.638
 1169SOL     OW 4405   5.506   0.971   5.665
 1169SOL    HW1 4406   5.412   0.940   5.653
 1169SOL    HW2 4407   5.552   0.972   5.576
 1170SOL     OW 4408   4.889   0.169   3.160
 1170SOL    HW1 4409   4.951   0.121   3.222
 1170SOL    HW2 4410   4.851   0.249   3.206
 1171SOL     OW 4411   1.471   0.528   0.688
 1171SOL    HW1 4412   1.412   0.475   0.749
 1171SOL    HW2 4413   1.482   0.479   0.601
 1172SOL     OW 4414   6.713   3.610   0.516
 1172SOL    HW1 4415   6.622   3.631   0.552
 1172SOL    HW2 4416   6.704   3.563   0.428
 1173SOL     OW 4417   3.132   1.380   1.098
 1173SOL    HW1 4418   3.207   1.446   1.103
 1173SOL    HW2 4419   3.045   1.429   1.106
 1174SOL     OW 4420   3.809   3.995   1.168
 1174SOL    HW1 4421   3.727   3.958   1.125
 1174SOL    HW2 4422   3.887   3.983   1.106
 1175SOL     OW 4423   4.157   3.019   5.679
 1175SOL    HW1 4424   4.235   3.075   5.708
 1175SOL    HW2 4425   4.072   3.069   5.695
 1176SOL     OW 4426   5.015   3.486   5.830
 1176SOL    HW1 4427   5.114   3.475   5.835
 1176SOL    HW2 4428   4.981   3.514   5.920
 1177SOL     OW 4429   6.290   2.189   4.722
 1177SOL    HW1 4430   6.212   2.224   4.773
 1177SOL    HW2 4431   6.303   2.243   4.639
 1178SOL     OW 4432   3.192   4.605   0.632
 1178SOL    HW1 4433   3.227   4.670   0.700
 1178SOL    HW2 4434   3.198   4.512   0.668
 1179SOL     OW 4435   2.427   6.136   0.341
 1179SOL    HW1 4436   2.414   6.200   0.265
 1179SOL    HW2 4437   2.340   6.093   0.364
 1180SOL     OW 4438   3.492   5.813   1.462
 1180SOL    HW1 4439   3.589   5.812   1.438
 1180SOL    HW2 4440   3.456   5.720   1.458
 1181SOL     OW 4441   0.542   5.533   6.729
 1181SOL    HW1 4442   0.640   5.529   6.710
 1181SOL    HW2 4443   0.511   5.628   6.718
 1182SOL     OW 4444   3.549   5.614   2.947
 1182SOL    HW1 4445   3.535   5.711   2.928
 1182SOL    HW2 4446   3.505   5.559   2.876
 1183SOL     OW 4447   1.608   4.458   6.992
 1183SOL    HW1 4448   1.651   4.432   6.906
 1183SOL    HW2 4449   1.533   4.395   7.013
 1184SOL     OW 4450   0.883   0.562   4.604
 1184SOL    HW1 4451   0.952   0.496   4.574
 1184SOL    HW2 4452   0.910   0.654   4.575
 1185SOL     OW 4453   6.845   1.173   6.361
 1185SOL    HW1 4454   6.920   1.173   6.294
 1185SOL    HW2 4455   6.784   1.250   6.342
 1186SOL     OW 4456   5.039   5.870   4.394
 1186SOL    HW1 4457   5.069   5.960   4.364
 1186SOL    HW2 4458   5.012   5.815   4.315
 1187SOL     OW 4459   6.579   7.005   6.601
 1187SOL    HW1 4460   6.637   7.019   6.682
 1187SOL    HW2 4461   6.638   6.984   6.522
 1188SOL     OW 4462   2.955   6.161   4.718
 1188SOL    HW1 4463   3.047   6.159   4.677
 1188SOL    HW2 4464   2.922   6.067   4.729
 1189SOL     OW 4465   6.788   3.524   2.915
 1189SOL    HW1 4466   6.714   3.457   2.914
 1189SOL    HW2 4467   6.829   3.530   2.824
 1190SOL     OW 4468   1.781   5.828   3.356
 1190SOL    HW1 4469   1.872   5.857   3.328
 1190SOL    HW2 4470   1.735   5.783   3.278
 1191SOL     OW 4471   3.993   4.847   3.313
 1191SOL    HW1 4472   4.087   4.872   3.332
 1191SOL    HW2 4473   3.982   4.827   3.216
 1192SOL     OW 4474   3.579   5.924   3.224
 1192SOL    HW1 4475   3.646   5.863   3.180
 1192SOL    HW2 4476   3.567   5.896   3.320
 1193SOL     OW 4477   5.994   4.553   4.564
 1193SOL    HW1 4478   5.906   4.594   4.587
 1193SOL    HW2 4479   6.048   4.617   4.510
 1194SOL     OW 4480   5.588   0.453   1.628
 1194SOL    HW1 4481   5.528   0.426   1.704
 1194SOL    HW2 4482   5.650   0.525   1.659
 1195SOL     OW 4483   6.088   5.149   2.086
 1195SOL    HW1 4484   6.004   5.101   2.060
 1195SOL    HW2 4485   6.065   5.242   2.115
 1196SOL     OW 4486   0.425   6.262   3.126
 1196SOL    HW1 4487   0.441   6.361   3.118
 1196SOL    HW2 4488   0.369   6.232   3.049
 1197SOL     OW 4489   3.322   0.953   6.931
 1197SOL    HW1 4490   3.316   1.049   6.906
 1197SOL    HW2 4491   3.280   0.939   0.001
 1198SOL     OW 4492   0.888   2.384   1.286
 1198SOL    HW1 4493   0.973   2.341   1.254
 1198SOL    HW2 4494   0.909   2.445   1.363
 1199SOL     OW 4495   4.705   5.192   1.592
 1199SOL    HW1 4496   4.735   5.202   1.497
 1199SOL    HW2 4497   4.741   5.107   1.630
 1200SOL     OW 4498   3.384   3.276   2.598
 1200SOL    HW1 4499   3.378   3.341   2.521
 1200SOL    HW2 4500   3.479   3.266   2.626
 1201SOL     OW 4501   1.431   0.901   4.673
 1201SOL    HW1 4502   1.442   0.880   4.770
 1201SOL    HW2 4503   1.340   0.874   4.644
 1202SOL     OW 4504   1.047   5.888   6.461
 1202SOL    HW1 4505   0.998   5.945   6.528
 1202SOL    HW2 4506   1.042   5.931   6.371
 1203SOL     OW 4507   4.948   5.837   6.213
 1203SOL    HW1 4508   5.015   5.907   6.235
 1203SOL    HW2 4509   4.991   5.767   6.156
 1204SOL     OW 4510   2.392   0.289   1.755
 1204SOL    HW1 4511   2.378   0.197   1.718
 1204SOL    HW2 4512   2.304   0.336   1.763
 1205SOL     OW 4513   4.860   4.277   1.542
 1205SOL    HW1 4514   4.797   4.259   1.617
 1205SOL    HW2 4515   4.937   4.332   1.575
 1206SOL     OW 4516   3.484   3.013   4.700
 1206SOL    HW1 4517   3.445   2.945   4.762
 1206SOL    HW2 4518   3.451   3.104   4.724
 1207SOL     OW 4519   2.644   7.012   1.508
 1207SOL    HW1 4520   2.567   6.957   1.540
 1207SOL    HW2 4521   2.609   0.078   1.470
 1208SOL     OW 4522   3.639   3.905   0.066
 1208SOL    HW1 4523   3.666   3.938   6.995
 1208SOL    HW2 4524   3.646   3.981   0.131
 1209SOL     OW 4525   3.703   0.252   5.538
 1209SOL    HW1 4526   3.763   0.313   5.487
 1209SOL    HW2 4527   3.696   0.283   5.633
 1210SOL     OW 4528   2.627   6.619   3.499
 1210SOL    HW1 4529   2.690   6.542   3.508
 1210SOL    HW2 4530   2.644   6.666   3.413
 1211SOL     OW 4531   1.415   3.792   1.055
 1211SOL    HW1 4532   1.457   3.713   1.010
 1211SOL    HW2 4533   1.485   3.850   1.096
 1212SOL     OW 4534   0.232   0.379   6.212
 1212SOL    HW1 4535   0.323   0.368   6.252
 1212SOL    HW2 4536   0.168   0.316   6.255
 1213SOL     OW 4537   5.991   2.607   0.156
 1213SOL    HW1 4538   6.004   2.564   0.067
 1213SOL    HW2 4539   6.080   2.625   0.198
 1214SOL     OW 4540   6.851   2.110   1.070
 1214SOL    HW1 4541   6.931   2.157   1.108
 1214SOL    HW2 4542   6.882   2.032   1.014
 1215SOL     OW 4543   1.648   4.567   4.351
 1215SOL    HW1 4544   1.720   4.535   4.412
 1215SOL    HW2 4545   1.627   4.496   4.284
 1216SOL     OW 4546   4.151   0.496   0.196
 1216SOL    HW1 4547   4.132   0.523   0.290
 1216SOL    HW2 4548   4.127   0.399   0.183
 1217SOL     OW 4549   1.634   4.290   0.515
 1217SOL    HW1 4550   1.719   4.278   0.567
 1217SOL    HW2 4551   1.632   4.383   0.477
 1218SOL     OW 4552   1.468   5.099   4.114
 1218SOL    HW1 4553   1.486   5.049   4.199
 1218SOL    HW2 4554   1.550   5.099   4.057
 1219SOL     OW 4555   4.737   5.821   2.143
 1219SOL    HW1 4556   4.716   5.871   2.227
 1219SOL    HW2 4557   4.749   5.724   2.163
 1220SOL     OW 4558   1.427   5.033   2.989
 1220SOL    HW1 4559   1.466   5.124   2.999
 1220SOL    HW2 4560   1.331   5.034   3.020
 1221SOL     OW 4561   5.495   2.937   5.714
 1221SOL    HW1 4562   5.411   2.981   5.744
 1221SOL    HW2 4563   5.532   2.881   5.788
 1222SOL     OW 4564   6.140   6.691   6.871
 1222SOL    HW1 4565   6.156   6.611   6.814
 1222SOL    HW2 4566   6.222   6.748   6.874
 1223SOL     OW 4567   4.069   0.569   0.485
 1223SOL    HW1 4568   3.994   0.622   0.445
 1223SOL    HW2 4569   4.035   0.518   0.565
 1224SOL     OW 4570   2.167   0.002   1.150
 1224SOL    HW1 4571   2.181   0.012   1.051
 1224SOL    HW2 4572   2.250   6.985   1.191
 1225SOL     OW 4573   3.185   4.151   6.046
 1225SOL    HW1 4574   3.272   4.101   6.048
 1225SOL    HW2 4575   3.169   4.186   5.954
 1226SOL     OW 4576   2.351   4.244   1.521
 1226SOL    HW1 4577   2.389   4.200   1.602
 1226SOL    HW2 4578   2.335   4.341   1.539
 1227SOL     OW 4579   6.716   3.171   6.770
 1227SOL    HW1 4580   6.616   3.178   6.772
 1227SOL    HW2 4581   6.754   3.252   6.725
 1228SOL     OW 4582   3.887   2.729   6.681
 1228SOL    HW1 4583   3.817   2.798   6.699
 1228SOL    HW2 4584   3.893   2.714   6.582
 1229SOL     OW 4585   4.508   4.711   6.590
 1229SOL    HW1 4586   4.414   4.717   6.622
 1229SOL    HW2 4587   4.569   4.752   6.658
 1230SOL     OW 4588   4.162   0.722   4.304
 1230SOL    HW1 4589   4.095   0.778   4.352
 1230SOL    HW2 4590   4.150   0.626   4.331
 1231SOL     OW 4591   2.155   3.764   4.883
 1231SOL    HW1 4592   2.182   3.848   4.836
 1231SOL    HW2 4593   2.169   3.775   4.981
 1232SOL     OW 4594   1.153   2.780   5.387
 1232SOL    HW1 4595   1.131   2.691   5.347
 1232SOL    HW2 4596   1.164   2.847   5.314
 1233SOL     OW 4597   1.243   2.786   5.648
 1233SOL    HW1 4598   1.177   2.831   5.708
 1233SOL    HW2 4599   1.211   2.792   5.554
 1234SOL     OW 4600   6.780   4.471   4.721
 1234SOL    HW1 4601   6.772   4.394   4.783
 1234SOL    HW2 4602   6.877   4.494   4.709
 1235SOL     OW 4603   6.489   5.548   2.543
 1235SOL    HW1 4604   6.565   5.508   2.492
 1235SOL    HW2 4605   6.520   5.576   2.634
 1236SOL     OW 4606   5.292   1.104   6.293
 1236SOL    HW1 4607   5.298   1.004   6.295
 1236SOL    HW2 4608   5.310   1.139   6.385
 1237SOL     OW 4609   2.357   4.447   6.055
 1237SOL    HW1 4610   2.432   4.433   5.990
 1237SOL    HW2 4611   2.366   4.536   6.098
 1238SOL     OW 4612   2.020   1.241   1.407
 1238SOL    HW1 4613   1.985   1.150   1.426
 1238SOL    HW2 4614   2.074   1.240   1.323
 1239SOL     OW 4615   0.003   6.013   6.426
 1239SOL    HW1 4616   6.945   5.951   6.433
 1239SOL    HW2 4617   0.060   6.003   6.507
 1240SOL     OW 4618   5.471   6.214   1.676
 1240SOL    HW1 4619   5.475   6.227   1.577
 1240SOL    HW2 4620   5.517   6.291   1.721
 1241SOL     OW 4621   6.427   3.246   4.751
 1241SOL    HW1 4622   6.455   3.341   4.737
 1241SOL    HW2 4623   6.385   3.212   4.667
 1242SOL     OW 4624   1.701   3.416   6.983
 1242SOL    HW1 4625   1.607   3.440   6.958
 1242SOL    HW2 4626   1.760   3.497   6.973
 1243SOL     OW 4627   2.115   5.292   5.120
 1243SOL    HW1 4628   2.096   5.202   5.083
 1243SOL    HW2 4629   2.051   5.311   5.195
 1244SOL     OW 4630   0.344   0.595   3.057
 1244SOL    HW1 4631   0.334   0.499   3.029
 1244SOL    HW2 4632   0.392   0.646   2.985
 1245SOL     OW 4633   2.843   3.469   6.982
 1245SOL    HW1 4634   2.886   3.543   0.014
 1245SOL    HW2 4635   2.908   3.432   6.916
 1246SOL     OW 4636   2.390   6.831   2.064
 1246SOL    HW1 4637   2.345   6.742   2.069
 1246SOL    HW2 4638   2.375   6.881   2.149
 1247SOL     OW 4639   2.956   6.810   6.457
 1247SOL    HW1 4640   2.941   6.818   6.358
 1247SOL    HW2 4641   3.047   6.774   6.474
 1248SOL     OW 4642   1.580   6.348   3.611
 1248SOL    HW1 4643   1.667   6.395   3.629
 1248SOL    HW2 4644   1.597   6.252   3.591
 1249SOL     OW 4645   5.886   3.509   3.470
 1249SOL    HW1 4646   5.932   3.448   3.406
 1249SOL    HW2 4647   5.805   3.464   3.508
 1250SOL     OW 4648   1.350   4.879   4.311
 1250SOL    HW1 4649   1.267   4.855   4.262
 1250SOL    HW2 4650   1.430   4.847   4.259
 1251SOL     OW 4651   4.205   1.091   4.447
 1251SOL    HW1 4652   4.161   1.101   4.536
 1251SOL    HW2 4653   4.170   1.009   4.401
 1252SOL     OW 4654   3.374   3.487   6.006
 1252SOL    HW1 4655   3.275   3.474   5.996
 1252SOL    HW2 4656   3.414   3.509   5.917
 1253SOL     OW 4657   3.651   5.450   2.134
 1253SOL    HW1 4658   3.638   5.415   2.227
 1253SOL    HW2 4659   3.582   5.411   2.074
 1254SOL     OW 4660   6.248   2.025   3.252
 1254SOL    HW1 4661   6.295   1.945   3.290
 1254SOL    HW2 4662   6.149   2.009   3.252
 1255SOL     OW 4663   0.330   0.256   5.400
 1255SOL    HW1 4664   0.412   0.223   5.447
 1255SOL    HW2 4665   0.352   0.339   5.348
 1256SOL     OW 4666   6.371   0.228   2.602
 1256SOL    HW1 4667   6.454   0.182   2.568
 1256SOL    HW2 4668   6.397   0.299   2.667
 1257SOL     OW 4669   0.007   0.501   3.260
 1257SOL    HW1 4670   0.047   0.409   3.259
 1257SOL    HW2 4671   6.937   0.498   3.302
 1258SOL     OW 4672   0.878   6.406   3.121
 1258SOL    HW1 4673   0.819   6.485   3.107
 1258SOL    HW2 4674   0.857   6.336   3.053
 1259SOL     OW 4675   4.077   1.591   5.316
 1259SOL    HW1 4676   4.167   1.567   5.282
 1259SOL    HW2 4677   4.082   1.607   5.415
 1260SOL     OW 4678   0.974   1.120   6.904
 1260SOL    HW1 4679   0.926   1.120   6.817
 1260SOL    HW2 4680   0.928   1.057   6.967
 1261SOL     OW 4681   0.522   5.082   0.114
 1261SOL    HW1 4682   0.525   5.175   0.078
 1261SOL    HW2 4683   0.427   5.052   0.122
 1262SOL     OW 4684   5.477   5.682   1.933
 1262SOL    HW1 4685   5.552   5.697   1.868
 1262SOL    HW2 4686   5.512   5.638   2.016
 1263SOL     OW 4687   0.451   1.923   2.453
 1263SOL    HW1 4688   0.540   1.881   2.472
 1263SOL    HW2 4689   0.378   1.864   2.488
 1264SOL     OW 4690   1.100   3.346   5.495
 1264SOL    HW1 4691   1.184   3.360   5.443
 1264SOL    HW2 4692   1.104   3.396   5.581
 1265SOL     OW 4693   5.984   5.789   5.526
 1265SOL    HW1 4694   6.026   5.816   5.440
 1265SOL    HW2 4695   6.025   5.841   5.601
 1266SOL     OW 4696   1.377   0.626   4.904
 1266SOL    HW1 4697   1.475   0.647   4.893
 1266SOL    HW2 4698   1.323   0.707   4.880
 1267SOL     OW 4699   4.737   0.637   2.162
 1267SOL    HW1 4700   4.758   0.714   2.102
 1267SOL    HW2 4701   4.772   0.552   2.122
 1268SOL     OW 4702   3.971   2.450   5.373
 1268SOL    HW1 4703   4.024   2.427   5.455
 1268SOL    HW2 4704   4.032   2.491   5.305
 1269SOL     OW 4705   5.786   2.434   3.839
 1269SOL    HW1 4706   5.880   2.443   3.806
 1269SOL    HW2 4707   5.723   2.476   3.774
 1270SOL     OW 4708   1.724   4.377   2.580
 1270SOL    HW1 4709   1.647   4.380   2.644
 1270SOL    HW2 4710   1.692   4.401   2.488
 1271SOL     OW 4711   1.712   1.327   1.647
 1271SOL    HW1 4712   1.719   1.258   1.575
 1271SOL    HW2 4713   1.620   1.366   1.648
 1272SOL     OW 4714   6.764   4.082   0.210
 1272SOL    HW1 4715   6.783   4.175   0.179
 1272SOL    HW2 4716   6.720   4.031   0.136
 1273SOL     OW 4717   1.209   4.227   5.085
 1273SOL    HW1 4718   1.205   4.210   4.986
 1273SOL    HW2 4719   1.186   4.323   5.102
 1274SOL     OW 4720   0.669   4.801   2.063
 1274SOL    HW1 4721   0.648   4.859   1.983
 1274SOL    HW2 4722   0.637   4.708   2.046
 1275SOL     OW 4723   2.900   0.707   3.128
 1275SOL    HW1 4724   2.807   0.686   3.099
 1275SOL    HW2 4725   2.905   0.803   3.156
 1276SOL     OW 4726   5.215   4.771   4.430
 1276SOL    HW1 4727   5.185   4.865   4.444
 1276SOL    HW2 4728   5.137   4.714   4.406
 1277SOL     OW 4729   0.250   5.685   6.761
 1277SOL    HW1 4730   0.153   5.664   6.770
 1277SOL    HW2 4731   0.302   5.629   6.826
 1278SOL     OW 4732   1.191   6.143   2.555
 1278SOL    HW1 4733   1.277   6.093   2.546
 1278SOL    HW2 4734   1.199   6.231   2.510
 1279SOL     OW 4735   3.279   2.776   6.619
 1279SOL    HW1 4736   3.247   2.868   6.596
 1279SOL    HW2 4737   3.203   2.722   6.653
 1280SOL     OW 4738   3.350   1.593   3.491
 1280SOL    HW1 4739   3.265   1.614   3.539
 1280SOL    HW2 4740   3.348   1.498   3.460
 1281SOL     OW 4741   3.495   6.387   3.978
 1281SOL    HW1 4742   3.572   6.443   4.008
 1281SOL    HW2 4743   3.438   6.440   3.915
 1282SOL     OW 4744   6.864   2.659   0.877
 1282SOL    HW1 4745   6.919   2.677   0.796
 1282SOL    HW2 4746   6.895   2.719   0.952
 1283SOL     OW 4747   5.778   3.359   5.117
 1283SOL    HW1 4748   5.822   3.339   5.029
 1283SOL    HW2 4749   5.795   3.283   5.180
 1284SOL     OW 4750   3.587   1.539   1.268
 1284SOL    HW1 4751   3.652   1.598   1.316
 1284SOL    HW2 4752   3.543   1.477   1.334
 1285SOL     OW 4753   3.241   1.882   4.550
 1285SOL    HW1 4754   3.335   1.847   4.555
 1285SOL    HW2 4755   3.244   1.982   4.551
 1286SOL     OW 4756   5.145   2.284   1.744
 1286SOL    HW1 4757   5.049   2.265   1.724
 1286SOL    HW2 4758   5.154   2.378   1.777
 1287SOL     OW 4759   0.009   4.504   4.720
 1287SOL    HW1 4760   0.090   4.552   4.685
 1287SOL    HW2 4761   0.038   4.432   4.783
 1288SOL     OW 4762   4.517   3.830   6.482
 1288SOL    HW1 4763   4.523   3.761   6.555
 1288SOL    HW2 4764   4.576   3.907   6.506
 1289SOL     OW 4765   6.754   0.768   1.630
 1289SOL    HW1 4766   6.849   0.777   1.600
 1289SOL    HW2 4767   6.743   0.684   1.682
 1290SOL     OW 4768   1.406   0.192   6.818
 1290SOL    HW1 4769   1.409   0.267   6.752
 1290SOL    HW2 4770   1.332   0.129   6.793
 1291SOL     OW 4771   6.511   4.686   3.094
 1291SOL    HW1 4772   6.586   4.620   3.089
 1291SOL    HW2 4773   6.432   4.651   3.042
 1292SOL     OW 4774   0.865   6.084   1.735
 1292SOL    HW1 4775   0.927   6.012   1.767
 1292SOL    HW2 4776   0.772   6.047   1.730
 1293SOL     OW 4777   2.712   1.683   6.895
 1293SOL    HW1 4778   2.668   1.701   6.807
 1293SOL    HW2 4779   2.710   1.767   6.951
 1294SOL     OW 4780   1.845   4.212   5.751
 1294SOL    HW1 4781   1.823   4.168   5.664
 1294SOL    HW2 4782   1.911   4.157   5.801
 1295SOL     OW 4783   7.019   3.314   1.296
 1295SOL    HW1 4784   6.990   3.222   1.322
 1295SOL    HW2 4785   6.998   3.378   1.371
 1296SOL     OW 4786   5.282   6.666   6.062
 1296SOL    HW1 4787   5.325   6.623   5.982
 1296SOL    HW2 4788   5.227   6.744   6.033
 1297SOL     OW 4789   0.397   0.905   2.566
 1297SOL    HW1 4790   0.297   0.897   2.569
 1297SOL    HW2 4791   0.422   1.002   2.563
 1298SOL     OW 4792   5.675   5.557   2.807
 1298SOL    HW1 4793   5.595   5.500   2.824
 1298SOL    HW2 4794   5.698   5.555   2.710
 1299SOL     OW 4795   2.127   3.459   4.313
 1299SOL    HW1 4796   2.157   3.400   4.238
 1299SOL    HW2 4797   2.104   3.403   4.393
 1300SOL     OW 4798   2.041   3.934   1.197
 1300SOL    HW1 4799   2.026   4.013   1.257
 1300SOL    HW2 4800   2.122   3.884   1.227
 1301SOL     OW 4801   1.046   0.604   1.769
 1301SOL    HW1 4802   0.954   0.630   1.797
 1301SOL    HW2 4803   1.049   0.592   1.670
 1302SOL     OW 4804   5.122   6.210   6.104
 1302SOL    HW1 4805   5.157   6.133   6.157
 1302SOL    HW2 4806   5.022   6.213   6.113
 1303SOL     OW 4807   4.656   6.812   1.433
 1303SOL    HW1 4808   4.663   6.748   1.357
 1303SOL    HW2 4809   4.570   6.796   1.482
 1304SOL     OW 4810   0.746   0.930   1.388
 1304SOL    HW1 4811   0.826   0.919   1.447
 1304SOL    HW2 4812   0.707   1.021   1.402
 1305SOL     OW 4813   5.718   4.513   0.029
 1305SOL    HW1 4814   5.776   4.580   0.074
 1305SOL    HW2 4815   5.741   4.507   6.952
 1306SOL     OW 4816   1.413   5.244   4.689
 1306SOL    HW1 4817   1.461   5.286   4.766
 1306SOL    HW2 4818   1.327   5.205   4.721
 1307SOL     OW 4819   1.660   2.823   3.766
 1307SOL    HW1 4820   1.717   2.765   3.824
 1307SOL    HW2 4821   1.631   2.903   3.819
 1308SOL     OW 4822   6.681   5.457   6.179
 1308SOL    HW1 4823   6.719   5.495   6.264
 1308SOL    HW2 4824   6.659   5.532   6.116
 1309SOL     OW 4825   5.299   4.498   6.108
 1309SOL    HW1 4826   5.358   4.420   6.127
 1309SOL    HW2 4827   5.303   4.563   6.184
 1310SOL     OW 4828   1.225   3.645   4.007
 1310SOL    HW1 4829   1.261   3.676   3.919
 1310SOL    HW2 4830   1.299   3.602   4.059
 1311SOL     OW 4831   6.739   5.708   0.564
 1311SOL    HW1 4832   6.744   5.759   0.478
 1311SOL    HW2 4833   6.778   5.762   0.638
 1312SOL     OW 4834   1.665   0.759   5.582
 1312SOL    HW1 4835   1.727   0.681   5.594
 1312SOL    HW2 4836   1.624   0.782   5.670
 1313SOL     OW 4837   6.736   4.900   3.002
 1313SOL    HW1 4838   6.833   4.908   3.025
 1313SOL    HW2 4839   6.688   4.852   3.075
 1314SOL     OW 4840   2.604   1.692   4.938
 1314SOL    HW1 4841   2.513   1.728   4.960
 1314SOL    HW2 4842   2.674   1.755   4.970
 1315SOL     OW 4843   6.155   7.006   4.152
 1315SOL    HW1 4844   6.139   6.914   4.117
 1315SOL    HW2 4845   6.088   0.006   4.224
 1316SOL     OW 4846   4.042   0.745   4.592
 1316SOL    HW1 4847   4.119   0.726   4.653
 1316SOL    HW2 4848   4.056   0.834   4.549
 1317SOL     OW 4849   2.896   3.375   5.754
 1317SOL    HW1 4850   2.991   3.400   5.734
 1317SOL    HW2 4851   2.837   3.407   5.680
 1318SOL     OW 4852   2.176   2.666   0.120
 1318SOL    HW1 4853   2.117   2.727   0.066
 1318SOL    HW2 4854   2.160   2.682   0.217
 1319SOL     OW 4855   6.924   6.253   0.088
 1319SOL    HW1 4856   7.003   6.312   0.101
 1319SOL    HW2 4857   6.916   6.228   7.011
 1320SOL     OW 4858   3.490   2.905   6.243
 1320SOL    HW1 4859   3.542   2.987   6.269
 1320SOL    HW2 4860   3.393   2.927   6.237
 1321SOL     OW 4861   6.086   1.966   6.654
 1321SOL    HW1 4862   6.123   1.963   6.747
 1321SOL    HW2 4863   6.041   1.879   6.634
 1322SOL     OW 4864   2.712   1.506   6.543
 1322SOL    HW1 4865   2.753   1.456   6.619
 1322SOL    HW2 4866   2.755   1.476   6.457
 1323SOL     OW 4867   3.425   0.274   0.483
 1323SOL    HW1 4868   3.505   0.226   0.520
 1323SOL    HW2 4869   3.453   0.332   0.407
 1324SOL     OW 4870   1.441   3.597   6.883
 1324SOL    HW1 4871   1.458   3.689   6.847
 1324SOL    HW2 4872   1.432   3.533   6.807
 1325SOL     OW 4873   2.198   5.862   6.085
 1325SOL    HW1 4874   2.194   5.898   5.992
 1325SOL    HW2 4875   2.287   5.819   6.100
 1326SOL     OW 4876   4.888   4.013   4.461
 1326SOL    HW1 4877   4.864   4.010   4.558
 1326SOL    HW2 4878   4.978   3.972   4.447
 1327SOL     OW 4879   0.255   6.292   0.845
 1327SOL    HW1 4880   0.171   6.344   0.863
 1327SOL    HW2 4881   0.328   6.326   0.905
 1328SOL     OW 4882   1.168   3.494   5.722
 1328SOL    HW1 4883   1.170   3.517   5.819
 1328SOL    HW2 4884   1.205   3.570   5.669
 1329SOL     OW 4885   0.307   2.519   3.437
 1329SOL    HW1 4886   0.301   2.428   3.396
 1329SOL    HW2 4887   0.244   2.524   3.515
 1330SOL     OW 4888   6.647   2.250   0.950
 1330SOL    HW1 4889   6.581   2.269   1.022
 1330SOL    HW2 4890   6.725   2.200   0.988
 1331SOL     OW 4891   4.004   2.186   2.444
 1331SOL    HW1 4892   4.045   2.098   2.466
 1331SOL    HW2 4893   4.074   2.246   2.405
 1332SOL     OW 4894   1.991   0.446   0.849
 1332SOL    HW1 4895   1.893   0.468   0.845
 1332SOL    HW2 4896   2.030   0.484   0.932
 1333SOL     OW 4897   3.870   4.008   2.939
 1333SOL    HW1 4898   3.819   4.014   3.025
 1333SOL    HW2 4899   3.870   4.098   2.895
 1334SOL     OW 4900   6.863   1.415   2.601
 1334SOL    HW1 4901   6.877   1.505   2.641
 1334SOL    HW2 4902   6.807   1.424   2.518
 1335SOL     OW 4903   2.125   4.035   1.658
 1335SOL    HW1 4904   2.152   3.964   1.594
 1335SOL    HW2 4905   2.186   4.114   1.648
 1336SOL     OW 4906   3.725   0.777   5.365
 1336SOL    HW1 4907   3.667   0.702   5.335
 1336SOL    HW2 4908   3.701   0.860   5.315
 1337SOL     OW 4909   6.156   1.686   3.856
 1337SOL    HW1 4910   6.182   1.759   3.793
 1337SOL    HW2 4911   6.184   1.712   3.949
 1338SOL     OW 4912   6.362   4.248   4.185
 1338SOL    HW1 4913   6.400   4.188   4.115
 1338SOL    HW2 4914   6.426   4.255   4.262
 1339SOL     OW 4915   0.063   0.333   6.859
 1339SOL    HW1 4916   0.138   0.339   6.793
 1339SOL    HW2 4917   0.055   0.238   6.890
 1340SOL     OW 4918   5.106   1.068   1.652
 1340SOL    HW1 4919   5.147   1.005   1.718
 1340SOL    HW2 4920   5.007   1.062   1.657
 1341SOL     OW 4921   4.373   6.827   6.940
 1341SOL    HW1 4922   4.339   6.921   6.937
 1341SOL    HW2 4923   4.373   6.789   6.847
 1342SOL     OW 4924   3.187   5.738   0.852
 1342SOL    HW1 4925   3.209   5.696   0.764
 1342SOL    HW2 4926   3.090   5.762   0.854
 1343SOL     OW 4927   5.034   5.149   3.181
 1343SOL    HW1 4928   5.118   5.095   3.193
 1343SOL    HW2 4929   4.992   5.125   3.094
 1344SOL     OW 4930   0.085   6.980   4.393
 1344SOL    HW1 4931   7.014   6.940   4.383
 1344SOL    HW2 4932   0.091   0.044   4.339
 1345SOL     OW 4933   0.452   5.510   1.814
 1345SOL    HW1 4934   0.429   5.420   1.775
 1345SOL    HW2 4935   0.511   5.498   1.893
 1346SOL     OW 4936   2.336   5.100   5.623
 1346SOL    HW1 4937   2.409   5.040   5.592
 1346SOL    HW2 4938   2.369   5.156   5.699
 1347SOL     OW 4939   1.723   0.324   6.791
 1347SOL    HW1 4940   1.799   0.277   6.835
 1347SOL    HW2 4941   1.646   0.262   6.781
 1348SOL     OW 4942   0.186   6.091   5.069
 1348SOL    HW1 4943   0.236   6.032   5.132
 1348SOL    HW2 4944   0.103   6.124   5.114
 1349SOL     OW 4945   5.474   3.841   3.927
 1349SOL    HW1 4946   5.392   3.784   3.936
 1349SOL    HW2 4947   5.541   3.794   3.871
 1350SOL     OW 4948   3.289   3.681   0.367
 1350SOL    HW1 4949   3.371   3.684   0.310
 1350SOL    HW2 4950   3.227   3.755   0.339
 1351SOL     OW 4951   6.429   2.442   4.203
 1351SOL    HW1 4952   6.444   2.363   4.145
 1351SOL    HW2 4953   6.417   2.524   4.146
 1352SOL     OW 4954   7.018   0.072   2.406
 1352SOL    HW1 4955   0.084   0.115   2.433
 1352SOL    HW2 4956   7.016   0.061   2.306
 1353SOL     OW 4957   0.524   1.701   1.299
 1353SOL    HW1 4958   0.586   1.723   1.374
 1353SOL    HW2 4959   0.545   1.759   1.221
 1354SOL     OW 4960   6.223   4.102   2.169
 1354SOL    HW1 4961   6.236   4.200   2.187
 1354SOL    HW2 4962   6.304   4.052   2.197
 1355SOL     OW 4963   5.861   3.319   4.296
 1355SOL    HW1 4964   5.907   3.299   4.382
 1355SOL    HW2 4965   5.762   3.313   4.308
 1356SOL     OW 4966   3.686   2.860   2.263
 1356SOL    HW1 4967   3.744   2.929   2.219
 1356SOL    HW2 4968   3.724   2.769   2.247
 1357SOL     OW 4969   6.750   3.324   5.538
 1357SOL    HW1 4970   6.715   3.353   5.449
 1357SOL    HW2 4971   6.674   3.310   5.601
 1358SOL     OW 4972   1.260   6.639   0.227
 1358SOL    HW1 4973   1.221   6.674   0.142
 1358SOL    HW2 4974   1.211   6.679   0.304
 1359SOL     OW 4975   6.577   4.195   1.499
 1359SOL    HW1 4976   6.655   4.208   1.560
 1359SOL    HW2 4977   6.517   4.125   1.537
 1360SOL     OW 4978   3.229   3.054   6.459
 1360SOL    HW1 4979   3.195   3.011   6.375
 1360SOL    HW2 4980   3.172   3.134   6.481
 1361SOL     OW 4981   0.121   3.984   4.694
 1361SOL    HW1 4982   0.155   3.919   4.625
 1361SOL    HW2 4983   0.196   4.044   4.723
 1362SOL     OW 4984   3.639   2.927   2.517
 1362SOL    HW1 4985   3.660   2.907   2.421
 1362SOL    HW2 4986   3.542   2.948   2.526
 1363SOL     OW 4987   6.897   5.658   5.477
 1363SOL    HW1 4988   6.891   5.629   5.382
 1363SOL    HW2 4989   6.992   5.650   5.508
 1364SOL     OW 4990   4.443   4.366   0.502
 1364SOL    HW1 4991   4.445   4.374   0.403
 1364SOL    HW2 4992   4.420   4.455   0.542
 1365SOL     OW 4993   0.867   3.619   6.123
 1365SOL    HW1 4994   0.843   3.526   6.149
 1365SOL    HW2 4995   0.923   3.661   6.195
 1366SOL     OW 4996   2.083   0.442   4.925
 1366SOL    HW1 4997   2.070   0.514   4.857
 1366SOL    HW2 4998   1.997   0.423   4.971
 1367SOL     OW 4999   2.099   0.998   2.349
 1367SOL    HW1 5000   2.010   0.977   2.388
 1367SOL    HW2 5001   2.134   1.082   2.390
 1368SOL     OW 5002   5.983   6.996   4.370
 1368SOL    HW1 5003   5.885   7.006   4.386
 1368SOL    HW2 5004   6.033   0.041   4.428
 1369SOL     OW 5005   0.649   0.719   3.067
 1369SOL    HW1 5006   0.647   0.693   2.970
 1369SOL    HW2 5007   0.640   0.818   3.075
 1370SOL     OW 5008   3.216   0.810   2.088
 1370SOL    HW1 5009   3.193   0.904   2.063
 1370SOL    HW2 5010   3.302   0.784   2.045
 1371SOL     OW 5011   3.475   0.331   6.050
 1371SOL    HW1 5012   3.402   0.352   6.114
 1371SOL    HW2 5013   3.444   0.261   5.986
 1372SOL     OW 5014   2.623   1.975   2.343
 1372SOL    HW1 5015   2.576   2.007   2.426
 1372SOL    HW2 5016   2.559   1.976   2.266
 1373SOL     OW 5017   0.637   5.507   1.583
 1373SOL    HW1 5018   0.581   5.587   1.564
 1373SOL    HW2 5019   0.588   5.445   1.644
 1374SOL     OW 5020   4.484   1.893   0.474
 1374SOL    HW1 5021   4.566   1.845   0.505
 1374SOL    HW2 5022   4.492   1.913   0.376
 1375SOL     OW 5023   0.056   4.039   6.095
 1375SOL    HW1 5024   0.064   3.941   6.075
 1375SOL    HW2 5025   7.009   4.080   6.034
 1376SOL     OW 5026   4.890   3.204   3.133
 1376SOL    HW1 5027   4.836   3.249   3.205
 1376SOL    HW2 5028   4.882   3.105   3.142
 1377SOL     OW 5029   6.572   5.238   5.197
 1377SOL    HW1 5030   6.488   5.185   5.203
 1377SOL    HW2 5031   6.580   5.297   5.277
 1378SOL     OW 5032   1.634   2.549   0.110
 1378SOL    HW1 5033   1.567   2.502   0.168
 1378SOL    HW2 5034   1.709   2.487   0.088
 1379SOL     OW 5035   3.765   6.646   2.670
 1379SOL    HW1 5036   3.723   6.735   2.686
 1379SOL    HW2 5037   3.856   6.659   2.630
 1380SOL     OW 5038   6.307   6.955   2.812
 1380SOL    HW1 5039   6.236   6.989   2.752
 1380SOL    HW2 5040   6.393   6.947   2.761
 1381SOL     OW 5041   6.820   1.724   0.768
 1381SOL    HW1 5042   6.823   1.811   0.719
 1381SOL    HW2 5043   6.733   1.678   0.750
 1382SOL     OW 5044   5.615   4.682   6.375
 1382SOL    HW1 5045   5.643   4.773   6.347
 1382SOL    HW2 5046   5.540   4.651   6.317
 1383SOL     OW 5047   2.492   0.076   0.675
 1383SOL    HW1 5048   2.424   0.148   0.664
 1383SOL    HW2 5049   2.555   0.076   0.598
 1384SOL     OW 5050   3.126   2.072   2.518
 1384SOL    HW1 5051   3.222   2.073   2.491
 1384SOL    HW2 5052   3.076   2.141   2.466
 1385SOL     OW 5053   6.946   3.025   3.240
 1385SOL    HW1 5054   6.922   3.037   3.144
 1385SOL    HW2 5055   6.943   2.928   3.263
 1386SOL     OW 5056   1.934   2.267   4.203
 1386SOL    HW1 5057   1.968   2.179   4.237
 1386SOL    HW2 5058   1.854   2.295   4.255
 1387SOL     OW 5059   2.524   0.148   5.049
 1387SOL    HW1 5060   2.571   0.220   4.998
 1387SOL    HW2 5061   2.465   0.190   5.118
 1388SOL     OW 5062   6.346   0.979   4.069
 1388SOL    HW1 5063   6.374   0.897   4.119
 1388SOL    HW2 5064   6.289   0.953   3.991
 1389SOL     OW 5065   5.722   6.985   4.470
 1389SOL    HW1 5066   5.705   6.967   4.567
 1389SOL    HW2 5067   5.677   6.914   4.415
 1390SOL     OW 5068   5.075   2.203   2.382
 1390SOL    HW1 5069   5.119   2.281   2.337
 1390SOL    HW2 5070   5.108   2.196   2.476
 1391SOL     OW 5071   4.828   0.837   4.516
 1391SOL    HW1 5072   4.893   0.799   4.451
 1391SOL    HW2 5073   4.765   0.765   4.545
 1392SOL     OW 5074   4.905   6.020   6.709
 1392SOL    HW1 5075   4.952   5.942   6.749
 1392SOL    HW2 5076   4.837   5.988   6.644
 1393SOL     OW 5077   6.448   0.932   6.348
 1393SOL    HW1 5078   6.374   0.881   6.392
 1393SOL    HW2 5079   6.531   0.923   6.403
 1394SOL     OW 5080   4.607   6.946   3.928
 1394SOL    HW1 5081   4.639   6.919   4.019
 1394SOL    HW2 5082   4.508   6.957   3.929
 1395SOL     OW 5083   1.311   4.563   2.326
 1395SOL    HW1 5084   1.235   4.627   2.309
 1395SOL    HW2 5085   1.314   4.496   2.251
 1396SOL     OW 5086   2.264   1.500   3.982
 1396SOL    HW1 5087   2.356   1.503   4.021
 1396SOL    HW2 5088   2.245   1.585   3.934
 1397SOL     OW 5089   0.192   5.343   3.983
 1397SOL    HW1 5090   0.120   5.287   3.943
 1397SOL    HW2 5091   0.281   5.305   3.957
 1398SOL     OW 5092   0.463   0.897   0.906
 1398SOL    HW1 5093   0.498   0.830   0.841
 1398SOL    HW2 5094   0.538   0.955   0.938
 1399SOL     OW 5095   4.286   0.139   0.264
 1399SOL    HW1 5096   4.207   0.175   0.214
 1399SOL    HW2 5097   4.365   0.136   0.203
 1400SOL     OW 5098   6.059   0.104   4.944
 1400SOL    HW1 5099   6.071   0.029   4.878
 1400SOL    HW2 5100   6.120   0.090   5.022
 1401SOL     OW 5101   5.213   0.459   3.394
 1401SOL    HW1 5102   5.171   0.479   3.306
 1401SOL    HW2 5103   5.211   0.541   3.452
 1402SOL     OW 5104   6.901   4.705   2.078
 1402SOL    HW1 5105   6.871   4.611   2.094
 1402SOL    HW2 5106   6.995   4.716   2.112
 1403SOL     OW 5107   3.034   2.974   6.658
 1403SOL    HW1 5108   3.007   3.066   6.629
 1403SOL    HW2 5109   2.979   2.906   6.610
 1404SOL     OW 5110   4.724   6.749   0.479
 1404SOL    HW1 5111   4.662   6.802   0.422
 1404SOL    HW2 5112   4.752   6.667   0.430
 1405SOL     OW 5113   1.496   3.361   0.772
 1405SOL    HW1 5114   1.588   3.338   0.742
 1405SOL    HW2 5115   1.450   3.279   0.805
 1406SOL     OW 5116   2.239   3.000   1.210
 1406SOL    HW1 5117   2.274   3.071   1.149
 1406SOL    HW2 5118   2.274   3.016   1.303
 1407SOL     OW 5119   0.336   2.970   0.718
 1407SOL    HW1 5120   0.336   2.880   0.762
 1407SOL    HW2 5121   0.245   3.010   0.723
 1408SOL     OW 5122   6.012   6.323   0.295
 1408SOL    HW1 5123   6.055   6.236   0.272
 1408SOL    HW2 5124   6.041   6.393   0.229
 1409SOL     OW 5125   6.355   1.972   5.966
 1409SOL    HW1 5126   6.324   1.880   5.943
 1409SOL    HW2 5127   6.356   2.029   5.883
 1410SOL     OW 5128   3.635   1.905   5.977
 1410SOL    HW1 5129   3.692   1.979   5.939
 1410SOL    HW2 5130   3.690   1.823   5.988
 1411SOL     OW 5131   3.870   5.013   0.256
 1411SOL    HW1 5132   3.838   5.106   0.235
 1411SOL    HW2 5133   3.806   4.947   0.217
 1412SOL     OW 5134   1.927   3.121   0.572
 1412SOL    HW1 5135   1.990   3.125   0.494
 1412SOL    HW2 5136   1.965   3.059   0.641
 1413SOL     OW 5137   2.011   1.678   5.397
 1413SOL    HW1 5138   2.027   1.585   5.430
 1413SOL    HW2 5139   1.942   1.722   5.453
 1414SOL     OW 5140   1.416   4.256   2.380
 1414SOL    HW1 5141   1.495   4.304   2.342
 1414SOL    HW2 5142   1.381   4.306   2.458
 1415SOL     OW 5143   1.914   1.797   4.611
 1415SOL    HW1 5144   1.830   1.843   4.640
 1415SOL    HW2 5145   1.993   1.855   4.631
 1416SOL     OW 5146   3.822   0.246   4.866
 1416SOL    HW1 5147   3.865   0.250   4.957
 1416SOL    HW2 5148   3.827   0.153   4.831
 1417SOL     OW 5149   3.353   3.162   6.080
 1417SOL    HW1 5150   3.446   3.128   6.064
 1417SOL    HW2 5151   3.357   3.249   6.129
 1418SOL     OW 5152   3.425   4.419   6.693
 1418SOL    HW1 5153   3.461   4.508   6.719
 1418SOL    HW2 5154   3.434   4.407   6.594
 1419SOL     OW 5155   2.307   4.724   2.590
 1419SOL    HW1 5156   2.347   4.808   2.554
 1419SOL    HW2 5157   2.272   4.741   2.682
 1420SOL     OW 5158   2.933   6.386   3.101
 1420SOL    HW1 5159   2.835   6.403   3.103
 1420SOL    HW2 5160   2.953   6.312   3.037
 1421SOL     OW 5161   1.265   4.904   5.915
 1421SOL    HW1 5162   1.202   4.852   5.856
 1421SOL    HW2 5163   1.213   4.955   5.983
 1422SOL     OW 5164   2.094   4.147   6.226
 1422SOL    HW1 5165   2.096   4.083   6.302
 1422SOL    HW2 5166   2.031   4.114   6.156
 1423SOL     OW 5167   4.212   0.497   5.368
 1423SOL    HW1 5168   4.168   0.483   5.279
 1423SOL    HW2 5169   4.168   0.439   5.437
 1424SOL     OW 5170   6.197   3.362   6.834
 1424SOL    HW1 5171   6.107   3.324   6.811
 1424SOL    HW2 5172   6.199   3.459   6.810
 1425SOL     OW 5173   4.850   6.346   3.438
 1425SOL    HW1 5174   4.754   6.343   3.409
 1425SOL    HW2 5175   4.871   6.437   3.472
 1426SOL     OW 5176   3.537   2.290   0.161
 1426SOL    HW1 5177   3.481   2.330   0.088
 1426SOL    HW2 5178   3.494   2.205   0.192
 1427SOL     OW 5179   1.372   1.253   3.965
 1427SOL    HW1 5180   1.407   1.347   3.960
 1427SOL    HW2 5181   1.274   1.252   3.946
 1428SOL     OW 5182   0.629   3.749   4.152
 1428SOL    HW1 5183   0.540   3.713   4.179
 1428SOL    HW2 5184   0.696   3.675   4.153
 1429SOL     OW 5185   5.972   1.149   1.073
 1429SOL    HW1 5186   5.967   1.071   1.011
 1429SOL    HW2 5187   6.044   1.211   1.042
 1430SOL     OW 5188   2.176   3.831   3.791
 1430SOL    HW1 5189   2.231   3.911   3.817
 1430SOL    HW2 5190   2.225   3.779   3.721
 1431SOL     OW 5191   2.497   0.960   6.021
 1431SOL    HW1 5192   2.583   1.011   6.014
 1431SOL    HW2 5193   2.515   0.863   6.004
 1432SOL     OW 5194   2.833   1.003   2.465
 1432SOL    HW1 5195   2.831   1.020   2.563
 1432SOL    HW2 5196   2.819   1.088   2.415
 1433SOL     OW 5197   2.696   6.735   3.743
 1433SOL    HW1 5198   2.648   6.822   3.750
 1433SOL    HW2 5199   2.680   6.695   3.653
 1434SOL     OW 5200   0.366   3.348   0.828
 1434SOL    HW1 5201   0.322   3.261   0.807
 1434SOL    HW2 5202   0.419   3.379   0.749
 1435SOL     OW 5203   1.049   6.664   3.952
 1435SOL    HW1 5204   1.019   6.573   3.980
 1435SOL    HW2 5205   1.118   6.698   4.016
 1436SOL     OW 5206   5.382   2.077   6.798
 1436SOL    HW1 5207   5.369   2.167   6.840
 1436SOL    HW2 5208   5.449   2.084   6.723
 1437SOL     OW 5209   3.682   0.383   5.788
 1437SOL    HW1 5210   3.691   0.304   5.849
 1437SOL    HW2 5211   3.722   0.463   5.832
 1438SOL     OW 5212   2.597   0.319   2.194
 1438SOL    HW1 5213   2.586   0.329   2.293
 1438SOL    HW2 5214   2.627   0.226   2.172
 1439SOL     OW 5215   0.428   4.959   6.894
 1439SOL    HW1 5216   0.522   4.926   6.904
 1439SOL    HW2 5217   0.364   4.881   6.897
 1440SOL     OW 5218   3.655   3.176   3.187
 1440SOL    HW1 5219   3.678   3.255   3.131
 1440SOL    HW2 5220   3.668   3.092   3.134
 1441SOL     OW 5221   6.090   2.737   3.782
 1441SOL    HW1 5222   6.131   2.827   3.796
 1441SOL    HW2 5223   6.001   2.734   3.828
 1442SOL     OW 5224   5.496   5.099   0.304
 1442SOL    HW1 5225   5.494   5.053   0.393
 1442SOL    HW2 5226   5.433   5.053   0.241
 1443SOL     OW 5227   0.560   2.897   2.852
 1443SOL    HW1 5228   0.513   2.820   2.895
 1443SOL    HW2 5229   0.645   2.916   2.901
 1444SOL     OW 5230   4.614   1.116   3.713
 1444SOL    HW1 5231   4.564   1.101   3.628
 1444SOL    HW2 5232   4.555   1.165   3.778
 1445SOL     OW 5233   6.371   1.987   0.776
 1445SOL    HW1 5234   6.429   1.930   0.835
 1445SOL    HW2 5235   6.429   2.047   0.721
 1446SOL     OW 5236   4.754   0.911   1.345
 1446SOL    HW1 5237   4.775   0.835   1.283
 1446SOL    HW2 5238   4.702   0.878   1.423
 1447SOL     OW 5239   6.243   0.828   5.492
 1447SOL    HW1 5240   6.220   0.837   5.589
 1447SOL    HW2 5241   6.338   0.799   5.482
 1448SOL     OW 5242   5.509   0.313   6.694
 1448SOL    HW1 5243   5.511   0.351   6.786
 1448SOL    HW2 5244   5.426   0.259   6.681
 1449SOL     OW 5245   4.609   5.995   1.343
 1449SOL    HW1 5246   4.669   5.924   1.380
 1449SOL    HW2 5247   4.606   5.989   1.244
 1450SOL     OW 5248   5.445   3.049   3.469
 1450SOL    HW1 5249   5.468   3.137   3.428
 1450SOL    HW2 5250   5.345   3.037   3.468
 1451SOL     OW 5251   1.382   6.512   3.092
 1451SOL    HW1 5252   1.356   6.556   3.178
 1451SOL    HW2 5253   1.300   6.494   3.038
 1452SOL     OW 5254   4.406   1.256   5.159
 1452SOL    HW1 5255   4.308   1.250   5.181
 1452SOL    HW2 5256   4.420   1.328   5.090
 1453SOL     OW 5257   5.434   4.830   5.272
 1453SOL    HW1 5258   5.406   4.897   5.340
 1453SOL    HW2 5259   5.527   4.852   5.239
 1454SOL     OW 5260   4.051   3.914   1.059
 1454SOL    HW1 5261   4.046   3.867   0.972
 1454SOL    HW2 5262   4.096   3.856   1.126
 1455SOL     OW 5263   2.022   2.674   1.330
 1455SOL    HW1 5264   2.098   2.695   1.390
 1455SOL    HW2 5265   1.973   2.594   1.364
 1456SOL     OW 5266   6.323   6.302   3.587
 1456SOL    HW1 5267   6.355   6.217   3.544
 1456SOL    HW2 5268   6.363   6.310   3.678
 1457SOL     OW 5269   1.368   0.786   3.087
 1457SOL    HW1 5270   1.364   0.688   3.105
 1457SOL    HW2 5271   1.464   0.814   3.081
 1458SOL     OW 5272   5.851   5.344   6.663
 1458SOL    HW1 5273   5.895   5.262   6.701
 1458SOL    HW2 5274   5.831   5.408   6.737
 1459SOL     OW 5275   1.941   0.137   0.073
 1459SOL    HW1 5276   1.865   0.199   0.092
 1459SOL    HW2 5277   1.905   0.049   0.043
 1460SOL     OW 5278   1.229   6.968   6.815
 1460SOL    HW1 5279   1.297   6.899   6.789
 1460SOL    HW2 5280   1.195   6.949   6.907
 1461SOL     OW 5281   5.737   5.012   1.678
 1461SOL    HW1 5282   5.654   5.036   1.728
 1461SOL    HW2 5283   5.724   4.923   1.633
 1462SOL     OW 5284   5.779   0.612   6.183
 1462SOL    HW1 5285   5.705   0.592   6.119
 1462SOL    HW2 5286   5.809   0.707   6.171
 1463SOL     OW 5287   0.534   1.513   4.703
 1463SOL    HW1 5288   0.604   1.463   4.754
 1463SOL    HW2 5289   0.512   1.598   4.750
 1464SOL     OW 5290   0.612   6.177   1.089
 1464SOL    HW1 5291   0.654   6.104   1.143
 1464SOL    HW2 5292   0.684   6.229   1.043
 1465SOL     OW 5293   0.062   6.760   4.827
 1465SOL    HW1 5294   0.143   6.707   4.804
 1465SOL    HW2 5295   7.002   6.721   4.780
 1466SOL     OW 5296   5.722   5.335   3.872
 1466SOL    HW1 5297   5.705   5.312   3.776
 1466SOL    HW2 5298   5.767   5.258   3.917
 1467SOL     OW 5299   0.289   2.686   3.227
 1467SOL    HW1 5300   0.220   2.742   3.272
 1467SOL    HW2 5301   0.313   2.609   3.286
 1468SOL     OW 5302   5.725   5.731   3.584
 1468SOL    HW1 5303   5.696   5.757   3.675
 1468SOL    HW2 5304   5.645   5.719   3.525
 1469SOL     OW 5305   0.661   1.501   2.991
 1469SOL    HW1 5306   0.641   1.403   2.984
 1469SOL    HW2 5307   0.654   1.543   2.900
 1470SOL     OW 5308   0.143   1.280   3.277
 1470SOL    HW1 5309   0.233   1.322   3.281
 1470SOL    HW2 5310   0.147   1.188   3.316
 1471SOL     OW 5311   0.021   0.102   6.983
 1471SOL    HW1 5312   6.995   0.065   0.044
 1471SOL    HW2 5313   7.015   0.048   6.903
 1472SOL     OW 5314   4.085   0.785   5.670
 1472SOL    HW1 5315   4.024   0.706   5.680
 1472SOL    HW2 5316   4.178   0.758   5.695
 1473SOL     OW 5317   6.338   4.467   4.024
 1473SOL    HW1 5318   6.240   4.467   4.005
 1473SOL    HW2 5319   6.359   4.400   4.096
 1474SOL     OW 5320   4.656   5.908   3.698
 1474SOL    HW1 5321   4.564   5.875   3.678
 1474SOL    HW2 5322   4.724   5.851   3.652
 1475SOL     OW 5323   0.453   1.177   2.602
 1475SOL    HW1 5324   0.494   1.269   2.596
 1475SOL    HW2 5325   0.353   1.186   2.607
 1476SOL     OW 5326   6.500   2.063   2.214
 1476SOL    HW1 5327   6.424   2.005   2.245
 1476SOL    HW2 5328   6.464   2.153   2.188
 1477SOL     OW 5329   2.425   5.900   3.703
 1477SOL    HW1 5330   2.378   5.974   3.752
 1477SOL    HW2 5331   2.362   5.861   3.635
 1478SOL     OW 5332   6.719   4.284   1.277
 1478SOL    HW1 5333   6.668   4.258   1.359
 1478SOL    HW2 5334   6.696   4.222   1.202
 1479SOL     OW 5335   1.650   5.176   0.640
 1479SOL    HW1 5336   1.749   5.163   0.646
 1479SOL    HW2 5337   1.615   5.204   0.730
 1480SOL     OW 5338   2.628   1.207   0.201
 1480SOL    HW1 5339   2.627   1.298   0.161
 1480SOL    HW2 5340   2.535   1.182   0.228
 1481SOL     OW 5341   6.086   2.679   6.035
 1481SOL    HW1 5342   6.073   2.769   6.075
 1481SOL    HW2 5343   6.149   2.625   6.092
 1482SOL     OW 5344   5.993   0.445   6.413
 1482SOL    HW1 5345   6.022   0.481   6.325
 1482SOL    HW2 5346   5.958   0.520   6.470
 1483SOL     OW 5347   6.311   1.834   6.955
 1483SOL    HW1 5348   6.411   1.830   6.945
 1483SOL    HW2 5349   6.284   1.923   6.992
 1484SOL     OW 5350   6.293   5.461   2.777
 1484SOL    HW1 5351   6.217   5.518   2.746
 1484SOL    HW2 5352   6.374   5.518   2.790
 1485SOL     OW 5353   5.219   2.990   3.862
 1485SOL    HW1 5354   5.205   2.891   3.856
 1485SOL    HW2 5355   5.208   3.031   3.772
 1486SOL     OW 5356   4.828   1.914   2.045
 1486SOL    HW1 5357   4.833   1.857   1.963
 1486SOL    HW2 5358   4.767   1.870   2.112
 1487SOL     OW 5359   6.083   1.409   5.430
 1487SOL    HW1 5360   6.171   1.412   5.381
 1487SOL    HW2 5361   6.076   1.324   5.481
 1488SOL     OW 5362   4.408   1.874   3.233
 1488SOL    HW1 5363   4.397   1.919   3.144
 1488SOL    HW2 5364   4.335   1.806   3.244
 1489SOL     OW 5365   4.036   5.831   5.021
 1489SOL    HW1 5366   3.985   5.754   5.058
 1489SOL    HW2 5367   4.097   5.799   4.948
 1490SOL     OW 5368   1.993   2.744   0.367
 1490SOL    HW1 5369   2.066   2.810   0.384
 1490SOL    HW2 5370   1.960   2.709   0.455
 1491SOL     OW 5371   0.509   2.903   5.006
 1491SOL    HW1 5372   0.424   2.909   4.954
 1491SOL    HW2 5373   0.511   2.976   5.075
 1492SOL     OW 5374   5.184   2.365   2.168
 1492SOL    HW1 5375   5.169   2.440   2.103
 1492SOL    HW2 5376   5.202   2.402   2.259
 1493SOL     OW 5377   4.870   1.115   5.286
 1493SOL    HW1 5378   4.789   1.173   5.286
 1493SOL    HW2 5379   4.842   1.019   5.293
 1494SOL     OW 5380   4.712   2.849   6.019
 1494SOL    HW1 5381   4.788   2.846   6.083
 1494SOL    HW2 5382   4.743   2.815   5.930
 1495SOL     OW 5383   1.854   3.101   2.447
 1495SOL    HW1 5384   1.820   3.107   2.540
 1495SOL    HW2 5385   1.954   3.093   2.448
 1496SOL     OW 5386   0.722   0.638   2.378
 1496SOL    HW1 5387   0.780   0.556   2.380
 1496SOL    HW2 5388   0.692   0.657   2.285
 1497SOL     OW 5389   5.962   5.549   5.159
 1497SOL    HW1 5390   5.935   5.566   5.064
 1497SOL    HW2 5391   6.005   5.459   5.165
 1498SOL     OW 5392   2.677   6.045   0.424
 1498SOL    HW1 5393   2.738   6.070   0.349
 1498SOL    HW2 5394   2.583   6.069   0.400
 1499SOL     OW 5395   0.432   4.289   5.568
 1499SOL    HW1 5396   0.444   4.380   5.608
 1499SOL    HW2 5397   0.388   4.229   5.634
 1500SOL     OW 5398   4.816   0.414   6.103
 1500SOL    HW1 5399   4.787   0.507   6.081
 1500SOL    HW2 5400   4.739   0.364   6.143
 1501SOL     OW 5401   3.856   0.105   6.131
 1501SOL    HW1 5402   3.919   0.040   6.172
 1501SOL    HW2 5403   3.763   0.068   6.134
 1502SOL     OW 5404   6.526   6.031   0.187
 1502SOL    HW1 5405   6.486   6.115   0.223
 1502SOL    HW2 5406   6.579   6.052   0.104
 1503SOL     OW 5407   3.360   3.224   5.800
 1503SOL    HW1 5408   3.455   3.233   5.770
 1503SOL    HW2 5409   3.356   3.223   5.900
 1504SOL     OW 5410   2.824   5.929   4.803
 1504SOL    HW1 5411   2.908   5.910   4.853
 1504SOL    HW2 5412   2.799   5.850   4.748
 1505SOL     OW 5413   5.026   5.330   0.352
 1505SOL    HW1 5414   5.000   5.332   0.448
 1505SOL    HW2 5415   5.101   5.394   0.336
 1506SOL     OW 5416   0.638   6.014   4.026
 1506SOL    HW1 5417   0.582   5.932   4.038
 1506SOL    HW2 5418   0.724   5.989   3.982
 1507SOL     OW 5419   1.891   1.935   6.553
 1507SOL    HW1 5420   1.968   1.960   6.494
 1507SOL    HW2 5421   1.815   1.903   6.496
 1508SOL     OW 5422   5.280   0.070   0.400
 1508SOL    HW1 5423   5.252   0.063   0.495
 1508SOL    HW2 5424   5.288   0.166   0.375
 1509SOL     OW 5425   4.988   2.167   0.557
 1509SOL    HW1 5426   4.957   2.087   0.507
 1509SOL    HW2 5427   5.081   2.190   0.529
 1510SOL     OW 5428   6.663   1.487   3.642
 1510SOL    HW1 5429   6.641   1.415   3.708
 1510SOL    HW2 5430   6.579   1.529   3.609
 1511SOL     OW 5431   1.819   2.590   0.521
 1511SOL    HW1 5432   1.850   2.614   0.613
 1511SOL    HW2 5433   1.719   2.586   0.518
 1512SOL     OW 5434   6.604   0.548   2.122
 1512SOL    HW1 5435   6.601   0.477   2.052
 1512SOL    HW2 5436   6.600   0.506   2.213
 1513SOL     OW 5437   3.543   1.005   2.286
 1513SOL    HW1 5438   3.619   0.986   2.225
 1513SOL    HW2 5439   3.534   1.104   2.298
 1514SOL     OW 5440   5.088   1.733   4.834
 1514SOL    HW1 5441   5.107   1.645   4.878
 1514SOL    HW2 5442   5.067   1.718   4.738
 1515SOL     OW 5443   0.205   4.512   4.291
 1515SOL    HW1 5444   0.164   4.594   4.330
 1515SOL    HW2 5445   0.296   4.533   4.256
 1516SOL     OW 5446   0.751   1.670   0.896
 1516SOL    HW1 5447   0.729   1.738   0.966
 1516SOL    HW2 5448   0.666   1.637   0.854
 1517SOL     OW 5449   3.992   5.915   3.145
 1517SOL    HW1 5450   4.035   5.994   3.188
 1517SOL    HW2 5451   4.063   5.851   3.116
 1518SOL     OW 5452   0.696   4.670   1.148
 1518SOL    HW1 5453   0.733   4.677   1.240
 1518SOL    HW2 5454   0.726   4.583   1.108
 1519SOL     OW 5455   6.685   4.661   0.762
 1519SOL    HW1 5456   6.625   4.738   0.786
 1519SOL    HW2 5457   6.639   4.575   0.783
 1520SOL     OW 5458   1.249   3.257   2.678
 1520SOL    HW1 5459   1.189   3.180   2.699
 1520SOL    HW2 5460   1.278   3.301   2.763
 1521SOL     OW 5461   2.752   3.840   6.648
 1521SOL    HW1 5462   2.734   3.743   6.663
 1521SOL    HW2 5463   2.665   3.886   6.627
 1522SOL     OW 5464   6.289   2.311   6.883
 1522SOL    HW1 5465   6.332   2.332   6.795
 1522SOL    HW2 5466   6.344   2.351   6.957
 1523SOL     OW 5467   0.420   1.888   0.720
 1523SOL    HW1 5468   0.450   1.868   0.814
 1523SOL    HW2 5469   0.324   1.862   0.710
 1524SOL     OW 5470   0.032   0.717   2.471
 1524SOL    HW1 5471   0.050   0.810   2.503
 1524SOL    HW2 5472   0.040   0.653   2.547
 1525SOL     OW 5473   4.515   2.158   6.127
 1525SOL    HW1 5474   4.557   2.128   6.212
 1525SOL    HW2 5475   4.491   2.078   6.071
 1526SOL     OW 5476   6.796   2.554   1.629
 1526SOL    HW1 5477   6.710   2.577   1.583
 1526SOL    HW2 5478   6.808   2.455   1.630
 1527SOL     OW 5479   3.234   1.469   5.702
 1527SOL    HW1 5480   3.293   1.541   5.738
 1527SOL    HW2 5481   3.148   1.467   5.753
 1528SOL     OW 5482   5.243   6.195   3.561
 1528SOL    HW1 5483   5.163   6.183   3.620
 1528SOL    HW2 5484   5.300   6.269   3.597
 1529SOL     OW 5485   3.100   0.595   5.692
 1529SOL    HW1 5486   3.051   0.682   5.705
 1529SOL    HW2 5487   3.186   0.598   5.742
 1530SOL     OW 5488   4.032   6.344   1.797
 1530SOL    HW1 5489   3.971   6.407   1.846
 1530SOL    HW2 5490   3.993   6.324   1.707
 1531SOL     OW 5491   6.691   6.747   4.851
 1531SOL    HW1 5492   6.705   6.651   4.873
 1531SOL    HW2 5493   6.695   6.760   4.752
 1532SOL     OW 5494   3.063   1.824   5.380
 1532SOL    HW1 5495   3.153   1.849   5.418
 1532SOL    HW2 5496   3.020   1.906   5.343
 1533SOL     OW 5497   6.050   2.476   6.929
 1533SOL    HW1 5498   6.146   2.458   6.909
 1533SOL    HW2 5499   5.999   2.487   6.843
 1534SOL     OW 5500   6.984   6.302   1.399
 1534SOL    HW1 5501   6.924   6.227   1.371
 1534SOL    HW2 5502   6.940   6.354   1.473
 1535SOL     OW 5503   4.784   5.419   4.165
 1535SOL    HW1 5504   4.713   5.349   4.172
 1535SOL    HW2 5505   4.787   5.454   4.072
 1536SOL     OW 5506   2.817   6.355   4.905
 1536SOL    HW1 5507   2.867   6.317   4.827
 1536SOL    HW2 5508   2.763   6.282   4.948
 1537SOL     OW 5509   1.625   5.301   4.258
 1537SOL    HW1 5510   1.615   5.273   4.162
 1537SOL    HW2 5511   1.548   5.360   4.284
 1538SOL     OW 5512   2.311   5.693   6.426
 1538SOL    HW1 5513   2.234   5.659   6.480
 1538SOL    HW2 5514   2.338   5.625   6.358
 1539SOL     OW 5515   3.255   4.896   1.661
 1539SOL    HW1 5516   3.231   4.973   1.720
 1539SOL    HW2 5517   3.351   4.873   1.675
 1540SOL     OW 5518   0.581   6.347   4.574
 1540SOL    HW1 5519   0.663   6.354   4.631
 1540SOL    HW2 5520   0.546   6.438   4.554
 1541SOL     OW 5521   4.917   2.487   1.183
 1541SOL    HW1 5522   4.961   2.414   1.131
 1541SOL    HW2 5523   4.978   2.566   1.187
 1542SOL     OW 5524   1.147   6.277   0.783
 1542SOL    HW1 5525   1.070   6.336   0.807
 1542SOL    HW2 5526   1.163   6.212   0.856
 1543SOL     OW 5527   3.150   4.071   4.030
 1543SOL    HW1 5528   3.072   4.080   4.091
 1543SOL    HW2 5529   3.233   4.105   4.075
 1544SOL     OW 5530   3.680   4.099   2.568
 1544SOL    HW1 5531   3.707   4.124   2.475
 1544SOL    HW2 5532   3.720   4.010   2.592
 1545SOL     OW 5533   5.598   0.508   4.532
 1545SOL    HW1 5534   5.610   0.448   4.611
 1545SOL    HW2 5535   5.678   0.502   4.473
 1546SOL     OW 5536   0.773   6.560   5.828
 1546SOL    HW1 5537   0.866   6.593   5.844
 1546SOL    HW2 5538   0.715   6.583   5.906
 1547SOL     OW 5539   3.389   6.406   0.467
 1547SOL    HW1 5540   3.406   6.492   0.514
 1547SOL    HW2 5541   3.304   6.365   0.500
 1548SOL     OW 5542   5.524   4.165   4.755
 1548SOL    HW1 5543   5.562   4.218   4.679
 1548SOL    HW2 5544   5.554   4.070   4.747
 1549SOL     OW 5545   6.836   1.604   1.132
 1549SOL    HW1 5546   6.747   1.599   1.177
 1549SOL    HW2 5547   6.908   1.611   1.202
 1550SOL     OW 5548   2.205   5.927   4.795
 1550SOL    HW1 5549   2.107   5.939   4.778
 1550SOL    HW2 5550   2.229   5.830   4.785
 1551SOL     OW 5551   1.870   2.310   0.328
 1551SOL    HW1 5552   1.863   2.384   0.395
 1551SOL    HW2 5553   1.859   2.347   0.236
 1552SOL     OW 5554   0.969   1.001   0.401
 1552SOL    HW1 5555   0.974   0.988   0.302
 1552SOL    HW2 5556   1.061   0.994   0.439
 1553SOL     OW 5557   6.139   1.243   6.646
 1553SOL    HW1 5558   6.105   1.206   6.732
 1553SOL    HW2 5559   6.064   1.245   6.579
 1554SOL     OW 5560   3.362   1.903   1.645
 1554SOL    HW1 5561   3.416   1.978   1.606
 1554SOL    HW2 5562   3.398   1.879   1.735
 1555SOL     OW 5563   4.038   1.349   5.912
 1555SOL    HW1 5564   4.080   1.411   5.846
 1555SOL    HW2 5565   3.941   1.372   5.921
 1556SOL     OW 5566   3.648   1.521   0.959
 1556SOL    HW1 5567   3.701   1.600   0.930
 1556SOL    HW2 5568   3.637   1.522   1.058
 1557SOL     OW 5569   2.082   2.204   0.470
 1557SOL    HW1 5570   2.012   2.157   0.525
 1557SOL    HW2 5571   2.038   2.258   0.399
 1558SOL     OW 5572   5.964   3.248   6.110
 1558SOL    HW1 5573   5.889   3.300   6.069
 1558SOL    HW2 5574   5.963   3.155   6.073
 1559SOL     OW 5575   2.013   4.324   3.544
 1559SOL    HW1 5576   1.983   4.229   3.554
 1559SOL    HW2 5577   1.952   4.384   3.596
 1560SOL     OW 5578   4.191   1.328   1.332
 1560SOL    HW1 5579   4.129   1.263   1.376
 1560SOL    HW2 5580   4.272   1.280   1.299
 1561SOL     OW 5581   6.325   5.897   1.069
 1561SOL    HW1 5582   6.340   5.810   1.022
 1561SOL    HW2 5583   6.398   5.913   1.135
 1562SOL     OW 5584   3.583   6.536   2.129
 1562SOL    HW1 5585   3.586   6.466   2.200
 1562SOL    HW2 5586   3.676   6.566   2.108
 1563SOL     OW 5587   4.124   2.285   4.058
 1563SOL    HW1 5588   4.200   2.286   4.123
 1563SOL    HW2 5589   4.148   2.337   3.977
 1564SOL     OW 5590   1.703   2.404   2.922
 1564SOL    HW1 5591   1.607   2.390   2.947
 1564SOL    HW2 5592   1.727   2.341   2.848
 1565SOL     OW 5593   3.676   1.179   4.560
 1565SOL    HW1 5594   3.584   1.212   4.582
 1565SOL    HW2 5595   3.708   1.224   4.476
 1566SOL     OW 5596   4.525   4.810   2.992
 1566SOL    HW1 5597   4.505   4.717   2.961
 1566SOL    HW2 5598   4.446   4.846   3.042
 1567SOL     OW 5599   5.123   6.940   5.023
 1567SOL    HW1 5600   5.131   6.842   5.011
 1567SOL    HW2 5601   5.093   6.982   4.937
 1568SOL     OW 5602   2.439   5.506   2.280
 1568SOL    HW1 5603   2.488   5.425   2.311
 1568SOL    HW2 5604   2.390   5.547   2.356
 1569SOL     OW 5605   2.972   0.344   3.413
 1569SOL    HW1 5606   2.936   0.387   3.495
 1569SOL    HW2 5607   3.016   0.413   3.355
 1570SOL     OW 5608   3.560   6.785   6.923
 1570SOL    HW1 5609   3.468   6.815   6.947
 1570SOL    HW2 5610   3.555   6.699   6.873
 1571SOL     OW 5611   0.504   2.159   4.914
 1571SOL    HW1 5612   0.574   2.226   4.940
 1571SOL    HW2 5613   0.469   2.181   4.823
 1572SOL     OW 5614   1.779   5.251   1.963
 1572SOL    HW1 5615   1.750   5.156   1.969
 1572SOL    HW2 5616   1.751   5.300   2.045
 1573SOL     OW 5617   5.406   5.125   0.591
 1573SOL    HW1 5618   5.470   5.082   0.655
 1573SOL    HW2 5619   5.411   5.225   0.601
 1574SOL     OW 5620   6.857   3.278   3.380
 1574SOL    HW1 5621   6.901   3.208   3.324
 1574SOL    HW2 5622   6.902   3.282   3.469
 1575SOL     OW 5623   0.235   1.085   0.326
 1575SOL    HW1 5624   0.176   1.155   0.366
 1575SOL    HW2 5625   0.322   1.127   0.299
 1576SOL     OW 5626   0.339   0.283   2.258
 1576SOL    HW1 5627   0.352   0.292   2.160
 1576SOL    HW2 5628   0.335   0.186   2.282
 1577SOL     OW 5629   4.597   5.924   5.392
 1577SOL    HW1 5630   4.547   5.977   5.461
 1577SOL    HW2 5631   4.597   5.974   5.305
 1578SOL     OW 5632   4.900   0.766   0.381
 1578SOL    HW1 5633   4.926   0.745   0.475
 1578SOL    HW2 5634   4.945   0.850   0.352
 1579SOL     OW 5635   1.707   2.409   1.161
 1579SOL    HW1 5636   1.669   2.474   1.096
 1579SOL    HW2 5637   1.786   2.451   1.207
 1580SOL     OW 5638   3.193   3.669   2.547
 1580SOL    HW1 5639   3.106   3.627   2.523
 1580SOL    HW2 5640   3.229   3.720   2.469
 1581SOL     OW 5641   6.560   4.155   6.003
 1581SOL    HW1 5642   6.555   4.183   6.099
 1581SOL    HW2 5643   6.645   4.106   5.987
 1582SOL     OW 5644   4.544   6.399   5.261
 1582SOL    HW1 5645   4.493   6.446   5.188
 1582SOL    HW2 5646   4.554   6.303   5.237
 1583SOL     OW 5647   1.233   6.197   5.174
 1583SOL    HW1 5648   1.189   6.187   5.263
 1583SOL    HW2 5649   1.223   6.112   5.122
 1584SOL     OW 5650   0.104   5.191   6.696
 1584SOL    HW1 5651   0.198   5.221   6.714
 1584SOL    HW2 5652   0.101   5.091   6.693
 1585SOL     OW 5653   3.743   6.777   3.085
 1585SOL    HW1 5654   3.811   6.756   3.015
 1585SOL    HW2 5655   3.651   6.762   3.048
 1586SOL     OW 5656   2.681   4.665   3.861
 1586SOL    HW1 5657   2.600   4.721   3.878
 1586SOL    HW2 5658   2.751   4.685   3.930
 1587SOL     OW 5659   2.116   5.924   5.702
 1587SOL    HW1 5660   2.196   5.929   5.641
 1587SOL    HW2 5661   2.075   5.833   5.695
 1588SOL     OW 5662   5.746   0.779   2.986
 1588SOL    HW1 5663   5.796   0.737   3.063
 1588SOL    HW2 5664   5.654   0.804   3.016
 1589SOL     OW 5665   6.142   4.582   4.285
 1589SOL    HW1 5666   6.105   4.646   4.352
 1589SOL    HW2 5667   6.191   4.509   4.333
 1590SOL     OW 5668   6.439   2.480   3.764
 1590SOL    HW1 5669   6.364   2.518   3.710
 1590SOL    HW2 5670   6.525   2.522   3.736
 1591SOL     OW 5671   0.678   6.673   1.938
 1591SOL    HW1 5672   0.750   6.604   1.929
 1591SOL    HW2 5673   0.591   6.627   1.954
 1592SOL     OW 5674   0.377   3.912   6.711
 1592SOL    HW1 5675   0.444   3.854   6.665
 1592SOL    HW2 5676   0.309   3.855   6.757
 1593SOL     OW 5677   2.694   0.687   0.087
 1593SOL    HW1 5678   2.745   0.651   0.165
 1593SOL    HW2 5679   2.729   0.778   0.064
 1594SOL     OW 5680   6.073   0.557   2.031
 1594SOL    HW1 5681   5.973   0.555   2.032
 1594SOL    HW2 5682   6.104   0.651   2.050
 1595SOL     OW 5683   0.835   4.005   6.533
 1595SOL    HW1 5684   0.791   3.960   6.456
 1595SOL    HW2 5685   0.831   3.946   6.613
 1596SOL     OW 5686   4.855   4.829   2.629
 1596SOL    HW1 5687   4.893   4.781   2.708
 1596SOL    HW2 5688   4.773   4.782   2.597
 1597SOL     OW 5689   3.904   6.445   6.501
 1597SOL    HW1 5690   3.997   6.451   6.465
 1597SOL    HW2 5691   3.893   6.509   6.577
 1598SOL     OW 5692   1.854   5.319   0.297
 1598SOL    HW1 5693   1.816   5.235   0.258
 1598SOL    HW2 5694   1.908   5.297   0.378
 1599SOL     OW 5695   4.794   5.059   3.943
 1599SOL    HW1 5696   4.772   4.962   3.948
 1599SOL    HW2 5697   4.729   5.111   3.999
 1600SOL     OW 5698   4.035   0.832   2.334
 1600SOL    HW1 5699   4.048   0.929   2.353
 1600SOL    HW2 5700   4.121   0.783   2.349
 1601SOL     OW 5701   6.380   6.571   4.533
 1601SOL    HW1 5702   6.366   6.665   4.501
 1601SOL    HW2 5703   6.292   6.530   4.554
 1602SOL     OW 5704   3.738   5.104   3.851
 1602SOL    HW1 5705   3.806   5.041   3.815
 1602SOL    HW2 5706   3.716   5.173   3.782
 1603SOL     OW 5707   3.082   5.647   2.911
 1603SOL    HW1 5708   3.004   5.676   2.966
 1603SOL    HW2 5709   3.057   5.647   2.814
 1604SOL     OW 5710   3.872   5.136   2.342
 1604SOL    HW1 5711   3.780   5.121   2.306
 1604SOL    HW2 5712   3.939   5.097   2.278
 1605SOL     OW 5713   4.846   5.605   1.096
 1605SOL    HW1 5714   4.826   5.665   1.174
 1605SOL    HW2 5715   4.870   5.514   1.130
 1606SOL     OW 5716   3.965   6.445   4.854
 1606SOL    HW1 5717   3.880   6.482   4.818
 1606SOL    HW2 5718   4.034   6.443   4.781
 1607SOL     OW 5719   4.145   5.647   2.625
 1607SOL    HW1 5720   4.055   5.653   2.582
 1607SOL    HW2 5721   4.206   5.715   2.584
 1608SOL     OW 5722   6.359   0.889   3.015
 1608SOL    HW1 5723   6.297   0.819   3.052
 1608SOL    HW2 5724   6.424   0.846   2.953
 1609SOL     OW 5725   3.672   6.404   0.339
 1609SOL    HW1 5726   3.592   6.359   0.378
 1609SOL    HW2 5727   3.645   6.456   0.258
 1610SOL     OW 5728   5.076   0.192   0.650
 1610SOL    HW1 5729   5.058   0.253   0.573
 1610SOL    HW2 5730   5.007   0.119   0.652
 1611SOL     OW 5731   1.139   4.152   1.344
 1611SOL    HW1 5732   1.149   4.071   1.286
 1611SOL    HW2 5733   1.222   4.164   1.398
 1612SOL     OW 5734   3.789   6.843   2.279
 1612SOL    HW1 5735   3.710   6.783   2.295
 1612SOL    HW2 5736   3.779   6.887   2.190
 1613SOL     OW 5737   6.900   5.443   2.133
 1613SOL    HW1 5738   6.831   5.512   2.111
 1613SOL    HW2 5739   6.933   5.400   2.049
 1614SOL     OW 5740   6.683   2.327   6.056
 1614SOL    HW1 5741   6.591   2.313   6.092
 1614SOL    HW2 5742   6.748   2.276   6.113
 1615SOL     OW 5743   1.546   5.273   6.389
 1615SOL    HW1 5744   1.447   5.268   6.372
 1615SOL    HW2 5745   1.567   5.358   6.437
 1616SOL     OW 5746   1.894   1.508   4.748
 1616SOL    HW1 5747   1.887   1.462   4.660
 1616SOL    HW2 5748   1.814   1.566   4.762
 1617SOL     OW 5749   5.654   6.208   3.420
 1617SOL    HW1 5750   5.695   6.160   3.498
 1617SOL    HW2 5751   5.571   6.159   3.392
 1618SOL     OW 5752   3.240   5.407   2.913
 1618SOL    HW1 5753   3.168   5.470   2.884
 1618SOL    HW2 5754   3.251   5.412   3.012
 1619SOL     OW 5755   1.226   5.439   6.927
 1619SOL    HW1 5756   1.286   5.366   6.896
 1619SOL    HW2 5757   1.150   5.400   6.979
 1620SOL     OW 5758   3.904   5.406   6.336
 1620SOL    HW1 5759   3.895   5.323   6.281
 1620SOL    HW2 5760   3.973   5.392   6.406
 1621SOL     OW 5761   5.094   6.268   0.621
 1621SOL    HW1 5762   5.066   6.313   0.536
 1621SOL    HW2 5763   5.194   6.264   0.624
 1622SOL     OW 5764   0.075   4.244   4.312
 1622SOL    HW1 5765   0.153   4.199   4.354
 1622SOL    HW2 5766   0.096   4.341   4.297
 1623SOL     OW 5767   0.861   1.734   3.830
 1623SOL    HW1 5768   0.937   1.719   3.766
 1623SOL    HW2 5769   0.821   1.824   3.813
 1624SOL     OW 5770   4.175   1.247   0.812
 1624SOL    HW1 5771   4.203   1.200   0.896
 1624SOL    HW2 5772   4.256   1.262   0.754
 1625SOL     OW 5773   1.292   5.486   0.838
 1625SOL    HW1 5774   1.292   5.528   0.929
 1625SOL    HW2 5775   1.385   5.456   0.815
 1626SOL     OW 5776   3.494   1.955   1.314
 1626SOL    HW1 5777   3.565   1.887   1.331
 1626SOL    HW2 5778   3.478   2.008   1.398
 1627SOL     OW 5779   4.389   1.612   4.355
 1627SOL    HW1 5780   4.451   1.679   4.395
 1627SOL    HW2 5781   4.297   1.625   4.391
 1628SOL     OW 5782   5.330   6.841   0.169
 1628SOL    HW1 5783   5.395   6.829   0.095
 1628SOL    HW2 5784   5.307   6.938   0.179
 1629SOL     OW 5785   2.160   0.822   3.388
 1629SOL    HW1 5786   2.210   0.775   3.461
 1629SOL    HW2 5787   2.198   0.794   3.299
 1630SOL     OW 5788   0.503   3.322   0.183
 1630SOL    HW1 5789   0.429   3.362   0.238
 1630SOL    HW2 5790   0.590   3.366   0.208
 1631SOL     OW 5791   0.075   3.069   0.770
 1631SOL    HW1 5792   0.058   3.165   0.750
 1631SOL    HW2 5793   0.008   3.036   0.836
 1632SOL     OW 5794   6.583   4.564   2.794
 1632SOL    HW1 5795   6.597   4.649   2.742
 1632SOL    HW2 5796   6.505   4.515   2.758
 1633SOL     OW 5797   5.281   3.036   4.125
 1633SOL    HW1 5798   5.241   2.975   4.194
 1633SOL    HW2 5799   5.239   3.018   4.036
 1634SOL     OW 5800   5.034   0.732   4.356
 1634SOL    HW1 5801   5.075   0.693   4.438
 1634SOL    HW2 5802   5.076   0.691   4.275
 1635SOL     OW 5803   3.546   6.013   4.287
 1635SOL    HW1 5804   3.630   5.983   4.332
 1635SOL    HW2 5805   3.569   6.075   4.211
 1636SOL     OW 5806   5.778   6.599   1.415
 1636SOL    HW1 5807   5.860   6.650   1.389
 1636SOL    HW2 5808   5.780   6.509   1.371
 1637SOL     OW 5809   0.075   0.034   2.126
 1637SOL    HW1 5810   0.097   0.123   2.086
 1637SOL    HW2 5811   0.158   6.998   2.130
 1638SOL     OW 5812   0.023   2.694   2.094
 1638SOL    HW1 5813   0.099   2.637   2.127
 1638SOL    HW2 5814   0.027   2.784   2.137
 1639SOL     OW 5815   4.791   2.972   2.810
 1639SOL    HW1 5816   4.829   2.992   2.900
 1639SOL    HW2 5817   4.748   2.881   2.811
 1640SOL     OW 5818   6.051   0.133   0.229
 1640SOL    HW1 5819   5.977   0.199   0.238
 1640SOL    HW2 5820   6.055   0.100   0.134
 1641SOL     OW 5821   6.325   2.436   3.075
 1641SOL    HW1 5822   6.411   2.391   3.054
 1641SOL    HW2 5823   6.252   2.368   3.079
 1642SOL     OW 5824   5.577   2.299   5.467
 1642SOL    HW1 5825   5.524   2.215   5.475
 1642SOL    HW2 5826   5.604   2.313   5.372
 1643SOL     OW 5827   2.678   5.851   4.183
 1643SOL    HW1 5828   2.768   5.869   4.222
 1643SOL    HW2 5829   2.687   5.830   4.085
 1644SOL     OW 5830   6.005   3.006   0.646
 1644SOL    HW1 5831   5.910   3.036   0.635
 1644SOL    HW2 5832   6.051   3.005   0.557
 1645SOL     OW 5833   1.930   0.712   5.809
 1645SOL    HW1 5834   1.852   0.653   5.827
 1645SOL    HW2 5835   1.972   0.686   5.722
 1646SOL     OW 5836   0.953   5.297   0.999
 1646SOL    HW1 5837   1.028   5.243   0.959
 1646SOL    HW2 5838   0.881   5.309   0.931
 1647SOL     OW 5839   6.431   2.948   4.442
 1647SOL    HW1 5840   6.485   2.989   4.368
 1647SOL    HW2 5841   6.489   2.937   4.523
 1648SOL     OW 5842   5.675   6.315   1.131
 1648SOL    HW1 5843   5.747   6.306   1.063
 1648SOL    HW2 5844   5.596   6.362   1.091
 1649SOL     OW 5845   3.066   0.098   3.368
 1649SOL    HW1 5846   3.022   0.188   3.370
 1649SOL    HW2 5847   3.006   0.030   3.411
 1650SOL     OW 5848   3.192   5.016   6.478
 1650SOL    HW1 5849   3.127   5.092   6.476
 1650SOL    HW2 5850   3.166   4.948   6.410
 1651SOL     OW 5851   0.899   3.086   3.903
 1651SOL    HW1 5852   0.839   3.022   3.855
 1651SOL    HW2 5853   0.982   3.101   3.850
 1652SOL     OW 5854   0.384   2.339   1.074
 1652SOL    HW1 5855   0.363   2.291   0.989
 1652SOL    HW2 5856   0.465   2.396   1.061
 1653SOL     OW 5857   6.842   4.723   3.582
 1653SOL    HW1 5858   6.828   4.723   3.482
 1653SOL    HW2 5859   6.789   4.648   3.622
 1654SOL     OW 5860   0.854   3.059   1.956
 1654SOL    HW1 5861   0.883   2.964   1.967
 1654SOL    HW2 5862   0.781   3.080   2.022
 1655SOL     OW 5863   6.945   6.581   4.664
 1655SOL    HW1 5864   6.870   6.514   4.661
 1655SOL    HW2 5865   7.010   6.561   4.591
 1656SOL     OW 5866   1.902   4.958   4.178
 1656SOL    HW1 5867   1.822   4.967   4.237
 1656SOL    HW2 5868   1.954   5.043   4.180
 1657SOL     OW 5869   1.301   0.422   5.083
 1657SOL    HW1 5870   1.202   0.414   5.092
 1657SOL    HW2 5871   1.322   0.507   5.034
 1658SOL     OW 5872   6.350   0.198   6.585
 1658SOL    HW1 5873   6.260   0.178   6.547
 1658SOL    HW2 5874   6.400   0.113   6.599
 1659SOL     OW 5875   4.854   6.881   6.417
 1659SOL    HW1 5876   4.833   6.952   6.350
 1659SOL    HW2 5877   4.781   6.813   6.417
 1660SOL     OW 5878   1.655   0.209   2.225
 1660SOL    HW1 5879   1.632   0.136   2.161
 1660SOL    HW2 5880   1.735   0.259   2.191
 1661SOL     OW 5881   3.862   4.869   2.792
 1661SOL    HW1 5882   3.915   4.788   2.766
 1661SOL    HW2 5883   3.867   4.936   2.717
 1662SOL     OW 5884   0.463   0.869   4.907
 1662SOL    HW1 5885   0.543   0.815   4.882
 1662SOL    HW2 5886   0.461   0.881   5.006
 1663SOL     OW 5887   4.895   4.883   0.936
 1663SOL    HW1 5888   4.978   4.926   0.972
 1663SOL    HW2 5889   4.876   4.918   0.844
 1664SOL     OW 5890   1.175   0.470   5.639
 1664SOL    HW1 5891   1.166   0.553   5.585
 1664SOL    HW2 5892   1.242   0.409   5.595
 1665SOL     OW 5893   2.263   3.936   0.544
 1665SOL    HW1 5894   2.361   3.919   0.534
 1665SOL    HW2 5895   2.219   3.932   0.455
 1666SOL     OW 5896   5.434   6.658   6.321
 1666SOL    HW1 5897   5.481   6.591   6.378
 1666SOL    HW2 5898   5.370   6.611   6.260
 1667SOL     OW 5899   0.787   6.492   1.232
 1667SOL    HW1 5900   0.879   6.527   1.215
 1667SOL    HW2 5901   0.792   6.400   1.270
 1668SOL     OW 5902   5.624   4.525   3.689
 1668SOL    HW1 5903   5.590   4.531   3.595
 1668SOL    HW2 5904   5.630   4.429   3.716
 1669SOL     OW 5905   6.516   3.603   5.233
 1669SOL    HW1 5906   6.484   3.609   5.139
 1669SOL    HW2 5907   6.549   3.692   5.263
 1670SOL     OW 5908   1.846   4.627   5.566
 1670SOL    HW1 5909   1.748   4.625   5.587
 1670SOL    HW2 5910   1.897   4.576   5.635
 1671SOL     OW 5911   5.987   1.854   0.952
 1671SOL    HW1 5912   6.027   1.934   0.907
 1671SOL    HW2 5913   6.013   1.772   0.902
 1672SOL     OW 5914   1.162   3.351   6.667
 1672SOL    HW1 5915   1.117   3.279   6.720
 1672SOL    HW2 5916   1.135   3.441   6.703
 1673SOL     OW 5917   2.459   1.372   4.578
 1673SOL    HW1 5918   2.406   1.457   4.574
 1673SOL    HW2 5919   2.439   1.316   4.498
 1674SOL     OW 5920   4.838   2.152   3.057
 1674SOL    HW1 5921   4.881   2.188   3.140
 1674SOL    HW2 5922   4.792   2.226   3.008
 1675SOL     OW 5923   5.205   0.910   0.892
 1675SOL    HW1 5924   5.149   0.843   0.941
 1675SOL    HW2 5925   5.293   0.921   0.939
 1676SOL     OW 5926   1.549   1.434   2.893
 1676SOL    HW1 5927   1.638   1.450   2.936
 1676SOL    HW2 5928   1.537   1.336   2.876
 1677SOL     OW 5929   3.961   3.924   3.650
 1677SOL    HW1 5930   4.051   3.935   3.607
 1677SOL    HW2 5931   3.970   3.932   3.749
 1678SOL     OW 5932   0.598   6.459   0.825
 1678SOL    HW1 5933   0.679   6.427   0.875
 1678SOL    HW2 5934   0.597   6.419   0.734
 1679SOL     OW 5935   1.646   1.818   5.722
 1679SOL    HW1 5936   1.614   1.891   5.782
 1679SOL    HW2 5937   1.625   1.729   5.764
 1680SOL     OW 5938   5.009   2.492   3.748
 1680SOL    HW1 5939   5.102   2.453   3.749
 1680SOL    HW2 5940   5.015   2.591   3.743
 1681SOL     OW 5941   1.915   6.396   3.890
 1681SOL    HW1 5942   1.890   6.378   3.795
 1681SOL    HW2 5943   1.984   6.469   3.893
 1682SOL     OW 5944   2.725   7.012   5.608
 1682SOL    HW1 5945   2.669   6.946   5.557
 1682SOL    HW2 5946   2.708   0.084   5.574
 1683SOL     OW 5947   5.966   5.061   2.438
 1683SOL    HW1 5948   6.046   5.027   2.487
 1683SOL    HW2 5949   5.901   4.985   2.424
 1684SOL     OW 5950   2.682   4.358   1.714
 1684SOL    HW1 5951   2.707   4.275   1.664
 1684SOL    HW2 5952   2.763   4.396   1.757
 1685SOL     OW 5953   0.473   1.004   5.587
 1685SOL    HW1 5954   0.495   0.907   5.577
 1685SOL    HW2 5955   0.425   1.019   5.673
 1686SOL     OW 5956   4.547   6.330   3.050
 1686SOL    HW1 5957   4.486   6.407   3.032
 1686SOL    HW2 5958   4.505   6.246   3.018
 1687SOL     OW 5959   6.203   4.139   2.534
 1687SOL    HW1 5960   6.285   4.083   2.530
 1687SOL    HW2 5961   6.225   4.232   2.502
 1688SOL     OW 5962   2.287   1.766   3.437
 1688SOL    HW1 5963   2.298   1.858   3.475
 1688SOL    HW2 5964   2.333   1.700   3.497
 1689SOL     OW 5965   5.279   0.548   1.581
 1689SOL    HW1 5966   5.270   0.521   1.677
 1689SOL    HW2 5967   5.188   0.567   1.543
 1690SOL     OW 5968   0.314   3.816   4.571
 1690SOL    HW1 5969   0.356   3.778   4.653
 1690SOL    HW2 5970   0.290   3.742   4.508
 1691SOL     OW 5971   4.942   2.611   5.496
 1691SOL    HW1 5972   4.861   2.669   5.485
 1691SOL    HW2 5973   5.023   2.669   5.507
 1692SOL     OW 5974   5.972   5.503   1.159
 1692SOL    HW1 5975   5.884   5.530   1.120
 1692SOL    HW2 5976   5.960   5.418   1.211
 1693SOL     OW 5977   5.638   0.219   5.138
 1693SOL    HW1 5978   5.553   0.271   5.127
 1693SOL    HW2 5979   5.630   0.159   5.218
 1694SOL     OW 5980   4.735   0.793   5.573
 1694SOL    HW1 5981   4.664   0.844   5.622
 1694SOL    HW2 5982   4.776   0.726   5.635
 1695SOL     OW 5983   3.450   0.693   6.063
 1695SOL    HW1 5984   3.470   0.786   6.032
 1695SOL    HW2 5985   3.522   0.662   6.124
 1696SOL     OW 5986   4.314   6.254   0.287
 1696SOL    HW1 5987   4.217   6.234   0.277
 1696SOL    HW2 5988   4.328   6.353   0.288
 1697SOL     OW 5989   5.949   2.311   1.285
 1697SOL    HW1 5990   5.952   2.345   1.191
 1697SOL    HW2 5991   5.868   2.349   1.331
 1698SOL     OW 5992   3.851   0.812   1.604
 1698SOL    HW1 5993   3.934   0.866   1.594
 1698SOL    HW2 5994   3.780   0.847   1.543
 1699SOL     OW 5995   2.483   0.201   0.259
 1699SOL    HW1 5996   2.544   0.213   0.181
 1699SOL    HW2 5997   2.397   0.249   0.242
 1700SOL     OW 5998   6.366   3.397   3.405
 1700SOL    HW1 5999   6.438   3.327   3.407
 1700SOL    HW2 6000   6.370   3.451   3.489
 1701SOL     OW 6001   0.179   5.372   4.666
 1701SOL    HW1 6002   0.154   5.336   4.756
 1701SOL    HW2 6003   0.103   5.425   4.629
 1702SOL     OW 6004   1.885   2.755   5.828
 1702SOL    HW1 6005   1.958   2.820   5.807
 1702SOL    HW2 6006   1.846   2.721   5.743
 1703SOL     OW 6007   3.415   2.018   0.188
 1703SOL    HW1 6008   3.434   1.935   0.240
 1703SOL    HW2 6009   3.317   2.036   0.190
 1704SOL     OW 6010   2.497   1.801   0.958
 1704SOL    HW1 6011   2.501   1.871   1.029
 1704SOL    HW2 6012   2.563   1.729   0.978
 1705SOL     OW 6013   4.139   1.688   0.485
 1705SOL    HW1 6014   4.134   1.598   0.528
 1705SOL    HW2 6015   4.162   1.678   0.388
 1706SOL     OW 6016   4.219   2.540   0.653
 1706SOL    HW1 6017   4.158   2.564   0.577
 1706SOL    HW2 6018   4.283   2.615   0.670
 1707SOL     OW 6019   4.412   2.056   2.262
 1707SOL    HW1 6020   4.344   1.982   2.270
 1707SOL    HW2 6021   4.443   2.064   2.167
 1708SOL     OW 6022   3.359   5.254   1.626
 1708SOL    HW1 6023   3.283   5.239   1.563
 1708SOL    HW2 6024   3.342   5.207   1.712
 1709SOL     OW 6025   4.449   5.804   0.634
 1709SOL    HW1 6026   4.450   5.752   0.719
 1709SOL    HW2 6027   4.543   5.826   0.607
 1710SOL     OW 6028   3.704   5.258   2.933
 1710SOL    HW1 6029   3.724   5.169   2.974
 1710SOL    HW2 6030   3.682   5.323   3.006
 1711SOL     OW 6031   3.698   5.068   6.323
 1711SOL    HW1 6032   3.614   5.027   6.358
 1711SOL    HW2 6033   3.733   5.135   6.389
 1712SOL     OW 6034   6.843   1.937   3.526
 1712SOL    HW1 6035   6.881   1.869   3.588
 1712SOL    HW2 6036   6.756   1.971   3.562
 1713SOL     OW 6037   3.800   1.237   2.482
 1713SOL    HW1 6038   3.880   1.236   2.422
 1713SOL    HW2 6039   3.800   1.155   2.539
 1714SOL     OW 6040   3.655   3.019   0.032
 1714SOL    HW1 6041   3.691   2.945   0.088
 1714SOL    HW2 6042   3.663   3.106   0.081
 1715SOL     OW 6043   1.437   6.765   2.950
 1715SOL    HW1 6044   1.424   6.672   2.984
 1715SOL    HW2 6045   1.369   6.784   2.880
 1716SOL     OW 6046   4.366   0.630   3.402
 1716SOL    HW1 6047   4.268   0.625   3.420
 1716SOL    HW2 6048   4.406   0.705   3.454
 1717SOL     OW 6049   3.776   6.113   5.388
 1717SOL    HW1 6050   3.795   6.127   5.485
 1717SOL    HW2 6051   3.857   6.077   5.343
 1718SOL     OW 6052   1.280   2.564   1.305
 1718SOL    HW1 6053   1.238   2.477   1.279
 1718SOL    HW2 6054   1.333   2.552   1.389
 1719SOL     OW 6055   1.094   5.223   1.904
 1719SOL    HW1 6056   1.058   5.311   1.875
 1719SOL    HW2 6057   1.042   5.191   1.983
 1720SOL     OW 6058   6.654   2.503   5.352
 1720SOL    HW1 6059   6.642   2.411   5.315
 1720SOL    HW2 6060   6.629   2.503   5.449
 1721SOL     OW 6061   2.008   1.932   1.011
 1721SOL    HW1 6062   2.074   1.856   1.013
 1721SOL    HW2 6063   1.994   1.966   1.104
 1722SOL     OW 6064   2.837   2.226   2.674
 1722SOL    HW1 6065   2.904   2.254   2.743
 1722SOL    HW2 6066   2.834   2.126   2.670
 1723SOL     OW 6067   5.261   2.758   6.968
 1723SOL    HW1 6068   5.171   2.802   6.978
 1723SOL    HW2 6069   5.326   2.824   6.932
 1724SOL     OW 6070   6.857   2.523   1.309
 1724SOL    HW1 6071   6.812   2.457   1.369
 1724SOL    HW2 6072   6.818   2.515   1.217
 1725SOL     OW 6073   1.975   5.839   6.994
 1725SOL    HW1 6074   1.954   5.928   0.014
 1725SOL    HW2 6075   2.002   5.776   0.047
 1726SOL     OW 6076   5.418   4.354   4.005
 1726SOL    HW1 6077   5.481   4.277   3.998
 1726SOL    HW2 6078   5.362   4.345   4.087
 1727SOL     OW 6079   3.212   3.409   3.125
 1727SOL    HW1 6080   3.184   3.494   3.079
 1727SOL    HW2 6081   3.312   3.407   3.132
 1728SOL     OW 6082   4.707   2.268   4.135
 1728SOL    HW1 6083   4.654   2.234   4.057
 1728SOL    HW2 6084   4.648   2.325   4.193
 1729SOL     OW 6085   1.891   3.789   2.338
 1729SOL    HW1 6086   1.928   3.737   2.415
 1729SOL    HW2 6087   1.815   3.737   2.297
 1730SOL     OW 6088   3.091   4.853   5.778
 1730SOL    HW1 6089   3.082   4.948   5.748
 1730SOL    HW2 6090   3.032   4.838   5.858
 1731SOL     OW 6091   5.906   4.345   4.364
 1731SOL    HW1 6092   5.917   4.433   4.411
 1731SOL    HW2 6093   5.928   4.357   4.268
 1732SOL     OW 6094   2.062   4.400   6.258
 1732SOL    HW1 6095   2.086   4.302   6.262
 1732SOL    HW2 6096   2.056   4.436   6.351
 1733SOL     OW 6097   2.851   4.253   0.169
 1733SOL    HW1 6098   2.870   4.210   0.081
 1733SOL    HW2 6099   2.868   4.352   0.162
 1734SOL     OW 6100   6.856   2.845   1.214
 1734SOL    HW1 6101   6.776   2.795   1.180
 1734SOL    HW2 6102   6.911   2.784   1.271
 1735SOL     OW 6103   3.857   5.239   6.071
 1735SOL    HW1 6104   3.778   5.182   6.049
 1735SOL    HW2 6105   3.923   5.234   5.996
 1736SOL     OW 6106   4.738   3.222   0.886
 1736SOL    HW1 6107   4.696   3.161   0.952
 1736SOL    HW2 6108   4.826   3.184   0.857
 1737SOL     OW 6109   4.713   1.586   5.275
 1737SOL    HW1 6110   4.715   1.626   5.183
 1737SOL    HW2 6111   4.651   1.638   5.333
 1738SOL     OW 6112   1.113   3.227   4.803
 1738SOL    HW1 6113   1.185   3.163   4.832
 1738SOL    HW2 6114   1.069   3.192   4.720
 1739SOL     OW 6115   5.429   0.207   4.087
 1739SOL    HW1 6116   5.510   0.248   4.129
 1739SOL    HW2 6117   5.455   0.160   4.002
 1740SOL     OW 6118   6.224   3.107   4.240
 1740SOL    HW1 6119   6.217   3.008   4.248
 1740SOL    HW2 6120   6.174   3.138   4.158
 1741SOL     OW 6121   0.997   2.054   4.507
 1741SOL    HW1 6122   1.046   2.098   4.432
 1741SOL    HW2 6123   0.913   2.105   4.526
 1742SOL     OW 6124   5.913   6.369   6.726
 1742SOL    HW1 6125   5.972   6.367   6.646
 1742SOL    HW2 6126   5.898   6.464   6.754
 1743SOL     OW 6127   1.219   0.763   2.864
 1743SOL    HW1 6128   1.280   0.793   2.938
 1743SOL    HW2 6129   1.187   0.670   2.883
 1744SOL     OW 6130   3.677   1.797   4.246
 1744SOL    HW1 6131   3.717   1.858   4.315
 1744SOL    HW2 6132   3.702   1.829   4.155
 1745SOL     OW 6133   6.796   6.530   1.503
 1745SOL    HW1 6134   6.733   6.557   1.576
 1745SOL    HW2 6135   6.745   6.513   1.419
 1746SOL     OW 6136   1.785   4.240   3.874
 1746SOL    HW1 6137   1.761   4.264   3.781
 1746SOL    HW2 6138   1.878   4.272   3.894
 1747SOL     OW 6139   3.871   0.273   2.363
 1747SOL    HW1 6140   3.813   0.198   2.395
 1747SOL    HW2 6141   3.832   0.360   2.392
 1748SOL     OW 6142   6.761   2.111   4.247
 1748SOL    HW1 6143   6.759   2.202   4.204
 1748SOL    HW2 6144   6.696   2.109   4.323
 1749SOL     OW 6145   1.744   4.986   1.031
 1749SOL    HW1 6146   1.765   4.907   1.088
 1749SOL    HW2 6147   1.792   4.978   0.944
 1750SOL     OW 6148   4.138   6.694   5.387
 1750SOL    HW1 6149   4.211   6.646   5.436
 1750SOL    HW2 6150   4.175   6.777   5.344
 1751SOL     OW 6151   5.188   2.830   5.024
 1751SOL    HW1 6152   5.134   2.749   4.998
 1751SOL    HW2 6153   5.197   2.833   5.123
 1752SOL     OW 6154   6.555   0.906   1.291
 1752SOL    HW1 6155   6.544   0.948   1.381
 1752SOL    HW2 6156   6.465   0.893   1.250
 1753SOL     OW 6157   6.523   1.901   1.758
 1753SOL    HW1 6158   6.579   1.841   1.815
 1753SOL    HW2 6159   6.578   1.937   1.682
 1754SOL     OW 6160   3.430   5.635   4.923
 1754SOL    HW1 6161   3.480   5.572   4.982
 1754SOL    HW2 6162   3.451   5.616   4.828
 1755SOL     OW 6163   6.332   6.714   5.413
 1755SOL    HW1 6164   6.403   6.773   5.374
 1755SOL    HW2 6165   6.370   6.662   5.489
 1756SOL     OW 6166   5.082   0.070   5.723
 1756SOL    HW1 6167   5.149   0.108   5.787
 1756SOL    HW2 6168   4.991   0.105   5.745
 1757SOL     OW 6169   2.377   4.743   5.238
 1757SOL    HW1 6170   2.433   4.735   5.156
 1757SOL    HW2 6171   2.356   4.652   5.273
 1758SOL     OW 6172   1.751   6.651   4.759
 1758SOL    HW1 6173   1.831   6.642   4.700
 1758SOL    HW2 6174   1.731   6.748   4.773
 1759SOL     OW 6175   1.524   6.681   0.259
 1759SOL    HW1 6176   1.424   6.674   0.262
 1759SOL    HW2 6177   1.556   6.728   0.340
 1760SOL     OW 6178   6.196   1.211   5.081
 1760SOL    HW1 6179   6.198   1.289   5.143
 1760SOL    HW2 6180   6.104   1.201   5.042
 1761SOL     OW 6181   6.022   1.944   2.126
 1761SOL    HW1 6182   5.981   1.935   2.217
 1761SOL    HW2 6183   5.994   1.867   2.069
 1762SOL     OW 6184   0.022   1.458   5.854
 1762SOL    HW1 6185   6.946   1.432   5.859
 1762SOL    HW2 6186   0.070   1.397   5.791
 1763SOL     OW 6187   0.947   3.954   4.149
 1763SOL    HW1 6188   1.045   3.940   4.158
 1763SOL    HW2 6189   0.929   4.030   4.087
 1764SOL     OW 6190   0.805   5.271   2.895
 1764SOL    HW1 6191   0.860   5.317   2.966
 1764SOL    HW2 6192   0.752   5.340   2.845
 1765SOL     OW 6193   5.175   3.130   2.673
 1765SOL    HW1 6194   5.142   3.048   2.626
 1765SOL    HW2 6195   5.228   3.186   2.609
 1766SOL     OW 6196   4.872   4.869   4.456
 1766SOL    HW1 6197   4.792   4.898   4.404
 1766SOL    HW2 6198   4.941   4.941   4.454
 1767SOL     OW 6199   0.944   4.756   2.177
 1767SOL    HW1 6200   0.850   4.774   2.149
 1767SOL    HW2 6201   0.979   4.677   2.128
 1768SOL     OW 6202   5.228   6.329   2.102
 1768SOL    HW1 6203   5.171   6.402   2.139
 1768SOL    HW2 6204   5.237   6.256   2.170
 1769SOL     OW 6205   5.063   0.492   6.725
 1769SOL    HW1 6206   5.152   0.460   6.691
 1769SOL    HW2 6207   5.034   0.571   6.672
 1770SOL     OW 6208   2.251   5.196   6.466
 1770SOL    HW1 6209   2.201   5.161   6.545
 1770SOL    HW2 6210   2.331   5.247   6.497
 1771SOL     OW 6211   1.199   3.911   5.922
 1771SOL    HW1 6212   1.134   3.983   5.946
 1771SOL    HW2 6213   1.172   3.870   5.835
 1772SOL     OW 6214   2.525   4.495   3.725
 1772SOL    HW1 6215   2.502   4.427   3.795
 1772SOL    HW2 6216   2.592   4.560   3.761
 1773SOL     OW 6217   0.881   6.691   5.280
 1773SOL    HW1 6218   0.782   6.679   5.285
 1773SOL    HW2 6219   0.904   6.787   5.297
 1774SOL     OW 6220   5.289   5.376   0.716
 1774SOL    HW1 6221   5.325   5.466   0.739
 1774SOL    HW2 6222   5.306   5.313   0.792
 1775SOL     OW 6223   2.516   5.519   6.037
 1775SOL    HW1 6224   2.611   5.527   6.005
 1775SOL    HW2 6225   2.502   5.429   6.078
 1776SOL     OW 6226   4.976   1.419   6.092
 1776SOL    HW1 6227   5.013   1.500   6.136
 1776SOL    HW2 6228   5.041   1.343   6.100
 1777SOL     OW 6229   4.934   6.665   6.803
 1777SOL    HW1 6230   4.990   6.606   6.745
 1777SOL    HW2 6231   4.976   6.755   6.810
 1778SOL     OW 6232   5.941   6.782   3.912
 1778SOL    HW1 6233   6.006   6.753   3.982
 1778SOL    HW2 6234   5.848   6.772   3.947
 1779SOL     OW 6235   5.852   6.001   4.096
 1779SOL    HW1 6236   5.836   5.903   4.091
 1779SOL    HW2 6237   5.896   6.023   4.183
 1780SOL     OW 6238   1.875   5.986   4.776
 1780SOL    HW1 6239   1.862   6.075   4.819
 1780SOL    HW2 6240   1.832   5.915   4.831
 1781SOL     OW 6241   3.988   0.930   4.329
 1781SOL    HW1 6242   3.986   0.978   4.241
 1781SOL    HW2 6243   3.902   0.947   4.378
 1782SOL     OW 6244   1.177   1.656   2.606
 1782SOL    HW1 6245   1.146   1.578   2.660
 1782SOL    HW2 6246   1.226   1.721   2.666
 1783SOL     OW 6247   2.297   4.238   6.809
 1783SOL    HW1 6248   2.394   4.261   6.815
 1783SOL    HW2 6249   2.267   4.198   6.896
 1784SOL     OW 6250   3.010   6.917   1.377
 1784SOL    HW1 6251   2.938   6.866   1.329
 1784SOL    HW2 6252   3.032   6.872   1.463
 1785SOL     OW 6253   1.030   6.487   4.350
 1785SOL    HW1 6254   1.117   6.442   4.332
 1785SOL    HW2 6255   1.043   6.559   4.417
 1786SOL     OW 6256   1.387   6.109   0.578
 1786SOL    HW1 6257   1.404   6.131   0.674
 1786SOL    HW2 6258   1.299   6.062   0.570
 1787SOL     OW 6259   2.808   3.932   6.317
 1787SOL    HW1 6260   2.819   3.957   6.220
 1787SOL    HW2 6261   2.893   3.953   6.366
 1788SOL     OW 6262   4.662   3.899   0.562
 1788SOL    HW1 6263   4.641   3.812   0.607
 1788SOL    HW2 6264   4.578   3.952   0.550
 1789SOL     OW 6265   6.439   4.275   2.296
 1789SOL    HW1 6266   6.536   4.279   2.319
 1789SOL    HW2 6267   6.384   4.301   2.375
 1790SOL     OW 6268   2.254   2.441   4.701
 1790SOL    HW1 6269   2.353   2.439   4.685
 1790SOL    HW2 6270   2.226   2.355   4.744
 1791SOL     OW 6271   5.014   6.802   3.244
 1791SOL    HW1 6272   5.051   6.822   3.153
 1791SOL    HW2 6273   5.089   6.791   3.308
 1792SOL     OW 6274   0.322   1.349   5.523
 1792SOL    HW1 6275   0.395   1.281   5.517
 1792SOL    HW2 6276   0.332   1.415   5.448
 1793SOL     OW 6277   6.913   1.466   6.222
 1793SOL    HW1 6278   6.819   1.430   6.215
 1793SOL    HW2 6279   6.913   1.563   6.200
 1794SOL     OW 6280   1.236   0.142   6.379
 1794SOL    HW1 6281   1.146   0.133   6.421
 1794SOL    HW2 6282   1.236   0.095   6.291
 1795SOL     OW 6283   6.227   4.254   1.361
 1795SOL    HW1 6284   6.251   4.207   1.276
 1795SOL    HW2 6285   6.162   4.199   1.413
 1796SOL     OW 6286   1.228   0.446   6.404
 1796SOL    HW1 6287   1.159   0.505   6.363
 1796SOL    HW2 6288   1.212   0.352   6.376
 1797SOL     OW 6289   2.541   4.858   5.549
 1797SOL    HW1 6290   2.588   4.780   5.508
 1797SOL    HW2 6291   2.483   4.902   5.481
 1798SOL     OW 6292   3.176   3.468   4.310
 1798SOL    HW1 6293   3.256   3.513   4.348
 1798SOL    HW2 6294   3.203   3.415   4.229
 1799SOL     OW 6295   3.350   1.377   0.450
 1799SOL    HW1 6296   3.421   1.344   0.512
 1799SOL    HW2 6297   3.386   1.381   0.357
 1800SOL     OW 6298   5.617   3.913   4.754
 1800SOL    HW1 6299   5.602   3.906   4.655
 1800SOL    HW2 6300   5.708   3.880   4.777
 1801SOL     OW 6301   1.193   1.637   2.018
 1801SOL    HW1 6302   1.213   1.598   1.929
 1801SOL    HW2 6303   1.270   1.693   2.049
 1802SOL     OW 6304   6.850   4.930   3.758
 1802SOL    HW1 6305   6.840   4.862   3.686
 1802SOL    HW2 6306   6.772   4.924   3.821
 1803SOL     OW 6307   0.943   6.805   3.424
 1803SOL    HW1 6308   0.985   6.879   3.476
 1803SOL    HW2 6309   1.014   6.746   3.386
 1804SOL     OW 6310   2.230   3.118   5.980
 1804SOL    HW1 6311   2.137   3.102   6.013
 1804SOL    HW2 6312   2.255   3.214   5.999
 1805SOL     OW 6313   6.895   5.763   6.496
 1805SOL    HW1 6314   6.939   5.744   6.583
 1805SOL    HW2 6315   6.818   5.825   6.510
 1806SOL     OW 6316   6.934   1.723   2.397
 1806SOL    HW1 6317   7.014   1.768   2.358
 1806SOL    HW2 6318   6.931   1.628   2.367
 1807SOL     OW 6319   0.079   2.992   2.625
 1807SOL    HW1 6320   0.104   2.936   2.547
 1807SOL    HW2 6321   0.161   3.016   2.677
 1808SOL     OW 6322   4.744   2.259   5.790
 1808SOL    HW1 6323   4.767   2.322   5.716
 1808SOL    HW2 6324   4.821   2.254   5.854
 1809SOL     OW 6325   4.102   0.430   5.869
 1809SOL    HW1 6326   4.040   0.478   5.807
 1809SOL    HW2 6327   4.177   0.490   5.895
 1810SOL     OW 6328   0.095   0.202   4.197
 1810SOL    HW1 6329   0.067   0.295   4.222
 1810SOL    HW2 6330   0.192   0.201   4.174
 1811SOL     OW 6331   4.282   5.648   1.731
 1811SOL    HW1 6332   4.258   5.552   1.714
 1811SOL    HW2 6333   4.213   5.707   1.688
 1812SOL     OW 6334   4.742   6.440   5.703
 1812SOL    HW1 6335   4.809   6.375   5.740
 1812SOL    HW2 6336   4.784   6.531   5.696
 1813SOL     OW 6337   4.227   4.657   2.620
 1813SOL    HW1 6338   4.278   4.626   2.540
 1813SOL    HW2 6339   4.163   4.729   2.593
 1814SOL     OW 6340   0.122   5.893   0.395
 1814SOL    HW1 6341   0.214   5.899   0.434
 1814SOL    HW2 6342   0.126   5.842   0.309
 1815SOL     OW 6343   5.797   6.263   1.367
 1815SOL    HW1 6344   5.763   6.271   1.273
 1815SOL    HW2 6345   5.777   6.171   1.402
 1816SOL     OW 6346   4.199   5.175   5.597
 1816SOL    HW1 6347   4.177   5.272   5.596
 1816SOL    HW2 6348   4.215   5.143   5.503
 1817SOL     OW 6349   1.052   1.691   3.666
 1817SOL    HW1 6350   1.093   1.782   3.670
 1817SOL    HW2 6351   1.119   1.626   3.627
 1818SOL     OW 6352   2.040   0.170   0.855
 1818SOL    HW1 6353   2.115   0.126   0.905
 1818SOL    HW2 6354   2.055   0.269   0.853
 1819SOL     OW 6355   2.143   4.646   3.602
 1819SOL    HW1 6356   2.059   4.604   3.635
 1819SOL    HW2 6357   2.133   4.666   3.504
 1820SOL     OW 6358   3.657   6.753   5.103
 1820SOL    HW1 6359   3.684   6.849   5.093
 1820SOL    HW2 6360   3.737   6.698   5.125
 1821SOL     OW 6361   3.148   2.126   2.797
 1821SOL    HW1 6362   3.134   2.122   2.698
 1821SOL    HW2 6363   3.244   2.149   2.816
 1822SOL     OW 6364   6.625   2.991   2.471
 1822SOL    HW1 6365   6.639   2.952   2.562
 1822SOL    HW2 6366   6.575   3.077   2.480
 1823SOL     OW 6367   3.726   6.103   2.265
 1823SOL    HW1 6368   3.787   6.153   2.327
 1823SOL    HW2 6369   3.705   6.160   2.186
 1824SOL     OW 6370   4.226   2.924   1.635
 1824SOL    HW1 6371   4.169   2.914   1.554
 1824SOL    HW2 6372   4.267   2.836   1.659
 1825SOL     OW 6373   2.013   1.290   5.268
 1825SOL    HW1 6374   1.933   1.238   5.299
 1825SOL    HW2 6375   1.994   1.328   5.177
 1826SOL     OW 6376   3.711   2.132   1.691
 1826SOL    HW1 6377   3.703   2.198   1.765
 1826SOL    HW2 6378   3.779   2.164   1.624
 1827SOL     OW 6379   5.926   4.484   1.301
 1827SOL    HW1 6380   5.991   4.507   1.229
 1827SOL    HW2 6381   5.907   4.386   1.299
 1828SOL     OW 6382   1.599   3.010   4.898
 1828SOL    HW1 6383   1.652   2.961   4.967
 1828SOL    HW2 6384   1.655   3.022   4.816
 1829SOL     OW 6385   3.627   0.482   3.249
 1829SOL    HW1 6386   3.690   0.413   3.286
 1829SOL    HW2 6387   3.538   0.441   3.232
 1830SOL     OW 6388   4.748   6.928   4.565
 1830SOL    HW1 6389   4.775   7.016   4.526
 1830SOL    HW2 6390   4.825   6.865   4.559
 1831SOL     OW 6391   4.208   5.138   1.080
 1831SOL    HW1 6392   4.264   5.150   1.162
 1831SOL    HW2 6393   4.111   5.140   1.105
 1832SOL     OW 6394   2.461   3.079   0.337
 1832SOL    HW1 6395   2.551   3.039   0.318
 1832SOL    HW2 6396   2.406   3.081   0.253
 1833SOL     OW 6397   5.393   0.781   0.693
 1833SOL    HW1 6398   5.350   0.797   0.605
 1833SOL    HW2 6399   5.344   0.832   0.764
 1834SOL     OW 6400   1.493   2.537   5.806
 1834SOL    HW1 6401   1.552   2.495   5.738
 1834SOL    HW2 6402   1.533   2.624   5.835
 1835SOL     OW 6403   6.846   6.078   1.294
 1835SOL    HW1 6404   6.757   6.123   1.302
 1835SOL    HW2 6405   6.841   6.008   1.223
 1836SOL     OW 6406   4.812   2.536   1.749
 1836SOL    HW1 6407   4.810   2.577   1.657
 1836SOL    HW2 6408   4.804   2.608   1.817
 1837SOL     OW 6409   3.217   2.963   6.195
 1837SOL    HW1 6410   3.134   2.924   6.156
 1837SOL    HW2 6411   3.248   3.039   6.139
 1838SOL     OW 6412   6.473   0.879   0.875
 1838SOL    HW1 6413   6.392   0.820   0.877
 1838SOL    HW2 6414   6.543   0.842   0.936
 1839SOL     OW 6415   0.039   1.180   6.661
 1839SOL    HW1 6416   6.993   1.227   6.602
 1839SOL    HW2 6417   0.018   1.082   6.663
 1840SOL     OW 6418   4.507   6.725   3.380
 1840SOL    HW1 6419   4.542   6.697   3.469
 1840SOL    HW2 6420   4.582   6.727   3.314
 1841SOL     OW 6421   2.218   0.710   2.465
 1841SOL    HW1 6422   2.317   0.705   2.456
 1841SOL    HW2 6423   2.186   0.803   2.447
 1842SOL     OW 6424   1.452   5.553   0.111
 1842SOL    HW1 6425   1.388   5.576   0.183
 1842SOL    HW2 6426   1.519   5.486   0.145
 1843SOL     OW 6427   2.520   1.446   5.016
 1843SOL    HW1 6428   2.588   1.516   4.997
 1843SOL    HW2 6429   2.551   1.359   4.978
 1844SOL     OW 6430   5.853   2.467   6.134
 1844SOL    HW1 6431   5.923   2.492   6.067
 1844SOL    HW2 6432   5.774   2.527   6.123
 1845SOL     OW 6433   1.308   1.414   3.004
 1845SOL    HW1 6434   1.400   1.429   2.967
 1845SOL    HW2 6435   1.285   1.489   3.065
 1846SOL     OW 6436   4.406   1.793   2.101
 1846SOL    HW1 6437   4.377   1.863   2.036
 1846SOL    HW2 6438   4.346   1.795   2.181
 1847SOL     OW 6439   1.825   5.790   5.281
 1847SOL    HW1 6440   1.820   5.794   5.381
 1847SOL    HW2 6441   1.919   5.803   5.252
 1848SOL     OW 6442   2.845   5.851   3.578
 1848SOL    HW1 6443   2.780   5.927   3.569
 1848SOL    HW2 6444   2.815   5.790   3.652
 1849SOL     OW 6445   4.766   2.740   1.923
 1849SOL    HW1 6446   4.819   2.684   1.985
 1849SOL    HW2 6447   4.735   2.822   1.970
 1850SOL     OW 6448   4.988   1.435   1.347
 1850SOL    HW1 6449   5.003   1.498   1.271
 1850SOL    HW2 6450   5.050   1.458   1.422
 1851SOL     OW 6451   0.132   4.231   5.531
 1851SOL    HW1 6452   0.050   4.183   5.499
 1851SOL    HW2 6453   0.184   4.265   5.453
 1852SOL     OW 6454   0.518   6.944   2.570
 1852SOL    HW1 6455   0.560   6.854   2.572
 1852SOL    HW2 6456   0.588   7.013   2.552
 1853SOL     OW 6457   0.214   2.528   4.760
 1853SOL    HW1 6458   0.192   2.498   4.667
 1853SOL    HW2 6459   0.153   2.604   4.786
 1854SOL     OW 6460   0.487   0.091   3.383
 1854SOL    HW1 6461   0.388   0.079   3.378
 1854SOL    HW2 6462   0.532   0.002   3.386
 1855SOL     OW 6463   4.697   2.582   4.549
 1855SOL    HW1 6464   4.727   2.529   4.469
 1855SOL    HW2 6465   4.752   2.557   4.628
 1856SOL     OW 6466   3.553   2.957   0.564
 1856SOL    HW1 6467   3.575   2.872   0.515
 1856SOL    HW2 6468   3.479   3.005   0.516
 1857SOL     OW 6469   4.080   1.746   1.029
 1857SOL    HW1 6470   4.168   1.774   1.067
 1857SOL    HW2 6471   4.086   1.653   0.993
 1858SOL     OW 6472   4.579   2.645   3.952
 1858SOL    HW1 6473   4.574   2.624   3.854
 1858SOL    HW2 6474   4.654   2.709   3.968
 1859SOL     OW 6475   6.267   1.973   4.234
 1859SOL    HW1 6476   6.213   1.911   4.177
 1859SOL    HW2 6477   6.239   2.067   4.216
 1860SOL     OW 6478   1.476   1.555   4.689
 1860SOL    HW1 6479   1.538   1.605   4.750
 1860SOL    HW2 6480   1.415   1.497   4.743
 1861SOL     OW 6481   6.423   6.958   3.829
 1861SOL    HW1 6482   6.337   7.006   3.843
 1861SOL    HW2 6483   6.463   6.986   3.741
 1862SOL     OW 6484   3.213   5.525   6.111
 1862SOL    HW1 6485   3.213   5.461   6.188
 1862SOL    HW2 6486   3.134   5.586   6.118
 1863SOL     OW 6487   0.354   3.084   0.449
 1863SOL    HW1 6488   0.405   3.170   0.442
 1863SOL    HW2 6489   0.368   3.045   0.539
 1864SOL     OW 6490   3.823   5.376   2.488
 1864SOL    HW1 6491   3.859   5.295   2.442
 1864SOL    HW2 6492   3.849   5.374   2.584
 1865SOL     OW 6493   5.656   1.265   5.470
 1865SOL    HW1 6494   5.730   1.222   5.522
 1865SOL    HW2 6495   5.572   1.264   5.524
 1866SOL     OW 6496   1.286   4.962   3.793
 1866SOL    HW1 6497   1.379   4.944   3.761
 1866SOL    HW2 6498   1.252   5.045   3.749
 1867SOL     OW 6499   1.445   2.510   1.561
 1867SOL    HW1 6500   1.470   2.530   1.655
 1867SOL    HW2 6501   1.453   2.411   1.545
 1868SOL     OW 6502   5.673   3.895   5.823
 1868SOL    HW1 6503   5.769   3.873   5.838
 1868SOL    HW2 6504   5.616   3.830   5.873
 1869SOL     OW 6505   4.146   1.243   3.918
 1869SOL    HW1 6506   4.107   1.278   3.833
 1869SOL    HW2 6507   4.133   1.310   3.991
 1870SOL     OW 6508   7.020   5.540   4.525
 1870SOL    HW1 6509   0.024   5.509   4.433
 1870SOL    HW2 6510   7.019   5.639   4.527
 1871SOL     OW 6511   0.645   6.592   0.453
 1871SOL    HW1 6512   0.645   6.597   0.353
 1871SOL    HW2 6513   0.624   6.682   0.491
 1872SOL     OW 6514   2.795   2.518   1.392
 1872SOL    HW1 6515   2.884   2.523   1.439
 1872SOL    HW2 6516   2.724   2.552   1.453
 1873SOL     OW 6517   0.334   1.486   0.411
 1873SOL    HW1 6518   0.434   1.492   0.421
 1873SOL    HW2 6519   0.292   1.569   0.448
 1874SOL     OW 6520   0.555   6.164   0.263
 1874SOL    HW1 6521   0.552   6.216   0.178
 1874SOL    HW2 6522   0.506   6.214   0.335
 1875SOL     OW 6523   6.604   4.991   0.061
 1875SOL    HW1 6524   6.646   4.918   0.007
 1875SOL    HW2 6525   6.573   5.064   7.019
 1876SOL     OW 6526   0.154   6.375   0.087
 1876SOL    HW1 6527   0.157   6.401   7.011
 1876SOL    HW2 6528   0.246   6.372   0.125
 1877SOL     OW 6529   1.072   1.491   2.794
 1877SOL    HW1 6530   1.041   1.517   2.886
 1877SOL    HW2 6531   1.055   1.394   2.779
 1878SOL     OW 6532   6.477   3.824   3.728
 1878SOL    HW1 6533   6.545   3.873   3.783
 1878SOL    HW2 6534   6.420   3.890   3.679
 1879SOL     OW 6535   4.778   6.070   4.826
 1879SOL    HW1 6536   4.726   6.132   4.886
 1879SOL    HW2 6537   4.813   5.994   4.881
 1880SOL     OW 6538   0.208   1.846   4.054
 1880SOL    HW1 6539   0.159   1.933   4.065
 1880SOL    HW2 6540   0.292   1.848   4.108
 1881SOL     OW 6541   1.380   1.830   4.575
 1881SOL    HW1 6542   1.422   1.920   4.562
 1881SOL    HW2 6543   1.450   1.759   4.563
 1882SOL     OW 6544   1.862   5.649   6.814
 1882SOL    HW1 6545   1.918   5.566   6.808
 1882SOL    HW2 6546   1.901   5.710   6.883
 1883SOL     OW 6547   1.851   3.083   2.154
 1883SOL    HW1 6548   1.950   3.086   2.139
 1883SOL    HW2 6549   1.831   3.096   2.251
 1884SOL     OW 6550   3.090   1.183   0.105
 1884SOL    HW1 6551   3.042   1.174   0.192
 1884SOL    HW2 6552   3.121   1.278   0.094
 1885SOL     OW 6553   0.362   2.081   1.151
 1885SOL    HW1 6554   0.403   2.049   1.237
 1885SOL    HW2 6555   0.359   2.181   1.152
 1886SOL     OW 6556   2.949   2.418   6.044
 1886SOL    HW1 6557   2.963   2.516   6.055
 1886SOL    HW2 6558   3.015   2.368   6.099
 1887SOL     OW 6559   0.253   6.983   5.441
 1887SOL    HW1 6560   0.252   6.984   5.541
 1887SOL    HW2 6561   0.304   0.043   5.407
 1888SOL     OW 6562   2.257   1.939   5.607
 1888SOL    HW1 6563   2.268   1.950   5.508
 1888SOL    HW2 6564   2.273   1.844   5.632
 1889SOL     OW 6565   3.329   3.017   0.413
 1889SOL    HW1 6566   3.291   2.939   0.361
 1889SOL    HW2 6567   3.263   3.046   0.481
 1890SOL     OW 6568   6.498   5.802   6.271
 1890SOL    HW1 6569   6.566   5.875   6.274
 1890SOL    HW2 6570   6.407   5.841   6.258
 1891SOL     OW 6571   6.005   4.272   5.561
 1891SOL    HW1 6572   5.967   4.184   5.590
 1891SOL    HW2 6573   5.935   4.343   5.571
 1892SOL     OW 6574   4.084   6.152   1.510
 1892SOL    HW1 6575   4.074   6.056   1.483
 1892SOL    HW2 6576   3.993   6.190   1.531
 1893SOL     OW 6577   3.491   1.712   4.948
 1893SOL    HW1 6578   3.426   1.784   4.975
 1893SOL    HW2 6579   3.556   1.696   5.022
 1894SOL     OW 6580   3.748   3.937   0.799
 1894SOL    HW1 6581   3.713   3.891   0.881
 1894SOL    HW2 6582   3.835   3.897   0.772
 1895SOL     OW 6583   5.220   0.312   3.040
 1895SOL    HW1 6584   5.308   0.332   3.083
 1895SOL    HW2 6585   5.181   0.230   3.081
 1896SOL     OW 6586   6.471   1.249   5.657
 1896SOL    HW1 6587   6.537   1.324   5.651
 1896SOL    HW2 6588   6.497   1.187   5.731
 1897SOL     OW 6589   5.785   5.154   3.582
 1897SOL    HW1 6590   5.715   5.201   3.528
 1897SOL    HW2 6591   5.875   5.188   3.555
 1898SOL     OW 6592   5.899   5.353   0.070
 1898SOL    HW1 6593   5.973   5.315   0.014
 1898SOL    HW2 6594   5.840   5.410   0.014
 1899SOL     OW 6595   1.280   3.034   3.536
 1899SOL    HW1 6596   1.373   3.054   3.566
 1899SOL    HW2 6597   1.272   3.051   3.438
 1900SOL     OW 6598   2.560   5.971   0.689
 1900SOL    HW1 6599   2.593   6.000   0.599
 1900SOL    HW2 6600   2.461   5.957   0.685
 1901SOL     OW 6601   1.505   1.595   6.872
 1901SOL    HW1 6602   1.488   1.556   6.781
 1901SOL    HW2 6603   1.573   1.540   6.919
 1902SOL     OW 6604   1.317   2.744   4.920
 1902SOL    HW1 6605   1.338   2.813   4.989
 1902SOL    HW2 6606   1.221   2.716   4.928
 1903SOL     OW 6607   6.261   3.593   4.012
 1903SOL    HW1 6608   6.288   3.514   3.957
 1903SOL    HW2 6609   6.246   3.671   3.952
 1904SOL     OW 6610   6.887   6.872   4.022
 1904SOL    HW1 6611   6.980   6.867   4.058
 1904SOL    HW2 6612   6.883   6.939   3.948
 1905SOL     OW 6613   6.493   2.808   3.741
 1905SOL    HW1 6614   6.585   2.773   3.759
 1905SOL    HW2 6615   6.471   2.794   3.645
 1906SOL     OW 6616   2.510   6.677   0.498
 1906SOL    HW1 6617   2.475   6.732   0.575
 1906SOL    HW2 6618   2.544   6.738   0.427
 1907SOL     OW 6619   3.203   6.007   3.187
 1907SOL    HW1 6620   3.231   5.953   3.267
 1907SOL    HW2 6621   3.151   6.087   3.218
 1908SOL     OW 6622   5.004   1.322   6.894
 1908SOL    HW1 6623   4.992   1.226   6.868
 1908SOL    HW2 6624   4.933   1.377   6.851
 1909SOL     OW 6625   3.600   4.970   4.324
 1909SOL    HW1 6626   3.582   5.068   4.332
 1909SOL    HW2 6627   3.693   4.950   4.354
 1910SOL     OW 6628   4.899   1.790   5.533
 1910SOL    HW1 6629   4.935   1.878   5.565
 1910SOL    HW2 6630   4.966   1.747   5.473
 1911SOL     OW 6631   6.401   3.865   5.914
 1911SOL    HW1 6632   6.481   3.821   5.955
 1911SOL    HW2 6633   6.396   3.960   5.946
 1912SOL     OW 6634   3.540   6.719   3.610
 1912SOL    HW1 6635   3.555   6.649   3.680
 1912SOL    HW2 6636   3.608   6.708   3.537
 1913SOL     OW 6637   1.383   4.120   5.260
 1913SOL    HW1 6638   1.360   4.172   5.342
 1913SOL    HW2 6639   1.338   4.161   5.181
 1914SOL     OW 6640   4.053   1.730   5.615
 1914SOL    HW1 6641   4.066   1.816   5.664
 1914SOL    HW2 6642   3.961   1.727   5.576
 1915SOL     OW 6643   3.094   7.003   5.383
 1915SOL    HW1 6644   3.079   6.905   5.379
 1915SOL    HW2 6645   3.048   0.022   5.462
 1916SOL     OW 6646   3.952   6.574   1.440
 1916SOL    HW1 6647   3.923   6.659   1.396
 1916SOL    HW2 6648   4.030   6.535   1.392
 1917SOL     OW 6649   3.194   3.031   3.619
 1917SOL    HW1 6650   3.292   3.052   3.623
 1917SOL    HW2 6651   3.176   2.948   3.671
 1918SOL     OW 6652   5.743   6.980   4.097
 1918SOL    HW1 6653   5.810   6.931   4.041
 1918SOL    HW2 6654   5.695   6.915   4.155
 1919SOL     OW 6655   6.345   6.747   1.777
 1919SOL    HW1 6656   6.349   6.659   1.728
 1919SOL    HW2 6657   6.251   6.782   1.774
 1920SOL     OW 6658   6.821   5.646   4.260
 1920SOL    HW1 6659   6.858   5.625   4.170
 1920SOL    HW2 6660   6.894   5.674   4.321
 1921SOL     OW 6661   0.878   6.901   6.835
 1921SOL    HW1 6662   0.923   6.899   6.925
 1921SOL    HW2 6663   0.921   6.834   6.775
 1922SOL     OW 6664   3.181   4.429   0.351
 1922SOL    HW1 6665   3.244   4.500   0.384
 1922SOL    HW2 6666   3.195   4.415   0.253
 1923SOL     OW 6667   1.630   1.795   0.504
 1923SOL    HW1 6668   1.726   1.797   0.477
 1923SOL    HW2 6669   1.603   1.884   0.539
 1924SOL     OW 6670   0.639   4.900   1.457
 1924SOL    HW1 6671   0.642   4.947   1.369
 1924SOL    HW2 6672   0.713   4.934   1.515
 1925SOL     OW 6673   3.011   4.519   0.954
 1925SOL    HW1 6674   2.964   4.604   0.931
 1925SOL    HW2 6675   3.079   4.498   0.885
 1926SOL     OW 6676   1.019   0.274   3.748
 1926SOL    HW1 6677   0.988   0.237   3.836
 1926SOL    HW2 6678   0.939   0.304   3.695
 1927SOL     OW 6679   4.034   3.408   6.850
 1927SOL    HW1 6680   4.109   3.473   6.849
 1927SOL    HW2 6681   3.950   3.453   6.822
 1928SOL     OW 6682   5.978   4.852   5.565
 1928SOL    HW1 6683   5.962   4.910   5.644
 1928SOL    HW2 6684   6.077   4.847   5.546
 1929SOL     OW 6685   1.322   6.789   2.489
 1929SOL    HW1 6686   1.316   6.753   2.582
 1929SOL    HW2 6687   1.279   6.724   2.425
 1930SOL     OW 6688   5.823   3.761   6.502
 1930SOL    HW1 6689   5.908   3.716   6.476
 1930SOL    HW2 6690   5.765   3.771   6.422
 1931SOL     OW 6691   0.861   2.403   4.911
 1931SOL    HW1 6692   0.911   2.416   4.826
 1931SOL    HW2 6693   0.821   2.489   4.940
 1932SOL     OW 6694   5.785   3.540   1.492
 1932SOL    HW1 6695   5.848   3.469   1.525
 1932SOL    HW2 6696   5.745   3.589   1.569
 1933SOL     OW 6697   2.955   4.129   1.362
 1933SOL    HW1 6698   2.919   4.094   1.276
 1933SOL    HW2 6699   2.908   4.215   1.385
 1934SOL     OW 6700   0.801   5.699   5.057
 1934SOL    HW1 6701   0.716   5.645   5.064
 1934SOL    HW2 6702   0.833   5.721   5.149
 1935SOL     OW 6703   2.216   1.118   3.725
 1935SOL    HW1 6704   2.177   1.196   3.773
 1935SOL    HW2 6705   2.195   1.123   3.628
 1936SOL     OW 6706   6.265   5.351   5.380
 1936SOL    HW1 6707   6.305   5.323   5.467
 1936SOL    HW2 6708   6.324   5.420   5.337
 1937SOL     OW 6709   3.840   6.616   2.071
 1937SOL    HW1 6710   3.933   6.582   2.057
 1937SOL    HW2 6711   3.842   6.714   2.089
 1938SOL     OW 6712   4.655   0.755   3.302
 1938SOL    HW1 6713   4.701   0.812   3.370
 1938SOL    HW2 6714   4.557   0.775   3.303
 1939SOL     OW 6715   2.033   0.548   3.563
 1939SOL    HW1 6716   2.007   0.644   3.550
 1939SOL    HW2 6717   2.126   0.543   3.598
 1940SOL     OW 6718   6.983   5.685   6.734
 1940SOL    HW1 6719   6.934   5.706   6.818
 1940SOL    HW2 6720   6.965   5.590   6.708
 1941SOL     OW 6721   5.165   4.197   2.795
 1941SOL    HW1 6722   5.127   4.145   2.719
 1941SOL    HW2 6723   5.150   4.148   2.881
 1942SOL     OW 6724   6.007   5.162   2.730
 1942SOL    HW1 6725   5.923   5.193   2.774
 1942SOL    HW2 6726   5.990   5.142   2.634
 1943SOL     OW 6727   2.493   4.878   2.460
 1943SOL    HW1 6728   2.454   4.941   2.392
 1943SOL    HW2 6729   2.557   4.927   2.518
 1944SOL     OW 6730   6.742   1.383   1.389
 1944SOL    HW1 6731   6.736   1.284   1.380
 1944SOL    HW2 6732   6.801   1.406   1.467
 1945SOL     OW 6733   3.320   4.951   4.309
 1945SOL    HW1 6734   3.286   4.967   4.216
 1945SOL    HW2 6735   3.419   4.944   4.308
 1946SOL     OW 6736   1.688   0.742   0.149
 1946SOL    HW1 6737   1.725   0.650   0.140
 1946SOL    HW2 6738   1.732   0.789   0.225
 1947SOL     OW 6739   5.581   5.540   3.967
 1947SOL    HW1 6740   5.637   5.471   3.921
 1947SOL    HW2 6741   5.563   5.511   4.061
 1948SOL     OW 6742   6.093   4.999   4.650
 1948SOL    HW1 6743   6.117   4.973   4.744
 1948SOL    HW2 6744   5.995   5.020   4.646
 1949SOL     OW 6745   4.683   4.055   6.566
 1949SOL    HW1 6746   4.639   4.144   6.551
 1949SOL    HW2 6747   4.760   4.067   6.629
 1950SOL     OW 6748   3.038   3.672   6.614
 1950SOL    HW1 6749   3.029   3.737   6.539
 1950SOL    HW2 6750   3.122   3.690   6.665
 1951SOL     OW 6751   6.171   2.083   6.987
 1951SOL    HW1 6752   6.083   2.107   0.007
 1951SOL    HW2 6753   6.213   2.165   6.948
 1952SOL     OW 6754   3.660   2.187   6.248
 1952SOL    HW1 6755   3.563   2.163   6.249
 1952SOL    HW2 6756   3.670   2.285   6.232
 1953SOL     OW 6757   0.233   2.816   6.463
 1953SOL    HW1 6758   0.272   2.797   6.553
 1953SOL    HW2 6759   0.194   2.908   6.461
 1954SOL     OW 6760   3.369   2.091   4.165
 1954SOL    HW1 6761   3.286   2.126   4.208
 1954SOL    HW2 6762   3.383   1.996   4.193
 1955SOL     OW 6763   0.111   6.749   3.328
 1955SOL    HW1 6764   0.126   6.670   3.388
 1955SOL    HW2 6765   0.079   6.827   3.382
 1956SOL     OW 6766   5.758   5.744   2.477
 1956SOL    HW1 6767   5.756   5.653   2.518
 1956SOL    HW2 6768   5.833   5.749   2.411
 1957SOL     OW 6769   0.475   6.560   5.503
 1957SOL    HW1 6770   0.526   6.617   5.567
 1957SOL    HW2 6771   0.383   6.542   5.539
 1958SOL     OW 6772   5.377   3.272   5.820
 1958SOL    HW1 6773   5.396   3.220   5.903
 1958SOL    HW2 6774   5.299   3.232   5.773
 1959SOL     OW 6775   1.730   1.750   6.387
 1959SOL    HW1 6776   1.758   1.660   6.421
 1959SOL    HW2 6777   1.735   1.751   6.287
 1960SOL     OW 6778   5.693   5.617   0.722
 1960SOL    HW1 6779   5.674   5.706   0.764
 1960SOL    HW2 6780   5.783   5.619   0.678
 1961SOL     OW 6781   5.664   4.484   4.083
 1961SOL    HW1 6782   5.664   4.583   4.072
 1961SOL    HW2 6783   5.582   4.445   4.040
 1962SOL     OW 6784   0.848   6.367   3.475
 1962SOL    HW1 6785   0.778   6.325   3.418
 1962SOL    HW2 6786   0.813   6.454   3.512
 1963SOL     OW 6787   1.183   0.595   3.382
 1963SOL    HW1 6788   1.141   0.561   3.467
 1963SOL    HW2 6789   1.218   0.687   3.397
 1964SOL     OW 6790   5.323   3.751   2.899
 1964SOL    HW1 6791   5.269   3.792   2.825
 1964SOL    HW2 6792   5.390   3.688   2.860
 1965SOL     OW 6793   1.294   3.910   3.301
 1965SOL    HW1 6794   1.254   3.861   3.224
 1965SOL    HW2 6795   1.359   3.850   3.348
 1966SOL     OW 6796   6.306   5.078   5.475
 1966SOL    HW1 6797   6.300   4.987   5.517
 1966SOL    HW2 6798   6.398   5.115   5.488
 1967SOL     OW 6799   4.477   2.984   5.339
 1967SOL    HW1 6800   4.524   2.929   5.270
 1967SOL    HW2 6801   4.384   2.948   5.352
 1968SOL     OW 6802   3.438   5.748   6.245
 1968SOL    HW1 6803   3.424   5.729   6.148
 1968SOL    HW2 6804   3.420   5.665   6.298
 1969SOL     OW 6805   0.149   2.521   0.924
 1969SOL    HW1 6806   0.168   2.433   0.967
 1969SOL    HW2 6807   0.052   2.526   0.900
 1970SOL     OW 6808   1.593   0.918   4.032
 1970SOL    HW1 6809   1.613   0.861   3.952
 1970SOL    HW2 6810   1.495   0.918   4.050
 1971SOL     OW 6811   0.188   6.677   6.627
 1971SOL    HW1 6812   0.100   6.649   6.666
 1971SOL    HW2 6813   0.230   6.747   6.685
 1972SOL     OW 6814   0.722   4.717   3.979
 1972SOL    HW1 6815   0.636   4.768   3.976
 1972SOL    HW2 6816   0.790   4.767   4.032
 1973SOL     OW 6817   3.327   3.359   1.511
 1973SOL    HW1 6818   3.255   3.297   1.541
 1973SOL    HW2 6819   3.288   3.448   1.486
 1974SOL     OW 6820   5.336   0.863   3.838
 1974SOL    HW1 6821   5.396   0.840   3.762
 1974SOL    HW2 6822   5.368   0.817   3.921
 1975SOL     OW 6823   3.160   0.166   3.863
 1975SOL    HW1 6824   3.130   0.239   3.925
 1975SOL    HW2 6825   3.195   0.207   3.779
 1976SOL     OW 6826   0.684   5.651   0.692
 1976SOL    HW1 6827   0.639   5.647   0.782
 1976SOL    HW2 6828   0.647   5.728   0.640
 1977SOL     OW 6829   0.775   2.597   5.368
 1977SOL    HW1 6830   0.751   2.502   5.390
 1977SOL    HW2 6831   0.692   2.647   5.343
 1978SOL     OW 6832   6.502   1.974   4.372
 1978SOL    HW1 6833   6.418   1.994   4.323
 1978SOL    HW2 6834   6.481   1.948   4.467
 1979SOL     OW 6835   6.021   4.631   4.031
 1979SOL    HW1 6836   5.978   4.718   4.052
 1979SOL    HW2 6837   6.091   4.610   4.100
 1980SOL     OW 6838   4.354   0.335   1.349
 1980SOL    HW1 6839   4.322   0.416   1.301
 1980SOL    HW2 6840   4.301   0.323   1.433
 1981SOL     OW 6841   4.948   3.018   1.934
 1981SOL    HW1 6842   4.931   3.048   1.840
 1981SOL    HW2 6843   4.861   2.995   1.977
 1982SOL     OW 6844   5.572   6.357   4.642
 1982SOL    HW1 6845   5.587   6.263   4.674
 1982SOL    HW2 6846   5.628   6.420   4.697
 1983SOL     OW 6847   1.299   3.353   3.689
 1983SOL    HW1 6848   1.361   3.275   3.700
 1983SOL    HW2 6849   1.350   3.430   3.650
 1984SOL     OW 6850   4.064   1.181   6.459
 1984SOL    HW1 6851   3.969   1.172   6.487
 1984SOL    HW2 6852   4.069   1.185   6.359
 1985SOL     OW 6853   1.061   0.627   1.506
 1985SOL    HW1 6854   1.159   0.641   1.521
 1985SOL    HW2 6855   1.015   0.715   1.503
 1986SOL     OW 6856   2.020   1.437   6.379
 1986SOL    HW1 6857   2.093   1.417   6.445
 1986SOL    HW2 6858   2.035   1.527   6.339
 1987SOL     OW 6859   2.439   3.337   0.828
 1987SOL    HW1 6860   2.392   3.291   0.753
 1987SOL    HW2 6861   2.533   3.303   0.834
 1988SOL     OW 6862   4.591   3.819   0.257
 1988SOL    HW1 6863   4.600   3.793   0.354
 1988SOL    HW2 6864   4.588   3.919   0.250
 1989SOL     OW 6865   2.311   0.101   4.256
 1989SOL    HW1 6866   2.299   0.149   4.343
 1989SOL    HW2 6867   2.222   0.073   4.221
 1990SOL     OW 6868   3.165   0.836   1.363
 1990SOL    HW1 6869   3.245   0.784   1.394
 1990SOL    HW2 6870   3.136   0.898   1.436
 1991SOL     OW 6871   2.945   5.812   4.203
 1991SOL    HW1 6872   3.002   5.852   4.132
 1991SOL    HW2 6873   2.936   5.713   4.187
 1992SOL     OW 6874   2.231   6.419   5.610
 1992SOL    HW1 6875   2.188   6.330   5.621
 1992SOL    HW2 6876   2.187   6.485   5.672
 1993SOL     OW 6877   3.941   3.740   5.715
 1993SOL    HW1 6878   3.948   3.836   5.740
 1993SOL    HW2 6879   3.961   3.728   5.618
 1994SOL     OW 6880   6.665   2.545   2.005
 1994SOL    HW1 6881   6.585   2.565   1.947
 1994SOL    HW2 6882   6.677   2.619   2.071
 1995SOL     OW 6883   5.659   2.112   1.668
 1995SOL    HW1 6884   5.562   2.133   1.676
 1995SOL    HW2 6885   5.680   2.031   1.723
 1996SOL     OW 6886   3.401   4.173   0.303
 1996SOL    HW1 6887   3.439   4.240   0.241
 1996SOL    HW2 6888   3.345   4.219   0.373
 1997SOL     OW 6889   5.192   0.764   3.503
 1997SOL    HW1 6890   5.120   0.796   3.565
 1997SOL    HW2 6891   5.156   0.758   3.410
 1998SOL     OW 6892   3.003   4.470   5.436
 1998SOL    HW1 6893   3.012   4.561   5.476
 1998SOL    HW2 6894   2.975   4.479   5.340
 1999SOL     OW 6895   2.188   0.185   2.361
 1999SOL    HW1 6896   2.126   0.236   2.302
 1999SOL    HW2 6897   2.263   0.244   2.391
 2000SOL     OW 6898   3.997   1.619   4.651
 2000SOL    HW1 6899   3.912   1.578   4.618
 2000SOL    HW2 6900   4.015   1.589   4.745
 2001SOL     OW 6901   3.135   1.362   0.821
 2001SOL    HW1 6902   3.113   1.354   0.918
 2001SOL    HW2 6903   3.056   1.332   0.767
 2002SOL     OW 6904   1.915   5.249   5.623
 2002SOL    HW1 6905   1.933   5.325   5.686
 2002SOL    HW2 6906   1.989   5.182   5.629
 2003SOL     OW 6907   6.085   5.977   3.630
 2003SOL    HW1 6908   6.057   6.031   3.551
 2003SOL    HW2 6909   6.109   6.037   3.706
 2004SOL     OW 6910   3.069   0.803   5.976
 2004SOL    HW1 6911   3.048   0.801   5.878
 2004SOL    HW2 6912   3.156   0.849   5.991
 2005SOL     OW 6913   2.188   5.699   5.506
 2005SOL    HW1 6914   2.256   5.640   5.463
 2005SOL    HW2 6915   2.114   5.643   5.543
 2006SOL     OW 6916   4.429   4.967   4.210
 2006SOL    HW1 6917   4.359   4.906   4.248
 2006SOL    HW2 6918   4.400   5.062   4.220
 2007SOL     OW 6919   5.211   5.650   0.533
 2007SOL    HW1 6920   5.147   5.634   0.608
 2007SOL    HW2 6921   5.216   5.748   0.515
 2008SOL     OW 6922   0.043   6.287   3.668
 2008SOL    HW1 6923   7.014   6.365   3.708
 2008SOL    HW2 6924   6.998   6.213   3.652
 2009SOL     OW 6925   6.893   0.266   1.744
 2009SOL    HW1 6926   6.809   0.294   1.696
 2009SOL    HW2 6927   6.880   0.174   1.782
 2010SOL     OW 6928   0.896   0.668   0.414
 2010SOL    HW1 6929   0.869   0.605   0.342
 2010SOL    HW2 6930   0.918   0.757   0.374
 2011SOL     OW 6931   7.016   1.650   4.733
 2011SOL    HW1 6932   0.058   1.705   4.678
 2011SOL    HW2 6933   6.930   1.699   4.746
 2012SOL     OW 6934   1.266   3.847   0.839
 2012SOL    HW1 6935   1.304   3.934   0.806
 2012SOL    HW2 6936   1.316   3.820   0.922
 2013SOL     OW 6937   5.665   1.512   2.289
 2013SOL    HW1 6938   5.758   1.543   2.309
 2013SOL    HW2 6939   5.601   1.555   2.352
 2014SOL     OW 6940   2.068   5.246   3.433
 2014SOL    HW1 6941   2.070   5.343   3.411
 2014SOL    HW2 6942   2.152   5.203   3.402
 2015SOL     OW 6943   3.118   0.435   0.119
 2015SOL    HW1 6944   3.110   0.524   0.075
 2015SOL    HW2 6945   3.151   0.447   0.212
 2016SOL     OW 6946   0.703   5.391   4.486
 2016SOL    HW1 6947   0.706   5.304   4.436
 2016SOL    HW2 6948   0.686   5.466   4.421
 2017SOL     OW 6949   2.686   5.858   2.909
 2017SOL    HW1 6950   2.764   5.898   2.862
 2017SOL    HW2 6951   2.660   5.917   2.986
 2018SOL     OW 6952   0.379   5.077   6.317
 2018SOL    HW1 6953   0.388   5.172   6.346
 2018SOL    HW2 6954   0.404   5.016   6.392
 2019SOL     OW 6955   6.101   2.175   2.021
 2019SOL    HW1 6956   6.199   2.181   2.003
 2019SOL    HW2 6957   6.079   2.084   2.055
 2020SOL     OW 6958   2.518   5.195   3.068
 2020SOL    HW1 6959   2.482   5.217   2.977
 2020SOL    HW2 6960   2.601   5.141   3.059
 2021SOL     OW 6961   1.561   0.578   2.456
 2021SOL    HW1 6962   1.512   0.492   2.455
 2021SOL    HW2 6963   1.537   0.632   2.375
 2022SOL     OW 6964   2.478   3.911   1.736
 2022SOL    HW1 6965   2.475   4.007   1.764
 2022SOL    HW2 6966   2.404   3.860   1.782
 2023SOL     OW 6967   6.473   0.999   5.808
 2023SOL    HW1 6968   6.500   0.934   5.737
 2023SOL    HW2 6969   6.442   0.949   5.889
 2024SOL     OW 6970   5.857   0.875   3.507
 2024SOL    HW1 6971   5.862   0.845   3.602
 2024SOL    HW2 6972   5.917   0.954   3.494
 2025SOL     OW 6973   0.005   1.572   1.804
 2025SOL    HW1 6974   0.101   1.566   1.777
 2025SOL    HW2 6975   6.967   1.539   1.730
 2026SOL     OW 6976   2.255   1.312   5.397
 2026SOL    HW1 6977   2.313   1.383   5.356
 2026SOL    HW2 6978   2.190   1.280   5.328
 2027SOL     OW 6979   1.045   1.192   2.390
 2027SOL    HW1 6980   0.945   1.194   2.395
 2027SOL    HW2 6981   1.082   1.166   2.480
 2028SOL     OW 6982   3.814   2.866   0.186
 2028SOL    HW1 6983   3.879   2.826   0.252
 2028SOL    HW2 6984   3.846   2.957   0.159
 2029SOL     OW 6985   0.791   1.128   6.700
 2029SOL    HW1 6986   0.746   1.114   6.612
 2029SOL    HW2 6987   0.816   1.224   6.709
 2030SOL     OW 6988   1.649   1.915   3.185
 2030SOL    HW1 6989   1.625   1.822   3.212
 2030SOL    HW2 6990   1.680   1.915   3.090
 2031SOL     OW 6991   5.640   6.712   1.883
 2031SOL    HW1 6992   5.687   6.659   1.812
 2031SOL    HW2 6993   5.605   6.649   1.953
 2032SOL     OW 6994   4.715   6.172   1.158
 2032SOL    HW1 6995   4.774   6.170   1.239
 2032SOL    HW2 6996   4.622   6.199   1.186
 2033SOL     OW 6997   5.360   4.756   6.647
 2033SOL    HW1 6998   5.282   4.818   6.653
 2033SOL    HW2 6999   5.328   4.662   6.645
 2034SOL     OW 7000   2.051   6.931   3.205
 2034SOL    HW1 7001   1.952   6.939   3.213
 2034SOL    HW2 7002   2.092   0.002   3.202
 2035SOL     OW 7003   0.400   2.194   2.711
 2035SOL    HW1 7004   0.379   2.102   2.746
 2035SOL    HW2 7005   0.415   2.256   2.787
 2036SOL     OW 7006   0.994   5.098   0.499
 2036SOL    HW1 7007   0.902   5.087   0.461
 2036SOL    HW2 7008   1.014   5.195   0.510
 2037SOL     OW 7009   6.960   1.680   5.688
 2037SOL    HW1 7010   6.950   1.606   5.755
 2037SOL    HW2 7011   0.020   1.664   5.632
 2038SOL     OW 7012   0.046   1.426   4.590
 2038SOL    HW1 7013   0.116   1.365   4.629
 2038SOL    HW2 7014   0.034   1.505   4.650
 2039SOL     OW 7015   0.118   5.889   2.977
 2039SOL    HW1 7016   0.020   5.876   2.992
 2039SOL    HW2 7017   0.147   5.840   2.895
 2040SOL     OW 7018   4.113   3.769   4.721
 2040SOL    HW1 7019   4.206   3.806   4.722
 2040SOL    HW2 7020   4.114   3.680   4.675
 2041SOL     OW 7021   5.851   4.618   5.315
 2041SOL    HW1 7022   5.847   4.710   5.275
 2041SOL    HW2 7023   5.944   4.583   5.306
 2042SOL     OW 7024   4.700   5.604   0.422
 2042SOL    HW1 7025   4.656   5.568   0.504
 2042SOL    HW2 7026   4.675   5.548   0.343
 2043SOL     OW 7027   5.586   4.465   2.141
 2043SOL    HW1 7028   5.596   4.368   2.162
 2043SOL    HW2 7029   5.659   4.493   2.079
 2044SOL     OW 7030   5.877   6.935   1.892
 2044SOL    HW1 7031   5.815   6.981   1.828
 2044SOL    HW2 7032   5.823   6.891   1.964
 2045SOL     OW 7033   2.129   4.762   5.806
 2045SOL    HW1 7034   2.182   4.733   5.726
 2045SOL    HW2 7035   2.108   4.683   5.863
 2046SOL     OW 7036   6.398   6.849   4.458
 2046SOL    HW1 7037   6.463   6.902   4.404
 2046SOL    HW2 7038   6.314   6.835   4.406
 2047SOL     OW 7039   5.049   2.489   0.613
 2047SOL    HW1 7040   5.073   2.519   0.521
 2047SOL    HW2 7041   4.952   2.466   0.616
 2048SOL     OW 7042   4.797   0.726   6.439
 2048SOL    HW1 7043   4.729   0.652   6.449
 2048SOL    HW2 7044   4.758   0.811   6.473
 2049SOL     OW 7045   4.276   1.116   0.269
 2049SOL    HW1 7046   4.319   1.196   0.310
 2049SOL    HW2 7047   4.344   1.043   0.259
 2050SOL     OW 7048   6.004   2.927   3.993
 2050SOL    HW1 7049   6.096   2.936   3.956
 2050SOL    HW2 7050   5.975   3.014   4.034
 2051SOL     OW 7051   1.644   6.044   0.515
 2051SOL    HW1 7052   1.660   6.036   0.417
 2051SOL    HW2 7053   1.545   6.044   0.533
 2052SOL     OW 7054   1.422   2.738   6.576
 2052SOL    HW1 7055   1.333   2.763   6.613
 2052SOL    HW2 7056   1.444   2.644   6.602
 2053SOL     OW 7057   6.321   0.423   0.252
 2053SOL    HW1 7058   6.308   0.336   0.299
 2053SOL    HW2 7059   6.356   0.407   0.160
 2054SOL     OW 7060   5.777   2.586   0.378
 2054SOL    HW1 7061   5.820   2.614   0.463
 2054SOL    HW2 7062   5.846   2.545   0.317
 2055SOL     OW 7063   5.283   2.771   3.613
 2055SOL    HW1 7064   5.356   2.783   3.681
 2055SOL    HW2 7065   5.284   2.848   3.549
 2056SOL     OW 7066   2.257   1.023   3.079
 2056SOL    HW1 7067   2.243   1.119   3.103
 2056SOL    HW2 7068   2.174   0.986   3.038
 2057SOL     OW 7069   6.686   2.867   4.099
 2057SOL    HW1 7070   6.624   2.942   4.122
 2057SOL    HW2 7071   6.632   2.786   4.074
 2058SOL     OW 7072   6.824   2.032   2.572
 2058SOL    HW1 7073   6.923   2.026   2.556
 2058SOL    HW2 7074   6.788   1.940   2.588
 2059SOL     OW 7075   2.151   1.103   0.076
 2059SOL    HW1 7076   2.070   1.071   0.027
 2059SOL    HW2 7077   2.231   1.050   0.046
 2060SOL     OW 7078   0.316   4.558   1.945
 2060SOL    HW1 7079   0.336   4.610   1.862
 2060SOL    HW2 7080   0.253   4.609   2.003
 2061SOL     OW 7081   6.912   1.470   2.316
 2061SOL    HW1 7082   6.866   1.382   2.307
 2061SOL    HW2 7083   6.969   1.486   2.235
 2062SOL     OW 7084   4.717   0.404   2.524
 2062SOL    HW1 7085   4.674   0.375   2.439
 2062SOL    HW2 7086   4.653   0.457   2.578
 2063SOL     OW 7087   1.643   3.047   6.435
 2063SOL    HW1 7088   1.723   3.089   6.479
 2063SOL    HW2 7089   1.668   2.956   6.402
 2064SOL     OW 7090   0.957   2.263   6.490
 2064SOL    HW1 7091   0.962   2.210   6.575
 2064SOL    HW2 7092   1.041   2.317   6.480
 2065SOL     OW 7093   6.200   3.799   1.985
 2065SOL    HW1 7094   6.202   3.751   1.898
 2065SOL    HW2 7095   6.293   3.823   2.013
 2066SOL     OW 7096   0.109   6.999   4.678
 2066SOL    HW1 7097   0.094   6.991   4.580
 2066SOL    HW2 7098   0.068   6.919   4.724
 2067SOL     OW 7099   6.533   6.602   0.980
 2067SOL    HW1 7100   6.591   6.535   1.026
 2067SOL    HW2 7101   6.438   6.571   0.981
 2068SOL     OW 7102   2.065   1.471   5.534
 2068SOL    HW1 7103   2.115   1.402   5.481
 2068SOL    HW2 7104   2.128   1.519   5.594
 2069SOL     OW 7105   1.444   2.272   2.285
 2069SOL    HW1 7106   1.464   2.282   2.383
 2069SOL    HW2 7107   1.522   2.304   2.232
 2070SOL     OW 7108   1.524   1.686   2.826
 2070SOL    HW1 7109   1.428   1.697   2.853
 2070SOL    HW2 7110   1.549   1.589   2.832
 2071SOL     OW 7111   0.626   0.312   4.186
 2071SOL    HW1 7112   0.699   0.250   4.216
 2071SOL    HW2 7113   0.665   0.386   4.131
 2072SOL     OW 7114   4.795   6.127   1.712
 2072SOL    HW1 7115   4.892   6.102   1.719
 2072SOL    HW2 7116   4.738   6.051   1.742
 2073SOL     OW 7117   3.304   6.687   5.796
 2073SOL    HW1 7118   3.338   6.688   5.889
 2073SOL    HW2 7119   3.233   6.756   5.786
 2074SOL     OW 7120   6.610   1.626   1.369
 2074SOL    HW1 7121   6.645   1.533   1.374
 2074SOL    HW2 7122   6.666   1.686   1.426
 2075SOL     OW 7123   4.413   3.062   0.006
 2075SOL    HW1 7124   4.450   3.153   7.007
 2075SOL    HW2 7125   4.337   3.069   0.071
 2076SOL     OW 7126   4.866   6.131   0.695
 2076SOL    HW1 7127   4.953   6.164   0.657
 2076SOL    HW2 7128   4.836   6.191   0.769
 2077SOL     OW 7129   5.812   1.653   2.583
 2077SOL    HW1 7130   5.865   1.705   2.649
 2077SOL    HW2 7131   5.818   1.555   2.604
 2078SOL     OW 7132   3.209   4.999   6.782
 2078SOL    HW1 7133   3.250   4.984   6.691
 2078SOL    HW2 7134   3.117   4.960   6.783
 2079SOL     OW 7135   6.033   1.134   3.583
 2079SOL    HW1 7136   6.110   1.074   3.564
 2079SOL    HW2 7137   6.029   1.155   3.680
 2080SOL     OW 7138   2.692   2.341   4.974
 2080SOL    HW1 7139   2.617   2.398   5.008
 2080SOL    HW2 7140   2.705   2.358   4.876
 2081SOL     OW 7141   0.977   6.371   4.942
 2081SOL    HW1 7142   1.032   6.445   4.981
 2081SOL    HW2 7143   0.934   6.318   5.016
 2082SOL     OW 7144   5.868   0.940   0.668
 2082SOL    HW1 7145   5.942   1.001   0.697
 2082SOL    HW2 7146   5.885   0.848   0.706
 2083SOL     OW 7147   3.683   4.757   6.534
 2083SOL    HW1 7148   3.629   4.838   6.514
 2083SOL    HW2 7149   3.690   4.701   6.451
 2084SOL     OW 7150   6.916   2.455   3.199
 2084SOL    HW1 7151   6.873   2.416   3.117
 2084SOL    HW2 7152   7.001   2.406   3.218
 2085SOL     OW 7153   4.511   0.436   5.916
 2085SOL    HW1 7154   4.578   0.416   5.846
 2085SOL    HW2 7155   4.508   0.360   5.982
 2086SOL     OW 7156   2.730   4.786   0.332
 2086SOL    HW1 7157   2.716   4.884   0.314
 2086SOL    HW2 7158   2.808   4.775   0.394
 2087SOL     OW 7159   5.806   6.877   2.705
 2087SOL    HW1 7160   5.903   6.881   2.725
 2087SOL    HW2 7161   5.760   6.822   2.775
 2088SOL     OW 7162   3.625   6.263   0.882
 2088SOL    HW1 7163   3.702   6.315   0.919
 2088SOL    HW2 7164   3.658   6.199   0.812
 2089SOL     OW 7165   5.356   1.572   0.026
 2089SOL    HW1 7166   5.415   1.537   0.099
 2089SOL    HW2 7167   5.374   1.669   0.012
 2090SOL     OW 7168   3.737   3.683   4.806
 2090SOL    HW1 7169   3.757   3.685   4.708
 2090SOL    HW2 7170   3.805   3.626   4.853
 2091SOL     OW 7171   0.955   5.573   0.791
 2091SOL    HW1 7172   1.006   5.521   0.723
 2091SOL    HW2 7173   0.883   5.626   0.746
 2092SOL     OW 7174   6.581   6.148   1.256
 2092SOL    HW1 7175   6.515   6.166   1.329
 2092SOL    HW2 7176   6.546   6.186   1.170
 2093SOL     OW 7177   1.131   2.903   1.534
 2093SOL    HW1 7178   1.033   2.920   1.519
 2093SOL    HW2 7179   1.184   2.944   1.460
 2094SOL     OW 7180   5.836   6.758   2.298
 2094SOL    HW1 7181   5.926   6.802   2.302
 2094SOL    HW2 7182   5.812   6.723   2.389
 2095SOL     OW 7183   5.942   6.063   4.596
 2095SOL    HW1 7184   5.870   6.023   4.652
 2095SOL    HW2 7185   6.023   6.078   4.652
 2096SOL     OW 7186   4.820   3.960   2.575
 2096SOL    HW1 7187   4.744   4.009   2.617
 2096SOL    HW2 7188   4.828   3.988   2.479
 2097SOL     OW 7189   0.082   2.701   6.912
 2097SOL    HW1 7190   0.071   2.659   6.822
 2097SOL    HW2 7191   0.032   2.646   6.980
 2098SOL     OW 7192   4.221   0.104   3.758
 2098SOL    HW1 7193   4.181   0.027   3.708
 2098SOL    HW2 7194   4.150   0.172   3.777
 2099SOL     OW 7195   2.567   0.926   4.765
 2099SOL    HW1 7196   2.488   0.867   4.783
 2099SOL    HW2 7197   2.538   1.021   4.765
 2100SOL     OW 7198   4.338   4.190   6.862
 2100SOL    HW1 7199   4.309   4.176   6.767
 2100SOL    HW2 7200   4.390   4.275   6.869
 2101SOL     OW 7201   0.554   0.276   3.201
 2101SOL    HW1 7202   0.490   0.224   3.256
 2101SOL    HW2 7203   0.559   0.370   3.235
 2102SOL     OW 7204   0.034   5.462   2.775
 2102SOL    HW1 7205   0.040   5.480   2.677
 2102SOL    HW2 7206   0.125   5.441   2.811
 2103SOL     OW 7207   3.435   3.318   6.886
 2103SOL    HW1 7208   3.498   3.347   6.958
 2103SOL    HW2 7209   3.353   3.279   6.928
 2104SOL     OW 7210   1.669   3.488   5.596
 2104SOL    HW1 7211   1.729   3.453   5.668
 2104SOL    HW2 7212   1.584   3.523   5.637
 2105SOL     OW 7213   5.437   5.167   3.067
 2105SOL    HW1 7214   5.534   5.146   3.057
 2105SOL    HW2 7215   5.416   5.251   3.015
 2106SOL     OW 7216   4.742   5.756   6.387
 2106SOL    HW1 7217   4.828   5.795   6.354
 2106SOL    HW2 7218   4.667   5.788   6.328
 2107SOL     OW 7219   3.810   4.250   5.394
 2107SOL    HW1 7220   3.736   4.246   5.327
 2107SOL    HW2 7221   3.883   4.187   5.366
 2108SOL     OW 7222   6.005   5.410   6.050
 2108SOL    HW1 7223   5.921   5.416   5.996
 2108SOL    HW2 7224   6.028   5.501   6.085
 2109SOL     OW 7225   5.755   5.945   3.063
 2109SOL    HW1 7226   5.800   6.008   3.127
 2109SOL    HW2 7227   5.738   5.993   2.977
 2110SOL     OW 7228   2.632   4.326   6.418
 2110SOL    HW1 7229   2.651   4.346   6.322
 2110SOL    HW2 7230   2.670   4.236   6.442
 2111SOL     OW 7231   1.256   2.669   6.068
 2111SOL    HW1 7232   1.350   2.641   6.086
 2111SOL    HW2 7233   1.243   2.682   5.969
 2112SOL     OW 7234   4.471   2.345   1.191
 2112SOL    HW1 7235   4.400   2.278   1.214
 2112SOL    HW2 7236   4.507   2.385   1.275
 2113SOL     OW 7237   1.314   0.713   2.599
 2113SOL    HW1 7238   1.261   0.737   2.681
 2113SOL    HW2 7239   1.399   0.669   2.626
 2114SOL     OW 7240   1.319   4.455   0.324
 2114SOL    HW1 7241   1.241   4.412   0.370
 2114SOL    HW2 7242   1.394   4.390   0.317
 2115SOL     OW 7243   1.940   4.979   2.381
 2115SOL    HW1 7244   1.987   5.046   2.324
 2115SOL    HW2 7245   1.888   4.916   2.323
 2116SOL     OW 7246   0.399   3.600   3.254
 2116SOL    HW1 7247   0.310   3.555   3.243
 2116SOL    HW2 7248   0.400   3.650   3.341
 2117SOL     OW 7249   0.557   4.650   1.512
 2117SOL    HW1 7250   0.636   4.589   1.514
 2117SOL    HW2 7251   0.587   4.742   1.487
 2118SOL     OW 7252   0.168   3.672   2.486
 2118SOL    HW1 7253   0.189   3.769   2.486
 2118SOL    HW2 7254   0.161   3.639   2.580
 2119SOL     OW 7255   2.425   6.027   1.179
 2119SOL    HW1 7256   2.442   5.968   1.258
 2119SOL    HW2 7257   2.328   6.052   1.176
 2120SOL     OW 7258   6.619   4.731   1.544
 2120SOL    HW1 7259   6.534   4.717   1.493
 2120SOL    HW2 7260   6.672   4.804   1.500
 2121SOL     OW 7261   0.276   5.149   5.101
 2121SOL    HW1 7262   0.318   5.096   5.027
 2121SOL    HW2 7263   0.347   5.186   5.160
 2122SOL     OW 7264   5.079   4.842   4.736
 2122SOL    HW1 7265   5.080   4.813   4.832
 2122SOL    HW2 7266   5.022   4.778   4.683
 2123SOL     OW 7267   6.892   4.721   2.456
 2123SOL    HW1 7268   6.906   4.717   2.555
 2123SOL    HW2 7269   6.955   4.787   2.416
 2124SOL     OW 7270   2.407   1.889   1.553
 2124SOL    HW1 7271   2.335   1.881   1.484
 2124SOL    HW2 7272   2.482   1.828   1.529
 2125SOL     OW 7273   2.804   0.568   0.287
 2125SOL    HW1 7274   2.791   0.594   0.383
 2125SOL    HW2 7275   2.824   0.470   0.281
 2126SOL     OW 7276   2.879   0.988   6.687
 2126SOL    HW1 7277   2.916   0.900   6.656
 2126SOL    HW2 7278   2.952   1.043   6.728
 2127SOL     OW 7279   5.793   3.007   4.670
 2127SOL    HW1 7280   5.788   2.993   4.769
 2127SOL    HW2 7281   5.820   2.922   4.625
 2128SOL     OW 7282   0.577   4.304   5.060
 2128SOL    HW1 7283   0.651   4.351   5.012
 2128SOL    HW2 7284   0.601   4.208   5.074
 2129SOL     OW 7285   4.742   3.087   5.325
 2129SOL    HW1 7286   4.652   3.054   5.352
 2129SOL    HW2 7287   4.744   3.187   5.332
 2130SOL     OW 7288   4.707   6.908   2.655
 2130SOL    HW1 7289   4.763   6.963   2.593
 2130SOL    HW2 7290   4.653   6.968   2.713
 2131SOL     OW 7291   0.162   0.640   0.680
 2131SOL    HW1 7292   0.076   0.689   0.663
 2131SOL    HW2 7293   0.236   0.683   0.629
 2132SOL     OW 7294   2.801   2.864   0.890
 2132SOL    HW1 7295   2.836   2.772   0.872
 2132SOL    HW2 7296   2.878   2.925   0.911
 2133SOL     OW 7297   3.245   2.547   6.215
 2133SOL    HW1 7298   3.306   2.598   6.276
 2133SOL    HW2 7299   3.297   2.510   6.139
 2134SOL     OW 7300   0.074   1.514   1.105
 2134SOL    HW1 7301   0.060   1.477   1.013
 2134SOL    HW2 7302   0.157   1.570   1.106
 2135SOL     OW 7303   0.990   4.016   4.622
 2135SOL    HW1 7304   0.911   3.976   4.576
 2135SOL    HW2 7305   0.976   4.013   4.721
 2136SOL     OW 7306   2.177   5.506   1.787
 2136SOL    HW1 7307   2.243   5.582   1.785
 2136SOL    HW2 7308   2.136   5.501   1.878
 2137SOL     OW 7309   3.283   5.295   4.876
 2137SOL    HW1 7310   3.218   5.371   4.888
 2137SOL    HW2 7311   3.238   5.221   4.827
 2138SOL     OW 7312   6.110   1.479   2.701
 2138SOL    HW1 7313   6.118   1.576   2.722
 2138SOL    HW2 7314   6.014   1.457   2.681
 2139SOL     OW 7315   3.596   0.599   5.205
 2139SOL    HW1 7316   3.529   0.620   5.277
 2139SOL    HW2 7317   3.563   0.520   5.152
 2140SOL     OW 7318   2.682   1.217   4.925
 2140SOL    HW1 7319   2.714   1.128   4.959
 2140SOL    HW2 7320   2.760   1.269   4.891
 2141SOL     OW 7321   6.112   4.682   2.197
 2141SOL    HW1 7322   6.135   4.731   2.113
 2141SOL    HW2 7323   6.160   4.724   2.274
 2142SOL     OW 7324   1.760   2.440   3.446
 2142SOL    HW1 7325   1.823   2.512   3.415
 2142SOL    HW2 7326   1.683   2.434   3.383
 2143SOL     OW 7327   2.555   4.847   0.789
 2143SOL    HW1 7328   2.469   4.796   0.791
 2143SOL    HW2 7329   2.578   4.877   0.882
 2144SOL     OW 7330   6.651   5.754   3.966
 2144SOL    HW1 7331   6.651   5.763   3.867
 2144SOL    HW2 7332   6.684   5.663   3.991
 2145SOL     OW 7333   4.269   6.779   4.113
 2145SOL    HW1 7334   4.282   6.844   4.038
 2145SOL    HW2 7335   4.178   6.791   4.152
 2146SOL     OW 7336   2.341   2.766   1.065
 2146SOL    HW1 7337   2.294   2.813   1.140
 2146SOL    HW2 7338   2.402   2.830   1.019
 2147SOL     OW 7339   6.650   0.940   5.487
 2147SOL    HW1 7340   6.581   1.013   5.486
 2147SOL    HW2 7341   6.734   0.975   5.446
 2148SOL     OW 7342   0.178   3.430   6.657
 2148SOL    HW1 7343   0.123   3.351   6.630
 2148SOL    HW2 7344   0.252   3.443   6.591
 2149SOL     OW 7345   0.762   0.265   6.569
 2149SOL    HW1 7346   0.812   0.352   6.563
 2149SOL    HW2 7347   0.823   0.195   6.606
 2150SOL     OW 7348   2.515   2.893   1.707
 2150SOL    HW1 7349   2.423   2.931   1.717
 2150SOL    HW2 7350   2.535   2.832   1.784
 2151SOL     OW 7351   1.388   6.092   6.899
 2151SOL    HW1 7352   1.382   5.993   6.890
 2151SOL    HW2 7353   1.453   6.128   6.831
 2152SOL     OW 7354   4.147   6.372   2.619
 2152SOL    HW1 7355   4.143   6.452   2.679
 2152SOL    HW2 7356   4.192   6.297   2.667
 2153SOL     OW 7357   4.876   1.335   2.753
 2153SOL    HW1 7358   4.793   1.369   2.708
 2153SOL    HW2 7359   4.854   1.310   2.847
 2154SOL     OW 7360   3.245   6.275   3.542
 2154SOL    HW1 7361   3.341   6.297   3.561
 2154SOL    HW2 7362   3.229   6.179   3.563
 2155SOL     OW 7363   4.446   6.402   0.511
 2155SOL    HW1 7364   4.405   6.450   0.433
 2155SOL    HW2 7365   4.430   6.455   0.594
 2156SOL     OW 7366   5.349   1.465   4.325
 2156SOL    HW1 7367   5.268   1.454   4.269
 2156SOL    HW2 7368   5.335   1.540   4.390
 2157SOL     OW 7369   4.096   5.177   3.794
 2157SOL    HW1 7370   4.113   5.272   3.820
 2157SOL    HW2 7371   4.075   5.123   3.876
 2158SOL     OW 7372   3.257   0.425   0.651
 2158SOL    HW1 7373   3.300   0.341   0.618
 2158SOL    HW2 7374   3.301   0.454   0.736
 2159SOL     OW 7375   1.015   0.268   6.007
 2159SOL    HW1 7376   1.017   0.271   5.907
 2159SOL    HW2 7377   1.058   0.351   6.044
 2160SOL     OW 7378   5.134   6.101   0.340
 2160SOL    HW1 7379   5.093   6.190   0.360
 2160SOL    HW2 7380   5.158   6.097   0.242
 2161SOL     OW 7381   1.226   3.746   2.426
 2161SOL    HW1 7382   1.138   3.793   2.425
 2161SOL    HW2 7383   1.300   3.812   2.441
 2162SOL     OW 7384   1.695   6.825   2.965
 2162SOL    HW1 7385   1.602   6.797   2.940
 2162SOL    HW2 7386   1.720   6.782   3.052
 2163SOL     OW 7387   1.340   3.013   1.320
 2163SOL    HW1 7388   1.280   2.989   1.243
 2163SOL    HW2 7389   1.426   3.048   1.284
 2164SOL     OW 7390   2.029   2.981   1.526
 2164SOL    HW1 7391   2.066   3.049   1.462
 2164SOL    HW2 7392   2.039   2.890   1.487
 2165SOL     OW 7393   0.146   1.876   3.791
 2165SOL    HW1 7394   0.170   1.857   3.886
 2165SOL    HW2 7395   0.127   1.974   3.780
 2166SOL     OW 7396   0.485   4.552   3.551
 2166SOL    HW1 7397   0.444   4.598   3.631
 2166SOL    HW2 7398   0.461   4.455   3.552
 2167SOL     OW 7399   1.974   2.378   3.943
 2167SOL    HW1 7400   1.994   2.324   4.024
 2167SOL    HW2 7401   1.899   2.334   3.892
 2168SOL     OW 7402   1.407   2.026   3.189
 2168SOL    HW1 7403   1.395   2.125   3.199
 2168SOL    HW2 7404   1.501   2.001   3.211
 2169SOL     OW 7405   0.385   0.687   1.617
 2169SOL    HW1 7406   0.317   0.616   1.601
 2169SOL    HW2 7407   0.476   0.650   1.603
 2170SOL     OW 7408   0.898   3.777   5.635
 2170SOL    HW1 7409   0.841   3.812   5.710
 2170SOL    HW2 7410   0.900   3.844   5.561
 2171SOL     OW 7411   0.259   5.177   1.207
 2171SOL    HW1 7412   0.286   5.268   1.241
 2171SOL    HW2 7413   0.217   5.186   1.117
 2172SOL     OW 7414   6.856   1.837   4.571
 2172SOL    HW1 7415   6.790   1.883   4.631
 2172SOL    HW2 7416   6.808   1.771   4.513
 2173SOL     OW 7417   5.663   0.341   4.740
 2173SOL    HW1 7418   5.679   0.250   4.779
 2173SOL    HW2 7419   5.740   0.400   4.763
 2174SOL     OW 7420   0.114   5.830   4.955
 2174SOL    HW1 7421   0.148   5.923   4.969
 2174SOL    HW2 7422   0.031   5.832   4.899
 2175SOL     OW 7423   3.236   2.998   5.699
 2175SOL    HW1 7424   3.284   3.075   5.741
 2175SOL    HW2 7425   3.302   2.937   5.655
 2176SOL     OW 7426   5.456   2.689   0.999
 2176SOL    HW1 7427   5.384   2.647   1.054
 2176SOL    HW2 7428   5.486   2.774   1.042
 2177SOL     OW 7429   0.111   0.762   3.363
 2177SOL    HW1 7430   0.093   0.789   3.458
 2177SOL    HW2 7431   0.078   0.669   3.348
 2178SOL     OW 7432   0.737   1.602   2.313
 2178SOL    HW1 7433   0.727   1.664   2.391
 2178SOL    HW2 7434   0.829   1.611   2.275
 2179SOL     OW 7435   1.976   4.362   6.780
 2179SOL    HW1 7436   1.918   4.293   6.824
 2179SOL    HW2 7437   2.072   4.342   6.798
 2180SOL     OW 7438   1.120   4.589   2.042
 2180SOL    HW1 7439   1.213   4.572   2.008
 2180SOL    HW2 7440   1.094   4.515   2.105
 2181SOL     OW 7441   4.672   4.797   4.029
 2181SOL    HW1 7442   4.713   4.730   3.968
 2181SOL    HW2 7443   4.573   4.793   4.021
 2182SOL     OW 7444   0.656   5.413   3.333
 2182SOL    HW1 7445   0.727   5.343   3.328
 2182SOL    HW2 7446   0.685   5.494   3.282
 2183SOL     OW 7447   3.392   3.130   0.188
 2183SOL    HW1 7448   3.392   3.051   0.128
 2183SOL    HW2 7449   3.372   3.101   0.282
 2184SOL     OW 7450   6.541   0.119   0.280
 2184SOL    HW1 7451   6.601   0.110   0.360
 2184SOL    HW2 7452   6.447   0.098   0.307
 2185SOL     OW 7453   0.666   1.571   6.848
 2185SOL    HW1 7454   0.719   1.579   6.933
 2185SOL    HW2 7455   0.631   1.661   6.822
 2186SOL     OW 7456   6.803   5.429   4.654
 2186SOL    HW1 7457   6.736   5.434   4.580
 2186SOL    HW2 7458   6.889   5.471   4.624
 2187SOL     OW 7459   0.653   5.477   2.765
 2187SOL    HW1 7460   0.572   5.519   2.806
 2187SOL    HW2 7461   0.702   5.546   2.712
 2188SOL     OW 7462   1.932   6.723   0.391
 2188SOL    HW1 7463   1.951   6.815   0.355
 2188SOL    HW2 7464   2.017   6.671   0.395
 2189SOL     OW 7465   2.216   1.472   2.113
 2189SOL    HW1 7466   2.129   1.506   2.079
 2189SOL    HW2 7467   2.241   1.521   2.197
 2190SOL     OW 7468   6.768   4.286   2.414
 2190SOL    HW1 7469   6.734   4.379   2.402
 2190SOL    HW2 7470   6.815   4.256   2.331
 2191SOL     OW 7471   2.007   0.902   6.074
 2191SOL    HW1 7472   1.976   0.815   6.037
 2191SOL    HW2 7473   1.990   0.905   6.172
 2192SOL     OW 7474   4.979   0.835   2.089
 2192SOL    HW1 7475   5.068   0.814   2.130
 2192SOL    HW2 7476   4.921   0.880   2.157
 2193SOL     OW 7477   6.924   6.749   6.196
 2193SOL    HW1 7478   6.977   6.752   6.281
 2193SOL    HW2 7479   6.957   6.820   6.134
 2194SOL     OW 7480   0.934   4.380   5.587
 2194SOL    HW1 7481   0.931   4.341   5.495
 2194SOL    HW2 7482   0.920   4.307   5.654
 2195SOL     OW 7483   0.779   4.305   6.444
 2195SOL    HW1 7484   0.723   4.314   6.361
 2195SOL    HW2 7485   0.854   4.370   6.442
 2196SOL     OW 7486   2.459   6.102   5.703
 2196SOL    HW1 7487   2.442   6.048   5.621
 2196SOL    HW2 7488   2.508   6.047   5.770
 2197SOL     OW 7489   2.942   3.942   5.493
 2197SOL    HW1 7490   3.030   3.908   5.527
 2197SOL    HW2 7491   2.886   3.864   5.465
 2198SOL     OW 7492   0.565   6.893   6.370
 2198SOL    HW1 7493   0.627   6.871   6.445
 2198SOL    HW2 7494   0.593   6.980   6.328
 2199SOL     OW 7495   4.883   6.724   4.309
 2199SOL    HW1 7496   4.792   6.683   4.316
 2199SOL    HW2 7497   4.877   6.809   4.257
 2200SOL     OW 7498   2.812   0.951   4.533
 2200SOL    HW1 7499   2.755   0.970   4.452
 2200SOL    HW2 7500   2.776   0.872   4.581
 2201SOL     OW 7501   6.721   2.620   3.413
 2201SOL    HW1 7502   6.697   2.672   3.330
 2201SOL    HW2 7503   6.818   2.634   3.433
 2202SOL     OW 7504   3.518   5.034   2.358
 2202SOL    HW1 7505   3.419   5.027   2.347
 2202SOL    HW2 7506   3.545   4.992   2.445
 2203SOL     OW 7507   2.288   3.786   1.201
 2203SOL    HW1 7508   2.370   3.743   1.237
 2203SOL    HW2 7509   2.246   3.726   1.133
 2204SOL     OW 7510   4.523   2.997   0.904
 2204SOL    HW1 7511   4.477   2.910   0.887
 2204SOL    HW2 7512   4.562   3.031   0.819
 2205SOL     OW 7513   1.235   6.423   0.525
 2205SOL    HW1 7514   1.159   6.409   0.460
 2205SOL    HW2 7515   1.215   6.377   0.611
 2206SOL     OW 7516   2.221   3.229   6.351
 2206SOL    HW1 7517   2.184   3.259   6.439
 2206SOL    HW2 7518   2.208   3.131   6.341
 2207SOL     OW 7519   4.495   5.643   0.872
 2207SOL    HW1 7520   4.460   5.682   0.957
 2207SOL    HW2 7521   4.595   5.640   0.874
 2208SOL     OW 7522   0.923   5.677   3.850
 2208SOL    HW1 7523   1.013   5.648   3.882
 2208SOL    HW2 7524   0.916   5.662   3.752
 2209SOL     OW 7525   2.751   5.418   5.251
 2209SOL    HW1 7526   2.676   5.443   5.190
 2209SOL    HW2 7527   2.831   5.475   5.229
 2210SOL     OW 7528   5.875   6.009   1.251
 2210SOL    HW1 7529   5.958   5.954   1.252
 2210SOL    HW2 7530   5.828   6.000   1.339
 2211SOL     OW 7531   5.900   0.343   0.951
 2211SOL    HW1 7532   5.911   0.248   0.922
 2211SOL    HW2 7533   5.835   0.389   0.891
 2212SOL     OW 7534   2.520   6.085   6.565
 2212SOL    HW1 7535   2.490   6.176   6.594
 2212SOL    HW2 7536   2.474   6.016   6.620
 2213SOL     OW 7537   4.483   2.518   4.171
 2213SOL    HW1 7538   4.462   2.584   4.244
 2213SOL    HW2 7539   4.511   2.567   4.089
 2214SOL     OW 7540   4.313   2.849   5.822
 2214SOL    HW1 7541   4.253   2.882   5.750
 2214SOL    HW2 7542   4.391   2.911   5.831
 2215SOL     OW 7543   5.321   1.080   6.592
 2215SOL    HW1 7544   5.404   1.069   6.646
 2215SOL    HW2 7545   5.263   1.149   6.635
 2216SOL     OW 7546   0.841   5.574   6.592
 2216SOL    HW1 7547   0.791   5.551   6.508
 2216SOL    HW2 7548   0.939   5.578   6.571
 2217SOL     OW 7549   4.233   1.068   2.949
 2217SOL    HW1 7550   4.305   1.137   2.938
 2217SOL    HW2 7551   4.197   1.072   3.043
 2218SOL     OW 7552   0.479   5.037   6.610
 2218SOL    HW1 7553   0.466   4.959   6.671
 2218SOL    HW2 7554   0.452   5.122   6.657
 2219SOL     OW 7555   5.702   1.188   0.683
 2219SOL    HW1 7556   5.710   1.197   0.782
 2219SOL    HW2 7557   5.740   1.100   0.654
 2220SOL     OW 7558   1.622   6.471   5.502
 2220SOL    HW1 7559   1.579   6.386   5.532
 2220SOL    HW2 7560   1.712   6.480   5.546
 2221SOL     OW 7561   6.622   1.330   4.594
 2221SOL    HW1 7562   6.562   1.407   4.574
 2221SOL    HW2 7563   6.572   1.244   4.580
 2222SOL     OW 7564   6.050   6.768   0.559
 2222SOL    HW1 7565   6.031   6.862   0.530
 2222SOL    HW2 7566   6.148   6.758   0.574
 2223SOL     OW 7567   6.643   0.581   5.666
 2223SOL    HW1 7568   6.567   0.557   5.727
 2223SOL    HW2 7569   6.683   0.668   5.696
 2224SOL     OW 7570   5.915   4.262   1.887
 2224SOL    HW1 7571   5.972   4.341   1.867
 2224SOL    HW2 7572   5.847   4.250   1.815
 2225SOL     OW 7573   0.665   6.482   3.841
 2225SOL    HW1 7574   0.761   6.454   3.827
 2225SOL    HW2 7575   0.656   6.579   3.822
 2226SOL     OW 7576   3.306   5.116   0.760
 2226SOL    HW1 7577   3.301   5.189   0.828
 2226SOL    HW2 7578   3.311   5.155   0.668
 2227SOL     OW 7579   4.242   2.447   1.553
 2227SOL    HW1 7580   4.212   2.352   1.552
 2227SOL    HW2 7581   4.244   2.483   1.460
 2228SOL     OW 7582   4.564   5.472   0.212
 2228SOL    HW1 7583   4.486   5.498   0.154
 2228SOL    HW2 7584   4.530   5.427   0.295
 2229SOL     OW 7585   3.187   3.573   4.664
 2229SOL    HW1 7586   3.166   3.493   4.720
 2229SOL    HW2 7587   3.271   3.557   4.613
 2230SOL     OW 7588   5.128   6.247   1.045
 2230SOL    HW1 7589   5.182   6.293   0.975
 2230SOL    HW2 7590   5.057   6.309   1.079
 2231SOL     OW 7591   0.266   0.928   6.630
 2231SOL    HW1 7592   0.189   0.864   6.621
 2231SOL    HW2 7593   0.263   0.972   6.719
 2232SOL     OW 7594   1.136   0.730   5.485
 2232SOL    HW1 7595   1.158   0.681   5.401
 2232SOL    HW2 7596   1.053   0.783   5.472
 2233SOL     OW 7597   3.261   3.709   0.911
 2233SOL    HW1 7598   3.350   3.664   0.907
 2233SOL    HW2 7599   3.197   3.662   0.850
 2234SOL     OW 7600   3.814   1.800   0.886
 2234SOL    HW1 7601   3.841   1.803   0.789
 2234SOL    HW2 7602   3.894   1.779   0.942
 2235SOL     OW 7603   2.687   0.607   2.728
 2235SOL    HW1 7604   2.660   0.681   2.666
 2235SOL    HW2 7605   2.664   0.631   2.822
 2236SOL     OW 7606   1.892   3.999   6.061
 2236SOL    HW1 7607   1.885   3.979   5.963
 2236SOL    HW2 7608   1.823   3.946   6.110
 2237SOL     OW 7609   6.083   5.328   5.165
 2237SOL    HW1 7610   6.138   5.306   5.085
 2237SOL    HW2 7611   6.143   5.355   5.240
 2238SOL     OW 7612   4.495   4.838   2.681
 2238SOL    HW1 7613   4.504   4.836   2.781
 2238SOL    HW2 7614   4.416   4.784   2.654
 2239SOL     OW 7615   3.616   6.146   4.060
 2239SOL    HW1 7616   3.558   6.227   4.056
 2239SOL    HW2 7617   3.583   6.078   3.994
 2240SOL     OW 7618   3.921   5.635   2.484
 2240SOL    HW1 7619   3.850   5.702   2.461
 2240SOL    HW2 7620   3.884   5.543   2.473
 2241SOL     OW 7621   6.815   6.743   1.860
 2241SOL    HW1 7622   6.723   6.706   1.849
 2241SOL    HW2 7623   6.877   6.702   1.792
 2242SOL     OW 7624   5.285   3.412   2.926
 2242SOL    HW1 7625   5.246   3.326   2.959
 2242SOL    HW2 7626   5.248   3.432   2.835
 2243SOL     OW 7627   2.562   6.251   0.024
 2243SOL    HW1 7628   2.481   6.196   0.001
 2243SOL    HW2 7629   2.622   6.257   6.964
 2244SOL     OW 7630   2.870   0.524   1.273
 2244SOL    HW1 7631   2.866   0.470   1.357
 2244SOL    HW2 7632   2.830   0.472   1.198
 2245SOL     OW 7633   0.646   1.421   0.725
 2245SOL    HW1 7634   0.724   1.456   0.674
 2245SOL    HW2 7635   0.561   1.458   0.687
 2246SOL     OW 7636   2.215   0.664   4.324
 2246SOL    HW1 7637   2.202   0.749   4.376
 2246SOL    HW2 7638   2.247   0.687   4.232
 2247SOL     OW 7639   3.294   4.068   2.498
 2247SOL    HW1 7640   3.307   4.082   2.400
 2247SOL    HW2 7641   3.222   4.001   2.513
 2248SOL     OW 7642   6.274   4.403   4.435
 2248SOL    HW1 7643   6.227   4.316   4.426
 2248SOL    HW2 7644   6.361   4.390   4.482
 2249SOL     OW 7645   3.100   6.492   3.490
 2249SOL    HW1 7646   3.147   6.574   3.525
 2249SOL    HW2 7647   3.159   6.412   3.504
 2250SOL     OW 7648   3.517   4.017   5.590
 2250SOL    HW1 7649   3.585   3.965   5.538
 2250SOL    HW2 7650   3.459   4.069   5.527
 2251SOL     OW 7651   5.221   6.470   6.291
 2251SOL    HW1 7652   5.188   6.419   6.211
 2251SOL    HW2 7653   5.157   6.544   6.312
 2252SOL     OW 7654   5.725   1.645   2.998
 2252SOL    HW1 7655   5.817   1.675   3.023
 2252SOL    HW2 7656   5.710   1.665   2.901
 2253SOL     OW 7657   0.855   3.137   0.240
 2253SOL    HW1 7658   0.907   3.206   0.291
 2253SOL    HW2 7659   0.903   3.049   0.245
 2254SOL     OW 7660   3.437   4.152   2.716
 2254SOL    HW1 7661   3.368   4.133   2.646
 2254SOL    HW2 7662   3.520   4.187   2.673
 2255SOL     OW 7663   2.875   4.074   5.252
 2255SOL    HW1 7664   2.917   4.019   5.179
 2255SOL    HW2 7665   2.890   4.030   5.340
 2256SOL     OW 7666   4.625   6.304   2.368
 2256SOL    HW1 7667   4.611   6.348   2.280
 2256SOL    HW2 7668   4.698   6.351   2.418
 2257SOL     OW 7669   0.632   1.830   4.424
 2257SOL    HW1 7670   0.607   1.908   4.367
 2257SOL    HW2 7671   0.710   1.783   4.383
 2258SOL     OW 7672   2.155   6.531   4.949
 2258SOL    HW1 7673   2.247   6.491   4.952
 2258SOL    HW2 7674   2.161   6.624   4.913
 2259SOL     OW 7675   6.169   2.474   4.583
 2259SOL    HW1 7676   6.231   2.464   4.661
 2259SOL    HW2 7677   6.184   2.562   4.539
 2260SOL     OW 7678   1.322   3.405   1.261
 2260SOL    HW1 7679   1.252   3.377   1.195
 2260SOL    HW2 7680   1.294   3.490   1.305
 2261SOL     OW 7681   6.582   4.012   0.754
 2261SOL    HW1 7682   6.497   4.065   0.760
 2261SOL    HW2 7683   6.600   3.988   0.659
 2262SOL     OW 7684   6.508   0.589   3.562
 2262SOL    HW1 7685   6.418   0.597   3.520
 2262SOL    HW2 7686   6.505   0.626   3.655
 2263SOL     OW 7687   1.175   5.545   0.562
 2263SOL    HW1 7688   1.218   5.464   0.521
 2263SOL    HW2 7689   1.219   5.566   0.649
 2264SOL     OW 7690   2.936   6.839   6.938
 2264SOL    HW1 7691   3.002   6.789   6.882
 2264SOL    HW2 7692   2.958   6.937   6.934
 2265SOL     OW 7693   1.722   0.446   4.116
 2265SOL    HW1 7694   1.781   0.510   4.067
 2265SOL    HW2 7695   1.657   0.405   4.052
 2266SOL     OW 7696   5.498   1.148   6.111
 2266SOL    HW1 7697   5.422   1.152   6.176
 2266SOL    HW2 7698   5.525   1.240   6.085
 2267SOL     OW 7699   4.531   2.614   4.931
 2267SOL    HW1 7700   4.585   2.689   4.893
 2267SOL    HW2 7701   4.473   2.648   5.004
 2268SOL     OW 7702   5.825   3.980   6.668
 2268SOL    HW1 7703   5.860   3.936   6.751
 2268SOL    HW2 7704   5.801   3.909   6.601
 2269SOL     OW 7705   0.108   3.095   5.561
 2269SOL    HW1 7706   0.068   3.009   5.528
 2269SOL    HW2 7707   0.205   3.096   5.537
 2270SOL     OW 7708   4.382   3.177   6.045
 2270SOL    HW1 7709   4.430   3.263   6.029
 2270SOL    HW2 7710   4.290   3.196   6.080
 2271SOL     OW 7711   5.548   4.337   0.367
 2271SOL    HW1 7712   5.459   4.353   0.408
 2271SOL    HW2 7713   5.590   4.424   0.342
 2272SOL     OW 7714   6.691   1.411   6.758
 2272SOL    HW1 7715   6.730   1.320   6.745
 2272SOL    HW2 7716   6.673   1.453   6.669
 2273SOL     OW 7717   2.098   2.453   1.778
 2273SOL    HW1 7718   2.099   2.363   1.822
 2273SOL    HW2 7719   2.017   2.460   1.720
 2274SOL     OW 7720   0.515   1.796   6.749
 2274SOL    HW1 7721   0.420   1.787   6.779
 2274SOL    HW2 7722   0.520   1.864   6.675
 2275SOL     OW 7723   6.088   5.425   2.194
 2275SOL    HW1 7724   6.062   5.518   2.220
 2275SOL    HW2 7725   6.178   5.404   2.232
 2276SOL     OW 7726   1.706   6.895   1.422
 2276SOL    HW1 7727   1.612   6.909   1.453
 2276SOL    HW2 7728   1.705   6.852   1.332
 2277SOL     OW 7729   3.559   3.496   4.056
 2277SOL    HW1 7730   3.649   3.457   4.072
 2277SOL    HW2 7731   3.566   3.596   4.056
 2278SOL     OW 7732   6.933   2.985   4.169
 2278SOL    HW1 7733   6.938   3.085   4.174
 2278SOL    HW2 7734   6.843   2.959   4.134
 2279SOL     OW 7735   6.471   5.832   5.531
 2279SOL    HW1 7736   6.484   5.836   5.432
 2279SOL    HW2 7737   6.560   5.833   5.576
 2280SOL     OW 7738   6.118   0.645   5.314
 2280SOL    HW1 7739   6.057   0.661   5.236
 2280SOL    HW2 7740   6.161   0.731   5.342
 2281SOL     OW 7741   4.218   0.217   2.448
 2281SOL    HW1 7742   4.133   0.243   2.496
 2281SOL    HW2 7743   4.195   0.162   2.368
 2282SOL     OW 7744   4.876   5.801   5.277
 2282SOL    HW1 7745   4.797   5.768   5.329
 2282SOL    HW2 7746   4.949   5.733   5.281
 2283SOL     OW 7747   1.464   0.466   2.767
 2283SOL    HW1 7748   1.493   0.375   2.738
 2283SOL    HW2 7749   1.536   0.508   2.822
 2284SOL     OW 7750   0.417   3.139   5.603
 2284SOL    HW1 7751   0.407   3.097   5.693
 2284SOL    HW2 7752   0.496   3.099   5.557
 2285SOL     OW 7753   1.474   3.891   6.397
 2285SOL    HW1 7754   1.420   3.868   6.316
 2285SOL    HW2 7755   1.494   3.989   6.398
 2286SOL     OW 7756   5.113   6.716   2.934
 2286SOL    HW1 7757   5.159   6.744   2.850
 2286SOL    HW2 7758   5.016   6.739   2.928
 2287SOL     OW 7759   2.851   1.422   3.531
 2287SOL    HW1 7760   2.774   1.466   3.487
 2287SOL    HW2 7761   2.831   1.324   3.544
 2288SOL     OW 7762   0.600   5.093   4.055
 2288SOL    HW1 7763   0.535   5.055   4.121
 2288SOL    HW2 7764   0.690   5.053   4.070
 2289SOL     OW 7765   0.043   4.756   1.334
 2289SOL    HW1 7766   0.128   4.706   1.316
 2289SOL    HW2 7767   7.009   4.705   1.402
 2290SOL     OW 7768   1.008   3.908   0.855
 2290SOL    HW1 7769   1.106   3.908   0.835
 2290SOL    HW2 7770   0.990   3.971   0.931
 2291SOL     OW 7771   3.042   1.892   5.928
 2291SOL    HW1 7772   3.026   1.901   6.026
 2291SOL    HW2 7773   2.984   1.956   5.879
 2292SOL     OW 7774   1.193   1.120   5.096
 2292SOL    HW1 7775   1.278   1.087   5.138
 2292SOL    HW2 7776   1.126   1.140   5.168
 2293SOL     OW 7777   5.577   5.806   1.384
 2293SOL    HW1 7778   5.621   5.717   1.372
 2293SOL    HW2 7779   5.511   5.820   1.310
 2294SOL     OW 7780   3.662   0.069   0.487
 2294SOL    HW1 7781   3.639   0.023   0.401
 2294SOL    HW2 7782   3.658   0.004   0.562
 2295SOL     OW 7783   0.219   1.810   2.557
 2295SOL    HW1 7784   0.232   1.804   2.458
 2295SOL    HW2 7785   0.228   1.719   2.597
 2296SOL     OW 7786   3.128   0.365   0.930
 2296SOL    HW1 7787   3.180   0.287   0.894
 2296SOL    HW2 7788   3.078   0.336   1.012
 2297SOL     OW 7789   3.955   4.017   5.716
 2297SOL    HW1 7790   3.855   4.018   5.708
 2297SOL    HW2 7791   3.982   4.064   5.800
 2298SOL     OW 7792   3.845   2.321   0.992
 2298SOL    HW1 7793   3.772   2.253   0.990
 2298SOL    HW2 7794   3.929   2.279   1.028
 2299SOL     OW 7795   5.226   6.772   6.878
 2299SOL    HW1 7796   5.307   6.789   6.934
 2299SOL    HW2 7797   5.247   6.790   6.782
 2300SOL     OW 7798   1.435   5.071   1.351
 2300SOL    HW1 7799   1.343   5.055   1.385
 2300SOL    HW2 7800   1.500   5.071   1.428
 2301SOL     OW 7801   2.985   3.195   2.918
 2301SOL    HW1 7802   2.906   3.137   2.897
 2301SOL    HW2 7803   2.985   3.217   3.015
 2302SOL     OW 7804   4.123   6.644   2.673
 2302SOL    HW1 7805   4.082   6.658   2.583
 2302SOL    HW2 7806   4.165   6.729   2.704
 2303SOL     OW 7807   1.352   3.414   5.372
 2303SOL    HW1 7808   1.330   3.463   5.288
 2303SOL    HW2 7809   1.445   3.376   5.365
 2304SOL     OW 7810   2.585   0.126   3.693
 2304SOL    HW1 7811   2.620   0.220   3.685
 2304SOL    HW2 7812   2.628   0.069   3.624
 2305SOL     OW 7813   4.034   5.401   3.006
 2305SOL    HW1 7814   3.981   5.332   2.956
 2305SOL    HW2 7815   4.071   5.360   3.089
 2306SOL     OW 7816   1.932   4.909   1.650
 2306SOL    HW1 7817   1.948   4.991   1.705
 2306SOL    HW2 7818   1.997   4.906   1.575
 2307SOL     OW 7819   2.217   4.162   2.919
 2307SOL    HW1 7820   2.251   4.228   2.986
 2307SOL    HW2 7821   2.181   4.211   2.839
 2308SOL     OW 7822   0.649   0.622   6.574
 2308SOL    HW1 7823   0.570   0.657   6.522
 2308SOL    HW2 7824   0.686   0.695   6.631
 2309SOL     OW 7825   2.904   5.851   6.627
 2309SOL    HW1 7826   3.003   5.849   6.611
 2309SOL    HW2 7827   2.867   5.938   6.594
 2310SOL     OW 7828   6.584   6.537   1.309
 2310SOL    HW1 7829   6.530   6.469   1.259
 2310SOL    HW2 7830   6.549   6.628   1.289
 2311SOL     OW 7831   2.440   6.820   2.791
 2311SOL    HW1 7832   2.424   6.896   2.728
 2311SOL    HW2 7833   2.450   6.735   2.738
 2312SOL     OW 7834   2.641   6.785   3.272
 2312SOL    HW1 7835   2.582   6.802   3.193
 2312SOL    HW2 7836   2.733   6.819   3.254
 2313SOL     OW 7837   4.638   5.075   1.941
 2313SOL    HW1 7838   4.695   5.015   1.998
 2313SOL    HW2 7839   4.628   5.036   1.850
 2314SOL     OW 7840   6.376   0.480   3.164
 2314SOL    HW1 7841   6.323   0.407   3.208
 2314SOL    HW2 7842   6.341   0.568   3.194
 2315SOL     OW 7843   4.921   3.392   5.595
 2315SOL    HW1 7844   4.935   3.440   5.681
 2315SOL    HW2 7845   4.979   3.432   5.524
 2316SOL     OW 7846   2.383   1.096   5.829
 2316SOL    HW1 7847   2.385   1.030   5.754
 2316SOL    HW2 7848   2.423   1.055   5.911
 2317SOL     OW 7849   6.774   6.627   4.099
 2317SOL    HW1 7850   6.818   6.550   4.052
 2317SOL    HW2 7851   6.822   6.712   4.077
 2318SOL     OW 7852   2.081   3.736   4.340
 2318SOL    HW1 7853   2.118   3.647   4.313
 2318SOL    HW2 7854   2.096   3.750   4.438
 2319SOL     OW 7855   3.588   5.124   4.667
 2319SOL    HW1 7856   3.658   5.059   4.638
 2319SOL    HW2 7857   3.500   5.098   4.628
 2320SOL     OW 7858   1.202   2.528   5.774
 2320SOL    HW1 7859   1.299   2.532   5.797
 2320SOL    HW2 7860   1.178   2.605   5.716
 2321SOL     OW 7861   2.844   5.342   6.240
 2321SOL    HW1 7862   2.842   5.441   6.250
 2321SOL    HW2 7863   2.879   5.317   6.150
 2322SOL     OW 7864   1.723   4.358   2.143
 2322SOL    HW1 7865   1.752   4.365   2.047
 2322SOL    HW2 7866   1.789   4.303   2.194
 2323SOL     OW 7867   3.288   4.889   2.066
 2323SOL    HW1 7868   3.367   4.832   2.042
 2323SOL    HW2 7869   3.214   4.871   2.000
 2324SOL     OW 7870   0.012   5.922   1.427
 2324SOL    HW1 7871   7.008   5.830   1.396
 2324SOL    HW2 7872   6.974   5.989   1.380
 2325SOL     OW 7873   6.977   4.964   1.634
 2325SOL    HW1 7874   6.952   4.938   1.727
 2325SOL    HW2 7875   6.896   4.960   1.575
 2326SOL     OW 7876   1.771   5.948   6.379
 2326SOL    HW1 7877   1.698   5.974   6.443
 2326SOL    HW2 7878   1.860   5.963   6.422
 2327SOL     OW 7879   0.342   1.034   3.130
 2327SOL    HW1 7880   0.352   0.950   3.184
 2327SOL    HW2 7881   0.405   1.031   3.052
 2328SOL     OW 7882   1.544   2.107   2.741
 2328SOL    HW1 7883   1.513   2.157   2.660
 2328SOL    HW2 7884   1.470   2.104   2.809
 2329SOL     OW 7885   1.211   4.169   4.521
 2329SOL    HW1 7886   1.131   4.109   4.521
 2329SOL    HW2 7887   1.285   4.125   4.470
 2330SOL     OW 7888   0.370   2.782   0.414
 2330SOL    HW1 7889   0.380   2.881   0.430
 2330SOL    HW2 7890   0.426   2.733   0.480
 2331SOL     OW 7891   2.916   5.246   6.845
 2331SOL    HW1 7892   3.001   5.298   6.833
 2331SOL    HW2 7893   2.904   5.184   6.768
 2332SOL     OW 7894   6.651   6.957   5.966
 2332SOL    HW1 7895   6.659   6.920   5.873
 2332SOL    HW2 7896   6.695   0.027   5.970
 2333SOL     OW 7897   7.003   5.007   3.100
 2333SOL    HW1 7898   0.040   5.089   3.093
 2333SOL    HW2 7899   0.015   4.951   3.176
 2334SOL     OW 7900   1.443   1.743   6.437
 2334SOL    HW1 7901   1.542   1.745   6.428
 2334SOL    HW2 7902   1.405   1.833   6.416
 2335SOL     OW 7903   6.015   0.655   4.019
 2335SOL    HW1 7904   5.956   0.574   4.022
 2335SOL    HW2 7905   6.078   0.646   3.942
 2336SOL     OW 7906   3.041   1.415   3.962
 2336SOL    HW1 7907   3.135   1.448   3.958
 2336SOL    HW2 7908   2.997   1.448   4.045
 2337SOL     OW 7909   4.345   1.065   1.954
 2337SOL    HW1 7910   4.310   1.094   2.043
 2337SOL    HW2 7911   4.398   0.981   1.965
 2338SOL     OW 7912   0.554   3.032   4.178
 2338SOL    HW1 7913   0.562   3.124   4.216
 2338SOL    HW2 7914   0.641   2.983   4.190
 2339SOL     OW 7915   2.893   3.508   3.355
 2339SOL    HW1 7916   2.858   3.528   3.264
 2339SOL    HW2 7917   2.898   3.409   3.368
 2340SOL     OW 7918   0.328   4.700   6.892
 2340SOL    HW1 7919   0.305   4.606   6.867
 2340SOL    HW2 7920   0.427   4.712   6.890
 2341SOL     OW 7921   2.792   4.833   2.050
 2341SOL    HW1 7922   2.790   4.749   1.995
 2341SOL    HW2 7923   2.707   4.884   2.035
 2342SOL     OW 7924   1.703   6.973   4.782
 2342SOL    HW1 7925   1.636   0.020   4.750
 2342SOL    HW2 7926   1.771   6.957   4.710
 2343SOL     OW 7927   2.221   5.479   2.880
 2343SOL    HW1 7928   2.179   5.557   2.834
 2343SOL    HW2 7929   2.154   5.405   2.888
 2344SOL     OW 7930   0.142   5.999   6.659
 2344SOL    HW1 7931   0.233   5.957   6.660
 2344SOL    HW2 7932   0.084   5.954   6.726
 2345SOL     OW 7933   2.663   5.348   4.832
 2345SOL    HW1 7934   2.623   5.257   4.844
 2345SOL    HW2 7935   2.640   5.404   4.912
 2346SOL     OW 7936   4.095   3.396   6.010
 2346SOL    HW1 7937   4.086   3.297   6.001
 2346SOL    HW2 7938   4.133   3.417   6.100
 2347SOL     OW 7939   2.615   1.772   1.411
 2347SOL    HW1 7940   2.618   1.793   1.313
 2347SOL    HW2 7941   2.603   1.674   1.423
 2348SOL     OW 7942   1.799   6.311   4.106
 2348SOL    HW1 7943   1.850   6.227   4.124
 2348SOL    HW2 7944   1.831   6.352   4.021
 2349SOL     OW 7945   0.846   4.660   6.110
 2349SOL    HW1 7946   0.769   4.685   6.169
 2349SOL    HW2 7947   0.818   4.588   6.047
 2350SOL     OW 7948   5.953   5.159   6.189
 2350SOL    HW1 7949   5.980   5.065   6.169
 2350SOL    HW2 7950   5.953   5.212   6.104
 2351SOL     OW 7951   3.424   5.234   4.033
 2351SOL    HW1 7952   3.403   5.140   4.008
 2351SOL    HW2 7953   3.516   5.257   4.000
 2352SOL     OW 7954   0.309   3.031   2.778
 2352SOL    HW1 7955   0.291   3.009   2.873
 2352SOL    HW2 7956   0.408   3.032   2.762
 2353SOL     OW 7957   3.778   4.950   4.596
 2353SOL    HW1 7958   3.853   4.944   4.662
 2353SOL    HW2 7959   3.813   4.932   4.504
 2354SOL     OW 7960   2.121   2.161   4.403
 2354SOL    HW1 7961   2.138   2.078   4.349
 2354SOL    HW2 7962   2.127   2.139   4.500
 2355SOL     OW 7963   2.188   6.903   5.999
 2355SOL    HW1 7964   2.197   6.906   5.900
 2355SOL    HW2 7965   2.263   6.956   6.040
 2356SOL     OW 7966   1.501   3.046   6.142
 2356SOL    HW1 7967   1.498   3.081   6.236
 2356SOL    HW2 7968   1.411   3.012   6.117
 2357SOL     OW 7969   4.329   1.203   2.246
 2357SOL    HW1 7970   4.388   1.241   2.175
 2357SOL    HW2 7971   4.304   1.274   2.310
 2358SOL     OW 7972   3.026   5.386   5.525
 2358SOL    HW1 7973   3.003   5.305   5.579
 2358SOL    HW2 7974   3.106   5.366   5.468
 2359SOL     OW 7975   0.204   0.632   6.089
 2359SOL    HW1 7976   0.107   0.645   6.069
 2359SOL    HW2 7977   0.217   0.548   6.143
 2360SOL     OW 7978   6.196   3.685   0.372
 2360SOL    HW1 7979   6.195   3.777   0.334
 2360SOL    HW2 7980   6.111   3.670   0.424
 2361SOL     OW 7981   2.666   0.839   6.847
 2361SOL    HW1 7982   2.589   0.782   6.877
 2361SOL    HW2 7983   2.670   0.921   6.905
 2362SOL     OW 7984   2.572   5.762   4.407
 2362SOL    HW1 7985   2.475   5.744   4.393
 2362SOL    HW2 7986   2.603   5.831   4.342
 2363SOL     OW 7987   3.620   1.993   4.589
 2363SOL    HW1 7988   3.622   1.895   4.609
 2363SOL    HW2 7989   3.583   2.043   4.667
 2364SOL     OW 7990   1.372   2.699   2.511
 2364SOL    HW1 7991   1.405   2.631   2.446
 2364SOL    HW2 7992   1.289   2.743   2.474
 2365SOL     OW 7993   6.791   2.285   6.617
 2365SOL    HW1 7994   6.734   2.228   6.558
 2365SOL    HW2 7995   6.736   2.358   6.657
 2366SOL     OW 7996   2.137   5.925   6.735
 2366SOL    HW1 7997   2.229   5.940   6.770
 2366SOL    HW2 7998   2.080   5.885   6.807
 2367SOL     OW 7999   2.176   3.436   1.135
 2367SOL    HW1 8000   2.107   3.477   1.194
 2367SOL    HW2 8001   2.148   3.448   1.039
 2368SOL     OW 8002   5.416   6.651   4.792
 2368SOL    HW1 8003   5.346   6.581   4.806
 2368SOL    HW2 8004   5.492   6.614   4.740
 2369SOL     OW 8005   1.659   0.306   4.523
 2369SOL    HW1 8006   1.639   0.394   4.566
 2369SOL    HW2 8007   1.583   0.243   4.538
 2370SOL     OW 8008   5.597   3.197   0.114
 2370SOL    HW1 8009   5.523   3.258   0.086
 2370SOL    HW2 8010   5.574   3.154   0.201
 2371SOL     OW 8011   1.816   0.108   1.562
 2371SOL    HW1 8012   1.778   0.198   1.544
 2371SOL    HW2 8013   1.790   0.045   1.488
 2372SOL     OW 8014   6.667   2.783   2.129
 2372SOL    HW1 8015   6.734   2.847   2.092
 2372SOL    HW2 8016   6.583   2.832   2.154
 2373SOL     OW 8017   0.809   2.997   5.835
 2373SOL    HW1 8018   0.893   2.992   5.889
 2373SOL    HW2 8019   0.832   3.023   5.741
 2374SOL     OW 8020   5.913   1.750   4.332
 2374SOL    HW1 8021   5.922   1.697   4.248
 2374SOL    HW2 8022   6.001   1.751   4.380
 2375SOL     OW 8023   3.398   6.273   5.467
 2375SOL    HW1 8024   3.363   6.350   5.521
 2375SOL    HW2 8025   3.389   6.189   5.519
 2376SOL     OW 8026   6.533   3.074   4.211
 2376SOL    HW1 8027   6.466   3.148   4.204
 2376SOL    HW2 8028   6.623   3.113   4.232
 2377SOL     OW 8029   3.422   3.974   3.743
 2377SOL    HW1 8030   3.466   3.950   3.656
 2377SOL    HW2 8031   3.436   3.900   3.809
 2378SOL     OW 8032   5.033   2.117   0.189
 2378SOL    HW1 8033   4.949   2.155   0.230
 2378SOL    HW2 8034   5.111   2.172   0.218
 2379SOL     OW 8035   6.934   0.753   0.714
 2379SOL    HW1 8036   6.883   0.831   0.751
 2379SOL    HW2 8037   6.871   0.691   0.668
 2380SOL     OW 8038   0.287   2.091   6.708
 2380SOL    HW1 8039   0.267   2.131   6.797
 2380SOL    HW2 8040   0.232   2.136   6.638
 2381SOL     OW 8041   2.519   5.584   4.066
 2381SOL    HW1 8042   2.450   5.652   4.090
 2381SOL    HW2 8043   2.491   5.495   4.102
 2382SOL     OW 8044   1.832   3.774   4.272
 2382SOL    HW1 8045   1.790   3.837   4.339
 2382SOL    HW2 8046   1.924   3.750   4.303
 2383SOL     OW 8047   5.525   6.643   0.940
 2383SOL    HW1 8048   5.438   6.690   0.924
 2383SOL    HW2 8049   5.587   6.662   0.863
 2384SOL     OW 8050   5.796   1.007   2.841
 2384SOL    HW1 8051   5.837   1.082   2.894
 2384SOL    HW2 8052   5.805   0.922   2.892
 2385SOL     OW 8053   0.414   0.676   0.524
 2385SOL    HW1 8054   0.371   0.755   0.481
 2385SOL    HW2 8055   0.456   0.619   0.454
 2386SOL     OW 8056   5.495   6.123   4.788
 2386SOL    HW1 8057   5.401   6.117   4.756
 2386SOL    HW2 8058   5.499   6.180   4.870
 2387SOL     OW 8059   1.878   1.828   4.101
 2387SOL    HW1 8060   1.865   1.730   4.117
 2387SOL    HW2 8061   1.890   1.845   4.003
 2388SOL     OW 8062   6.899   2.142   3.841
 2388SOL    HW1 8063   6.880   2.051   3.803
 2388SOL    HW2 8064   6.972   2.135   3.909
 2389SOL     OW 8065   4.512   4.445   3.261
 2389SOL    HW1 8066   4.565   4.418   3.342
 2389SOL    HW2 8067   4.546   4.394   3.181
 2390SOL     OW 8068   3.754   3.210   3.993
 2390SOL    HW1 8069   3.712   3.184   3.906
 2390SOL    HW2 8070   3.833   3.153   4.011
 2391SOL     OW 8071   5.220   4.045   5.768
 2391SOL    HW1 8072   5.168   3.985   5.708
 2391SOL    HW2 8073   5.216   4.010   5.862
 2392SOL     OW 8074   3.536   6.322   5.763
 2392SOL    HW1 8075   3.438   6.338   5.755
 2392SOL    HW2 8076   3.552   6.234   5.808
 2393SOL     OW 8077   5.193   3.895   6.005
 2393SOL    HW1 8078   5.216   3.954   6.083
 2393SOL    HW2 8079   5.102   3.854   6.020
 2394SOL     OW 8080   0.892   3.916   5.096
 2394SOL    HW1 8081   0.977   3.917   5.147
 2394SOL    HW2 8082   0.861   3.822   5.082
 2395SOL     OW 8083   4.961   0.253   5.940
 2395SOL    HW1 8084   4.992   0.307   5.862
 2395SOL    HW2 8085   4.918   0.313   6.008
 2396SOL     OW 8086   3.820   4.895   1.071
 2396SOL    HW1 8087   3.859   4.935   1.154
 2396SOL    HW2 8088   3.720   4.896   1.078
 2397SOL     OW 8089   6.945   3.917   5.656
 2397SOL    HW1 8090   7.002   3.835   5.650
 2397SOL    HW2 8091   6.849   3.892   5.640
 2398SOL     OW 8092   4.513   4.347   6.526
 2398SOL    HW1 8093   4.488   4.443   6.540
 2398SOL    HW2 8094   4.434   4.288   6.542
 2399SOL     OW 8095   4.498   0.701   1.129
 2399SOL    HW1 8096   4.403   0.699   1.161
 2399SOL    HW2 8097   4.516   0.789   1.086
 2400SOL     OW 8098   2.825   4.398   1.398
 2400SOL    HW1 8099   2.744   4.341   1.406
 2400SOL    HW2 8100   2.825   4.443   1.309
 2401SOL     OW 8101   5.193   6.248   0.059
 2401SOL    HW1 8102   5.229   6.305   0.132
 2401SOL    HW2 8103   5.189   6.300   6.994
 2402SOL     OW 8104   0.378   0.100   3.674
 2402SOL    HW1 8105   0.458   0.153   3.644
 2402SOL    HW2 8106   0.396   0.003   3.661
 2403SOL     OW 8107   1.906   2.137   6.146
 2403SOL    HW1 8108   1.912   2.095   6.055
 2403SOL    HW2 8109   1.853   2.222   6.140
 2404SOL     OW 8110   2.671   0.365   1.118
 2404SOL    HW1 8111   2.613   0.442   1.144
 2404SOL    HW2 8112   2.624   0.309   1.050
 2405SOL     OW 8113   3.288   3.563   2.210
 2405SOL    HW1 8114   3.364   3.561   2.145
 2405SOL    HW2 8115   3.290   3.649   2.260
 2406SOL     OW 8116   3.407   0.202   1.616
 2406SOL    HW1 8117   3.505   0.211   1.598
 2406SOL    HW2 8118   3.369   0.130   1.558
 2407SOL     OW 8119   5.961   1.697   3.136
 2407SOL    HW1 8120   5.950   1.649   3.223
 2407SOL    HW2 8121   6.053   1.679   3.099
 2408SOL     OW 8122   4.463   4.515   2.883
 2408SOL    HW1 8123   4.454   4.437   2.821
 2408SOL    HW2 8124   4.520   4.489   2.961
 2409SOL     OW 8125   2.170   4.752   2.066
 2409SOL    HW1 8126   2.226   4.809   2.007
 2409SOL    HW2 8127   2.227   4.680   2.106
 2410SOL     OW 8128   4.036   3.238   5.352
 2410SOL    HW1 8129   4.052   3.185   5.436
 2410SOL    HW2 8130   4.124   3.273   5.318
 2411SOL     OW 8131   4.899   6.232   4.406
 2411SOL    HW1 8132   4.972   6.180   4.362
 2411SOL    HW2 8133   4.915   6.329   4.393
 2412SOL     OW 8134   5.945   4.358   1.571
 2412SOL    HW1 8135   5.852   4.328   1.593
 2412SOL    HW2 8136   5.992   4.287   1.520
 2413SOL     OW 8137   6.661   0.832   1.053
 2413SOL    HW1 8138   6.618   0.829   1.143
 2413SOL    HW2 8139   6.757   0.858   1.062
 2414SOL     OW 8140   4.810   4.096   3.339
 2414SOL    HW1 8141   4.904   4.128   3.345
 2414SOL    HW2 8142   4.805   3.999   3.365
 2415SOL     OW 8143   6.373   1.617   3.301
 2415SOL    HW1 8144   6.306   1.617   3.226
 2415SOL    HW2 8145   6.420   1.529   3.303
 2416SOL     OW 8146   4.602   2.318   5.122
 2416SOL    HW1 8147   4.632   2.357   5.035
 2416SOL    HW2 8148   4.589   2.220   5.113
 2417SOL     OW 8149   3.539   3.886   4.767
 2417SOL    HW1 8150   3.607   3.814   4.781
 2417SOL    HW2 8151   3.491   3.871   4.680
 2418SOL     OW 8152   4.060   3.329   4.777
 2418SOL    HW1 8153   4.042   3.327   4.875
 2418SOL    HW2 8154   4.156   3.350   4.761
 2419SOL     OW 8155   0.126   6.828   4.117
 2419SOL    HW1 8156   0.187   6.776   4.057
 2419SOL    HW2 8157   0.103   6.773   4.197
 2420SOL     OW 8158   3.061   0.553   3.261
 2420SOL    HW1 8159   3.090   0.486   3.192
 2420SOL    HW2 8160   3.006   0.624   3.218
 2421SOL     OW 8161   2.123   2.620   4.896
 2421SOL    HW1 8162   2.171   2.559   4.833
 2421SOL    HW2 8163   2.025   2.616   4.879
 2422SOL     OW 8164   5.145   1.859   0.558
 2422SOL    HW1 8165   5.047   1.873   0.549
 2422SOL    HW2 8166   5.182   1.820   0.473
 2423SOL     OW 8167   2.005   6.078   2.156
 2423SOL    HW1 8168   2.026   6.160   2.102
 2423SOL    HW2 8169   1.972   6.006   2.095
 2424SOL     OW 8170   6.577   6.806   0.178
 2424SOL    HW1 8171   6.646   6.788   0.109
 2424SOL    HW2 8172   6.620   6.843   0.260
 2425SOL     OW 8173   5.875   0.385   4.057
 2425SOL    HW1 8174   5.943   0.313   4.047
 2425SOL    HW2 8175   5.848   0.418   3.967
 2426SOL     OW 8176   1.582   5.326   5.397
 2426SOL    HW1 8177   1.635   5.293   5.320
 2426SOL    HW2 8178   1.555   5.249   5.455
 2427SOL     OW 8179   5.687   5.786   5.619
 2427SOL    HW1 8180   5.761   5.728   5.654
 2427SOL    HW2 8181   5.713   5.882   5.625
 2428SOL     OW 8182   0.005   0.519   1.861
 2428SOL    HW1 8183   0.019   0.421   1.857
 2428SOL    HW2 8184   0.019   0.559   1.771
 2429SOL     OW 8185   5.657   5.674   1.711
 2429SOL    HW1 8186   5.703   5.763   1.706
 2429SOL    HW2 8187   5.628   5.647   1.619
 2430SOL     OW 8188   6.220   1.306   1.918
 2430SOL    HW1 8189   6.230   1.277   1.822
 2430SOL    HW2 8190   6.163   1.389   1.921
 2431SOL     OW 8191   4.168   1.034   2.473
 2431SOL    HW1 8192   4.173   1.013   2.571
 2431SOL    HW2 8193   4.254   1.074   2.443
 2432SOL     OW 8194   4.291   6.676   2.115
 2432SOL    HW1 8195   4.305   6.699   2.211
 2432SOL    HW2 8196   4.215   6.729   2.079
 2433SOL     OW 8197   4.396   1.577   0.396
 2433SOL    HW1 8198   4.433   1.668   0.411
 2433SOL    HW2 8199   4.312   1.583   0.343
 2434SOL     OW 8200   4.067   1.225   6.179
 2434SOL    HW1 8201   4.049   1.262   6.088
 2434SOL    HW2 8202   4.070   1.125   6.175
 2435SOL     OW 8203   4.991   5.548   5.259
 2435SOL    HW1 8204   4.944   5.544   5.171
 2435SOL    HW2 8205   5.069   5.485   5.257
 2436SOL     OW 8206   1.884   5.948   6.131
 2436SOL    HW1 8207   1.853   5.964   6.225
 2436SOL    HW2 8208   1.966   6.003   6.114
 2437SOL     OW 8209   5.604   6.678   6.043
 2437SOL    HW1 8210   5.662   6.606   6.006
 2437SOL    HW2 8211   5.532   6.638   6.099
 2438SOL     OW 8212   3.177   2.333   0.636
 2438SOL    HW1 8213   3.185   2.375   0.726
 2438SOL    HW2 8214   3.249   2.265   0.624
 2439SOL     OW 8215   0.394   4.142   6.456
 2439SOL    HW1 8216   0.454   4.137   6.536
 2439SOL    HW2 8217   0.310   4.091   6.475
 2440SOL     OW 8218   4.973   5.507   5.669
 2440SOL    HW1 8219   4.985   5.421   5.719
 2440SOL    HW2 8220   4.889   5.552   5.701
 2441SOL     OW 8221   6.963   2.296   0.779
 2441SOL    HW1 8222   6.927   2.323   0.868
 2441SOL    HW2 8223   6.887   2.275   0.717
 2442SOL     OW 8224   1.192   3.681   5.446
 2442SOL    HW1 8225   1.179   3.599   5.390
 2442SOL    HW2 8226   1.135   3.755   5.410
 2443SOL     OW 8227   2.695   4.086   6.515
 2443SOL    HW1 8228   2.601   4.056   6.528
 2443SOL    HW2 8229   2.739   4.031   6.445
 2444SOL     OW 8230   2.282   4.458   5.686
 2444SOL    HW1 8231   2.330   4.376   5.655
 2444SOL    HW2 8232   2.214   4.433   5.755
 2445SOL     OW 8233   0.152   1.028   0.768
 2445SOL    HW1 8234   0.114   1.060   0.855
 2445SOL    HW2 8235   0.192   1.104   0.718
 2446SOL     OW 8236   6.027   4.116   4.441
 2446SOL    HW1 8237   5.985   4.200   4.408
 2446SOL    HW2 8238   6.008   4.105   4.538
 2447SOL     OW 8239   1.934   1.990   0.129
 2447SOL    HW1 8240   1.940   2.087   0.105
 2447SOL    HW2 8241   1.842   1.957   0.111
 2448SOL     OW 8242   0.320   0.400   4.635
 2448SOL    HW1 8243   0.333   0.301   4.640
 2448SOL    HW2 8244   0.354   0.433   4.547
 2449SOL     OW 8245   0.336   3.741   0.152
 2449SOL    HW1 8246   0.356   3.832   0.187
 2449SOL    HW2 8247   0.240   3.718   0.172
 2450SOL     OW 8248   2.660   4.653   2.730
 2450SOL    HW1 8249   2.615   4.573   2.691
 2450SOL    HW2 8250   2.592   4.711   2.775
 2451SOL     OW 8251   1.724   6.648   3.853
 2451SOL    HW1 8252   1.717   6.601   3.765
 2451SOL    HW2 8253   1.777   6.732   3.842
 2452SOL     OW 8254   0.979   3.085   2.715
 2452SOL    HW1 8255   0.935   2.996   2.713
 2452SOL    HW2 8256   0.912   3.155   2.741
 2453SOL     OW 8257   6.543   4.769   1.854
 2453SOL    HW1 8258   6.501   4.729   1.936
 2453SOL    HW2 8259   6.570   4.696   1.791
 2454SOL     OW 8260   3.282   0.486   1.948
 2454SOL    HW1 8261   3.239   0.404   1.911
 2454SOL    HW2 8262   3.265   0.491   2.046
 2455SOL     OW 8263   5.344   5.620   0.808
 2455SOL    HW1 8264   5.271   5.623   0.877
 2455SOL    HW2 8265   5.375   5.713   0.788
 2456SOL     OW 8266   4.847   6.194   1.989
 2456SOL    HW1 8267   4.905   6.126   2.033
 2456SOL    HW2 8268   4.849   6.180   1.890
 2457SOL     OW 8269   5.278   0.050   1.520
 2457SOL    HW1 8270   5.354   0.071   1.459
 2457SOL    HW2 8271   5.199   0.020   1.466
 2458SOL     OW 8272   1.984   5.604   2.761
 2458SOL    HW1 8273   2.016   5.608   2.666
 2458SOL    HW2 8274   1.932   5.519   2.775
 2459SOL     OW 8275   2.433   0.375   0.946
 2459SOL    HW1 8276   2.492   0.304   0.908
 2459SOL    HW2 8277   2.435   0.456   0.887
 2460SOL     OW 8278   3.201   5.690   1.819
 2460SOL    HW1 8279   3.223   5.691   1.916
 2460SOL    HW2 8280   3.256   5.760   1.772
 2461SOL     OW 8281   5.764   0.633   1.723
 2461SOL    HW1 8282   5.737   0.694   1.798
 2461SOL    HW2 8283   5.838   0.674   1.671
 2462SOL     OW 8284   2.506   5.292   6.576
 2462SOL    HW1 8285   2.597   5.332   6.588
 2462SOL    HW2 8286   2.514   5.192   6.566
 2463SOL     OW 8287   6.451   1.873   3.348
 2463SOL    HW1 8288   6.412   1.781   3.343
 2463SOL    HW2 8289   6.543   1.873   3.308
 2464SOL     OW 8290   1.091   3.180   1.026
 2464SOL    HW1 8291   1.049   3.149   1.112
 2464SOL    HW2 8292   1.042   3.260   0.992
 2465SOL     OW 8293   0.007   6.065   2.771
 2465SOL    HW1 8294   0.070   6.046   2.696
 2465SOL    HW2 8295   0.057   6.066   2.858
 2466SOL     OW 8296   3.841   1.708   2.281
 2466SOL    HW1 8297   3.750   1.727   2.317
 2466SOL    HW2 8298   3.879   1.791   2.241
 2467SOL     OW 8299   6.790   0.802   5.995
 2467SOL    HW1 8300   6.768   0.835   5.903
 2467SOL    HW2 8301   6.711   0.814   6.055
 2468SOL     OW 8302   6.662   5.691   1.117
 2468SOL    HW1 8303   6.701   5.728   1.033
 2468SOL    HW2 8304   6.617   5.604   1.097
 2469SOL     OW 8305   2.330   3.252   5.655
 2469SOL    HW1 8306   2.258   3.193   5.692
 2469SOL    HW2 8307   2.327   3.250   5.555
 2470SOL     OW 8308   4.853   3.228   6.960
 2470SOL    HW1 8309   4.893   3.235   0.032
 2470SOL    HW2 8310   4.918   3.184   6.899
 2471SOL     OW 8311   0.619   6.778   2.950
 2471SOL    HW1 8312   0.589   6.803   3.042
 2471SOL    HW2 8313   0.541   6.752   2.894
 2472SOL     OW 8314   5.374   2.390   4.341
 2472SOL    HW1 8315   5.470   2.418   4.341
 2472SOL    HW2 8316   5.362   2.312   4.279
 2473SOL     OW 8317   0.831   6.093   5.095
 2473SOL    HW1 8318   0.868   6.058   5.009
 2473SOL    HW2 8319   0.865   6.038   5.171
 2474SOL     OW 8320   6.610   4.302   5.489
 2474SOL    HW1 8321   6.624   4.251   5.405
 2474SOL    HW2 8322   6.696   4.304   5.541
 2475SOL     OW 8323   4.867   2.469   6.932
 2475SOL    HW1 8324   4.793   2.468   7.000
 2475SOL    HW2 8325   4.874   2.560   6.892
 2476SOL     OW 8326   1.120   2.101   3.940
 2476SOL    HW1 8327   1.188   2.032   3.915
 2476SOL    HW2 8328   1.048   2.103   3.871
 2477SOL     OW 8329   5.180   4.977   1.197
 2477SOL    HW1 8330   5.135   5.062   1.225
 2477SOL    HW2 8331   5.137   4.900   1.242
 2478SOL     OW 8332   6.222   7.014   3.063
 2478SOL    HW1 8333   6.236   6.980   2.970
 2478SOL    HW2 8334   6.191   6.940   3.122
 2479SOL     OW 8335   0.589   2.918   0.606
 2479SOL    HW1 8336   0.624   2.825   0.617
 2479SOL    HW2 8337   0.514   2.933   0.669
 2480SOL     OW 8338   0.740   3.427   1.406
 2480SOL    HW1 8339   0.672   3.495   1.381
 2480SOL    HW2 8340   0.816   3.472   1.454
 2481SOL     OW 8341   4.365   5.086   2.024
 2481SOL    HW1 8342   4.440   5.148   2.045
 2481SOL    HW2 8343   4.350   5.084   1.925
 2482SOL     OW 8344   4.576   2.737   5.235
 2482SOL    HW1 8345   4.615   2.764   5.323
 2482SOL    HW2 8346   4.504   2.669   5.249
 2483SOL     OW 8347   0.945   2.135   6.784
 2483SOL    HW1 8348   0.951   2.043   6.823
 2483SOL    HW2 8349   0.894   2.194   6.846
 2484SOL     OW 8350   3.235   1.827   6.886
 2484SOL    HW1 8351   3.159   1.813   6.823
 2484SOL    HW2 8352   3.251   1.925   6.898
 2485SOL     OW 8353   0.196   5.546   1.999
 2485SOL    HW1 8354   0.236   5.460   2.031
 2485SOL    HW2 8355   0.123   5.527   1.934
 2486SOL     OW 8356   1.394   5.336   3.065
 2486SOL    HW1 8357   1.300   5.357   3.092
 2486SOL    HW2 8358   1.443   5.297   3.143
 2487SOL     OW 8359   3.569   0.570   1.060
 2487SOL    HW1 8360   3.471   0.584   1.047
 2487SOL    HW2 8361   3.615   0.658   1.073
 2488SOL     OW 8362   3.265   5.844   1.087
 2488SOL    HW1 8363   3.266   5.820   0.989
 2488SOL    HW2 8364   3.225   5.769   1.139
 2489SOL     OW 8365   0.768   5.681   4.351
 2489SOL    HW1 8366   0.857   5.723   4.335
 2489SOL    HW2 8367   0.710   5.744   4.402
 2490SOL     OW 8368   5.371   3.185   1.345
 2490SOL    HW1 8369   5.294   3.171   1.283
 2490SOL    HW2 8370   5.343   3.245   1.420
 2491SOL     OW 8371   2.553   5.031   2.028
 2491SOL    HW1 8372   2.496   5.029   2.110
 2491SOL    HW2 8373   2.550   5.123   1.988
 2492SOL     OW 8374   4.655   3.223   6.291
 2492SOL    HW1 8375   4.586   3.154   6.270
 2492SOL    HW2 8376   4.679   3.272   6.207
 2493SOL     OW 8377   6.426   1.612   3.568
 2493SOL    HW1 8378   6.418   1.577   3.475
 2493SOL    HW2 8379   6.353   1.678   3.586
 2494SOL     OW 8380   4.893   3.338   2.339
 2494SOL    HW1 8381   4.839   3.254   2.340
 2494SOL    HW2 8382   4.903   3.370   2.245
 2495SOL     OW 8383   5.566   1.014   4.877
 2495SOL    HW1 8384   5.640   1.080   4.889
 2495SOL    HW2 8385   5.518   1.033   4.792
 2496SOL     OW 8386   1.395   6.629   0.597
 2496SOL    HW1 8387   1.329   6.556   0.581
 2496SOL    HW2 8388   1.354   6.717   0.570
 2497SOL     OW 8389   6.120   1.806   6.294
 2497SOL    HW1 8390   6.024   1.791   6.273
 2497SOL    HW2 8391   6.135   1.902   6.318
 2498SOL     OW 8392   2.194   3.492   5.087
 2498SOL    HW1 8393   2.208   3.396   5.109
 2498SOL    HW2 8394   2.193   3.504   4.988
 2499SOL     OW 8395   6.051   0.389   4.933
 2499SOL    HW1 8396   6.035   0.291   4.929
 2499SOL    HW2 8397   6.016   0.425   5.020
 2500SOL     OW 8398   4.305   3.316   6.772
 2500SOL    HW1 8399   4.238   3.342   6.841
 2500SOL    HW2 8400   4.300   3.217   6.756
 2501SOL     OW 8401   0.176   4.016   0.061
 2501SOL    HW1 8402   0.264   4.047   0.026
 2501SOL    HW2 8403   0.173   4.030   0.160
 2502SOL     OW 8404   1.856   6.292   3.410
 2502SOL    HW1 8405   1.942   6.303   3.361
 2502SOL    HW2 8406   1.784   6.344   3.363
 2503SOL     OW 8407   4.431   4.990   4.943
 2503SOL    HW1 8408   4.464   5.025   5.031
 2503SOL    HW2 8409   4.509   4.968   4.884
 2504SOL     OW 8410   1.339   4.354   3.986
 2504SOL    HW1 8411   1.292   4.302   3.915
 2504SOL    HW2 8412   1.272   4.390   4.051
 2505SOL     OW 8413   4.781   5.720   4.277
 2505SOL    HW1 8414   4.736   5.774   4.205
 2505SOL    HW2 8415   4.775   5.623   4.255
 2506SOL     OW 8416   0.157   2.254   6.551
 2506SOL    HW1 8417   0.138   2.313   6.630
 2506SOL    HW2 8418   0.163   2.310   6.468
 2507SOL     OW 8419   6.811   5.829   0.333
 2507SOL    HW1 8420   6.735   5.873   0.285
 2507SOL    HW2 8421   6.839   5.747   0.282
 2508SOL     OW 8422   2.334   2.738   2.606
 2508SOL    HW1 8423   2.326   2.837   2.597
 2508SOL    HW2 8424   2.338   2.714   2.703
 2509SOL     OW 8425   5.027   2.751   3.674
 2509SOL    HW1 8426   5.110   2.783   3.629
 2509SOL    HW2 8427   5.043   2.743   3.772
 2510SOL     OW 8428   4.031   5.624   0.584
 2510SOL    HW1 8429   3.987   5.714   0.587
 2510SOL    HW2 8430   4.105   5.625   0.517
 2511SOL     OW 8431   1.879   0.249   4.743
 2511SOL    HW1 8432   1.811   0.245   4.670
 2511SOL    HW2 8433   1.961   0.200   4.714
 2512SOL     OW 8434   5.088   3.343   4.974
 2512SOL    HW1 8435   5.039   3.364   5.059
 2512SOL    HW2 8436   5.079   3.419   4.910
 2513SOL     OW 8437   0.708   3.471   0.488
 2513SOL    HW1 8438   0.709   3.475   0.388
 2513SOL    HW2 8439   0.796   3.504   0.523
 2514SOL     OW 8440   1.786   1.032   3.525
 2514SOL    HW1 8441   1.832   1.107   3.479
 2514SOL    HW2 8442   1.700   1.012   3.479
 2515SOL     OW 8443   0.744   5.634   0.353
 2515SOL    HW1 8444   0.680   5.641   0.430
 2515SOL    HW2 8445   0.836   5.658   0.384
 2516SOL     OW 8446   5.240   6.308   3.970
 2516SOL    HW1 8447   5.150   6.266   3.971
 2516SOL    HW2 8448   5.231   6.407   3.982
 2517SOL     OW 8449   2.247   4.793   0.068
 2517SOL    HW1 8450   2.257   4.725   7.016
 2517SOL    HW2 8451   2.180   4.760   0.135
 2518SOL     OW 8452   2.485   2.132   6.960
 2518SOL    HW1 8453   2.534   2.189   6.893
 2518SOL    HW2 8454   2.450   2.051   6.914
 2519SOL     OW 8455   4.953   3.945   4.759
 2519SOL    HW1 8456   4.899   3.915   4.838
 2519SOL    HW2 8457   5.043   3.976   4.789
 2520SOL     OW 8458   2.105   4.437   2.212
 2520SOL    HW1 8459   2.186   4.491   2.191
 2520SOL    HW2 8460   2.128   4.340   2.208
 2521SOL     OW 8461   5.524   6.538   5.218
 2521SOL    HW1 8462   5.477   6.625   5.204
 2521SOL    HW2 8463   5.585   6.521   5.140
 2522SOL     OW 8464   1.333   2.761   4.640
 2522SOL    HW1 8465   1.382   2.837   4.598
 2522SOL    HW2 8466   1.365   2.748   4.734
 2523SOL     OW 8467   0.396   3.163   6.709
 2523SOL    HW1 8468   0.393   3.221   6.791
 2523SOL    HW2 8469   0.488   3.167   6.669
 2524SOL     OW 8470   0.739   0.113   4.684
 2524SOL    HW1 8471   0.710   0.203   4.717
 2524SOL    HW2 8472   0.829   0.122   4.642
 2525SOL     OW 8473   1.425   3.456   3.402
 2525SOL    HW1 8474   1.465   3.403   3.327
 2525SOL    HW2 8475   1.326   3.461   3.390
 2526SOL     OW 8476   6.617   1.169   5.218
 2526SOL    HW1 8477   6.570   1.115   5.149
 2526SOL    HW2 8478   6.575   1.153   5.307
 2527SOL     OW 8479   5.690   6.687   3.991
 2527SOL    HW1 8480   5.669   6.606   4.045
 2527SOL    HW2 8481   5.620   6.699   3.921
 2528SOL     OW 8482   6.399   5.639   0.278
 2528SOL    HW1 8483   6.325   5.681   0.331
 2528SOL    HW2 8484   6.423   5.551   0.319
 2529SOL     OW 8485   4.968   3.735   4.559
 2529SOL    HW1 8486   4.948   3.814   4.618
 2529SOL    HW2 8487   4.954   3.651   4.610
 2530SOL     OW 8488   0.084   0.911   4.299
 2530SOL    HW1 8489   0.137   0.996   4.303
 2530SOL    HW2 8490   0.146   0.833   4.304
 2531SOL     OW 8491   4.185   1.807   6.284
 2531SOL    HW1 8492   4.142   1.741   6.223
 2531SOL    HW2 8493   4.140   1.804   6.373
 2532SOL     OW 8494   1.756   4.654   6.597
 2532SOL    HW1 8495   1.770   4.661   6.498
 2532SOL    HW2 8496   1.663   4.623   6.615
 2533SOL     OW 8497   5.972   6.577   5.693
 2533SOL    HW1 8498   6.001   6.523   5.614
 2533SOL    HW2 8499   6.048   6.586   5.758
 2534SOL     OW 8500   0.860   2.452   3.857
 2534SOL    HW1 8501   0.813   2.418   3.938
 2534SOL    HW2 8502   0.957   2.428   3.862
 2535SOL     OW 8503   1.816   1.135   3.094
 2535SOL    HW1 8504   1.872   1.206   3.051
 2535SOL    HW2 8505   1.771   1.080   3.024
 2536SOL     OW 8506   5.827   1.132   4.062
 2536SOL    HW1 8507   5.736   1.105   4.030
 2536SOL    HW2 8508   5.818   1.181   4.149
 2537SOL     OW 8509   4.546   5.387   1.135
 2537SOL    HW1 8510   4.636   5.382   1.176
 2537SOL    HW2 8511   4.500   5.470   1.166
 2538SOL     OW 8512   2.458   4.683   4.848
 2538SOL    HW1 8513   2.439   4.585   4.859
 2538SOL    HW2 8514   2.377   4.728   4.810
 2539SOL     OW 8515   2.858   0.165   5.073
 2539SOL    HW1 8516   2.785   0.097   5.077
 2539SOL    HW2 8517   2.946   0.119   5.081
 2540SOL     OW 8518   5.681   2.017   2.295
 2540SOL    HW1 8519   5.772   2.046   2.324
 2540SOL    HW2 8520   5.612   2.065   2.349
 2541SOL     OW 8521   0.764   6.256   5.945
 2541SOL    HW1 8522   0.695   6.207   5.893
 2541SOL    HW2 8523   0.782   6.345   5.902
 2542SOL     OW 8524   3.665   2.095   4.098
 2542SOL    HW1 8525   3.569   2.120   4.080
 2542SOL    HW2 8526   3.679   2.089   4.197
 2543SOL     OW 8527   0.433   2.002   3.930
 2543SOL    HW1 8528   0.401   2.077   3.987
 2543SOL    HW2 8529   0.441   2.033   3.835
 2544SOL     OW 8530   6.027   5.870   1.699
 2544SOL    HW1 8531   6.020   5.777   1.664
 2544SOL    HW2 8532   6.123   5.898   1.702
 2545SOL     OW 8533   0.140   1.778   1.498
 2545SOL    HW1 8534   0.044   1.804   1.492
 2545SOL    HW2 8535   0.179   1.774   1.407
 2546SOL     OW 8536   0.141   4.481   2.653
 2546SOL    HW1 8537   0.114   4.576   2.641
 2546SOL    HW2 8538   0.069   4.431   2.702
 2547SOL     OW 8539   5.760   3.595   0.967
 2547SOL    HW1 8540   5.856   3.590   0.939
 2547SOL    HW2 8541   5.749   3.552   1.057
 2548SOL     OW 8542   6.907   6.704   5.457
 2548SOL    HW1 8543   6.914   6.673   5.552
 2548SOL    HW2 8544   6.997   6.706   5.416
 2549SOL     OW 8545   2.734   2.254   0.755
 2549SOL    HW1 8546   2.642   2.268   0.791
 2549SOL    HW2 8547   2.729   2.221   0.661
 2550SOL     OW 8548   4.206   6.789   6.016
 2550SOL    HW1 8549   4.209   6.884   6.049
 2550SOL    HW2 8550   4.142   6.737   6.073
 2551SOL     OW 8551   3.566   5.118   0.499
 2551SOL    HW1 8552   3.619   5.169   0.431
 2551SOL    HW2 8553   3.474   5.157   0.506
 2552SOL     OW 8554   2.695   6.004   1.131
 2552SOL    HW1 8555   2.597   6.020   1.143
 2552SOL    HW2 8556   2.718   6.008   1.033
 2553SOL     OW 8557   4.657   1.159   6.641
 2553SOL    HW1 8558   4.662   1.258   6.631
 2553SOL    HW2 8559   4.566   1.133   6.676
 2554SOL     OW 8560   1.475   6.171   1.654
 2554SOL    HW1 8561   1.447   6.151   1.747
 2554SOL    HW2 8562   1.501   6.268   1.647
 2555SOL     OW 8563   5.364   6.169   5.103
 2555SOL    HW1 8564   5.314   6.233   5.161
 2555SOL    HW2 8565   5.399   6.094   5.159
 2556SOL     OW 8566   3.970   0.524   0.943
 2556SOL    HW1 8567   4.066   0.495   0.946
 2556SOL    HW2 8568   3.966   0.623   0.931
 2557SOL     OW 8569   3.272   0.305   6.939
 2557SOL    HW1 8570   3.236   0.342   0.005
 2557SOL    HW2 8571   3.231   0.216   6.921
 2558SOL     OW 8572   5.662   3.831   6.293
 2558SOL    HW1 8573   5.670   3.930   6.293
 2558SOL    HW2 8574   5.740   3.790   6.245
 2559SOL     OW 8575   0.822   4.398   4.952
 2559SOL    HW1 8576   0.855   4.305   4.937
 2559SOL    HW2 8577   0.899   4.458   4.972
 2560SOL     OW 8578   5.187   2.368   3.121
 2560SOL    HW1 8579   5.279   2.408   3.117
 2560SOL    HW2 8580   5.128   2.414   3.054
 2561SOL     OW 8581   3.199   0.554   4.236
 2561SOL    HW1 8582   3.277   0.616   4.235
 2561SOL    HW2 8583   3.205   0.490   4.160
 2562SOL     OW 8584   3.824   6.729   3.349
 2562SOL    HW1 8585   3.912   6.774   3.363
 2562SOL    HW2 8586   3.795   6.741   3.254
 2563SOL     OW 8587   3.658   1.265   0.077
 2563SOL    HW1 8588   3.723   1.327   0.121
 2563SOL    HW2 8589   3.707   1.186   0.041
 2564SOL     OW 8590   2.138   1.696   0.799
 2564SOL    HW1 8591   2.140   1.686   0.898
 2564SOL    HW2 8592   2.075   1.770   0.775
 2565SOL     OW 8593   1.376   1.954   0.011
 2565SOL    HW1 8594   1.363   2.052   0.024
 2565SOL    HW2 8595   1.430   1.917   0.087
 2566SOL     OW 8596   2.460   0.640   1.201
 2566SOL    HW1 8597   2.376   0.593   1.174
 2566SOL    HW2 8598   2.438   0.733   1.231
 2567SOL     OW 8599   1.883   0.517   0.408
 2567SOL    HW1 8600   1.877   0.525   0.308
 2567SOL    HW2 8601   1.798   0.477   0.443
 2568SOL     OW 8602   3.047   6.557   1.047
 2568SOL    HW1 8603   3.071   6.590   0.956
 2568SOL    HW2 8604   3.088   6.616   1.116
 2569SOL     OW 8605   0.837   0.114   1.261
 2569SOL    HW1 8606   0.902   0.098   1.336
 2569SOL    HW2 8607   0.886   0.155   1.184
 2570SOL     OW 8608   6.162   6.611   5.880
 2570SOL    HW1 8609   6.228   6.660   5.824
 2570SOL    HW2 8610   6.098   6.675   5.921
 2571SOL     OW 8611   3.585   3.265   4.482
 2571SOL    HW1 8612   3.564   3.244   4.386
 2571SOL    HW2 8613   3.680   3.241   4.501
 2572SOL     OW 8614   1.715   6.726   1.807
 2572SOL    HW1 8615   1.779   6.663   1.763
 2572SOL    HW2 8616   1.752   6.818   1.804
 2573SOL     OW 8617   6.984   2.305   4.378
 2573SOL    HW1 8618   7.005   2.212   4.348
 2573SOL    HW2 8619   6.924   2.349   4.310
 2574SOL     OW 8620   0.769   3.721   1.836
 2574SOL    HW1 8621   0.849   3.673   1.871
 2574SOL    HW2 8622   0.758   3.807   1.885
 2575SOL     OW 8623   6.504   3.773   0.327
 2575SOL    HW1 8624   6.474   3.714   0.252
 2575SOL    HW2 8625   6.482   3.728   0.414
 2576SOL     OW 8626   1.687   6.963   3.599
 2576SOL    HW1 8627   1.757   0.010   3.572
 2576SOL    HW2 8628   1.597   7.002   3.585
 2577SOL     OW 8629   2.237   6.328   2.473
 2577SOL    HW1 8630   2.257   6.392   2.399
 2577SOL    HW2 8631   2.223   6.379   2.558
 2578SOL     OW 8632   4.830   2.428   4.374
 2578SOL    HW1 8633   4.797   2.335   4.384
 2578SOL    HW2 8634   4.855   2.445   4.279
 2579SOL     OW 8635   6.938   2.459   6.497
 2579SOL    HW1 8636   6.972   2.423   6.410
 2579SOL    HW2 8637   6.883   2.389   6.544
 2580SOL     OW 8638   1.507   2.593   6.148
 2580SOL    HW1 8639   1.588   2.632   6.104
 2580SOL    HW2 8640   1.516   2.494   6.151
 2581SOL     OW 8641   6.337   6.690   3.890
 2581SOL    HW1 8642   6.262   6.666   3.828
 2581SOL    HW2 8643   6.380   6.774   3.860
 2582SOL     OW 8644   0.767   5.421   2.298
 2582SOL    HW1 8645   0.857   5.440   2.336
 2582SOL    HW2 8646   0.774   5.347   2.231
 2583SOL     OW 8647   1.704   0.327   0.552
 2583SOL    HW1 8648   1.607   0.305   0.541
 2583SOL    HW2 8649   1.757   0.242   0.564
 2584SOL     OW 8650   4.478   6.660   1.892
 2584SOL    HW1 8651   4.469   6.574   1.843
 2584SOL    HW2 8652   4.425   6.656   1.977
 2585SOL     OW 8653   4.022   0.652   1.436
 2585SOL    HW1 8654   4.103   0.612   1.477
 2585SOL    HW2 8655   3.971   0.703   1.506
 2586SOL     OW 8656   6.520   2.252   3.982
 2586SOL    HW1 8657   6.518   2.155   4.007
 2586SOL    HW2 8658   6.445   2.271   3.919
 2587SOL     OW 8659   5.797   6.232   3.184
 2587SOL    HW1 8660   5.759   6.212   3.275
 2587SOL    HW2 8661   5.891   6.263   3.194
 2588SOL     OW 8662   5.493   1.188   1.134
 2588SOL    HW1 8663   5.549   1.188   1.217
 2588SOL    HW2 8664   5.415   1.248   1.146
 2589SOL     OW 8665   6.697   6.683   6.734
 2589SOL    HW1 8666   6.769   6.741   6.697
 2589SOL    HW2 8667   6.638   6.651   6.659
 2590SOL     OW 8668   4.487   0.124   2.225
 2590SOL    HW1 8669   4.563   0.080   2.274
 2590SOL    HW2 8670   4.459   0.206   2.276
 2591SOL     OW 8671   5.431   6.733   1.336
 2591SOL    HW1 8672   5.438   6.666   1.410
 2591SOL    HW2 8673   5.508   6.722   1.273
 2592SOL     OW 8674   3.988   5.587   1.548
 2592SOL    HW1 8675   4.029   5.677   1.559
 2592SOL    HW2 8676   3.890   5.596   1.535
 2593SOL     OW 8677   2.936   6.345   2.202
 2593SOL    HW1 8678   2.949   6.417   2.271
 2593SOL    HW2 8679   2.919   6.258   2.248
 2594SOL     OW 8680   1.045   6.593   5.886
 2594SOL    HW1 8681   1.081   6.582   5.978
 2594SOL    HW2 8682   1.082   6.521   5.827
 2595SOL     OW 8683   6.159   3.896   3.914
 2595SOL    HW1 8684   6.081   3.861   3.861
 2595SOL    HW2 8685   6.134   3.982   3.958
 2596SOL     OW 8686   3.952   2.173   2.095
 2596SOL    HW1 8687   4.017   2.239   2.055
 2596SOL    HW2 8688   3.860   2.195   2.064
 2597SOL     OW 8689   2.239   2.968   6.953
 2597SOL    HW1 8690   2.260   2.871   6.942
 2597SOL    HW2 8691   2.140   2.979   6.962
 2598SOL     OW 8692   6.577   3.236   3.394
 2598SOL    HW1 8693   6.575   3.165   3.465
 2598SOL    HW2 8694   6.671   3.263   3.376
 2599SOL     OW 8695   3.772   5.634   7.005
 2599SOL    HW1 8696   3.814   5.603   6.920
 2599SOL    HW2 8697   3.678   5.664   6.986
 2600SOL     OW 8698   6.321   3.735   3.417
 2600SOL    HW1 8699   6.368   3.657   3.374
 2600SOL    HW2 8700   6.351   3.743   3.512
 2601SOL     OW 8701   4.088   3.081   6.090
 2601SOL    HW1 8702   4.016   3.088   6.158
 2601SOL    HW2 8703   4.106   2.984   6.069
 2602SOL     OW 8704   6.182   5.268   3.683
 2602SOL    HW1 8705   6.258   5.207   3.661
 2602SOL    HW2 8706   6.134   5.294   3.599
 2603SOL     OW 8707   3.445   2.171   1.179
 2603SOL    HW1 8708   3.475   2.090   1.229
 2603SOL    HW2 8709   3.350   2.158   1.150
 2604SOL     OW 8710   6.090   0.153   1.164
 2604SOL    HW1 8711   6.026   0.130   1.091
 2604SOL    HW2 8712   6.151   0.226   1.134
 2605SOL     OW 8713   4.694   4.964   4.301
 2605SOL    HW1 8714   4.743   4.988   4.217
 2605SOL    HW2 8715   4.596   4.970   4.285
 2606SOL     OW 8716   0.381   4.568   0.223
 2606SOL    HW1 8717   0.346   4.536   0.134
 2606SOL    HW2 8718   0.475   4.601   0.211
 2607SOL     OW 8719   0.494   0.791   3.817
 2607SOL    HW1 8720   0.579   0.790   3.870
 2607SOL    HW2 8721   0.509   0.746   3.729
 2608SOL     OW 8722   4.975   0.398   1.510
 2608SOL    HW1 8723   4.979   0.498   1.516
 2608SOL    HW2 8724   4.901   0.364   1.567
 2609SOL     OW 8725   0.770   2.181   2.687
 2609SOL    HW1 8726   0.817   2.216   2.606
 2609SOL    HW2 8727   0.768   2.081   2.684
 2610SOL     OW 8728   5.786   6.476   4.768
 2610SOL    HW1 8729   5.756   6.455   4.861
 2610SOL    HW2 8730   5.884   6.458   4.760
 2611SOL     OW 8731   4.275   6.610   1.391
 2611SOL    HW1 8732   4.348   6.542   1.384
 2611SOL    HW2 8733   4.303   6.683   1.453
 2612SOL     OW 8734   6.047   6.375   3.218
 2612SOL    HW1 8735   6.064   6.458   3.270
 2612SOL    HW2 8736   6.069   6.391   3.121
 2613SOL     OW 8737   4.146   0.559   1.692
 2613SOL    HW1 8738   4.093   0.589   1.771
 2613SOL    HW2 8739   4.231   0.611   1.686
 2614SOL     OW 8740   6.974   6.313   6.664
 2614SOL    HW1 8741   6.887   6.276   6.694
 2614SOL    HW2 8742   6.989   6.290   6.568
 2615SOL     OW 8743   5.248   5.694   2.532
 2615SOL    HW1 8744   5.195   5.609   2.538
 2615SOL    HW2 8745   5.335   5.675   2.486
 2616SOL     OW 8746   3.856   2.987   2.990
 2616SOL    HW1 8747   3.826   2.926   3.064
 2616SOL    HW2 8748   3.803   2.968   2.908
 2617SOL     OW 8749   4.133   6.904   1.394
 2617SOL    HW1 8750   4.190   6.959   1.333
 2617SOL    HW2 8751   4.065   6.963   1.438
 2618SOL     OW 8752   1.134   0.570   0.512
 2618SOL    HW1 8753   1.214   0.627   0.495
 2618SOL    HW2 8754   1.052   0.618   0.482
 2619SOL     OW 8755   4.519   2.379   1.477
 2619SOL    HW1 8756   4.424   2.372   1.509
 2619SOL    HW2 8757   4.577   2.320   1.534
 2620SOL     OW 8758   1.196   4.447   4.197
 2620SOL    HW1 8759   1.106   4.403   4.192
 2620SOL    HW2 8760   1.223   4.454   4.293
 2621SOL     OW 8761   0.819   5.171   3.412
 2621SOL    HW1 8762   0.761   5.139   3.487
 2621SOL    HW2 8763   0.861   5.092   3.367
 2622SOL     OW 8764   2.325   2.735   6.826
 2622SOL    HW1 8765   2.327   2.636   6.817
 2622SOL    HW2 8766   2.382   2.777   6.755
 2623SOL     OW 8767   2.996   0.852   5.706
 2623SOL    HW1 8768   3.006   0.951   5.701
 2623SOL    HW2 8769   2.915   0.825   5.655
 2624SOL     OW 8770   5.772   2.162   3.780
 2624SOL    HW1 8771   5.788   2.103   3.859
 2624SOL    HW2 8772   5.770   2.258   3.810
 2625SOL     OW 8773   2.892   2.124   5.886
 2625SOL    HW1 8774   2.947   2.206   5.896
 2625SOL    HW2 8775   2.816   2.127   5.952
 2626SOL     OW 8776   1.998   6.519   3.226
 2626SOL    HW1 8777   2.048   6.514   3.140
 2626SOL    HW2 8778   1.912   6.569   3.212
 2627SOL     OW 8779   6.523   0.648   4.511
 2627SOL    HW1 8780   6.523   0.574   4.444
 2627SOL    HW2 8781   6.614   0.688   4.517
 2628SOL     OW 8782   3.875   6.290   6.934
 2628SOL    HW1 8783   3.914   6.294   6.842
 2628SOL    HW2 8784   3.855   6.382   6.966
 2629SOL     OW 8785   3.189   4.210   1.232
 2629SOL    HW1 8786   3.114   4.194   1.296
 2629SOL    HW2 8787   3.267   4.249   1.280
 2630SOL     OW 8788   2.939   2.251   2.410
 2630SOL    HW1 8789   2.883   2.315   2.358
 2630SOL    HW2 8790   2.911   2.253   2.506
 2631SOL     OW 8791   4.370   6.575   3.960
 2631SOL    HW1 8792   4.310   6.639   4.008
 2631SOL    HW2 8793   4.355   6.583   3.861
 2632SOL     OW 8794   3.795   2.262   0.248
 2632SOL    HW1 8795   3.714   2.282   0.193
 2632SOL    HW2 8796   3.846   2.347   0.264
 2633SOL     OW 8797   5.661   2.486   6.602
 2633SOL    HW1 8798   5.653   2.432   6.518
 2633SOL    HW2 8799   5.664   2.424   6.681
 2634SOL     OW 8800   1.979   4.540   1.191
 2634SOL    HW1 8801   2.028   4.458   1.162
 2634SOL    HW2 8802   2.013   4.569   1.280
 2635SOL     OW 8803   5.695   4.925   5.112
 2635SOL    HW1 8804   5.789   4.903   5.138
 2635SOL    HW2 8805   5.696   4.978   5.027
 2636SOL     OW 8806   4.602   0.243   5.671
 2636SOL    HW1 8807   4.687   0.191   5.676
 2636SOL    HW2 8808   4.621   0.341   5.681
 2637SOL     OW 8809   5.636   6.693   2.846
 2637SOL    HW1 8810   5.552   6.732   2.808
 2637SOL    HW2 8811   5.624   6.594   2.856
 2638SOL     OW 8812   5.660   6.281   0.561
 2638SOL    HW1 8813   5.626   6.262   0.469
 2638SOL    HW2 8814   5.599   6.346   0.606
 2639SOL     OW 8815   6.217   6.007   0.824
 2639SOL    HW1 8816   6.216   5.944   0.902
 2639SOL    HW2 8817   6.123   6.021   0.792
 2640SOL     OW 8818   7.005   6.191   5.224
 2640SOL    HW1 8819   6.911   6.163   5.204
 2640SOL    HW2 8820   7.014   6.289   5.212
 2641SOL     OW 8821   5.090   4.479   0.107
 2641SOL    HW1 8822   5.131   4.544   0.170
 2641SOL    HW2 8823   5.129   4.388   0.122
 2642SOL     OW 8824   4.802   0.286   3.605
 2642SOL    HW1 8825   4.775   0.260   3.698
 2642SOL    HW2 8826   4.823   0.383   3.601
 2643SOL     OW 8827   0.155   0.264   2.793
 2643SOL    HW1 8828   0.117   0.172   2.785
 2643SOL    HW2 8829   0.245   0.259   2.837
 2644SOL     OW 8830   0.284   4.184   6.170
 2644SOL    HW1 8831   0.209   4.121   6.150
 2644SOL    HW2 8832   0.353   4.137   6.225
 2645SOL     OW 8833   5.466   5.872   6.528
 2645SOL    HW1 8834   5.518   5.787   6.519
 2645SOL    HW2 8835   5.522   5.948   6.496
 2646SOL     OW 8836   6.349   6.836   6.626
 2646SOL    HW1 8837   6.343   6.757   6.565
 2646SOL    HW2 8838   6.437   6.881   6.613
 2647SOL     OW 8839   4.294   2.172   1.302
 2647SOL    HW1 8840   4.372   2.116   1.329
 2647SOL    HW2 8841   4.239   2.194   1.383
 2648SOL     OW 8842   5.608   0.093   2.357
 2648SOL    HW1 8843   5.553   0.173   2.381
 2648SOL    HW2 8844   5.705   0.120   2.352
 2649SOL     OW 8845   3.311   1.606   6.437
 2649SOL    HW1 8846   3.376   1.608   6.513
 2649SOL    HW2 8847   3.244   1.679   6.448
 2650SOL     OW 8848   0.464   6.065   2.760
 2650SOL    HW1 8849   0.558   6.095   2.777
 2650SOL    HW2 8850   0.402   6.143   2.768
 2651SOL     OW 8851   6.795   1.217   2.254
 2651SOL    HW1 8852   6.700   1.250   2.251
 2651SOL    HW2 8853   6.801   1.139   2.316
 2652SOL     OW 8854   3.510   3.234   2.873
 2652SOL    HW1 8855   3.572   3.241   2.795
 2652SOL    HW2 8856   3.524   3.312   2.934
 2653SOL     OW 8857   6.671   6.644   6.158
 2653SOL    HW1 8858   6.755   6.697   6.166
 2653SOL    HW2 8859   6.677   6.563   6.216
 2654SOL     OW 8860   5.317   2.766   5.572
 2654SOL    HW1 8861   5.372   2.834   5.620
 2654SOL    HW2 8862   5.346   2.675   5.599
 2655SOL     OW 8863   4.618   6.149   4.249
 2655SOL    HW1 8864   4.664   6.063   4.271
 2655SOL    HW2 8865   4.559   6.176   4.326
 2656SOL     OW 8866   5.281   3.617   3.603
 2656SOL    HW1 8867   5.259   3.653   3.694
 2656SOL    HW2 8868   5.352   3.675   3.561
 2657SOL     OW 8869   1.870   3.829   6.821
 2657SOL    HW1 8870   1.824   3.748   6.784
 2657SOL    HW2 8871   1.813   3.870   6.892
 2658SOL     OW 8872   6.069   3.961   5.932
 2658SOL    HW1 8873   6.169   3.965   5.925
 2658SOL    HW2 8874   6.032   4.053   5.916
 2659SOL     OW 8875   6.801   2.464   4.248
 2659SOL    HW1 8876   6.773   2.560   4.255
 2659SOL    HW2 8877   6.763   2.425   4.164
 2660SOL     OW 8878   6.519   2.353   2.683
 2660SOL    HW1 8879   6.554   2.443   2.658
 2660SOL    HW2 8880   6.551   2.285   2.616
 2661SOL     OW 8881   3.706   6.024   1.317
 2661SOL    HW1 8882   3.723   6.004   1.220
 2661SOL    HW2 8883   3.608   6.030   1.333
 2662SOL     OW 8884   3.883   6.774   4.287
 2662SOL    HW1 8885   3.946   6.702   4.319
 2662SOL    HW2 8886   3.841   6.745   4.201
 2663SOL     OW 8887   1.831   4.144   2.586
 2663SOL    HW1 8888   1.919   4.136   2.634
 2663SOL    HW2 8889   1.794   4.236   2.599
 2664SOL     OW 8890   3.933   3.495   2.688
 2664SOL    HW1 8891   3.985   3.533   2.764
 2664SOL    HW2 8892   3.934   3.395   2.694
 2665SOL     OW 8893   3.451   1.332   4.588
 2665SOL    HW1 8894   3.412   1.384   4.664
 2665SOL    HW2 8895   3.412   1.365   4.502
 2666SOL     OW 8896   5.605   4.347   1.108
 2666SOL    HW1 8897   5.598   4.284   1.185
 2666SOL    HW2 8898   5.550   4.429   1.126
 2667SOL     OW 8899   2.504   5.561   4.693
 2667SOL    HW1 8900   2.559   5.640   4.720
 2667SOL    HW2 8901   2.514   5.489   4.762
 2668SOL     OW 8902   6.889   2.943   5.351
 2668SOL    HW1 8903   6.867   2.938   5.449
 2668SOL    HW2 8904   6.975   2.896   5.334
 2669SOL     OW 8905   4.353   4.731   5.497
 2669SOL    HW1 8906   4.271   4.696   5.453
 2669SOL    HW2 8907   4.328   4.797   5.567
 2670SOL     OW 8908   1.022   1.479   6.950
 2670SOL    HW1 8909   1.025   1.498   6.852
 2670SOL    HW2 8910   0.943   1.525   6.991
 2671SOL     OW 8911   2.286   3.372   6.110
 2671SOL    HW1 8912   2.383   3.395   6.102
 2671SOL    HW2 8913   2.269   3.333   6.200
 2672SOL     OW 8914   1.831   5.706   0.624
 2672SOL    HW1 8915   1.816   5.722   0.526
 2672SOL    HW2 8916   1.889   5.780   0.661
 2673SOL     OW 8917   4.102   2.235   3.078
 2673SOL    HW1 8918   4.028   2.197   3.133
 2673SOL    HW2 8919   4.091   2.207   2.983
 2674SOL     OW 8920   6.541   4.894   5.006
 2674SOL    HW1 8921   6.459   4.856   4.964
 2674SOL    HW2 8922   6.540   4.876   5.104
 2675SOL     OW 8923   0.397   4.641   5.934
 2675SOL    HW1 8924   0.340   4.576   5.984
 2675SOL    HW2 8925   0.378   4.633   5.836
 2676SOL     OW 8926   4.542   1.664   1.415
 2676SOL    HW1 8927   4.495   1.680   1.502
 2676SOL    HW2 8928   4.479   1.619   1.351
 2677SOL     OW 8929   2.394   4.664   1.738
 2677SOL    HW1 8930   2.376   4.757   1.770
 2677SOL    HW2 8931   2.325   4.602   1.776
 2678SOL     OW 8932   0.727   4.994   6.468
 2678SOL    HW1 8933   0.779   5.000   6.553
 2678SOL    HW2 8934   0.631   5.016   6.487
 2679SOL     OW 8935   3.273   5.334   0.930
 2679SOL    HW1 8936   3.181   5.362   0.906
 2679SOL    HW2 8937   3.329   5.415   0.949
 2680SOL     OW 8938   2.012   1.337   1.688
 2680SOL    HW1 8939   2.058   1.363   1.604
 2680SOL    HW2 8940   1.913   1.342   1.674
 2681SOL     OW 8941   1.689   2.684   3.118
 2681SOL    HW1 8942   1.645   2.682   3.028
 2681SOL    HW2 8943   1.642   2.619   3.178
 2682SOL     OW 8944   5.527   2.807   2.577
 2682SOL    HW1 8945   5.486   2.828   2.489
 2682SOL    HW2 8946   5.614   2.758   2.562
 2683SOL     OW 8947   1.068   5.655   1.027
 2683SOL    HW1 8948   1.051   5.595   0.949
 2683SOL    HW2 8949   1.118   5.605   1.097
 2684SOL     OW 8950   2.200   6.174   3.176
 2684SOL    HW1 8951   2.252   6.136   3.100
 2684SOL    HW2 8952   2.166   6.265   3.151
 2685SOL     OW 8953   4.824   6.237   5.172
 2685SOL    HW1 8954   4.817   6.306   5.243
 2685SOL    HW2 8955   4.904   6.179   5.189
 2686SOL     OW 8956   2.179   3.112   4.232
 2686SOL    HW1 8957   2.107   3.112   4.302
 2686SOL    HW2 8958   2.265   3.140   4.274
 2687SOL     OW 8959   3.918   5.390   2.151
 2687SOL    HW1 8960   3.829   5.435   2.163
 2687SOL    HW2 8961   3.915   5.298   2.189
 2688SOL     OW 8962   4.312   4.556   6.788
 2688SOL    HW1 8963   4.411   4.543   6.791
 2688SOL    HW2 8964   4.287   4.591   6.698
 2689SOL     OW 8965   0.510   3.174   3.802
 2689SOL    HW1 8966   0.509   3.074   3.814
 2689SOL    HW2 8967   0.543   3.197   3.711
 2690SOL     OW 8968   4.103   3.680   3.986
 2690SOL    HW1 8969   4.013   3.684   3.943
 2690SOL    HW2 8970   4.150   3.596   3.958
 2691SOL     OW 8971   1.691   5.970   2.096
 2691SOL    HW1 8972   1.783   5.934   2.080
 2691SOL    HW2 8973   1.623   5.901   2.070
 2692SOL     OW 8974   0.220   6.452   3.362
 2692SOL    HW1 8975   0.126   6.470   3.388
 2692SOL    HW2 8976   0.229   6.356   3.333
 2693SOL     OW 8977   1.882   3.728   3.458
 2693SOL    HW1 8978   1.953   3.747   3.391
 2693SOL    HW2 8979   1.921   3.735   3.550
 2694SOL     OW 8980   1.636   6.752   3.421
 2694SOL    HW1 8981   1.578   6.683   3.465
 2694SOL    HW2 8982   1.673   6.813   3.491
 2695SOL     OW 8983   4.532   2.265   2.727
 2695SOL    HW1 8984   4.516   2.338   2.660
 2695SOL    HW2 8985   4.444   2.229   2.758
 2696SOL     OW 8986   3.992   3.806   5.418
 2696SOL    HW1 8987   4.064   3.872   5.438
 2696SOL    HW2 8988   4.031   3.730   5.366
 2697SOL     OW 8989   2.810   1.943   4.461
 2697SOL    HW1 8990   2.782   2.021   4.406
 2697SOL    HW2 8991   2.850   1.976   4.547
 2698SOL     OW 8992   1.629   4.025   0.687
 2698SOL    HW1 8993   1.602   4.096   0.621
 2698SOL    HW2 8994   1.615   4.060   0.780
 2699SOL     OW 8995   3.499   6.344   1.514
 2699SOL    HW1 8996   3.404   6.370   1.534
 2699SOL    HW2 8997   3.550   6.425   1.486
 2700SOL     OW 8998   1.735   3.414   2.736
 2700SOL    HW1 8999   1.646   3.446   2.703
 2700SOL    HW2 9000   1.738   3.314   2.731
 2701SOL     OW 9001   3.537   0.019   6.752
 2701SOL    HW1 9002   3.599   0.091   6.781
 2701SOL    HW2 9003   3.551   6.957   6.808
 2702SOL     OW 9004   0.125   1.324   3.768
 2702SOL    HW1 9005   0.171   1.341   3.856
 2702SOL    HW2 9006   0.063   1.246   3.777
 2703SOL     OW 9007   1.659   1.941   2.325
 2703SOL    HW1 9008   1.747   1.893   2.324
 2703SOL    HW2 9009   1.607   1.917   2.243
 2704SOL     OW 9010   2.563   5.600   1.551
 2704SOL    HW1 9011   2.663   5.601   1.558
 2704SOL    HW2 9012   2.528   5.509   1.574
 2705SOL     OW 9013   6.529   5.650   3.363
 2705SOL    HW1 9014   6.618   5.608   3.381
 2705SOL    HW2 9015   6.500   5.629   3.270
 2706SOL     OW 9016   6.499   1.597   1.710
 2706SOL    HW1 9017   6.517   1.572   1.805
 2706SOL    HW2 9018   6.464   1.691   1.706
 2707SOL     OW 9019   2.122   1.689   6.287
 2707SOL    HW1 9020   2.138   1.652   6.195
 2707SOL    HW2 9021   2.066   1.772   6.280
 2708SOL     OW 9022   1.395   2.240   1.592
 2708SOL    HW1 9023   1.418   2.209   1.500
 2708SOL    HW2 9024   1.460   2.203   1.658
 2709SOL     OW 9025   4.966   5.736   0.676
 2709SOL    HW1 9026   5.002   5.821   0.716
 2709SOL    HW2 9027   4.953   5.749   0.578
 2710SOL     OW 9028   0.258   4.021   2.498
 2710SOL    HW1 9029   0.287   4.115   2.514
 2710SOL    HW2 9030   0.159   4.017   2.491
 2711SOL     OW 9031   0.789   0.139   2.187
 2711SOL    HW1 9032   0.872   0.124   2.133
 2711SOL    HW2 9033   0.787   0.075   2.264
 2712SOL     OW 9034   2.677   4.456   0.773
 2712SOL    HW1 9035   2.698   4.551   0.750
 2712SOL    HW2 9036   2.625   4.415   0.698
 2713SOL     OW 9037   2.367   3.244   5.391
 2713SOL    HW1 9038   2.404   3.171   5.334
 2713SOL    HW2 9039   2.386   3.332   5.349
 2714SOL     OW 9040   4.709   0.655   6.052
 2714SOL    HW1 9041   4.740   0.750   6.049
 2714SOL    HW2 9042   4.626   0.645   5.996
 2715SOL     OW 9043   6.037   1.040   0.144
 2715SOL    HW1 9044   5.994   1.028   0.233
 2715SOL    HW2 9045   6.053   0.951   0.102
 2716SOL     OW 9046   0.463   5.863   2.586
 2716SOL    HW1 9047   0.384   5.818   2.627
 2716SOL    HW2 9048   0.491   5.940   2.644
 2717SOL     OW 9049   0.861   0.452   3.013
 2717SOL    HW1 9050   0.801   0.519   2.970
 2717SOL    HW2 9051   0.836   0.360   2.982
 2718SOL     OW 9052   2.071   4.448   4.201
 2718SOL    HW1 9053   2.008   4.387   4.248
 2718SOL    HW2 9054   2.162   4.440   4.243
 2719SOL     OW 9055   4.188   5.356   1.707
 2719SOL    HW1 9056   4.128   5.324   1.780
 2719SOL    HW2 9057   4.283   5.338   1.731
 2720SOL     OW 9058   1.857   6.894   3.829
 2720SOL    HW1 9059   1.821   6.951   3.903
 2720SOL    HW2 9060   1.812   6.918   3.743
 2721SOL     OW 9061   3.516   6.948   4.210
 2721SOL    HW1 9062   3.562   6.988   4.289
 2721SOL    HW2 9063   3.417   6.945   4.226
 2722SOL     OW 9064   1.027   6.393   2.735
 2722SOL    HW1 9065   1.034   6.301   2.775
 2722SOL    HW2 9066   1.093   6.402   2.661
 2723SOL     OW 9067   1.792   0.971   5.793
 2723SOL    HW1 9068   1.816   1.053   5.846
 2723SOL    HW2 9069   1.831   0.890   5.836
 2724SOL     OW 9070   3.946   5.660   6.201
 2724SOL    HW1 9071   3.922   5.571   6.238
 2724SOL    HW2 9072   3.975   5.721   6.274
 2725SOL     OW 9073   3.936   4.863   4.022
 2725SOL    HW1 9074   3.839   4.869   4.046
 2725SOL    HW2 9075   3.946   4.867   3.923
 2726SOL     OW 9076   5.128   5.590   1.984
 2726SOL    HW1 9077   5.210   5.647   1.981
 2726SOL    HW2 9078   5.095   5.575   1.891
 2727SOL     OW 9079   0.985   5.540   2.389
 2727SOL    HW1 9080   0.989   5.638   2.408
 2727SOL    HW2 9081   1.068   5.496   2.424
 2728SOL     OW 9082   2.622   6.595   5.454
 2728SOL    HW1 9083   2.574   6.528   5.510
 2728SOL    HW2 9084   2.662   6.549   5.375
 2729SOL     OW 9085   5.738   5.147   3.001
 2729SOL    HW1 9086   5.814   5.087   3.022
 2729SOL    HW2 9087   5.758   5.239   3.034
 2730SOL     OW 9088   1.297   0.389   0.873
 2730SOL    HW1 9089   1.201   0.402   0.847
 2730SOL    HW2 9090   1.307   0.299   0.917
 2731SOL     OW 9091   2.902   3.733   1.863
 2731SOL    HW1 9092   2.950   3.820   1.877
 2731SOL    HW2 9093   2.961   3.670   1.813
 2732SOL     OW 9094   5.761   2.029   2.715
 2732SOL    HW1 9095   5.737   2.126   2.709
 2732SOL    HW2 9096   5.679   1.973   2.705
 2733SOL     OW 9097   1.148   6.853   5.866
 2733SOL    HW1 9098   1.107   6.764   5.887
 2733SOL    HW2 9099   1.235   6.839   5.819
 2734SOL     OW 9100   1.939   6.093   4.119
 2734SOL    HW1 9101   1.991   6.076   4.203
 2734SOL    HW2 9102   1.943   6.012   4.061
 2735SOL     OW 9103   1.584   5.154   2.579
 2735SOL    HW1 9104   1.675   5.120   2.604
 2735SOL    HW2 9105   1.516   5.118   2.642
 2736SOL     OW 9106   4.339   0.478   5.010
 2736SOL    HW1 9107   4.273   0.553   4.999
 2736SOL    HW2 9108   4.432   0.514   5.002
 2737SOL     OW 9109   4.597   3.707   6.230
 2737SOL    HW1 9110   4.657   3.630   6.251
 2737SOL    HW2 9111   4.532   3.720   6.305
 2738SOL     OW 9112   5.687   5.313   4.794
 2738SOL    HW1 9113   5.638   5.355   4.717
 2738SOL    HW2 9114   5.631   5.240   4.833
 2739SOL     OW 9115   5.389   3.682   1.227
 2739SOL    HW1 9116   5.312   3.691   1.164
 2739SOL    HW2 9117   5.472   3.715   1.183
 2740SOL     OW 9118   5.967   2.241   3.584
 2740SOL    HW1 9119   5.883   2.211   3.630
 2740SOL    HW2 9120   5.952   2.331   3.543
 2741SOL     OW 9121   0.895   2.389   5.745
 2741SOL    HW1 9122   0.942   2.333   5.814
 2741SOL    HW2 9123   0.946   2.474   5.731
 2742SOL     OW 9124   2.007   6.844   6.784
 2742SOL    HW1 9125   2.104   6.846   6.760
 2742SOL    HW2 9126   1.961   6.775   6.728
 2743SOL     OW 9127   5.426   4.908   1.316
 2743SOL    HW1 9128   5.375   4.957   1.245
 2743SOL    HW2 9129   5.393   4.937   1.406
 2744SOL     OW 9130   4.115   2.474   5.975
 2744SOL    HW1 9131   4.180   2.399   5.986
 2744SOL    HW2 9132   4.041   2.465   6.041
 2745SOL     OW 9133   2.544   6.659   1.233
 2745SOL    HW1 9134   2.507   6.567   1.224
 2745SOL    HW2 9135   2.598   6.666   1.316
 2746SOL     OW 9136   2.074   1.981   6.317
 2746SOL    HW1 9137   2.151   1.982   6.253
 2746SOL    HW2 9138   2.003   2.043   6.284
 2747SOL     OW 9139   5.112   6.556   3.927
 2747SOL    HW1 9140   5.053   6.551   3.846
 2747SOL    HW2 9141   5.145   6.649   3.939
 2748SOL     OW 9142   3.691   1.359   2.953
 2748SOL    HW1 9143   3.754   1.358   3.031
 2748SOL    HW2 9144   3.622   1.287   2.965
 2749SOL     OW 9145   4.649   5.192   3.626
 2749SOL    HW1 9146   4.733   5.210   3.677
 2749SOL    HW2 9147   4.575   5.172   3.690
 2750SOL     OW 9148   0.741   5.702   2.635
 2750SOL    HW1 9149   0.817   5.718   2.572
 2750SOL    HW2 9150   0.667   5.767   2.615
 2751SOL     OW 9151   1.876   0.083   6.737
 2751SOL    HW1 9152   1.785   0.056   6.706
 2751SOL    HW2 9153   1.923   0.003   6.773
 2752SOL     OW 9154   5.906   6.262   5.648
 2752SOL    HW1 9155   5.819   6.303   5.675
 2752SOL    HW2 9156   5.981   6.307   5.697
 2753SOL     OW 9157   3.438   5.459   5.971
 2753SOL    HW1 9158   3.423   5.373   5.921
 2753SOL    HW2 9159   3.354   5.485   6.019
 2754SOL     OW 9160   0.844   0.840   4.605
 2754SOL    HW1 9161   0.890   0.885   4.682
 2754SOL    HW2 9162   0.756   0.884   4.589
 2755SOL     OW 9163   2.996   6.513   1.973
 2755SOL    HW1 9164   2.960   6.605   1.985
 2755SOL    HW2 9165   2.959   6.453   2.044
 2756SOL     OW 9166   0.001   2.553   5.750
 2756SOL    HW1 9167   0.054   2.633   5.778
 2756SOL    HW2 9168   6.947   2.581   5.689
 2757SOL     OW 9169   4.698   3.022   6.719
 2757SOL    HW1 9170   4.699   3.092   6.790
 2757SOL    HW2 9171   4.689   2.932   6.762
 2758SOL     OW 9172   6.055   5.968   2.519
 2758SOL    HW1 9173   5.984   5.914   2.474
 2758SOL    HW2 9174   6.140   5.963   2.466
 2759SOL     OW 9175   3.474   4.381   6.414
 2759SOL    HW1 9176   3.558   4.434   6.398
 2759SOL    HW2 9177   3.481   4.294   6.365
 2760SOL     OW 9178   5.397   6.042   3.394
 2760SOL    HW1 9179   5.391   6.083   3.302
 2760SOL    HW2 9180   5.346   6.098   3.459
 2761SOL     OW 9181   1.744   3.126   2.724
 2761SOL    HW1 9182   1.646   3.123   2.703
 2761SOL    HW2 9183   1.764   3.063   2.799
 2762SOL     OW 9184   2.725   2.222   0.488
 2762SOL    HW1 9185   2.647   2.226   0.424
 2762SOL    HW2 9186   2.753   2.126   0.498
 2763SOL     OW 9187   4.835   2.072   5.215
 2763SOL    HW1 9188   4.908   2.017   5.173
 2763SOL    HW2 9189   4.859   2.169   5.210
 2764SOL     OW 9190   0.919   3.962   2.210
 2764SOL    HW1 9191   1.013   3.967   2.244
 2764SOL    HW2 9192   0.869   3.892   2.261
 2765SOL     OW 9193   6.903   6.855   6.674
 2765SOL    HW1 9194   6.968   6.826   6.604
 2765SOL    HW2 9195   6.886   6.953   6.665
 2766SOL     OW 9196   5.447   1.010   6.829
 2766SOL    HW1 9197   5.441   1.007   6.929
 2766SOL    HW2 9198   5.439   0.918   6.792
 2767SOL     OW 9199   6.969   4.809   6.285
 2767SOL    HW1 9200   6.884   4.841   6.243
 2767SOL    HW2 9201   7.014   4.744   6.224
 2768SOL     OW 9202   4.651   0.198   0.912
 2768SOL    HW1 9203   4.654   0.143   0.828
 2768SOL    HW2 9204   4.636   0.137   0.990
 2769SOL     OW 9205   1.386   4.274   5.489
 2769SOL    HW1 9206   1.449   4.339   5.445
 2769SOL    HW2 9207   1.409   4.266   5.585
 2770SOL     OW 9208   2.752   6.805   0.769
 2770SOL    HW1 9209   2.709   6.893   0.788
 2770SOL    HW2 9210   2.851   6.816   0.765
 2771SOL     OW 9211   4.472   0.312   4.662
 2771SOL    HW1 9212   4.376   0.282   4.669
 2771SOL    HW2 9213   4.477   0.394   4.604
 2772SOL     OW 9214   3.741   0.229   3.341
 2772SOL    HW1 9215   3.692   0.164   3.283
 2772SOL    HW2 9216   3.832   0.194   3.363
 2773SOL     OW 9217   5.937   2.741   4.185
 2773SOL    HW1 9218   5.941   2.650   4.144
 2773SOL    HW2 9219   5.969   2.808   4.119
 2774SOL     OW 9220   5.185   1.410   3.948
 2774SOL    HW1 9221   5.136   1.427   4.034
 2774SOL    HW2 9222   5.261   1.474   3.940
 2775SOL     OW 9223   0.535   4.162   4.409
 2775SOL    HW1 9224   0.587   4.108   4.343
 2775SOL    HW2 9225   0.578   4.251   4.422
 2776SOL     OW 9226   5.031   4.400   6.016
 2776SOL    HW1 9227   4.949   4.416   6.070
 2776SOL    HW2 9228   5.110   4.439   6.063
 2777SOL     OW 9229   3.033   1.978   6.215
 2777SOL    HW1 9230   3.011   1.960   6.311
 2777SOL    HW2 9231   3.067   2.072   6.207
 2778SOL     OW 9232   2.884   6.224   6.281
 2778SOL    HW1 9233   2.915   6.169   6.204
 2778SOL    HW2 9234   2.850   6.312   6.248
 2779SOL     OW 9235   5.843   6.929   1.290
 2779SOL    HW1 9236   5.789   6.962   1.213
 2779SOL    HW2 9237   5.895   7.005   1.329
 2780SOL     OW 9238   0.322   1.459   5.190
 2780SOL    HW1 9239   0.302   1.500   5.101
 2780SOL    HW2 9240   0.260   1.382   5.206
 2781SOL     OW 9241   6.297   0.460   2.791
 2781SOL    HW1 9242   6.216   0.517   2.785
 2781SOL    HW2 9243   6.305   0.422   2.883
 2782SOL     OW 9244   4.646   0.956   6.441
 2782SOL    HW1 9245   4.634   1.020   6.517
 2782SOL    HW2 9246   4.558   0.915   6.417
 2783SOL     OW 9247   5.716   4.256   1.686
 2783SOL    HW1 9248   5.655   4.179   1.670
 2783SOL    HW2 9249   5.663   4.337   1.710
 2784SOL     OW 9250   1.259   1.836   1.207
 2784SOL    HW1 9251   1.247   1.911   1.143
 2784SOL    HW2 9252   1.258   1.749   1.158
 2785SOL     OW 9253   5.605   2.760   1.333
 2785SOL    HW1 9254   5.522   2.790   1.380
 2785SOL    HW2 9255   5.596   2.664   1.306
 2786SOL     OW 9256   0.237   6.933   0.395
 2786SOL    HW1 9257   0.270   6.933   0.490
 2786SOL    HW2 9258   0.277   6.856   0.346
 2787SOL     OW 9259   6.456   4.852   6.103
 2787SOL    HW1 9260   6.399   4.913   6.158
 2787SOL    HW2 9261   6.551   4.883   6.105
 2788SOL     OW 9262   2.983   6.381   5.703
 2788SOL    HW1 9263   2.900   6.434   5.719
 2788SOL    HW2 9264   3.017   6.401   5.611
 2789SOL     OW 9265   1.055   2.551   5.283
 2789SOL    HW1 9266   1.059   2.451   5.292
 2789SOL    HW2 9267   0.963   2.582   5.304
 2790SOL     OW 9268   1.712   5.554   1.755
 2790SOL    HW1 9269   1.634   5.548   1.817
 2790SOL    HW2 9270   1.701   5.485   1.683
 2791SOL     OW 9271   0.658   3.546   3.163
 2791SOL    HW1 9272   0.571   3.582   3.196
 2791SOL    HW2 9273   0.659   3.546   3.063
 2792SOL     OW 9274   3.365   1.445   5.230
 2792SOL    HW1 9275   3.444   1.422   5.172
 2792SOL    HW2 9276   3.287   1.468   5.173
 2793SOL     OW 9277   3.338   4.440   1.025
 2793SOL    HW1 9278   3.301   4.514   1.081
 2793SOL    HW2 9279   3.276   4.362   1.029
 2794SOL     OW 9280   1.127   2.707   6.572
 2794SOL    HW1 9281   1.142   2.622   6.521
 2794SOL    HW2 9282   1.055   2.760   6.527
 2795SOL     OW 9283   1.111   4.834   1.286
 2795SOL    HW1 9284   1.128   4.866   1.193
 2795SOL    HW2 9285   1.182   4.869   1.347
 2796SOL     OW 9286   1.685   6.185   6.063
 2796SOL    HW1 9287   1.764   6.124   6.067
 2796SOL    HW2 9288   1.611   6.147   6.118
 2797SOL     OW 9289   5.739   6.872   3.507
 2797SOL    HW1 9290   5.640   6.867   3.522
 2797SOL    HW2 9291   5.757   6.918   3.420
 2798SOL     OW 9292   5.674   0.239   2.015
 2798SOL    HW1 9293   5.738   0.266   1.943
 2798SOL    HW2 9294   5.725   0.195   2.089
 2799SOL     OW 9295   3.223   5.780   5.555
 2799SOL    HW1 9296   3.270   5.736   5.479
 2799SOL    HW2 9297   3.124   5.765   5.547
 2800SOL     OW 9298   5.880   7.016   6.470
 2800SOL    HW1 9299   5.959   0.045   6.508
 2800SOL    HW2 9300   5.904   6.921   6.456
 2801SOL     OW 9301   0.583   4.960   5.327
 2801SOL    HW1 9302   0.577   4.898   5.406
 2801SOL    HW2 9303   0.583   4.906   5.243
 2802SOL     OW 9304   0.277   5.384   5.844
 2802SOL    HW1 9305   0.199   5.356   5.899
 2802SOL    HW2 9306   0.298   5.480   5.861
 2803SOL     OW 9307   4.308   2.335   6.945
 2803SOL    HW1 9308   4.358   2.385   6.874
 2803SOL    HW2 9309   4.210   2.354   6.936
 2804SOL     OW 9310   0.394   2.657   3.896
 2804SOL    HW1 9311   0.444   2.646   3.810
 2804SOL    HW2 9312   0.310   2.709   3.879
 2805SOL     OW 9313   4.727   3.479   1.432
 2805SOL    HW1 9314   4.753   3.550   1.497
 2805SOL    HW2 9315   4.754   3.389   1.468
 2806SOL     OW 9316   0.323   3.882   5.819
 2806SOL    HW1 9317   0.311   3.836   5.730
 2806SOL    HW2 9318   0.251   3.853   5.881
 2807SOL     OW 9319   3.402   0.391   3.525
 2807SOL    HW1 9320   3.499   0.388   3.549
 2807SOL    HW2 9321   3.368   0.298   3.511
 2808SOL     OW 9322   6.762   5.524   6.430
 2808SOL    HW1 9323   6.808   5.466   6.497
 2808SOL    HW2 9324   6.809   5.613   6.426
 2809SOL     OW 9325   6.554   5.113   2.091
 2809SOL    HW1 9326   6.560   5.119   1.991
 2809SOL    HW2 9327   6.593   5.026   2.121
 2810SOL     OW 9328   2.799   5.623   3.042
 2810SOL    HW1 9329   2.731   5.552   3.062
 2810SOL    HW2 9330   2.752   5.707   3.013
 2811SOL     OW 9331   0.577   0.486   1.702
 2811SOL    HW1 9332   0.630   0.411   1.741
 2811SOL    HW2 9333   0.514   0.451   1.633
 2812SOL     OW 9334   0.679   2.275   1.455
 2812SOL    HW1 9335   0.729   2.306   1.374
 2812SOL    HW2 9336   0.580   2.278   1.437
 2813SOL     OW 9337   0.731   2.220   1.922
 2813SOL    HW1 9338   0.826   2.233   1.894
 2813SOL    HW2 9339   0.722   2.134   1.973
 2814SOL     OW 9340   2.256   4.260   0.185
 2814SOL    HW1 9341   2.298   4.233   0.271
 2814SOL    HW2 9342   2.318   4.322   0.136
 2815SOL     OW 9343   0.311   5.058   5.388
 2815SOL    HW1 9344   0.409   5.044   5.379
 2815SOL    HW2 9345   0.279   5.014   5.472
 2816SOL     OW 9346   0.507   5.905   6.154
 2816SOL    HW1 9347   0.520   5.898   6.055
 2816SOL    HW2 9348   0.422   5.858   6.180
 2817SOL     OW 9349   4.403   0.774   1.895
 2817SOL    HW1 9350   4.371   0.761   1.801
 2817SOL    HW2 9351   4.348   0.719   1.957
 2818SOL     OW 9352   1.431   0.314   0.459
 2818SOL    HW1 9353   1.341   0.275   0.480
 2818SOL    HW2 9354   1.445   0.314   0.360
 2819SOL     OW 9355   0.729   1.109   0.369
 2819SOL    HW1 9356   0.816   1.059   0.373
 2819SOL    HW2 9357   0.702   1.137   0.461
 2820SOL     OW 9358   1.209   2.283   1.256
 2820SOL    HW1 9359   1.269   2.220   1.307
 2820SOL    HW2 9360   1.232   2.279   1.159
 2821SOL     OW 9361   2.945   3.396   6.032
 2821SOL    HW1 9362   2.906   3.409   5.941
 2821SOL    HW2 9363   2.983   3.482   6.065
 2822SOL     OW 9364   4.392   2.512   0.940
 2822SOL    HW1 9365   4.388   2.427   0.993
 2822SOL    HW2 9366   4.464   2.506   0.871
 2823SOL     OW 9367   5.708   2.073   1.233
 2823SOL    HW1 9368   5.721   2.007   1.159
 2823SOL    HW2 9369   5.781   2.062   1.300
 2824SOL     OW 9370   1.317   3.712   4.799
 2824SOL    HW1 9371   1.312   3.623   4.844
 2824SOL    HW2 9372   1.374   3.705   4.717
 2825SOL     OW 9373   5.379   1.403   6.129
 2825SOL    HW1 9374   5.374   1.501   6.108
 2825SOL    HW2 9375   5.348   1.387   6.223
 2826SOL     OW 9376   2.338   3.183   6.805
 2826SOL    HW1 9377   2.276   3.117   6.848
 2826SOL    HW2 9378   2.432   3.161   6.828
 2827SOL     OW 9379   6.578   0.445   6.270
 2827SOL    HW1 9380   6.500   0.463   6.210
 2827SOL    HW2 9381   6.573   0.505   6.349
 2828SOL     OW 9382   1.976   3.686   0.527
 2828SOL    HW1 9383   1.963   3.782   0.503
 2828SOL    HW2 9384   2.047   3.646   0.470
 2829SOL     OW 9385   3.366   4.136   2.985
 2829SOL    HW1 9386   3.427   4.186   3.047
 2829SOL    HW2 9387   3.386   4.162   2.891
 2830SOL     OW 9388   3.132   4.740   5.515
 2830SOL    HW1 9389   3.232   4.746   5.506
 2830SOL    HW2 9390   3.099   4.817   5.569
 2831SOL     OW 9391   5.842   1.662   1.407
 2831SOL    HW1 9392   5.806   1.704   1.490
 2831SOL    HW2 9393   5.767   1.647   1.342
 2832SOL     OW 9394   0.699   3.852   1.586
 2832SOL    HW1 9395   0.738   3.787   1.652
 2832SOL    HW2 9396   0.732   3.830   1.494
 2833SOL     OW 9397   1.995   2.456   2.139
 2833SOL    HW1 9398   2.051   2.377   2.116
 2833SOL    HW2 9399   1.929   2.431   2.210
 2834SOL     OW 9400   2.927   6.121   5.841
 2834SOL    HW1 9401   2.886   6.212   5.851
 2834SOL    HW2 9402   3.016   6.130   5.796
 2835SOL     OW 9403   0.150   0.074   0.674
 2835SOL    HW1 9404   0.058   0.067   0.713
 2835SOL    HW2 9405   0.170   0.171   0.656
 2836SOL     OW 9406   3.389   6.173   2.818
 2836SOL    HW1 9407   3.377   6.232   2.739
 2836SOL    HW2 9408   3.457   6.212   2.880
 2837SOL     OW 9409   4.957   4.448   2.122
 2837SOL    HW1 9410   4.894   4.483   2.192
 2837SOL    HW2 9411   4.913   4.372   2.073
 2838SOL     OW 9412   5.261   4.682   5.858
 2838SOL    HW1 9413   5.281   4.635   5.944
 2838SOL    HW2 9414   5.178   4.644   5.818
 2839SOL     OW 9415   5.894   2.950   4.959
 2839SOL    HW1 9416   5.808   2.989   4.991
 2839SOL    HW2 9417   5.971   3.003   4.997
 2840SOL     OW 9418   7.012   6.305   4.177
 2840SOL    HW1 9419   6.961   6.236   4.229
 2840SOL    HW2 9420   0.070   6.262   4.132
 2841SOL     OW 9421   6.438   3.226   2.284
 2841SOL    HW1 9422   6.418   3.304   2.224
 2841SOL    HW2 9423   6.527   3.239   2.327
 2842SOL     OW 9424   1.187   0.104   3.004
 2842SOL    HW1 9425   1.285   0.124   2.999
 2842SOL    HW2 9426   1.161   0.081   3.098
 2843SOL     OW 9427   2.298   2.834   3.301
 2843SOL    HW1 9428   2.208   2.815   3.341
 2843SOL    HW2 9429   2.359   2.757   3.317
 2844SOL     OW 9430   4.830   4.684   0.494
 2844SOL    HW1 9431   4.880   4.769   0.480
 2844SOL    HW2 9432   4.745   4.685   0.442
 2845SOL     OW 9433   3.489   2.062   3.581
 2845SOL    HW1 9434   3.464   2.116   3.501
 2845SOL    HW2 9435   3.458   2.109   3.664
 2846SOL     OW 9436   5.587   0.047   0.332
 2846SOL    HW1 9437   5.525   0.037   0.410
 2846SOL    HW2 9438   5.628   6.978   0.311
 2847SOL     OW 9439   4.568   5.294   2.040
 2847SOL    HW1 9440   4.567   5.375   1.980
 2847SOL    HW2 9441   4.605   5.216   1.989
 2848SOL     OW 9442   0.361   4.048   5.420
 2848SOL    HW1 9443   0.406   3.976   5.473
 2848SOL    HW2 9444   0.390   4.137   5.453
 2849SOL     OW 9445   4.940   0.460   2.400
 2849SOL    HW1 9446   4.923   0.439   2.303
 2849SOL    HW2 9447   4.866   0.422   2.456
 2850SOL     OW 9448   1.765   6.964   2.757
 2850SOL    HW1 9449   1.729   6.912   2.835
 2850SOL    HW2 9450   1.705   6.952   2.678
 2851SOL     OW 9451   4.150   3.402   0.492
 2851SOL    HW1 9452   4.213   3.384   0.568
 2851SOL    HW2 9453   4.078   3.464   0.522
 2852SOL     OW 9454   6.279   4.156   6.441
 2852SOL    HW1 9455   6.194   4.106   6.460
 2852SOL    HW2 9456   6.348   4.092   6.406
 2853SOL     OW 9457   0.465   3.736   6.520
 2853SOL    HW1 9458   0.409   3.798   6.465
 2853SOL    HW2 9459   0.437   3.642   6.504
 2854SOL     OW 9460   3.697   1.289   5.729
 2854SOL    HW1 9461   3.599   1.269   5.727
 2854SOL    HW2 9462   3.718   1.348   5.807
 2855SOL     OW 9463   1.933   1.037   5.552
 2855SOL    HW1 9464   1.936   1.137   5.545
 2855SOL    HW2 9465   1.864   1.010   5.618
 2856SOL     OW 9466   1.277   5.278   3.398
 2856SOL    HW1 9467   1.338   5.320   3.466
 2856SOL    HW2 9468   1.298   5.180   3.391
 2857SOL     OW 9469   0.076   3.618   0.212
 2857SOL    HW1 9470   0.069   3.529   0.166
 2857SOL    HW2 9471   7.014   3.634   0.266
 2858SOL     OW 9472   4.674   5.055   2.947
 2858SOL    HW1 9473   4.634   5.125   3.006
 2858SOL    HW2 9474   4.641   4.965   2.975
 2859SOL     OW 9475   4.970   4.419   0.892
 2859SOL    HW1 9476   5.006   4.463   0.975
 2859SOL    HW2 9477   4.897   4.476   0.853
 2860SOL     OW 9478   0.290   6.917   2.188
 2860SOL    HW1 9479   0.266   6.866   2.271
 2860SOL    HW2 9480   0.384   6.893   2.161
 2861SOL     OW 9481   4.494   5.616   6.788
 2861SOL    HW1 9482   4.566   5.661   6.735
 2861SOL    HW2 9483   4.405   5.651   6.759
 2862SOL     OW 9484   4.298   2.872   0.499
 2862SOL    HW1 9485   4.320   2.880   0.596
 2862SOL    HW2 9486   4.272   2.962   0.463
 2863SOL     OW 9487   5.393   6.810   5.651
 2863SOL    HW1 9488   5.490   6.802   5.626
 2863SOL    HW2 9489   5.383   6.806   5.750
 2864SOL     OW 9490   3.299   3.942   0.129
 2864SOL    HW1 9491   3.366   3.899   0.069
 2864SOL    HW2 9492   3.345   4.002   0.194
 2865SOL     OW 9493   5.383   5.680   4.288
 2865SOL    HW1 9494   5.303   5.630   4.255
 2865SOL    HW2 9495   5.365   5.716   4.380
 2866SOL     OW 9496   4.566   4.637   0.391
 2866SOL    HW1 9497   4.521   4.693   0.460
 2866SOL    HW2 9498   4.500   4.575   0.349
 2867SOL     OW 9499   4.979   5.986   2.144
 2867SOL    HW1 9500   4.889   5.949   2.167
 2867SOL    HW2 9501   5.041   5.912   2.122
 2868SOL     OW 9502   1.168   1.539   5.612
 2868SOL    HW1 9503   1.154   1.633   5.641
 2868SOL    HW2 9504   1.218   1.489   5.683
 2869SOL     OW 9505   5.993   5.638   4.614
 2869SOL    HW1 9506   5.933   5.700   4.564
 2869SOL    HW2 9507   5.977   5.544   4.583
 2870SOL     OW 9508   6.741   2.039   1.306
 2870SOL    HW1 9509   6.831   1.997   1.320
 2870SOL    HW2 9510   6.727   2.058   1.209
 2871SOL     OW 9511   5.660   1.712   1.210
 2871SOL    HW1 9512   5.695   1.784   1.149
 2871SOL    HW2 9513   5.574   1.743   1.251
 2872SOL     OW 9514   2.691   2.387   2.280
 2872SOL    HW1 9515   2.622   2.457   2.262
 2872SOL    HW2 9516   2.750   2.378   2.201
 2873SOL     OW 9517   0.941   5.898   1.035
 2873SOL    HW1 9518   0.891   5.923   0.952
 2873SOL    HW2 9519   0.955   5.799   1.037
 2874SOL     OW 9520   2.532   0.814   2.613
 2874SOL    HW1 9521   2.503   0.905   2.641
 2874SOL    HW2 9522   2.569   0.818   2.520
 2875SOL     OW 9523   2.903   6.675   2.758
 2875SOL    HW1 9524   2.842   6.597   2.760
 2875SOL    HW2 9525   2.901   6.721   2.847
 2876SOL     OW 9526   1.356   6.424   1.834
 2876SOL    HW1 9527   1.337   6.335   1.875
 2876SOL    HW2 9528   1.271   6.477   1.828
 2877SOL     OW 9529   1.102   1.850   6.472
 2877SOL    HW1 9530   1.154   1.815   6.549
 2877SOL    HW2 9531   1.025   1.905   6.506
 2878SOL     OW 9532   3.860   3.445   4.072
 2878SOL    HW1 9533   3.854   3.511   3.997
 2878SOL    HW2 9534   3.827   3.356   4.041
 2879SOL     OW 9535   4.172   3.737   0.403
 2879SOL    HW1 9536   4.136   3.788   0.481
 2879SOL    HW2 9537   4.254   3.687   0.430
 2880SOL     OW 9538   1.845   1.530   4.071
 2880SOL    HW1 9539   1.813   1.436   4.064
 2880SOL    HW2 9540   1.939   1.531   4.107
 2881SOL     OW 9541   4.632   6.277   6.568
 2881SOL    HW1 9542   4.608   6.346   6.500
 2881SOL    HW2 9543   4.551   6.253   6.621
 2882SOL     OW 9544   4.736   6.362   0.516
 2882SOL    HW1 9545   4.666   6.307   0.560
 2882SOL    HW2 9546   4.693   6.437   0.465
 2883SOL     OW 9547   6.175   6.030   3.906
 2883SOL    HW1 9548   6.207   5.967   3.977
 2883SOL    HW2 9549   6.157   6.120   3.947
 2884SOL     OW 9550   6.553   4.905   3.482
 2884SOL    HW1 9551   6.645   4.935   3.505
 2884SOL    HW2 9552   6.528   4.939   3.391
 2885SOL     OW 9553   1.196   2.752   2.910
 2885SOL    HW1 9554   1.217   2.811   2.832
 2885SOL    HW2 9555   1.212   2.802   2.995
 2886SOL     OW 9556   2.142   4.848   6.301
 2886SOL    HW1 9557   2.156   4.879   6.208
 2886SOL    HW2 9558   2.074   4.774   6.301
 2887SOL     OW 9559   1.177   5.181   3.691
 2887SOL    HW1 9560   1.219   5.265   3.726
 2887SOL    HW2 9561   1.135   5.200   3.602
 2888SOL     OW 9562   6.704   6.389   0.221
 2888SOL    HW1 9563   6.682   6.353   0.311
 2888SOL    HW2 9564   6.770   6.330   0.176
 2889SOL     OW 9565   3.306   6.588   2.990
 2889SOL    HW1 9566   3.284   6.499   3.032
 2889SOL    HW2 9567   3.250   6.601   2.909
 2890SOL     OW 9568   2.544   0.541   1.485
 2890SOL    HW1 9569   2.578   0.569   1.395
 2890SOL    HW2 9570   2.453   0.502   1.475
 2891SOL     OW 9571   0.497   1.838   4.107
 2891SOL    HW1 9572   0.465   1.894   4.030
 2891SOL    HW2 9573   0.579   1.880   4.146
 2892SOL     OW 9574   0.036   4.318   2.893
 2892SOL    HW1 9575   0.133   4.336   2.875
 2892SOL    HW2 9576   0.017   4.221   2.876
 2893SOL     OW 9577   6.708   5.189   4.215
 2893SOL    HW1 9578   6.715   5.264   4.281
 2893SOL    HW2 9579   6.669   5.108   4.260
 2894SOL     OW 9580   1.573   5.542   2.677
 2894SOL    HW1 9581   1.475   5.553   2.660
 2894SOL    HW2 9582   1.587   5.479   2.754
 2895SOL     OW 9583   4.044   6.956   6.259
 2895SOL    HW1 9584   4.030   6.859   6.238
 2895SOL    HW2 9585   4.076   6.966   6.353
 2896SOL     OW 9586   5.104   6.262   4.935
 2896SOL    HW1 9587   5.095   6.180   4.991
 2896SOL    HW2 9588   5.094   6.238   4.838
 2897SOL     OW 9589   3.753   4.882   3.452
 2897SOL    HW1 9590   3.819   4.876   3.377
 2897SOL    HW2 9591   3.798   4.919   3.533
 2898SOL     OW 9592   5.544   3.586   2.784
 2898SOL    HW1 9593   5.602   3.591   2.703
 2898SOL    HW2 9594   5.566   3.502   2.835
 2899SOL     OW 9595   6.899   3.450   1.084
 2899SOL    HW1 9596   6.963   3.492   1.020
 2899SOL    HW2 9597   6.949   3.413   1.162
 2900SOL     OW 9598   2.602   3.460   6.336
 2900SOL    HW1 9599   2.551   3.539   6.370
 2900SOL    HW2 9600   2.574   3.440   6.242
 2901SOL     OW 9601   0.906   3.914   3.833
 2901SOL    HW1 9602   0.942   3.984   3.895
 2901SOL    HW2 9603   0.810   3.897   3.854
 2902SOL     OW 9604   0.337   6.192   3.479
 2902SOL    HW1 9605   0.257   6.159   3.429
 2902SOL    HW2 9606   0.316   6.196   3.577
 2903SOL     OW 9607   4.421   5.363   0.440
 2903SOL    HW1 9608   4.463   5.396   0.525
 2903SOL    HW2 9609   4.338   5.415   0.421
 2904SOL     OW 9610   2.444   4.263   5.280
 2904SOL    HW1 9611   2.539   4.290   5.287
 2904SOL    HW2 9612   2.438   4.167   5.253
 2905SOL     OW 9613   0.859   5.279   1.510
 2905SOL    HW1 9614   0.849   5.308   1.415
 2905SOL    HW2 9615   0.827   5.352   1.570
 2906SOL     OW 9616   6.135   6.050   2.803
 2906SOL    HW1 9617   6.116   6.010   2.713
 2906SOL    HW2 9618   6.094   5.992   2.874
 2907SOL     OW 9619   0.342   1.003   3.937
 2907SOL    HW1 9620   0.253   0.963   3.914
 2907SOL    HW2 9621   0.414   0.959   3.883
 2908SOL     OW 9622   4.370   6.697   2.380
 2908SOL    HW1 9623   4.293   6.758   2.396
 2908SOL    HW2 9624   4.452   6.735   2.421
 2909SOL     OW 9625   0.914   6.052   2.511
 2909SOL    HW1 9626   0.859   6.069   2.430
 2909SOL    HW2 9627   0.986   6.121   2.519
 2910SOL     OW 9628   6.658   0.644   4.209
 2910SOL    HW1 9629   6.571   0.693   4.211
 2910SOL    HW2 9630   6.730   0.700   4.249
 2911SOL     OW 9631   6.550   4.079   4.913
 2911SOL    HW1 9632   6.531   4.130   4.997
 2911SOL    HW2 9633   6.467   4.033   4.883
 2912SOL     OW 9634   0.934   6.821   1.369
 2912SOL    HW1 9635   0.897   6.761   1.440
 2912SOL    HW2 9636   0.935   6.915   1.402
 2913SOL     OW 9637   2.713   6.613   1.453
 2913SOL    HW1 9638   2.779   6.612   1.377
 2913SOL    HW2 9639   2.761   6.637   1.538
 2914SOL     OW 9640   4.563   5.461   0.684
 2914SOL    HW1 9641   4.643   5.471   0.744
 2914SOL    HW2 9642   4.483   5.503   0.728
 2915SOL     OW 9643   2.521   0.200   2.663
 2915SOL    HW1 9644   2.468   0.116   2.675
 2915SOL    HW2 9645   2.614   0.177   2.636
 2916SOL     OW 9646   1.539   5.779   0.536
 2916SOL    HW1 9647   1.625   5.828   0.521
 2916SOL    HW2 9648   1.490   5.768   0.449
 2917SOL     OW 9649   2.453   6.249   4.688
 2917SOL    HW1 9650   2.398   6.232   4.606
 2917SOL    HW2 9651   2.547   6.218   4.673
 2918SOL     OW 9652   5.469   2.784   1.822
 2918SOL    HW1 9653   5.423   2.873   1.819
 2918SOL    HW2 9654   5.423   2.726   1.890
 2919SOL     OW 9655   1.214   5.346   4.340
 2919SOL    HW1 9656   1.134   5.406   4.332
 2919SOL    HW2 9657   1.204   5.268   4.279
 2920SOL     OW 9658   1.217   2.337   2.537
 2920SOL    HW1 9659   1.215   2.347   2.636
 2920SOL    HW2 9660   1.226   2.427   2.494
 2921SOL     OW 9661   1.327   0.382   4.456
 2921SOL    HW1 9662   1.329   0.400   4.554
 2921SOL    HW2 9663   1.408   0.420   4.413
 2922SOL     OW 9664   3.587   6.998   3.181
 2922SOL    HW1 9665   3.558   6.967   3.272
 2922SOL    HW2 9666   3.644   6.928   3.139
 2923SOL     OW 9667   6.499   6.037   4.770
 2923SOL    HW1 9668   6.547   5.976   4.707
 2923SOL    HW2 9669   6.503   6.130   4.735
 2924SOL     OW 9670   5.835   2.638   5.043
 2924SOL    HW1 9671   5.784   2.720   5.018
 2924SOL    HW2 9672   5.797   2.599   5.126
 2925SOL     OW 9673   4.918   0.082   6.155
 2925SOL    HW1 9674   4.954   0.123   6.071
 2925SOL    HW2 9675   4.976   0.108   6.232
 2926SOL     OW 9676   7.014   2.044   4.265
 2926SOL    HW1 9677   7.019   1.954   4.307
 2926SOL    HW2 9678   6.925   2.057   4.222
 2927SOL     OW 9679   1.013   2.281   1.870
 2927SOL    HW1 9680   1.099   2.302   1.916
 2927SOL    HW2 9681   1.013   2.321   1.778
 2928SOL     OW 9682   6.658   3.240   0.122
 2928SOL    HW1 9683   6.650   3.230   0.221
 2928SOL    HW2 9684   6.567   3.243   0.081
 2929SOL     OW 9685   2.475   2.517   4.946
 2929SOL    HW1 9686   2.437   2.592   5.000
 2929SOL    HW2 9687   2.497   2.550   4.854
 2930SOL     OW 9688   6.617   4.584   5.132
 2930SOL    HW1 9689   6.711   4.600   5.162
 2930SOL    HW2 9690   6.608   4.611   5.036
 2931SOL     OW 9691   5.333   4.587   5.352
 2931SOL    HW1 9692   5.414   4.547   5.395
 2931SOL    HW2 9693   5.359   4.669   5.301
 2932SOL     OW 9694   6.734   5.466   0.855
 2932SOL    HW1 9695   6.643   5.496   0.825
 2932SOL    HW2 9696   6.724   5.384   0.912
 2933SOL     OW 9697   1.096   0.559   1.031
 2933SOL    HW1 9698   1.086   0.503   0.950
 2933SOL    HW2 9699   1.132   0.649   1.005
 2934SOL     OW 9700   4.004   4.694   0.343
 2934SOL    HW1 9701   3.916   4.710   0.298
 2934SOL    HW2 9702   4.040   4.781   0.377
 2935SOL     OW 9703   0.303   2.276   6.002
 2935SOL    HW1 9704   0.260   2.195   6.041
 2935SOL    HW2 9705   0.321   2.342   6.075
 2936SOL     OW 9706   4.031   6.043   0.801
 2936SOL    HW1 9707   4.116   6.062   0.751
 2936SOL    HW2 9708   4.035   6.089   0.890
 2937SOL     OW 9709   4.585   4.864   2.297
 2937SOL    HW1 9710   4.527   4.828   2.224
 2937SOL    HW2 9711   4.553   4.956   2.323
 2938SOL     OW 9712   6.192   6.011   6.966
 2938SOL    HW1 9713   6.252   5.968   0.014
 2938SOL    HW2 9714   6.247   6.067   6.904
 2939SOL     OW 9715   0.273   5.681   1.721
 2939SOL    HW1 9716   0.329   5.606   1.758
 2939SOL    HW2 9717   0.239   5.737   1.796
 2940SOL     OW 9718   4.611   6.940   3.602
 2940SOL    HW1 9719   4.536   7.004   3.615
 2940SOL    HW2 9720   4.590   6.855   3.650
 2941SOL     OW 9721   1.504   3.995   3.893
 2941SOL    HW1 9722   1.516   4.024   3.988
 2941SOL    HW2 9723   1.586   4.018   3.840
 2942SOL     OW 9724   3.746   1.627   1.563
 2942SOL    HW1 9725   3.680   1.592   1.629
 2942SOL    HW2 9726   3.715   1.715   1.528
 2943SOL     OW 9727   6.107   3.910   3.327
 2943SOL    HW1 9728   6.080   3.835   3.266
 2943SOL    HW2 9729   6.206   3.907   3.340
 2944SOL     OW 9730   1.558   5.584   3.091
 2944SOL    HW1 9731   1.527   5.493   3.119
 2944SOL    HW2 9732   1.639   5.575   3.034
 2945SOL     OW 9733   5.192   4.687   1.662
 2945SOL    HW1 9734   5.278   4.733   1.683
 2945SOL    HW2 9735   5.116   4.740   1.701
 2946SOL     OW 9736   3.075   3.705   5.811
 2946SOL    HW1 9737   3.097   3.783   5.753
 2946SOL    HW2 9738   2.976   3.691   5.811
 2947SOL     OW 9739   6.384   6.747   0.564
 2947SOL    HW1 9740   6.415   6.656   0.536
 2947SOL    HW2 9741   6.375   6.806   0.483
 2948SOL     OW 9742   6.143   4.113   1.911
 2948SOL    HW1 9743   6.169   4.123   2.007
 2948SOL    HW2 9744   6.048   4.141   1.899
 2949SOL     OW 9745   0.965   0.163   0.825
 2949SOL    HW1 9746   0.898   0.148   0.752
 2949SOL    HW2 9747   0.995   0.075   0.862
 2950SOL     OW 9748   5.422   4.369   3.163
 2950SOL    HW1 9749   5.403   4.371   3.064
 2950SOL    HW2 9750   5.336   4.356   3.213
 2951SOL     OW 9751   6.560   1.158   1.811
 2951SOL    HW1 9752   6.617   1.205   1.879
 2951SOL    HW2 9753   6.484   1.112   1.856
 2952SOL     OW 9754   5.712   1.493   3.889
 2952SOL    HW1 9755   5.692   1.419   3.953
 2952SOL    HW2 9756   5.715   1.580   3.938
 2953SOL     OW 9757   0.642   5.604   3.890
 2953SOL    HW1 9758   0.734   5.640   3.878
 2953SOL    HW2 9759   0.643   5.528   3.954
 2954SOL     OW 9760   6.982   4.244   6.318
 2954SOL    HW1 9761   6.967   4.157   6.271
 2954SOL    HW2 9762   7.010   4.314   6.253
 2955SOL     OW 9763   2.340   4.890   6.486
 2955SOL    HW1 9764   2.271   4.871   6.417
 2955SOL    HW2 9765   2.295   4.910   6.573
 2956SOL     OW 9766   6.068   4.657   3.268
 2956SOL    HW1 9767   6.040   4.579   3.213
 2956SOL    HW2 9768   6.168   4.661   3.273
 2957SOL     OW 9769   2.655   5.039   1.004
 2957SOL    HW1 9770   2.740   5.082   1.034
 2957SOL    HW2 9771   2.577   5.085   1.047
 2958SOL     OW 9772   2.188   5.421   2.211
 2958SOL    HW1 9773   2.144   5.510   2.210
 2958SOL    HW2 9774   2.287   5.433   2.206
 2959SOL     OW 9775   6.886   3.041   2.972
 2959SOL    HW1 9776   6.907   2.950   2.935
 2959SOL    HW2 9777   6.907   3.110   2.903
 2960SOL     OW 9778   4.911   0.513   0.222
 2960SOL    HW1 9779   4.849   0.583   0.254
 2960SOL    HW2 9780   4.914   0.513   0.122
 2961SOL     OW 9781   5.349   4.405   1.993
 2961SOL    HW1 9782   5.289   4.364   2.061
 2961SOL    HW2 9783   5.444   4.400   2.024
 2962SOL     OW 9784   0.140   0.062   3.059
 2962SOL    HW1 9785   0.207   7.008   3.067
 2962SOL    HW2 9786   0.095   0.057   2.969
 2963SOL     OW 9787   2.082   0.948   4.847
 2963SOL    HW1 9788   2.134   1.008   4.787
 2963SOL    HW2 9789   2.030   1.003   4.913
 2964SOL     OW 9790   1.098   1.845   0.024
 2964SOL    HW1 9791   1.154   1.925   0.001
 2964SOL    HW2 9792   1.156   1.764   0.032
 2965SOL     OW 9793   0.806   7.017   4.908
 2965SOL    HW1 9794   0.789   0.023   4.813
 2965SOL    HW2 9795   0.720   7.015   4.959
 2966SOL     OW 9796   3.305   5.947   2.927
 2966SOL    HW1 9797   3.338   6.023   2.872
 2966SOL    HW2 9798   3.277   5.979   3.017
 2967SOL     OW 9799   5.372   0.082   5.527
 2967SOL    HW1 9800   5.296   0.095   5.464
 2967SOL    HW2 9801   5.374   7.006   5.557
 2968SOL     OW 9802   1.862   2.813   1.164
 2968SOL    HW1 9803   1.926   2.758   1.218
 2968SOL    HW2 9804   1.849   2.902   1.207
 2969SOL     OW 9805   5.086   3.155   4.495
 2969SOL    HW1 9806   5.016   3.206   4.545
 2969SOL    HW2 9807   5.162   3.134   4.556
 2970SOL     OW 9808   2.389   2.347   4.368
 2970SOL    HW1 9809   2.329   2.380   4.295
 2970SOL    HW2 9810   2.336   2.299   4.437
 2971SOL     OW 9811   5.579   2.729   6.375
 2971SOL    HW1 9812   5.632   2.689   6.450
 2971SOL    HW2 9813   5.596   2.677   6.291
 2972SOL     OW 9814   5.763   5.149   0.213
 2972SOL    HW1 9815   5.671   5.176   0.241
 2972SOL    HW2 9816   5.797   5.212   0.144
 2973SOL     OW 9817   4.772   1.589   2.353
 2973SOL    HW1 9818   4.848   1.568   2.415
 2973SOL    HW2 9819   4.686   1.555   2.393
 2974SOL     OW 9820   5.072   6.311   3.238
 2974SOL    HW1 9821   5.010   6.311   3.160
 2974SOL    HW2 9822   5.023   6.343   3.319
 2975SOL     OW 9823   4.708   4.247   3.785
 2975SOL    HW1 9824   4.744   4.175   3.726
 2975SOL    HW2 9825   4.751   4.241   3.875
 2976SOL     OW 9826   4.218   2.301   2.003
 2976SOL    HW1 9827   4.168   2.332   1.923
 2976SOL    HW2 9828   4.292   2.365   2.024
 2977SOL     OW 9829   1.182   1.143   1.260
 2977SOL    HW1 9830   1.269   1.107   1.227
 2977SOL    HW2 9831   1.110   1.075   1.244
 2978SOL     OW 9832   4.477   5.056   6.197
 2978SOL    HW1 9833   4.553   5.115   6.168
 2978SOL    HW2 9834   4.512   4.983   6.256
 2979SOL     OW 9835   2.963   0.625   4.091
 2979SOL    HW1 9836   3.036   0.565   4.125
 2979SOL    HW2 9837   2.909   0.576   4.023
 2980SOL     OW 9838   3.959   3.423   5.768
 2980SOL    HW1 9839   4.014   3.497   5.728
 2980SOL    HW2 9840   3.980   3.414   5.865
 2981SOL     OW 9841   1.384   1.011   1.133
 2981SOL    HW1 9842   1.437   1.065   1.067
 2981SOL    HW2 9843   1.443   0.942   1.175
 2982SOL     OW 9844   0.308   0.112   1.441
 2982SOL    HW1 9845   0.341   0.020   1.456
 2982SOL    HW2 9846   0.234   0.132   1.506
 2983SOL     OW 9847   6.149   3.165   5.555
 2983SOL    HW1 9848   6.205   3.163   5.472
 2983SOL    HW2 9849   6.161   3.252   5.602
 2984SOL     OW 9850   0.592   4.762   0.802
 2984SOL    HW1 9851   0.521   4.711   0.753
 2984SOL    HW2 9852   0.554   4.800   0.886
 2985SOL     OW 9853   0.114   6.728   5.304
 2985SOL    HW1 9854   0.071   6.764   5.222
 2985SOL    HW2 9855   0.184   6.792   5.336
 2986SOL     OW 9856   4.030   3.628   2.225
 2986SOL    HW1 9857   3.954   3.573   2.193
 2986SOL    HW2 9858   4.051   3.605   2.320
 2987SOL     OW 9859   1.925   0.523   4.717
 2987SOL    HW1 9860   1.925   0.535   4.618
 2987SOL    HW2 9861   1.890   0.432   4.740
 2988SOL     OW 9862   0.227   1.375   6.726
 2988SOL    HW1 9863   0.321   1.341   6.731
 2988SOL    HW2 9864   0.167   1.300   6.698
 2989SOL     OW 9865   5.108   3.883   4.319
 2989SOL    HW1 9866   5.082   3.805   4.262
 2989SOL    HW2 9867   5.170   3.943   4.268
 2990SOL     OW 9868   5.465   1.240   4.433
 2990SOL    HW1 9869   5.414   1.321   4.404
 2990SOL    HW2 9870   5.550   1.233   4.381
 2991SOL     OW 9871   6.963   4.178   1.239
 2991SOL    HW1 9872   6.877   4.225   1.256
 2991SOL    HW2 9873   7.006   4.154   1.326
 2992SOL     OW 9874   0.265   3.374   5.564
 2992SOL    HW1 9875   0.180   3.334   5.599
 2992SOL    HW2 9876   0.337   3.305   5.564
 2993SOL     OW 9877   1.069   4.375   0.443
 2993SOL    HW1 9878   0.999   4.380   0.371
 2993SOL    HW2 9879   1.034   4.321   0.520
 2994SOL     OW 9880   4.218   6.589   6.272
 2994SOL    HW1 9881   4.218   6.685   6.299
 2994SOL    HW2 9882   4.279   6.575   6.194
 2995SOL     OW 9883   5.486   0.570   1.397
 2995SOL    HW1 9884   5.421   0.538   1.466
 2995SOL    HW2 9885   5.570   0.517   1.402
 2996SOL     OW 9886   0.083   0.967   4.710
 2996SOL    HW1 9887   0.024   1.013   4.644
 2996SOL    HW2 9888   0.044   0.877   4.732
 2997SOL     OW 9889   5.157   0.005   3.857
 2997SOL    HW1 9890   5.095   6.978   3.795
 2997SOL    HW2 9891   5.172   0.099   3.824
 2998SOL     OW 9892   2.421   1.635   2.888
 2998SOL    HW1 9893   2.323   1.619   2.895
 2998SOL    HW2 9894   2.437   1.728   2.856
 2999SOL     OW 9895   2.224   4.415   0.684
 2999SOL    HW1 9896   2.293   4.418   0.756
 2999SOL    HW2 9897   2.201   4.320   0.664
 3000SOL     OW 9898   2.919   3.593   4.603
 3000SOL    HW1 9899   2.880   3.512   4.647
 3000SOL    HW2 9900   3.014   3.605   4.632
 3001SOL     OW 9901   5.722   0.695   5.799
 3001SOL    HW1 9902   5.705   0.773   5.860
 3001SOL    HW2 9903   5.635   0.653   5.774
 3002SOL     OW 9904   1.824   1.810   1.725
 3002SOL    HW1 9905   1.810   1.880   1.794
 3002SOL    HW2 9906   1.788   1.842   1.637
 3003SOL     OW 9907   1.627   6.457   0.557
 3003SOL    HW1 9908   1.557   6.527   0.566
 3003SOL    HW2 9909   1.630   6.423   0.463
 3004SOL     OW 9910   2.181   6.501   3.880
 3004SOL    HW1 9911   2.137   6.586   3.849
 3004SOL    HW2 9912   2.279   6.506   3.861
 3005SOL     OW 9913   0.777   1.968   5.857
 3005SOL    HW1 9914   0.764   2.023   5.775
 3005SOL    HW2 9915   0.689   1.955   5.903
 3006SOL     OW 9916   4.958   1.383   5.643
 3006SOL    HW1 9917   5.037   1.344   5.596
 3006SOL    HW2 9918   4.984   1.470   5.685
 3007SOL     OW 9919   5.525   5.417   6.994
 3007SOL    HW1 9920   5.437   5.448   6.960
 3007SOL    HW2 9921   5.520   5.403   0.073
 3008SOL     OW 9922   5.287   2.768   6.068
 3008SOL    HW1 9923   5.376   2.741   6.031
 3008SOL    HW2 9924   5.230   2.803   5.995
 3009SOL     OW 9925   6.956   3.544   2.373
 3009SOL    HW1 9926   0.006   3.587   2.429
 3009SOL    HW2 9927   7.000   3.479   2.310
 3010SOL     OW 9928   3.546   5.870   6.905
 3010SOL    HW1 9929   3.529   5.819   6.821
 3010SOL    HW2 9930   3.565   5.966   6.883
 3011SOL     OW 9931   6.792   7.007   1.103
 3011SOL    HW1 9932   6.889   7.020   1.083
 3011SOL    HW2 9933   6.740   7.001   1.018
 3012SOL     OW 9934   2.259   2.684   5.632
 3012SOL    HW1 9935   2.237   2.671   5.728
 3012SOL    HW2 9936   2.333   2.623   5.605
 3013SOL     OW 9937   0.607   4.384   5.316
 3013SOL    HW1 9938   0.585   4.482   5.319
 3013SOL    HW2 9939   0.581   4.347   5.227
 3014SOL     OW 9940   5.072   6.857   5.868
 3014SOL    HW1 9941   5.112   6.918   5.935
 3014SOL    HW2 9942   5.069   6.903   5.779
 3015SOL     OW 9943   1.363   1.070   0.124
 3015SOL    HW1 9944   1.328   0.984   0.087
 3015SOL    HW2 9945   1.390   1.057   0.220
 3016SOL     OW 9946   1.776   6.548   4.276
 3016SOL    HW1 9947   1.808   6.469   4.224
 3016SOL    HW2 9948   1.677   6.542   4.289
 3017SOL     OW 9949   0.453   5.271   0.553
 3017SOL    HW1 9950   0.448   5.311   0.644
 3017SOL    HW2 9951   0.387   5.316   0.493
 3018SOL     OW 9952   3.372   6.937   0.757
 3018SOL    HW1 9953   3.337   6.883   0.680
 3018SOL    HW2 9954   3.471   6.946   0.749
 3019SOL     OW 9955   1.880   0.563   5.513
 3019SOL    HW1 9956   1.876   0.643   5.453
 3019SOL    HW2 9957   1.972   0.555   5.551
 3020SOL     OW 9958   6.190   3.915   0.255
 3020SOL    HW1 9959   6.268   3.891   0.198
 3020SOL    HW2 9960   6.142   3.993   0.215
 3021SOL     OW 9961   4.226   6.860   4.611
 3021SOL    HW1 9962   4.324   6.839   4.607
 3021SOL    HW2 9963   4.210   6.935   4.675
 3022SOL     OW 9964   3.738   5.845   3.812
 3022SOL    HW1 9965   3.715   5.778   3.742
 3022SOL    HW2 9966   3.752   5.799   3.900
 3023SOL     OW 9967   5.242   6.216   2.957
 3023SOL    HW1 9968   5.204   6.306   2.935
 3023SOL    HW2 9969   5.282   6.219   3.049
 3024SOL     OW 9970   0.014   6.712   6.895
 3024SOL    HW1 9971   6.977   6.690   6.974
 3024SOL    HW2 9972   6.991   6.787   6.844
 3025SOL     OW 9973   3.060   5.897   0.307
 3025SOL    HW1 9974   2.975   5.848   0.328
 3025SOL    HW2 9975   3.088   5.950   0.387
 3026SOL     OW 9976   6.729   1.135   1.247
 3026SOL    HW1 9977   6.812   1.096   1.286
 3026SOL    HW2 9978   6.664   1.062   1.226
 3027SOL     OW 9979   4.747   1.329   1.436
 3027SOL    HW1 9980   4.844   1.351   1.432
 3027SOL    HW2 9981   4.703   1.355   1.350
 3028SOL     OW 9982   3.190   3.831   5.538
 3028SOL    HW1 9983   3.240   3.745   5.531
 3028SOL    HW2 9984   3.211   3.889   5.459
 3029SOL     OW 9985   0.353   2.957   4.501
 3029SOL    HW1 9986   0.369   2.970   4.403
 3029SOL    HW2 9987   0.325   2.862   4.517
 3030SOL     OW 9988   2.555   2.923   0.959
 3030SOL    HW1 9989   2.646   2.900   0.925
 3030SOL    HW2 9990   2.563   2.997   1.026
 3031SOL     OW 9991   1.265   6.586   0.930
 3031SOL    HW1 9992   1.268   6.597   1.029
 3031SOL    HW2 9993   1.308   6.499   0.904
 3032SOL     OW 9994   1.956   0.489   2.919
 3032SOL    HW1 9995   1.940   0.390   2.926
 3032SOL    HW2 9996   1.894   0.528   2.851
 3033SOL     OW 9997   6.615   2.207   4.525
 3033SOL    HW1 9998   6.673   2.288   4.535
 3033SOL    HW2 9999   6.520   2.235   4.513
 3034SOL     OW10000   6.773   5.566   3.074
 3034SOL    HW110001   6.676   5.589   3.083
 3034SOL    HW210002   6.822   5.644   3.036
 3035SOL     OW10003   1.383   2.868   7.007
 3035SOL    HW110004   1.364   2.892   6.912
 3035SOL    HW210005   1.455   2.928   0.023
 3036SOL     OW10006   3.245   2.345   6.465
 3036SOL    HW110007   3.277   2.261   6.423
 3036SOL    HW210008   3.287   2.424   6.419
 3037SOL     OW10009   0.065   5.736   0.146
 3037SOL    HW110010   0.145   5.712   0.092
 3037SOL    HW210011   7.002   5.724   0.090
 3038SOL     OW10012   5.814   4.526   6.781
 3038SOL    HW110013   5.913   4.540   6.778
 3038SOL    HW210014   5.767   4.611   6.758
 3039SOL     OW10015   7.012   3.947   6.716
 3039SOL    HW110016   0.045   3.870   6.751
 3039SOL    HW210017   6.981   4.004   6.793
 3040SOL     OW10018   5.015   4.211   5.832
 3040SOL    HW110019   5.097   4.161   5.802
 3040SOL    HW210020   5.037   4.263   5.915
 3041SOL     OW10021   1.677   4.376   5.171
 3041SOL    HW110022   1.775   4.391   5.184
 3041SOL    HW210023   1.655   4.281   5.190
 3042SOL     OW10024   6.740   5.290   3.033
 3042SOL    HW110025   6.760   5.386   3.055
 3042SOL    HW210026   6.819   5.250   2.988
 3043SOL     OW10027   2.764   4.684   0.697
 3043SOL    HW110028   2.710   4.764   0.672
 3043SOL    HW210029   2.821   4.657   0.619
 3044SOL     OW10030   3.612   3.766   5.049
 3044SOL    HW110031   3.682   3.739   5.115
 3044SOL    HW210032   3.652   3.768   4.957
 3045SOL     OW10033   4.530   1.968   1.770
 3045SOL    HW110034   4.511   2.022   1.851
 3045SOL    HW210035   4.541   1.872   1.796
 3046SOL     OW10036   5.447   6.105   1.066
 3046SOL    HW110037   5.357   6.147   1.057
 3046SOL    HW210038   5.514   6.174   1.090
 3047SOL     OW10039   5.787   1.328   5.223
 3047SOL    HW110040   5.689   1.342   5.237
 3047SOL    HW210041   5.834   1.329   5.312
 3048SOL     OW10042   3.464   4.306   0.756
 3048SOL    HW110043   3.497   4.223   0.712
 3048SOL    HW210044   3.389   4.345   0.703
 3049SOL     OW10045   1.682   1.013   3.773
 3049SOL    HW110046   1.717   1.038   3.683
 3049SOL    HW210047   1.743   1.047   3.844
 3050SOL     OW10048   3.031   2.117   1.261
 3050SOL    HW110049   2.932   2.131   1.266
 3050SOL    HW210050   3.050   2.037   1.204
 3051SOL     OW10051   2.198   5.148   5.401
 3051SOL    HW110052   2.228   5.070   5.346
 3051SOL    HW210053   2.244   5.147   5.489
 3052SOL     OW10054   6.776   6.644   2.138
 3052SOL    HW110055   6.772   6.698   2.054
 3052SOL    HW210056   6.696   6.664   2.195
 3053SOL     OW10057   1.160   4.294   7.017
 3053SOL    HW110058   1.131   4.220   0.058
 3053SOL    HW210059   1.149   4.265   6.922
 3054SOL     OW10060   5.658   1.259   2.747
 3054SOL    HW110061   5.693   1.165   2.744
 3054SOL    HW210062   5.587   1.271   2.678
 3055SOL     OW10063   5.743   6.143   6.777
 3055SOL    HW110064   5.796   6.214   6.730
 3055SOL    HW210065   5.776   6.134   6.871
 3056SOL     OW10066   4.741   1.603   5.647
 3056SOL    HW110067   4.816   1.660   5.615
 3056SOL    HW210068   4.767   1.506   5.637
 3057SOL     OW10069   5.752   4.855   3.522
 3057SOL    HW110070   5.788   4.948   3.524
 3057SOL    HW210071   5.756   4.815   3.613
 3058SOL     OW10072   0.468   4.419   6.763
 3058SOL    HW110073   0.515   4.351   6.706
 3058SOL    HW210074   0.502   4.412   6.857
 3059SOL     OW10075   1.943   1.955   3.857
 3059SOL    HW110076   1.852   1.945   3.817
 3059SOL    HW210077   1.990   2.032   3.815
 3060SOL     OW10078   5.212   5.076   5.223
 3060SOL    HW110079   5.241   5.023   5.144
 3060SOL    HW210080   5.284   5.077   5.292
 3061SOL     OW10081   5.354   5.841   5.149
 3061SOL    HW110082   5.384   5.751   5.182
 3061SOL    HW210083   5.389   5.911   5.211
 3062SOL     OW10084   4.607   4.590   1.432
 3062SOL    HW110085   4.610   4.505   1.380
 3062SOL    HW210086   4.518   4.598   1.477
 3063SOL     OW10087   0.337   4.685   1.685
 3063SOL    HW110088   0.251   4.657   1.643
 3063SOL    HW210089   0.412   4.676   1.619
 3064SOL     OW10090   4.822   1.863   6.456
 3064SOL    HW110091   4.830   1.819   6.546
 3064SOL    HW210092   4.863   1.804   6.387
 3065SOL     OW10093   6.892   0.959   6.519
 3065SOL    HW110094   6.938   0.877   6.486
 3065SOL    HW210095   6.888   1.027   6.446
 3066SOL     OW10096   5.157   6.162   5.768
 3066SOL    HW110097   5.170   6.226   5.844
 3066SOL    HW210098   5.241   6.157   5.714
 3067SOL     OW10099   1.605   2.016   6.148
 3067SOL    HW110100   1.585   2.021   6.246
 3067SOL    HW210101   1.672   1.944   6.132
 3068SOL     OW10102   0.683   1.067   0.659
 3068SOL    HW110103   0.733   1.083   0.744
 3068SOL    HW210104   0.695   0.972   0.630
 3069SOL     OW10105   5.377   0.243   2.554
 3069SOL    HW110106   5.439   0.320   2.567
 3069SOL    HW210107   5.393   0.175   2.625
 3070SOL     OW10108   2.206   0.477   1.080
 3070SOL    HW110109   2.287   0.446   1.029
 3070SOL    HW210110   2.165   0.399   1.128
 3071SOL     OW10111   6.880   3.998   4.639
 3071SOL    HW110112   6.838   3.951   4.717
 3071SOL    HW210113   6.976   4.014   4.657
 3072SOL     OW10114   2.253   0.265   6.600
 3072SOL    HW110115   2.235   0.220   6.513
 3072SOL    HW210116   2.351   0.278   6.611
 3073SOL     OW10117   6.268   5.038   1.123
 3073SOL    HW110118   6.301   4.971   1.189
 3073SOL    HW210119   6.184   5.081   1.157
 3074SOL     OW10120   1.776   3.190   1.593
 3074SOL    HW110121   1.862   3.220   1.552
 3074SOL    HW210122   1.781   3.196   1.692
 3075SOL     OW10123   3.735   5.717   2.107
 3075SOL    HW110124   3.800   5.717   2.031
 3075SOL    HW210125   3.693   5.627   2.116
 3076SOL     OW10126   0.694   0.581   5.344
 3076SOL    HW110127   0.698   0.680   5.332
 3076SOL    HW210128   0.742   0.556   5.429
 3077SOL     OW10129   6.758   4.019   2.801
 3077SOL    HW110130   6.847   4.052   2.834
 3077SOL    HW210131   6.696   4.007   2.878
 3078SOL     OW10132   6.486   3.108   1.920
 3078SOL    HW110133   6.504   3.036   1.987
 3078SOL    HW210134   6.571   3.132   1.873
 3079SOL     OW10135   1.960   3.484   5.361
 3079SOL    HW110136   1.991   3.394   5.332
 3079SOL    HW210137   2.029   3.526   5.420
 3080SOL     OW10138   4.197   4.926   0.602
 3080SOL    HW110139   4.191   4.867   0.683
 3080SOL    HW210140   4.109   4.927   0.555
 3081SOL     OW10141   1.446   3.802   0.096
 3081SOL    HW110142   1.417   3.716   0.054
 3081SOL    HW210143   1.372   3.868   0.091
 3082SOL     OW10144   4.727   5.053   4.654
 3082SOL    HW110145   4.762   4.979   4.595
 3082SOL    HW210146   4.639   5.085   4.618
 3083SOL     OW10147   3.345   5.907   1.696
 3083SOL    HW110148   3.427   5.904   1.639
 3083SOL    HW210149   3.365   5.958   1.779
 3084SOL     OW10150   0.416   3.488   4.051
 3084SOL    HW110151   0.501   3.510   4.004
 3084SOL    HW210152   0.368   3.416   4.001
 3085SOL     OW10153   5.273   4.356   0.438
 3085SOL    HW110154   5.246   4.273   0.390
 3085SOL    HW210155   5.236   4.353   0.531
 3086SOL     OW10156   6.078   6.707   6.498
 3086SOL    HW110157   6.112   6.797   6.473
 3086SOL    HW210158   6.099   6.642   6.426
 3087SOL     OW10159   3.255   6.844   1.949
 3087SOL    HW110160   3.180   6.849   1.882
 3087SOL    HW210161   3.271   6.934   1.987
 3088SOL     OW10162   1.559   2.827   5.660
 3088SOL    HW110163   1.465   2.807   5.689
 3088SOL    HW210164   1.573   2.925   5.659
 3089SOL     OW10165   4.138   6.375   5.055
 3089SOL    HW110166   4.065   6.400   4.992
 3089SOL    HW210167   4.215   6.438   5.043
 3090SOL     OW10168   1.388   2.030   2.411
 3090SOL    HW110169   1.479   1.996   2.390
 3090SOL    HW210170   1.379   2.125   2.381
 3091SOL     OW10171   1.056   2.032   1.301
 3091SOL    HW110172   1.056   2.091   1.382
 3091SOL    HW210173   1.150   2.014   1.272
 3092SOL     OW10174   6.598   1.130   2.513
 3092SOL    HW110175   6.661   1.057   2.487
 3092SOL    HW210176   6.550   1.163   2.431
 3093SOL     OW10177   5.637   4.916   0.065
 3093SOL    HW110178   5.562   4.947   0.006
 3093SOL    HW210179   5.661   4.989   0.129
 3094SOL     OW10180   2.778   1.757   6.348
 3094SOL    HW110181   2.804   1.762   6.251
 3094SOL    HW210182   2.762   1.850   6.382
 3095SOL     OW10183   1.947   3.453   4.959
 3095SOL    HW110184   2.032   3.433   5.007
 3095SOL    HW210185   1.912   3.541   4.990
 3096SOL     OW10186   0.763   3.850   4.542
 3096SOL    HW110187   0.726   3.916   4.476
 3096SOL    HW210188   0.721   3.761   4.527
 3097SOL     OW10189   5.282   2.546   5.211
 3097SOL    HW110190   5.213   2.614   5.237
 3097SOL    HW210191   5.276   2.528   5.113
 3098SOL     OW10192   2.147   2.845   1.986
 3098SOL    HW110193   2.213   2.846   1.911
 3098SOL    HW210194   2.079   2.773   1.969
 3099SOL     OW10195   0.901   6.008   4.832
 3099SOL    HW110196   0.916   6.058   4.747
 3099SOL    HW210197   0.811   5.964   4.829
 3100SOL     OW10198   6.306   5.473   2.363
 3100SOL    HW110199   6.336   5.389   2.317
 3100SOL    HW210200   6.368   5.494   2.439
 3101SOL     OW10201   3.633   6.433   5.541
 3101SOL    HW110202   3.638   6.388   5.452
 3101SOL    HW210203   3.593   6.370   5.608
 3102SOL     OW10204   0.125   5.102   0.739
 3102SOL    HW110205   0.138   5.111   0.640
 3102SOL    HW210206   0.137   5.192   0.782
 3103SOL     OW10207   3.253   0.965   1.089
 3103SOL    HW110208   3.260   0.873   1.127
 3103SOL    HW210209   3.328   1.021   1.125
 3104SOL     OW10210   4.513   0.909   5.681
 3104SOL    HW110211   4.453   0.899   5.603
 3104SOL    HW210212   4.505   1.001   5.718
 3105SOL     OW10213   6.316   4.055   0.518
 3105SOL    HW110214   6.268   3.969   0.537
 3105SOL    HW210215   6.402   4.034   0.470
 3106SOL     OW10216   6.211   0.184   5.569
 3106SOL    HW110217   6.210   0.245   5.490
 3106SOL    HW210218   6.150   0.106   5.552
 3107SOL     OW10219   3.766   1.459   5.961
 3107SOL    HW110220   3.754   1.558   5.967
 3107SOL    HW210221   3.722   1.415   6.040
 3108SOL     OW10222   2.242   4.078   3.674
 3108SOL    HW110223   2.296   4.122   3.602
 3108SOL    HW210224   2.212   4.147   3.740
 3109SOL     OW10225   6.448   5.879   4.122
 3109SOL    HW110226   6.529   5.839   4.080
 3109SOL    HW210227   6.367   5.827   4.094
 3110SOL     OW10228   0.818   4.319   3.036
 3110SOL    HW110229   0.759   4.260   2.981
 3110SOL    HW210230   0.764   4.393   3.077
 3111SOL     OW10231   5.799   4.759   4.222
 3111SOL    HW110232   5.734   4.775   4.147
 3111SOL    HW210233   5.781   4.670   4.264
 3112SOL     OW10234   3.892   2.065   6.552
 3112SOL    HW110235   3.958   2.054   6.626
 3112SOL    HW210236   3.936   2.110   6.475
 3113SOL     OW10237   2.495   5.838   3.335
 3113SOL    HW110238   2.518   5.741   3.323
 3113SOL    HW210239   2.556   5.878   3.404
 3114SOL     OW10240   4.815   0.954   6.202
 3114SOL    HW110241   4.755   0.933   6.278
 3114SOL    HW210242   4.883   1.022   6.230
 3115SOL     OW10243   4.908   5.521   5.001
 3115SOL    HW110244   4.989   5.468   4.979
 3115SOL    HW210245   4.884   5.579   4.923
 3116SOL     OW10246   0.656   1.321   0.975
 3116SOL    HW110247   0.570   1.327   1.025
 3116SOL    HW210248   0.645   1.358   0.883
 3117SOL     OW10249   4.798   1.165   5.758
 3117SOL    HW110250   4.712   1.161   5.706
 3117SOL    HW210251   4.840   1.255   5.746
 3118SOL     OW10252   1.638   0.740   3.518
 3118SOL    HW110253   1.585   0.823   3.532
 3118SOL    HW210254   1.581   0.660   3.536
 3119SOL     OW10255   4.041   4.681   5.661
 3119SOL    HW110256   3.980   4.759   5.644
 3119SOL    HW210257   4.023   4.645   5.752
 3120SOL     OW10258   1.503   6.095   5.318
 3120SOL    HW110259   1.421   6.116   5.265
 3120SOL    HW210260   1.582   6.090   5.258
 3121SOL     OW10261   4.523   1.394   4.336
 3121SOL    HW110262   4.471   1.478   4.348
 3121SOL    HW210263   4.502   1.331   4.412
 3122SOL     OW10264   4.213   5.602   4.254
 3122SOL    HW110265   4.258   5.631   4.338
 3122SOL    HW210266   4.208   5.680   4.191
 3123SOL     OW10267   2.119   1.530   3.617
 3123SOL    HW110268   2.043   1.493   3.671
 3123SOL    HW210269   2.199   1.540   3.676
 3124SOL     OW10270   4.997   6.919   3.669
 3124SOL    HW110271   4.928   6.947   3.601
 3124SOL    HW210272   4.950   6.881   3.749
 3125SOL     OW10273   1.596   1.492   5.414
 3125SOL    HW110274   1.511   1.443   5.436
 3125SOL    HW210275   1.673   1.446   5.458
 3126SOL     OW10276   5.641   5.610   5.027
 3126SOL    HW110277   5.589   5.643   4.948
 3126SOL    HW210278   5.736   5.594   5.000
 3127SOL     OW10279   0.440   0.935   5.175
 3127SOL    HW110280   0.453   1.031   5.148
 3127SOL    HW210281   0.355   0.926   5.227
 3128SOL     OW10282   4.397   0.666   0.292
 3128SOL    HW110283   4.334   0.622   0.229
 3128SOL    HW210284   4.363   0.656   0.386
 3129SOL     OW10285   4.523   3.422   0.368
 3129SOL    HW110286   4.612   3.423   0.414
 3129SOL    HW210287   4.457   3.475   0.421
 3130SOL     OW10288   1.073   4.358   2.213
 3130SOL    HW110289   1.094   4.262   2.226
 3130SOL    HW210290   1.016   4.390   2.289
 3131SOL     OW10291   6.625   4.442   3.048
 3131SOL    HW110292   6.626   4.466   2.951
 3131SOL    HW210293   6.535   4.407   3.073
 3132SOL     OW10294   4.287   4.863   6.846
 3132SOL    HW110295   4.194   4.826   6.851
 3132SOL    HW210296   4.294   4.926   6.768
 3133SOL     OW10297   3.478   0.449   4.308
 3133SOL    HW110298   3.543   0.487   4.242
 3133SOL    HW210299   3.395   0.419   4.260
 3134SOL     OW10300   4.395   5.395   3.071
 3134SOL    HW110301   4.392   5.469   3.138
 3134SOL    HW210302   4.378   5.432   2.980
 3135SOL     OW10303   4.855   6.163   6.272
 3135SOL    HW110304   4.827   6.111   6.353
 3135SOL    HW210305   4.819   6.118   6.190
 3136SOL     OW10306   6.215   2.008   2.823
 3136SOL    HW110307   6.270   2.070   2.878
 3136SOL    HW210308   6.167   2.060   2.752
 3137SOL     OW10309   5.874   6.909   6.863
 3137SOL    HW110310   5.803   6.920   6.793
 3137SOL    HW210311   5.937   6.837   6.835
 3138SOL     OW10312   5.702   5.837   3.857
 3138SOL    HW110313   5.698   5.780   3.939
 3138SOL    HW210314   5.619   5.892   3.851
 3139SOL     OW10315   2.447   4.888   1.532
 3139SOL    HW110316   2.526   4.936   1.567
 3139SOL    HW210317   2.446   4.795   1.567
 3140SOL     OW10318   6.903   0.054   6.260
 3140SOL    HW110319   6.927   0.021   6.168
 3140SOL    HW210320   6.812   0.096   6.257
 3141SOL     OW10321   6.573   2.523   5.888
 3141SOL    HW110322   6.611   2.445   5.937
 3141SOL    HW210323   6.610   2.607   5.926
 3142SOL     OW10324   5.053   1.281   2.561
 3142SOL    HW110325   5.042   1.367   2.510
 3142SOL    HW210326   5.002   1.286   2.646
 3143SOL     OW10327   6.529   0.876   0.606
 3143SOL    HW110328   6.459   0.920   0.662
 3143SOL    HW210329   6.548   0.932   0.526
 3144SOL     OW10330   4.074   3.661   6.299
 3144SOL    HW110331   4.121   3.748   6.309
 3144SOL    HW210332   4.141   3.588   6.286
 3145SOL     OW10333   0.776   5.967   1.237
 3145SOL    HW110334   0.713   5.893   1.257
 3145SOL    HW210335   0.840   5.938   1.165
 3146SOL     OW10336   0.599   0.157   5.011
 3146SOL    HW110337   0.499   0.157   5.012
 3146SOL    HW210338   0.632   0.229   4.951
 3147SOL     OW10339   4.066   5.070   0.028
 3147SOL    HW110340   4.063   5.020   0.114
 3147SOL    HW210341   4.093   5.007   6.974
 3148SOL     OW10342   6.772   5.188   2.665
 3148SOL    HW110343   6.680   5.196   2.703
 3148SOL    HW210344   6.840   5.194   2.738
 3149SOL     OW10345   3.048   1.055   0.560
 3149SOL    HW110346   3.102   1.061   0.644
 3149SOL    HW210347   2.996   0.969   0.560
 3150SOL     OW10348   6.731   5.691   4.807
 3150SOL    HW110349   6.771   5.603   4.781
 3150SOL    HW210350   6.688   5.733   4.727
 3151SOL     OW10351   6.186   1.673   5.576
 3151SOL    HW110352   6.249   1.683   5.498
 3151SOL    HW210353   6.112   1.611   5.550
 3152SOL     OW10354   0.981   3.014   6.114
 3152SOL    HW110355   1.017   2.939   6.169
 3152SOL    HW210356   1.019   3.100   6.146
 3153SOL     OW10357   6.567   5.296   1.088
 3153SOL    HW110358   6.503   5.232   1.045
 3153SOL    HW210359   6.632   5.245   1.145
 3154SOL     OW10360   5.052   1.854   0.121
 3154SOL    HW110361   5.043   1.953   0.136
 3154SOL    HW210362   5.124   1.819   0.181
 3155SOL     OW10363   0.528   5.121   0.916
 3155SOL    HW110364   0.499   5.068   0.836
 3155SOL    HW210365   0.468   5.200   0.927
 3156SOL     OW10366   3.622   4.167   1.889
 3156SOL    HW110367   3.648   4.251   1.842
 3156SOL    HW210368   3.698   4.136   1.946
 3157SOL     OW10369   0.928   1.871   5.247
 3157SOL    HW110370   0.971   1.914   5.167
 3157SOL    HW210371   0.966   1.780   5.261
 3158SOL     OW10372   2.093   1.149   5.996
 3158SOL    HW110373   2.077   1.059   6.038
 3158SOL    HW210374   2.190   1.160   5.977
 3159SOL     OW10375   6.353   6.880   0.333
 3159SOL    HW110376   6.438   6.868   0.281
 3159SOL    HW210377   6.275   6.863   0.273
 3160SOL     OW10378   1.811   0.681   6.624
 3160SOL    HW110379   1.837   0.653   6.716
 3160SOL    HW210380   1.882   0.741   6.586
 3161SOL     OW10381   2.175   2.424   2.874
 3161SOL    HW110382   2.093   2.415   2.931
 3161SOL    HW210383   2.154   2.398   2.780
 3162SOL     OW10384   1.602   5.323   0.881
 3162SOL    HW110385   1.669   5.325   0.955
 3162SOL    HW210386   1.592   5.415   0.844
 3163SOL     OW10387   3.953   3.835   0.267
 3163SOL    HW110388   3.966   3.933   0.279
 3163SOL    HW210389   4.034   3.786   0.301
 3164SOL     OW10390   2.601   6.002   3.163
 3164SOL    HW110391   2.533   5.958   3.222
 3164SOL    HW210392   2.690   5.999   3.208
 3165SOL     OW10393   1.115   6.556   6.903
 3165SOL    HW110394   1.109   6.617   6.824
 3165SOL    HW210395   1.155   6.469   6.874
 3166SOL     OW10396   4.000   0.807   5.238
 3166SOL    HW110397   4.035   0.876   5.302
 3166SOL    HW210398   3.921   0.761   5.278
 3167SOL     OW10399   5.418   3.562   0.519
 3167SOL    HW110400   5.329   3.533   0.555
 3167SOL    HW210401   5.489   3.541   0.586
 3168SOL     OW10402   5.103   1.670   0.785
 3168SOL    HW110403   5.064   1.751   0.828
 3168SOL    HW210404   5.125   1.690   0.689
 3169SOL     OW10405   1.910   4.210   1.692
 3169SOL    HW110406   1.964   4.126   1.689
 3169SOL    HW210407   1.838   4.201   1.760
 3170SOL     OW10408   3.162   5.137   3.538
 3170SOL    HW110409   3.181   5.128   3.440
 3170SOL    HW210410   3.149   5.046   3.578
 3171SOL     OW10411   5.186   2.899   3.217
 3171SOL    HW110412   5.107   2.929   3.164
 3171SOL    HW210413   5.264   2.884   3.156
 3172SOL     OW10414   0.440   4.791   1.049
 3172SOL    HW110415   0.389   4.830   1.126
 3172SOL    HW210416   0.532   4.765   1.081
 3173SOL     OW10417   3.804   2.292   0.527
 3173SOL    HW110418   3.799   2.209   0.583
 3173SOL    HW210419   3.768   2.273   0.436
 3174SOL     OW10420   2.656   3.756   5.466
 3174SOL    HW110421   2.631   3.835   5.410
 3174SOL    HW210422   2.742   3.716   5.432
 3175SOL     OW10423   6.769   0.414   4.282
 3175SOL    HW110424   6.750   0.376   4.372
 3175SOL    HW210425   6.692   0.472   4.253
 3176SOL     OW10426   1.233   4.506   5.116
 3176SOL    HW110427   1.267   4.588   5.161
 3176SOL    HW210428   1.301   4.474   5.050
 3177SOL     OW10429   5.693   3.646   3.813
 3177SOL    HW110430   5.766   3.623   3.878
 3177SOL    HW210431   5.646   3.562   3.785
 3178SOL     OW10432   6.881   0.425   1.428
 3178SOL    HW110433   6.877   0.352   1.360
 3178SOL    HW210434   6.821   0.404   1.505
 3179SOL     OW10435   0.933   1.866   2.040
 3179SOL    HW110436   0.951   1.780   2.088
 3179SOL    HW210437   0.843   1.900   2.065
 3180SOL     OW10438   6.336   5.832   0.108
 3180SOL    HW110439   6.352   5.739   0.143
 3180SOL    HW210440   6.392   5.897   0.160
 3181SOL     OW10441   0.726   0.816   4.936
 3181SOL    HW110442   0.823   0.793   4.937
 3181SOL    HW210443   0.715   0.913   4.913
 3182SOL     OW10444   2.875   0.208   0.796
 3182SOL    HW110445   2.911   0.145   0.865
 3182SOL    HW210446   2.938   0.285   0.785
 3183SOL     OW10447   4.387   4.488   1.841
 3183SOL    HW110448   4.478   4.529   1.842
 3183SOL    HW210449   4.394   4.389   1.834
 3184SOL     OW10450   0.377   1.952   5.063
 3184SOL    HW110451   0.338   1.983   5.150
 3184SOL    HW210452   0.442   2.021   5.030
 3185SOL     OW10453   0.641   5.543   6.022
 3185SOL    HW110454   0.592   5.511   6.102
 3185SOL    HW210455   0.578   5.551   5.944
 3186SOL     OW10456   0.247   1.340   6.356
 3186SOL    HW110457   0.229   1.423   6.410
 3186SOL    HW210458   0.172   1.325   6.292
 3187SOL     OW10459   4.100   6.136   2.173
 3187SOL    HW110460   4.198   6.152   2.161
 3187SOL    HW210461   4.086   6.044   2.210
 3188SOL     OW10462   1.936   4.471   5.760
 3188SOL    HW110463   1.880   4.391   5.740
 3188SOL    HW210464   2.011   4.445   5.821
 3189SOL     OW10465   3.348   1.226   6.925
 3189SOL    HW110466   3.318   1.321   6.912
 3189SOL    HW210467   3.368   1.210   0.001
 3190SOL     OW10468   6.652   5.359   3.951
 3190SOL    HW110469   6.669   5.292   4.023
 3190SOL    HW210470   6.554   5.374   3.941
 3191SOL     OW10471   4.310   5.632   2.172
 3191SOL    HW110472   4.341   5.697   2.102
 3191SOL    HW210473   4.210   5.632   2.176
 3192SOL     OW10474   6.081   2.377   2.332
 3192SOL    HW110475   6.018   2.448   2.301
 3192SOL    HW210476   6.090   2.382   2.432
 3193SOL     OW10477   3.930   0.397   5.444
 3193SOL    HW110478   3.951   0.404   5.346
 3193SOL    HW210479   4.001   0.345   5.490
 3194SOL     OW10480   1.116   1.174   6.156
 3194SOL    HW110481   1.056   1.245   6.119
 3194SOL    HW210482   1.161   1.209   6.239
 3195SOL     OW10483   0.125   2.095   1.831
 3195SOL    HW110484   0.122   2.107   1.732
 3195SOL    HW210485   0.171   2.174   1.872
 3196SOL     OW10486   6.533   0.032   4.695
 3196SOL    HW110487   6.617   0.051   4.747
 3196SOL    HW210488   6.501   0.115   4.651
 3197SOL     OW10489   2.234   1.077   6.355
 3197SOL    HW110490   2.283   1.003   6.310
 3197SOL    HW210491   2.280   1.164   6.337
 3198SOL     OW10492   6.785   2.979   3.863
 3198SOL    HW110493   6.819   3.072   3.881
 3198SOL    HW210494   6.766   2.934   3.949
 3199SOL     OW10495   5.572   4.133   3.343
 3199SOL    HW110496   5.578   4.199   3.267
 3199SOL    HW210497   5.662   4.093   3.359
 3200SOL     OW10498   5.580   3.387   4.304
 3200SOL    HW110499   5.557   3.335   4.222
 3200SOL    HW210500   5.497   3.425   4.345
 3201SOL     OW10501   5.929   4.405   2.413
 3201SOL    HW110502   5.848   4.346   2.413
 3201SOL    HW210503   5.933   4.456   2.498
 3202SOL     OW10504   1.402   4.884   0.166
 3202SOL    HW110505   1.450   4.963   0.128
 3202SOL    HW210506   1.305   4.890   0.143
 3203SOL     OW10507   4.109   6.766   1.164
 3203SOL    HW110508   4.189   6.708   1.150
 3203SOL    HW210509   4.110   6.803   1.257
 3204SOL     OW10510   2.383   1.587   3.651
 3204SOL    HW110511   2.406   1.489   3.646
 3204SOL    HW210512   2.465   1.638   3.677
 3205SOL     OW10513   5.368   3.229   5.290
 3205SOL    HW110514   5.353   3.232   5.191
 3205SOL    HW210515   5.284   3.197   5.334
 3206SOL     OW10516   2.951   3.040   1.451
 3206SOL    HW110517   2.867   3.041   1.506
 3206SOL    HW210518   2.930   3.007   1.359
 3207SOL     OW10519   0.939   6.519   5.497
 3207SOL    HW110520   0.901   6.552   5.410
 3207SOL    HW210521   0.890   6.437   5.526
 3208SOL     OW10522   6.136   5.664   5.823
 3208SOL    HW110523   6.184   5.626   5.744
 3208SOL    HW210524   6.157   5.609   5.904
 3209SOL     OW10525   5.162   6.002   6.275
 3209SOL    HW110526   5.131   6.060   6.350
 3209SOL    HW210527   5.252   5.965   6.297
 3210SOL     OW10528   6.827   5.178   1.467
 3210SOL    HW110529   6.801   5.272   1.445
 3210SOL    HW210530   6.853   5.172   1.563
 3211SOL     OW10531   1.132   5.628   6.513
 3211SOL    HW110532   1.203   5.606   6.446
 3211SOL    HW210533   1.096   5.719   6.496
 3212SOL     OW10534   2.113   6.814   2.950
 3212SOL    HW110535   2.108   6.886   2.881
 3212SOL    HW210536   2.123   6.855   3.041
 3213SOL     OW10537   1.571   0.343   5.979
 3213SOL    HW110538   1.577   0.248   6.010
 3213SOL    HW210539   1.553   0.402   6.057
 3214SOL     OW10540   3.714   1.218   3.218
 3214SOL    HW110541   3.638   1.206   3.154
 3214SOL    HW210542   3.797   1.178   3.180
 3215SOL     OW10543   1.882   2.672   0.782
 3215SOL    HW110544   1.882   2.769   0.806
 3215SOL    HW210545   1.946   2.623   0.842
 3216SOL     OW10546   5.506   4.335   0.841
 3216SOL    HW110547   5.511   4.352   0.939
 3216SOL    HW210548   5.517   4.237   0.823
 3217SOL     OW10549   1.021   5.125   2.872
 3217SOL    HW110550   0.925   5.153   2.867
 3217SOL    HW210551   1.044   5.098   2.965
 3218SOL     OW10552   6.517   1.346   2.936
 3218SOL    HW110553   6.542   1.370   2.842
 3218SOL    HW210554   6.428   1.385   2.958
 3219SOL     OW10555   5.764   0.389   5.669
 3219SOL    HW110556   5.694   0.364   5.602
 3219SOL    HW210557   5.740   0.475   5.713
 3220SOL     OW10558   6.765   4.790   6.711
 3220SOL    HW110559   6.843   4.746   6.665
 3220SOL    HW210560   6.695   4.811   6.643
 3221SOL     OW10561   3.768   0.269   1.937
 3221SOL    HW110562   3.852   0.237   1.981
 3221SOL    HW210563   3.692   0.265   2.002
 3222SOL     OW10564   2.438   1.397   2.727
 3222SOL    HW110565   2.505   1.325   2.715
 3222SOL    HW210566   2.467   1.459   2.800
 3223SOL     OW10567   1.223   0.457   1.272
 3223SOL    HW110568   1.311   0.495   1.303
 3223SOL    HW210569   1.198   0.498   1.184
 3224SOL     OW10570   4.339   2.264   4.227
 3224SOL    HW110571   4.386   2.350   4.206
 3224SOL    HW210572   4.337   2.251   4.326
 3225SOL     OW10573   3.997   0.444   4.373
 3225SOL    HW110574   3.938   0.423   4.451
 3225SOL    HW210575   4.002   0.365   4.313
 3226SOL     OW10576   0.193   6.735   1.152
 3226SOL    HW110577   0.119   6.697   1.208
 3226SOL    HW210578   0.257   6.784   1.210
 3227SOL     OW10579   4.703   2.954   5.710
 3227SOL    HW110580   4.637   2.971   5.783
 3227SOL    HW210581   4.760   3.035   5.696
 3228SOL     OW10582   1.890   4.269   0.645
 3228SOL    HW110583   1.906   4.234   0.737
 3228SOL    HW210584   1.966   4.244   0.586
 3229SOL     OW10585   1.788   1.532   0.306
 3229SOL    HW110586   1.880   1.503   0.332
 3229SOL    HW210587   1.784   1.632   0.306
 3230SOL     OW10588   2.135   5.542   5.898
 3230SOL    HW110589   2.158   5.456   5.943
 3230SOL    HW210590   2.099   5.606   5.966
 3231SOL     OW10591   2.772   1.029   1.719
 3231SOL    HW110592   2.853   1.070   1.759
 3231SOL    HW210593   2.730   0.966   1.786
 3232SOL     OW10594   4.110   6.149   4.093
 3232SOL    HW110595   4.025   6.183   4.054
 3232SOL    HW210596   4.184   6.214   4.076
 3233SOL     OW10597   0.828   2.595   0.043
 3233SOL    HW110598   0.809   2.623   0.137
 3233SOL    HW210599   0.828   2.675   7.003
 3234SOL     OW10600   2.870   2.587   0.914
 3234SOL    HW110601   2.941   2.517   0.922
 3234SOL    HW210602   2.815   2.587   0.998
 3235SOL     OW10603   0.025   6.536   2.180
 3235SOL    HW110604   6.950   6.558   2.202
 3235SOL    HW210605   0.033   6.516   2.082
 3236SOL     OW10606   3.240   3.338   0.707
 3236SOL    HW110607   3.281   3.299   0.789
 3236SOL    HW210608   3.176   3.271   0.668
 3237SOL     OW10609   5.860   1.044   5.565
 3237SOL    HW110610   5.933   1.089   5.513
 3237SOL    HW210611   5.879   0.946   5.570
 3238SOL     OW10612   6.639   5.407   1.423
 3238SOL    HW110613   6.670   5.434   1.514
 3238SOL    HW210614   6.577   5.477   1.387
 3239SOL     OW10615   6.583   0.212   4.183
 3239SOL    HW110616   6.530   0.129   4.169
 3239SOL    HW210617   6.680   0.187   4.194
 3240SOL     OW10618   0.631   0.488   7.015
 3240SOL    HW110619   0.572   0.511   6.938
 3240SOL    HW210620   0.611   0.549   0.072
 3241SOL     OW10621   5.710   1.544   6.275
 3241SOL    HW110622   5.765   1.625   6.257
 3241SOL    HW210623   5.673   1.549   6.368
 3242SOL     OW10624   4.922   4.929   5.558
 3242SOL    HW110625   4.977   4.882   5.489
 3242SOL    HW210626   4.935   5.027   5.550
 3243SOL     OW10627   4.946   5.232   5.831
 3243SOL    HW110628   4.853   5.237   5.868
 3243SOL    HW210629   5.006   5.190   5.899
 3244SOL     OW10630   5.543   5.987   6.988
 3244SOL    HW110631   5.561   6.078   0.006
 3244SOL    HW210632   5.446   5.977   6.969
 3245SOL     OW10633   3.781   1.349   4.388
 3245SOL    HW110634   3.880   1.332   4.393
 3245SOL    HW210635   3.755   1.364   4.292
 3246SOL     OW10636   0.097   0.956   2.552
 3246SOL    HW110637   0.049   0.953   2.640
 3246SOL    HW210638   0.066   1.036   2.500
 3247SOL     OW10639   0.454   4.037   3.174
 3247SOL    HW110640   0.531   4.008   3.230
 3247SOL    HW210641   0.481   4.114   3.116
 3248SOL     OW10642   5.114   2.207   3.571
 3248SOL    HW110643   5.210   2.198   3.597
 3248SOL    HW210644   5.056   2.180   3.647
 3249SOL     OW10645   3.290   3.735   3.301
 3249SOL    HW110646   3.208   3.722   3.357
 3249SOL    HW210647   3.275   3.695   3.211
 3250SOL     OW10648   5.466   5.436   2.213
 3250SOL    HW110649   5.515   5.349   2.218
 3250SOL    HW210650   5.368   5.418   2.208
 3251SOL     OW10651   2.875   1.168   3.887
 3251SOL    HW110652   2.946   1.235   3.911
 3251SOL    HW210653   2.917   1.094   3.835
 3252SOL     OW10654   2.496   1.456   4.102
 3252SOL    HW110655   2.499   1.407   4.189
 3252SOL    HW210656   2.567   1.419   4.041
 3253SOL     OW10657   6.603   3.614   1.449
 3253SOL    HW110658   6.570   3.521   1.432
 3253SOL    HW210659   6.663   3.642   1.374
 3254SOL     OW10660   5.805   0.499   0.534
 3254SOL    HW110661   5.783   0.414   0.583
 3254SOL    HW210662   5.725   0.559   0.534
 3255SOL     OW10663   5.497   4.937   0.932
 3255SOL    HW110664   5.410   4.894   0.957
 3255SOL    HW210665   5.570   4.869   0.934
 3256SOL     OW10666   4.946   2.238   1.050
 3256SOL    HW110667   4.859   2.241   1.099
 3256SOL    HW210668   4.931   2.203   0.957
 3257SOL     OW10669   2.631   2.234   2.939
 3257SOL    HW110670   2.679   2.154   2.902
 3257SOL    HW210671   2.628   2.305   2.869
 3258SOL     OW10672   2.141   5.973   3.481
 3258SOL    HW110673   2.206   6.049   3.490
 3258SOL    HW210674   2.086   5.987   3.399
 3259SOL     OW10675   4.894   4.235   4.029
 3259SOL    HW110676   4.885   4.334   4.041
 3259SOL    HW210677   4.842   4.188   4.100
 3260SOL     OW10678   1.569   3.697   1.857
 3260SOL    HW110679   1.541   3.781   1.903
 3260SOL    HW210680   1.494   3.664   1.800
 3261SOL     OW10681   4.205   0.299   3.167
 3261SOL    HW110682   4.298   0.333   3.182
 3261SOL    HW210683   4.200   0.203   3.194
 3262SOL     OW10684   3.445   2.124   2.455
 3262SOL    HW110685   3.467   2.117   2.552
 3262SOL    HW210686   3.504   2.192   2.412
 3263SOL     OW10687   1.421   1.332   2.238
 3263SOL    HW110688   1.485   1.398   2.279
 3263SOL    HW210689   1.459   1.300   2.151
 3264SOL     OW10690   2.228   5.838   0.302
 3264SOL    HW110691   2.184   5.761   0.348
 3264SOL    HW210692   2.218   5.920   0.358
 3265SOL     OW10693   5.984   5.022   5.807
 3265SOL    HW110694   6.083   5.024   5.817
 3265SOL    HW210695   5.949   5.114   5.790
 3266SOL     OW10696   3.402   4.740   6.874
 3266SOL    HW110697   3.480   4.691   6.835
 3266SOL    HW210698   3.318   4.712   6.828
 3267SOL     OW10699   4.332   0.183   0.526
 3267SOL    HW110700   4.317   0.174   0.428
 3267SOL    HW210701   4.248   0.213   0.571
 3268SOL     OW10702   6.815   4.845   1.862
 3268SOL    HW110703   6.842   4.788   1.940
 3268SOL    HW210704   6.717   4.834   1.844
 3269SOL     OW10705   1.453   4.952   2.086
 3269SOL    HW110706   1.541   4.972   2.044
 3269SOL    HW210707   1.458   4.970   2.184
 3270SOL     OW10708   0.691   2.366   5.498
 3270SOL    HW110709   0.757   2.416   5.554
 3270SOL    HW210710   0.653   2.290   5.551
 3271SOL     OW10711   0.460   3.592   2.420
 3271SOL    HW110712   0.470   3.671   2.481
 3271SOL    HW210713   0.366   3.557   2.427
 3272SOL     OW10714   4.718   6.540   0.281
 3272SOL    HW110715   4.698   6.444   0.260
 3272SOL    HW210716   4.657   6.599   0.226
 3273SOL     OW10717   4.990   2.931   6.558
 3273SOL    HW110718   4.896   2.938   6.526
 3273SOL    HW210719   5.005   2.841   6.599
 3274SOL     OW10720   5.361   0.937   0.241
 3274SOL    HW110721   5.322   0.865   0.184
 3274SOL    HW210722   5.452   0.909   0.272
 3275SOL     OW10723   4.920   0.315   1.238
 3275SOL    HW110724   4.877   0.230   1.268
 3275SOL    HW210725   4.975   0.354   1.313
 3276SOL     OW10726   4.659   6.964   0.127
 3276SOL    HW110727   4.616   6.935   0.213
 3276SOL    HW210728   4.741   6.909   0.111
 3277SOL     OW10729   3.309   1.778   2.141
 3277SOL    HW110730   3.240   1.754   2.210
 3277SOL    HW210731   3.374   1.842   2.181
 3278SOL     OW10732   6.605   0.273   6.545
 3278SOL    HW110733   6.633   0.198   6.484
 3278SOL    HW210734   6.506   0.271   6.556
 3279SOL     OW10735   4.119   6.746   0.869
 3279SOL    HW110736   4.114   6.843   0.844
 3279SOL    HW210737   4.131   6.737   0.967
 3280SOL     OW10738   5.568   3.843   4.481
 3280SOL    HW110739   5.588   3.913   4.412
 3280SOL    HW210740   5.469   3.826   4.482
 3281SOL     OW10741   6.621   4.129   1.864
 3281SOL    HW110742   6.676   4.212   1.870
 3281SOL    HW210743   6.525   4.153   1.854
 3282SOL     OW10744   0.291   4.368   5.341
 3282SOL    HW110745   0.235   4.430   5.396
 3282SOL    HW210746   0.381   4.359   5.382
 3283SOL     OW10747   3.865   1.040   1.385
 3283SOL    HW110748   3.830   1.133   1.397
 3283SOL    HW210749   3.939   1.023   1.451
 3284SOL     OW10750   1.716   5.516   5.021
 3284SOL    HW110751   1.805   5.556   4.999
 3284SOL    HW210752   1.658   5.585   5.066
 3285SOL     OW10753   5.217   1.222   4.786
 3285SOL    HW110754   5.248   1.315   4.767
 3285SOL    HW210755   5.292   1.158   4.770
 3286SOL     OW10756   3.428   1.660   1.501
 3286SOL    HW110757   3.419   1.718   1.583
 3286SOL    HW210758   3.429   1.718   1.420
 3287SOL     OW10759   2.658   6.829   6.970
 3287SOL    HW110760   2.758   6.835   6.967
 3287SOL    HW210761   2.618   6.899   6.911
 3288SOL     OW10762   1.606   6.310   1.052
 3288SOL    HW110763   1.547   6.229   1.053
 3288SOL    HW210764   1.564   6.381   0.996
 3289SOL     OW10765   3.731   1.547   6.718
 3289SOL    HW110766   3.797   1.473   6.712
 3289SOL    HW210767   3.663   1.526   6.788
 3290SOL     OW10768   6.608   5.052   0.336
 3290SOL    HW110769   6.594   5.054   0.237
 3290SOL    HW210770   6.533   5.003   0.380
 3291SOL     OW10771   4.761   0.180   5.427
 3291SOL    HW110772   4.673   0.201   5.470
 3291SOL    HW210773   4.775   0.239   5.348
 3292SOL     OW10774   0.243   1.761   1.238
 3292SOL    HW110775   0.245   1.730   1.143
 3292SOL    HW210776   0.337   1.768   1.272
 3293SOL     OW10777   6.553   5.019   2.838
 3293SOL    HW110778   6.613   4.983   2.910
 3293SOL    HW210779   6.550   5.119   2.843
 3294SOL     OW10780   4.841   2.676   5.215
 3294SOL    HW110781   4.746   2.697   5.194
 3294SOL    HW210782   4.870   2.731   5.294
 3295SOL     OW10783   1.765   2.803   1.543
 3295SOL    HW110784   1.719   2.766   1.462
 3295SOL    HW210785   1.800   2.895   1.523
 3296SOL     OW10786   0.780   0.158   6.054
 3296SOL    HW110787   0.870   0.200   6.043
 3296SOL    HW210788   0.790   0.059   6.055
 3297SOL     OW10789   3.280   1.832   5.082
 3297SOL    HW110790   3.244   1.916   5.122
 3297SOL    HW210791   3.213   1.758   5.093
 3298SOL     OW10792   6.049   4.210   5.004
 3298SOL    HW110793   6.043   4.254   5.093
 3298SOL    HW210794   6.047   4.280   4.932
 3299SOL     OW10795   3.039   4.866   4.192
 3299SOL    HW110796   3.069   4.873   4.287
 3299SOL    HW210797   3.111   4.820   4.139
 3300SOL     OW10798   1.925   6.911   4.944
 3300SOL    HW110799   1.918   6.944   5.038
 3300SOL    HW210800   1.840   6.931   4.895
 3301SOL     OW10801   2.044   2.907   2.860
 3301SOL    HW110802   2.117   2.904   2.929
 3301SOL    HW210803   2.050   2.825   2.803
 3302SOL     OW10804   2.602   4.831   5.852
 3302SOL    HW110805   2.575   4.876   5.766
 3302SOL    HW210806   2.574   4.735   5.849
 3303SOL     OW10807   3.373   3.267   0.938
 3303SOL    HW110808   3.457   3.246   0.887
 3303SOL    HW210809   3.397   3.301   1.029
 3304SOL     OW10810   2.743   4.987   6.047
 3304SOL    HW110811   2.707   4.920   5.982
 3304SOL    HW210812   2.763   4.942   6.134
 3305SOL     OW10813   3.668   0.823   1.139
 3305SOL    HW110814   3.616   0.888   1.195
 3305SOL    HW210815   3.761   0.817   1.174
 3306SOL     OW10816   2.081   0.731   0.124
 3306SOL    HW110817   2.070   0.738   0.025
 3306SOL    HW210818   1.992   0.747   0.168
 3307SOL     OW10819   0.985   0.165   4.545
 3307SOL    HW110820   1.013   0.090   4.486
 3307SOL    HW210821   0.987   0.251   4.492
 3308SOL     OW10822   3.543   4.611   1.202
 3308SOL    HW110823   3.494   4.688   1.245
 3308SOL    HW210824   3.612   4.577   1.265
 3309SOL     OW10825   5.244   4.018   3.701
 3309SOL    HW110826   5.234   4.065   3.789
 3309SOL    HW210827   5.335   3.976   3.696
 3310SOL     OW10828   6.989   4.946   4.928
 3310SOL    HW110829   6.937   5.012   4.874
 3310SOL    HW210830   6.998   4.979   5.022
 3311SOL     OW10831   3.381   3.450   0.513
 3311SOL    HW110832   3.327   3.396   0.577
 3311SOL    HW210833   3.326   3.524   0.476
 3312SOL     OW10834   5.063   2.489   5.879
 3312SOL    HW110835   5.003   2.477   5.958
 3312SOL    HW210836   5.033   2.567   5.825
 3313SOL     OW10837   0.754   0.935   3.553
 3313SOL    HW110838   0.740   0.872   3.477
 3313SOL    HW210839   0.845   0.922   3.591
 3314SOL     OW10840   1.712   6.029   2.617
 3314SOL    HW110841   1.778   6.070   2.554
 3314SOL    HW210842   1.724   5.930   2.618
 3315SOL     OW10843   0.182   4.760   5.301
 3315SOL    HW110844   0.210   4.705   5.222
 3315SOL    HW210845   0.177   4.856   5.275
 3316SOL     OW10846   2.960   1.565   6.880
 3316SOL    HW110847   2.963   1.507   6.798
 3316SOL    HW210848   2.866   1.571   6.913
 3317SOL     OW10849   5.217   2.467   2.410
 3317SOL    HW110850   5.168   2.504   2.488
 3317SOL    HW210851   5.293   2.527   2.387
 3318SOL     OW10852   3.043   2.210   0.413
 3318SOL    HW110853   3.097   2.274   0.467
 3318SOL    HW210854   2.946   2.232   0.421
 3319SOL     OW10855   6.792   6.573   3.155
 3319SOL    HW110856   6.872   6.592   3.212
 3319SOL    HW210857   6.740   6.658   3.142
 3320SOL     OW10858   6.038   0.104   0.892
 3320SOL    HW110859   5.989   0.046   0.826
 3320SOL    HW210860   6.115   0.148   0.847
 3321SOL     OW10861   5.807   1.616   0.281
 3321SOL    HW110862   5.771   1.619   0.374
 3321SOL    HW210863   5.886   1.554   0.277
 3322SOL     OW10864   6.703   3.629   1.186
 3322SOL    HW110865   6.764   3.579   1.125
 3322SOL    HW210866   6.672   3.713   1.141
 3323SOL     OW10867   1.770   1.256   2.033
 3323SOL    HW110868   1.819   1.324   1.978
 3323SOL    HW210869   1.673   1.258   2.009
 3324SOL     OW10870   4.972   5.183   5.571
 3324SOL    HW110871   4.961   5.181   5.670
 3324SOL    HW210872   5.064   5.217   5.549
 3325SOL     OW10873   1.757   3.613   6.718
 3325SOL    HW110874   1.724   3.573   6.633
 3325SOL    HW210875   1.836   3.562   6.751
 3326SOL     OW10876   5.500   1.213   2.960
 3326SOL    HW110877   5.426   1.279   2.947
 3326SOL    HW210878   5.567   1.224   2.886
 3327SOL     OW10879   1.591   5.731   1.436
 3327SOL    HW110880   1.616   5.809   1.494
 3327SOL    HW210881   1.534   5.762   1.360
 3328SOL     OW10882   4.101   2.294   0.675
 3328SOL    HW110883   4.004   2.297   0.652
 3328SOL    HW210884   4.136   2.387   0.686
 3329SOL     OW10885   5.717   5.420   5.917
 3329SOL    HW110886   5.760   5.439   5.828
 3329SOL    HW210887   5.640   5.483   5.930
 3330SOL     OW10888   6.012   3.416   2.278
 3330SOL    HW110889   6.061   3.358   2.212
 3330SOL    HW210890   6.031   3.512   2.258
 3331SOL     OW10891   1.648   2.264   1.391
 3331SOL    HW110892   1.722   2.232   1.450
 3331SOL    HW210893   1.686   2.300   1.306
 3332SOL     OW10894   5.908   4.459   0.704
 3332SOL    HW110895   5.874   4.530   0.765
 3332SOL    HW210896   5.831   4.408   0.666
 3333SOL     OW10897   4.122   4.957   6.041
 3333SOL    HW110898   4.217   4.944   6.016
 3333SOL    HW210899   4.064   4.940   5.961
 3334SOL     OW10900   2.964   3.670   1.317
 3334SOL    HW110901   2.924   3.738   1.379
 3334SOL    HW210902   2.894   3.638   1.254
 3335SOL     OW10903   4.975   4.590   5.570
 3335SOL    HW110904   5.018   4.672   5.533
 3335SOL    HW210905   4.979   4.592   5.669
 3336SOL     OW10906   3.570   5.128   6.097
 3336SOL    HW110907   3.593   5.103   6.191
 3336SOL    HW210908   3.472   5.145   6.090
 3337SOL     OW10909   3.483   2.537   1.597
 3337SOL    HW110910   3.575   2.504   1.620
 3337SOL    HW210911   3.460   2.614   1.655
 3338SOL     OW10912   0.096   4.171   0.862
 3338SOL    HW110913   0.001   4.150   0.840
 3338SOL    HW210914   0.099   4.234   0.940
 3339SOL     OW10915   6.421   5.671   6.866
 3339SOL    HW110916   6.379   5.755   6.901
 3339SOL    HW210917   6.496   5.695   6.804
 3340SOL     OW10918   3.120   6.233   2.012
 3340SOL    HW110919   3.212   6.262   2.040
 3340SOL    HW210920   3.053   6.277   2.072
 3341SOL     OW10921   0.605   0.736   2.620
 3341SOL    HW110922   0.521   0.783   2.592
 3341SOL    HW210923   0.642   0.684   2.543
 3342SOL     OW10924   2.033   6.694   3.735
 3342SOL    HW110925   1.980   6.757   3.792
 3342SOL    HW210926   2.008   6.706   3.639
 3343SOL     OW10927   5.068   3.236   0.838
 3343SOL    HW110928   5.149   3.214   0.784
 3343SOL    HW210929   5.025   3.151   0.870
 3344SOL     OW10930   5.627   3.344   6.114
 3344SOL    HW110931   5.527   3.341   6.124
 3344SOL    HW210932   5.654   3.289   6.036
 3345SOL     OW10933   3.155   3.429   5.720
 3345SOL    HW110934   3.195   3.520   5.728
 3345SOL    HW210935   3.223   3.360   5.746
 3346SOL     OW10936   0.102   0.301   1.618
 3346SOL    HW110937   0.012   0.299   1.661
 3346SOL    HW210938   0.127   0.395   1.598
 3347SOL     OW10939   5.881   3.966   5.080
 3347SOL    HW110940   5.947   4.037   5.054
 3347SOL    HW210941   5.798   4.009   5.115
 3348SOL     OW10942   3.953   3.065   4.320
 3348SOL    HW110943   3.857   3.037   4.324
 3348SOL    HW210944   4.002   3.027   4.398
 3349SOL     OW10945   6.424   3.798   4.512
 3349SOL    HW110946   6.520   3.786   4.537
 3349SOL    HW210947   6.366   3.768   4.588
 3350SOL     OW10948   1.836   1.139   0.719
 3350SOL    HW110949   1.905   1.121   0.789
 3350SOL    HW210950   1.878   1.132   0.628
 3351SOL     OW10951   5.424   1.913   1.000
 3351SOL    HW110952   5.487   1.946   1.070
 3351SOL    HW210953   5.341   1.968   1.001
 3352SOL     OW10954   0.912   3.383   0.957
 3352SOL    HW110955   0.922   3.456   0.889
 3352SOL    HW210956   0.898   3.423   1.047
 3353SOL     OW10957   2.105   0.202   6.815
 3353SOL    HW110958   2.164   0.208   6.734
 3353SOL    HW210959   2.020   0.156   6.791
 3354SOL     OW10960   6.939   2.625   4.011
 3354SOL    HW110961   6.851   2.584   3.986
 3354SOL    HW210962   6.999   2.555   4.049
 3355SOL     OW10963   6.860   1.228   2.007
 3355SOL    HW110964   6.948   1.181   2.019
 3355SOL    HW210965   6.810   1.227   2.093
 3356SOL     OW10966   2.684   3.685   0.179
 3356SOL    HW110967   2.752   3.741   0.227
 3356SOL    HW210968   2.661   3.728   0.092
 3357SOL     OW10969   2.998   5.262   1.918
 3357SOL    HW110970   2.999   5.362   1.917
 3357SOL    HW210971   2.979   5.229   2.010
 3358SOL     OW10972   4.812   6.299   2.805
 3358SOL    HW110973   4.849   6.209   2.826
 3358SOL    HW210974   4.719   6.306   2.840
 3359SOL     OW10975   1.154   0.168   2.756
 3359SOL    HW110976   1.149   0.149   2.854
 3359SOL    HW210977   1.169   0.266   2.742
 3360SOL     OW10978   0.575   0.732   0.140
 3360SOL    HW110979   0.485   0.765   0.112
 3360SOL    HW210980   0.566   0.672   0.219
 3361SOL     OW10981   6.042   5.835   2.958
 3361SOL    HW110982   5.959   5.782   2.973
 3361SOL    HW210983   6.106   5.819   3.034
 3362SOL     OW10984   2.407   1.503   5.258
 3362SOL    HW110985   2.336   1.574   5.269
 3362SOL    HW210986   2.430   1.494   5.161
 3363SOL     OW10987   0.267   1.799   6.811
 3363SOL    HW110988   0.214   1.730   6.859
 3363SOL    HW210989   0.207   1.848   6.747
 3364SOL     OW10990   2.385   5.227   5.860
 3364SOL    HW110991   2.464   5.217   5.920
 3364SOL    HW210992   2.301   5.215   5.912
 3365SOL     OW10993   6.688   2.890   4.540
 3365SOL    HW110994   6.655   2.915   4.630
 3365SOL    HW210995   6.779   2.930   4.525
 3366SOL     OW10996   5.141   0.384   5.331
 3366SOL    HW110997   5.109   0.458   5.390
 3366SOL    HW210998   5.126   0.296   5.377
 3367SOL     OW10999   1.360   2.112   2.937
 3367SOL    HW111000   1.413   2.080   3.015
 3367SOL    HW211001   1.272   2.147   2.968
 3368SOL     OW11002   6.532   5.644   6.030
 3368SOL    HW111003   6.594   5.692   5.968
 3368SOL    HW211004   6.491   5.709   6.093
 3369SOL     OW11005   3.832   0.422   0.039
 3369SOL    HW111006   3.801   0.399   0.131
 3369SOL    HW211007   3.853   0.519   0.034
 3370SOL     OW11008   5.897   6.791   4.906
 3370SOL    HW111009   5.903   6.852   4.986
 3370SOL    HW211010   5.935   6.838   4.826
 3371SOL     OW11011   0.873   5.148   2.426
 3371SOL    HW111012   0.887   5.065   2.481
 3371SOL    HW211013   0.961   5.182   2.393
 3372SOL     OW11014   0.985   0.880   2.900
 3372SOL    HW111015   1.065   0.821   2.894
 3372SOL    HW211016   0.940   0.884   2.811
 3373SOL     OW11017   6.190   1.805   5.132
 3373SOL    HW111018   6.207   1.767   5.041
 3373SOL    HW211019   6.275   1.845   5.167
 3374SOL     OW11020   2.787   5.571   5.932
 3374SOL    HW111021   2.880   5.555   5.898
 3374SOL    HW211022   2.730   5.605   5.857
 3375SOL     OW11023   4.502   4.438   5.405
 3375SOL    HW111024   4.594   4.459   5.439
 3375SOL    HW211025   4.456   4.376   5.469
 3376SOL     OW11026   3.169   3.093   2.349
 3376SOL    HW111027   3.183   3.029   2.273
 3376SOL    HW211028   3.089   3.150   2.330
 3377SOL     OW11029   1.492   0.036   5.507
 3377SOL    HW111030   1.589   0.045   5.528
 3377SOL    HW211031   1.481   0.009   5.411
 3378SOL     OW11032   0.080   1.394   1.361
 3378SOL    HW111033   0.054   1.447   1.280
 3378SOL    HW211034   0.179   1.386   1.366
 3379SOL     OW11035   0.569   4.374   6.137
 3379SOL    HW111036   0.481   4.394   6.095
 3379SOL    HW211037   0.642   4.415   6.082
 3380SOL     OW11038   6.992   4.352   6.718
 3380SOL    HW111039   6.906   4.314   6.754
 3380SOL    HW211040   7.012   4.312   6.629
 3381SOL     OW11041   3.255   2.497   0.278
 3381SOL    HW111042   3.325   2.492   0.349
 3381SOL    HW211043   3.165   2.507   0.319
 3382SOL     OW11044   0.021   1.602   0.730
 3382SOL    HW111045   6.954   1.633   0.768
 3382SOL    HW211046   0.036   1.506   0.756
 3383SOL     OW11047   5.887   4.840   2.809
 3383SOL    HW111048   5.901   4.937   2.789
 3383SOL    HW211049   5.790   4.817   2.800
 3384SOL     OW11050   3.691   2.975   4.354
 3384SOL    HW111051   3.622   3.042   4.328
 3384SOL    HW211052   3.677   2.889   4.305
 3385SOL     OW11053   6.404   3.553   3.665
 3385SOL    HW111054   6.481   3.497   3.698
 3385SOL    HW211055   6.420   3.648   3.690
 3386SOL     OW11056   6.301   4.561   4.976
 3386SOL    HW111057   6.289   4.466   5.004
 3386SOL    HW211058   6.398   4.578   4.956
 3387SOL     OW11059   2.347   2.282   3.062
 3387SOL    HW111060   2.445   2.279   3.046
 3387SOL    HW211061   2.300   2.319   2.982
 3388SOL     OW11062   5.473   2.077   1.354
 3388SOL    HW111063   5.553   2.112   1.305
 3388SOL    HW211064   5.481   1.977   1.363
 3389SOL     OW11065   4.852   4.403   3.623
 3389SOL    HW111066   4.830   4.500   3.618
 3389SOL    HW211067   4.812   4.364   3.706
 3390SOL     OW11068   5.268   3.005   5.893
 3390SOL    HW111069   5.171   3.030   5.898
 3390SOL    HW211070   5.314   3.032   5.978
 3391SOL     OW11071   3.543   1.942   5.268
 3391SOL    HW111072   3.458   1.897   5.294
 3391SOL    HW211073   3.523   2.023   5.212
 3392SOL     OW11074   2.475   0.733   4.189
 3392SOL    HW111075   2.422   0.817   4.193
 3392SOL    HW211076   2.498   0.703   4.282
 3393SOL     OW11077   6.359   6.248   6.877
 3393SOL    HW111078   6.394   6.277   6.966
 3393SOL    HW211079   6.435   6.222   6.818
 3394SOL     OW11080   6.061   2.765   1.408
 3394SOL    HW111081   5.999   2.776   1.330
 3394SOL    HW211082   6.127   2.693   1.387
 3395SOL     OW11083   0.529   3.315   4.252
 3395SOL    HW111084   0.439   3.353   4.230
 3395SOL    HW211085   0.565   3.360   4.334
 3396SOL     OW11086   0.305   3.695   3.491
 3396SOL    HW111087   0.299   3.766   3.562
 3396SOL    HW211088   0.224   3.637   3.496
 3397SOL     OW11089   3.678   6.792   5.964
 3397SOL    HW111090   3.670   6.852   6.043
 3397SOL    HW211091   3.622   6.827   5.889
 3398SOL     OW11092   1.208   0.006   4.095
 3398SOL    HW111093   1.223   6.928   4.090
 3398SOL    HW211094   1.209   0.035   4.191
 3399SOL     OW11095   5.071   5.041   3.866
 3399SOL    HW111096   5.121   5.062   3.783
 3399SOL    HW211097   4.978   5.078   3.860
 3400SOL     OW11098   5.002   1.876   6.875
 3400SOL    HW111099   4.931   1.947   6.877
 3400SOL    HW211100   5.019   1.844   6.968
 3401SOL     OW11101   6.281   3.665   0.900
 3401SOL    HW111102   6.276   3.716   0.985
 3401SOL    HW211103   6.191   3.627   0.878
 3402SOL     OW11104   5.152   5.864   1.289
 3402SOL    HW111105   5.190   5.844   1.380
 3402SOL    HW211106   5.054   5.847   1.289
 3403SOL     OW11107   3.406   0.486   5.009
 3403SOL    HW111108   3.495   0.520   4.978
 3403SOL    HW211109   3.337   0.558   4.999
 3404SOL     OW11110   4.568   1.171   0.886
 3404SOL    HW111111   4.662   1.198   0.906
 3404SOL    HW211112   4.557   1.156   0.788
 3405SOL     OW11113   6.230   3.900   6.636
 3405SOL    HW111114   6.286   3.972   6.677
 3405SOL    HW211115   6.159   3.943   6.580
 3406SOL     OW11116   2.119   4.168   2.194
 3406SOL    HW111117   2.122   4.075   2.157
 3406SOL    HW211118   2.024   4.191   2.218
 3407SOL     OW11119   1.245   5.618   1.676
 3407SOL    HW111120   1.338   5.655   1.683
 3407SOL    HW211121   1.204   5.646   1.589
 3408SOL     OW11122   5.126   4.415   2.614
 3408SOL    HW111123   5.124   4.339   2.679
 3408SOL    HW211124   5.042   4.415   2.560
 3409SOL     OW11125   3.715   0.123   5.879
 3409SOL    HW111126   3.629   0.088   5.917
 3409SOL    HW211127   3.786   0.052   5.886
 3410SOL     OW11128   6.120   6.085   0.234
 3410SOL    HW111129   6.048   6.019   0.212
 3410SOL    HW211130   6.188   6.040   0.293
 3411SOL     OW11131   4.771   2.235   2.570
 3411SOL    HW111132   4.813   2.148   2.544
 3411SOL    HW211133   4.698   2.219   2.636
 3412SOL     OW11134   3.928   3.744   6.994
 3412SOL    HW111135   4.006   3.792   6.953
 3412SOL    HW211136   3.925   3.762   0.072
 3413SOL     OW11137   3.767   1.961   3.326
 3413SOL    HW111138   3.730   2.036   3.380
 3413SOL    HW211139   3.696   1.892   3.311
 3414SOL     OW11140   2.908   2.189   5.066
 3414SOL    HW111141   2.847   2.259   5.030
 3414SOL    HW211142   2.995   2.231   5.091
 3415SOL     OW11143   0.811   4.607   4.588
 3415SOL    HW111144   0.728   4.555   4.571
 3415SOL    HW211145   0.891   4.548   4.575
 3416SOL     OW11146   0.251   4.414   6.033
 3416SOL    HW111147   0.244   4.334   6.092
 3416SOL    HW211148   0.223   4.390   5.940
 3417SOL     OW11149   6.908   6.626   2.514
 3417SOL    HW111150   6.861   6.643   2.601
 3417SOL    HW211151   6.870   6.545   2.470
 3418SOL     OW11152   2.523   1.052   5.192
 3418SOL    HW111153   2.425   1.041   5.174
 3418SOL    HW211154   2.544   1.149   5.206
 3419SOL     OW11155   4.134   4.472   0.432
 3419SOL    HW111156   4.128   4.398   0.365
 3419SOL    HW211157   4.081   4.551   0.399
 3420SOL     OW11158   4.828   2.014   4.115
 3420SOL    HW111159   4.785   2.103   4.131
 3420SOL    HW211160   4.766   1.941   4.146
 3421SOL     OW11161   0.002   6.474   5.166
 3421SOL    HW111162   0.102   6.476   5.162
 3421SOL    HW211163   6.989   6.557   5.211
 3422SOL     OW11164   3.343   0.267   1.282
 3422SOL    HW111165   3.361   0.192   1.346
 3422SOL    HW211166   3.417   0.334   1.288
 3423SOL     OW11167   2.633   0.723   0.821
 3423SOL    HW111168   2.621   0.814   0.861
 3423SOL    HW211169   2.711   0.678   0.864
 3424SOL     OW11170   4.341   1.371   2.689
 3424SOL    HW111171   4.366   1.325   2.774
 3424SOL    HW211172   4.287   1.453   2.709
 3425SOL     OW11173   4.793   4.187   2.082
 3425SOL    HW111174   4.709   4.239   2.065
 3425SOL    HW211175   4.810   4.125   2.005
 3426SOL     OW11176   3.971   3.130   0.111
 3426SOL    HW111177   4.021   3.103   0.028
 3426SOL    HW211178   3.996   3.223   0.136
 3427SOL     OW11179   6.832   0.471   0.156
 3427SOL    HW111180   6.913   0.501   0.105
 3427SOL    HW211181   6.844   0.491   0.253
 3428SOL     OW11182   4.216   4.842   2.388
 3428SOL    HW111183   4.310   4.814   2.373
 3428SOL    HW211184   4.158   4.803   2.316
 3429SOL     OW11185   1.272   3.018   6.771
 3429SOL    HW111186   1.183   3.045   6.732
 3429SOL    HW211187   1.335   3.095   6.765
 3430SOL     OW11188   1.383   0.280   0.195
 3430SOL    HW111189   1.323   0.202   0.211
 3430SOL    HW211190   1.432   0.267   0.109
 3431SOL     OW11191   1.747   6.150   1.361
 3431SOL    HW111192   1.652   6.173   1.337
 3431SOL    HW211193   1.779   6.212   1.433
 3432SOL     OW11194   2.825   1.753   5.731
 3432SOL    HW111195   2.914   1.794   5.752
 3432SOL    HW211196   2.789   1.793   5.647
 3433SOL     OW11197   3.413   1.263   5.834
 3433SOL    HW111198   3.396   1.356   5.802
 3433SOL    HW211199   3.328   1.222   5.867
 3434SOL     OW11200   4.221   2.551   1.298
 3434SOL    HW111201   4.307   2.571   1.250
 3434SOL    HW211202   4.146   2.549   1.232
 3435SOL     OW11203   6.957   2.508   1.879
 3435SOL    HW111204   6.993   2.555   1.960
 3435SOL    HW211205   6.858   2.495   1.888
 3436SOL     OW11206   4.585   0.003   4.783
 3436SOL    HW111207   4.579   0.101   4.763
 3436SOL    HW211208   4.610   6.973   4.700
 3437SOL     OW11209   4.217   0.229   5.027
 3437SOL    HW111210   4.243   0.201   5.119
 3437SOL    HW211211   4.270   0.309   5.000
 3438SOL     OW11212   1.781   2.587   6.657
 3438SOL    HW111213   1.811   2.682   6.644
 3438SOL    HW211214   1.721   2.581   6.736
 3439SOL     OW11215   2.626   6.530   4.994
 3439SOL    HW111216   2.639   6.629   5.000
 3439SOL    HW211217   2.706   6.488   4.951
 3440SOL     OW11218   4.568   3.272   1.225
 3440SOL    HW111219   4.630   3.239   1.295
 3440SOL    HW211220   4.473   3.266   1.257
 3441SOL     OW11221   3.998   0.191   4.196
 3441SOL    HW111222   3.968   0.135   4.273
 3441SOL    HW211223   3.923   0.202   4.131
 3442SOL     OW11224   2.148   5.273   3.933
 3442SOL    HW111225   2.127   5.345   3.867
 3442SOL    HW211226   2.232   5.226   3.905
 3443SOL     OW11227   5.923   1.993   3.198
 3443SOL    HW111228   5.939   1.998   3.297
 3443SOL    HW211229   5.921   1.897   3.169
 3444SOL     OW11230   5.308   5.588   6.632
 3444SOL    HW111231   5.260   5.675   6.616
 3444SOL    HW211232   5.393   5.587   6.579
 3445SOL     OW11233   6.584   4.192   4.364
 3445SOL    HW111234   6.660   4.141   4.323
 3445SOL    HW211235   6.612   4.227   4.453
 3446SOL     OW11236   3.996   0.425   3.313
 3446SOL    HW111237   3.929   0.473   3.256
 3446SOL    HW211238   4.055   0.369   3.254
 3447SOL     OW11239   5.580   5.433   0.442
 3447SOL    HW111240   5.534   5.414   0.355
 3447SOL    HW211241   5.569   5.530   0.464
 3448SOL     OW11242   3.084   0.642   1.180
 3448SOL    HW111243   3.009   0.589   1.220
 3448SOL    HW211244   3.116   0.709   1.246
 3449SOL     OW11245   6.841   7.004   1.770
 3449SOL    HW111246   6.871   6.944   1.844
 3449SOL    HW211247   6.743   6.995   1.757
 3450SOL     OW11248   0.998   1.588   1.335
 3450SOL    HW111249   1.025   1.500   1.295
 3450SOL    HW211250   1.064   1.615   1.404
 3451SOL     OW11251   1.182   5.467   3.701
 3451SOL    HW111252   1.145   5.548   3.747
 3451SOL    HW211253   1.111   5.428   3.642
 3452SOL     OW11254   6.780   0.793   6.711
 3452SOL    HW111255   6.810   0.755   6.799
 3452SOL    HW211256   6.847   0.859   6.679
 3453SOL     OW11257   5.155   5.802   4.748
 3453SOL    HW111258   5.103   5.736   4.694
 3453SOL    HW211259   5.099   5.836   4.823
 3454SOL     OW11260   1.534   1.556   0.921
 3454SOL    HW111261   1.447   1.564   0.969
 3454SOL    HW211262   1.521   1.577   0.824
 3455SOL     OW11263   1.695   3.254   4.261
 3455SOL    HW111264   1.654   3.259   4.170
 3455SOL    HW211265   1.684   3.162   4.297
 3456SOL     OW11266   5.748   6.559   1.690
 3456SOL    HW111267   5.839   6.530   1.718
 3456SOL    HW211268   5.748   6.579   1.592
 3457SOL     OW11269   2.631   5.001   3.777
 3457SOL    HW111270   2.590   4.911   3.797
 3457SOL    HW211271   2.687   4.994   3.695
 3458SOL     OW11272   5.948   6.637   0.345
 3458SOL    HW111273   6.006   6.599   0.272
 3458SOL    HW211274   6.004   6.658   0.425
 3459SOL     OW11275   0.551   3.804   3.491
 3459SOL    HW111276   0.590   3.714   3.510
 3459SOL    HW211277   0.452   3.795   3.482
 3460SOL     OW11278   2.888   2.901   6.888
 3460SOL    HW111279   2.925   2.946   6.969
 3460SOL    HW211280   2.943   2.924   6.808
 3461SOL     OW11281   3.717   5.291   4.052
 3461SOL    HW111282   3.714   5.228   3.974
 3461SOL    HW211283   3.795   5.269   4.110
 3462SOL     OW11284   5.585   3.145   3.048
 3462SOL    HW111285   5.637   3.083   3.108
 3462SOL    HW211286   5.541   3.092   2.976
 3463SOL     OW11287   1.400   2.905   1.684
 3463SOL    HW111288   1.309   2.937   1.659
 3463SOL    HW211289   1.448   2.977   1.734
 3464SOL     OW11290   5.679   2.724   6.727
 3464SOL    HW111291   5.594   2.767   6.697
 3464SOL    HW211292   5.689   2.635   6.682
 3465SOL     OW11293   2.179   3.625   1.618
 3465SOL    HW111294   2.196   3.588   1.709
 3465SOL    HW211295   2.201   3.723   1.617
 3466SOL     OW11296   5.503   4.441   5.493
 3466SOL    HW111297   5.480   4.427   5.590
 3466SOL    HW211298   5.451   4.378   5.437
 3467SOL     OW11299   3.385   1.908   0.964
 3467SOL    HW111300   3.386   1.924   0.865
 3467SOL    HW211301   3.296   1.934   1.001
 3468SOL     OW11302   4.540   1.411   1.864
 3468SOL    HW111303   4.446   1.436   1.882
 3468SOL    HW211304   4.597   1.437   1.942
 3469SOL     OW11305   4.512   0.275   6.117
 3469SOL    HW111306   4.553   0.185   6.125
 3469SOL    HW211307   4.419   0.273   6.154
 3470SOL     OW11308   0.332   2.711   1.124
 3470SOL    HW111309   0.293   2.634   1.074
 3470SOL    HW211310   0.271   2.737   1.199
 3471SOL     OW11311   4.539   4.361   3.623
 3471SOL    HW111312   4.569   4.340   3.530
 3471SOL    HW211313   4.574   4.292   3.687
 3472SOL     OW11314   4.557   2.543   3.010
 3472SOL    HW111315   4.558   2.592   3.097
 3472SOL    HW211316   4.468   2.501   2.997
 3473SOL     OW11317   0.024   3.488   4.007
 3473SOL    HW111318   0.015   3.475   3.908
 3473SOL    HW211319   0.095   3.427   4.042
 3474SOL     OW11320   0.286   4.056   4.384
 3474SOL    HW111321   0.370   4.110   4.389
 3474SOL    HW211322   0.292   3.980   4.449
 3475SOL     OW11323   6.894   4.797   4.400
 3475SOL    HW111324   6.981   4.843   4.418
 3475SOL    HW211325   6.853   4.836   4.317
 3476SOL     OW11326   2.014   1.798   3.621
 3476SOL    HW111327   2.080   1.747   3.567
 3476SOL    HW211328   2.055   1.822   3.709
 3477SOL     OW11329   0.256   3.592   1.404
 3477SOL    HW111330   0.335   3.650   1.422
 3477SOL    HW211331   0.221   3.610   1.312
 3478SOL     OW11332   2.383   6.979   0.323
 3478SOL    HW111333   2.407   0.049   0.287
 3478SOL    HW211334   2.447   6.911   0.287
 3479SOL     OW11335   0.663   3.018   3.589
 3479SOL    HW111336   0.690   2.951   3.657
 3479SOL    HW211337   0.721   3.099   3.597
 3480SOL     OW11338   0.707   5.818   6.595
 3480SOL    HW111339   0.760   5.734   6.609
 3480SOL    HW211340   0.689   5.831   6.498
 3481SOL     OW11341   5.650   0.549   0.106
 3481SOL    HW111342   5.656   0.467   0.164
 3481SOL    HW211343   5.721   0.544   0.035
 3482SOL     OW11344   6.292   2.635   3.995
 3482SOL    HW111345   6.248   2.688   3.923
 3482SOL    HW211346   6.265   2.671   4.085
 3483SOL     OW11347   4.879   2.591   3.327
 3483SOL    HW111348   4.944   2.550   3.391
 3483SOL    HW211349   4.845   2.677   3.365
 3484SOL     OW11350   1.994   3.569   6.378
 3484SOL    HW111351   1.973   3.653   6.428
 3484SOL    HW211352   2.045   3.592   6.295
 3485SOL     OW11353   0.001   1.500   5.203
 3485SOL    HW111354   6.958   1.514   5.126
 3485SOL    HW211355   0.061   1.423   5.183
 3486SOL     OW11356   1.728   6.744   4.463
 3486SOL    HW111357   1.633   6.742   4.496
 3486SOL    HW211358   1.747   6.661   4.412
 3487SOL     OW11359   6.348   1.323   0.017
 3487SOL    HW111360   6.347   1.307   6.938
 3487SOL    HW211361   6.386   1.413   0.036
 3488SOL     OW11362   5.615   0.570   4.932
 3488SOL    HW111363   5.569   0.519   4.860
 3488SOL    HW211364   5.549   0.629   4.979
 3489SOL     OW11365   3.186   6.726   1.208
 3489SOL    HW111366   3.217   6.812   1.248
 3489SOL    HW211367   3.264   6.676   1.172
 3490SOL     OW11368   3.775   5.047   1.326
 3490SOL    HW111369   3.736   4.962   1.361
 3490SOL    HW211370   3.844   5.082   1.390
 3491SOL     OW11371   5.216   3.981   7.009
 3491SOL    HW111372   5.290   3.977   6.943
 3491SOL    HW211373   5.210   4.074   0.027
 3492SOL     OW11374   6.872   3.925   2.228
 3492SOL    HW111375   6.951   3.905   2.170
 3492SOL    HW211376   6.883   3.878   2.316
 3493SOL     OW11377   6.629   3.878   4.286
 3493SOL    HW111378   6.699   3.908   4.351
 3493SOL    HW211379   6.538   3.897   4.323
 3494SOL     OW11380   3.160   1.796   2.671
 3494SOL    HW111381   3.195   1.810   2.578
 3494SOL    HW211382   3.102   1.715   2.673
 3495SOL     OW11383   0.560   4.160   2.326
 3495SOL    HW111384   0.485   4.107   2.288
 3495SOL    HW211385   0.592   4.118   2.411
 3496SOL     OW11386   5.971   4.676   0.522
 3496SOL    HW111387   6.016   4.591   0.548
 3496SOL    HW211388   5.882   4.682   0.567
 3497SOL     OW11389   3.599   0.714   3.699
 3497SOL    HW111390   3.527   0.756   3.643
 3497SOL    HW211391   3.616   0.771   3.779
 3498SOL     OW11392   2.734   1.622   2.254
 3498SOL    HW111393   2.700   1.658   2.167
 3498SOL    HW211394   2.794   1.690   2.297
 3499SOL     OW11395   6.064   6.100   5.498
 3499SOL    HW111396   6.154   6.142   5.510
 3499SOL    HW211397   5.994   6.161   5.536
 3500SOL     OW11398   1.580   1.959   3.932
 3500SOL    HW111399   1.492   2.004   3.921
 3500SOL    HW211400   1.589   1.887   3.864
 3501SOL     OW11401   2.547   6.588   7.002
 3501SOL    HW111402   2.579   6.503   6.960
 3501SOL    HW211403   2.614   6.660   6.986
 3502SOL     OW11404   5.758   3.056   1.942
 3502SOL    HW111405   5.711   3.105   1.869
 3502SOL    HW211406   5.841   3.013   1.906
 3503SOL     OW11407   0.078   5.830   5.808
 3503SOL    HW111408   0.012   5.904   5.795
 3503SOL    HW211409   0.095   5.785   5.720
 3504SOL     OW11410   2.204   0.717   1.978
 3504SOL    HW111411   2.271   0.759   1.917
 3504SOL    HW211412   2.251   0.659   2.044
 3505SOL     OW11413   5.524   5.608   5.546
 3505SOL    HW111414   5.577   5.682   5.587
 3505SOL    HW211415   5.586   5.542   5.503
 3506SOL     OW11416   6.099   4.645   5.147
 3506SOL    HW111417   6.152   4.611   5.069
 3506SOL    HW211418   6.141   4.614   5.232
 3507SOL     OW11419   2.014   6.837   0.739
 3507SOL    HW111420   1.933   6.880   0.697
 3507SOL    HW211421   2.096   6.873   0.695
 3508SOL     OW11422   3.017   2.683   6.162
 3508SOL    HW111423   3.060   2.714   6.076
 3508SOL    HW211424   3.082   2.625   6.211
 3509SOL     OW11425   5.078   6.633   0.597
 3509SOL    HW111426   5.033   6.721   0.617
 3509SOL    HW211427   5.102   6.629   0.500
 3510SOL     OW11428   2.390   1.292   1.560
 3510SOL    HW111429   2.378   1.225   1.487
 3510SOL    HW211430   2.438   1.250   1.637
 3511SOL     OW11431   2.043   4.624   1.466
 3511SOL    HW111432   2.063   4.580   1.553
 3511SOL    HW211433   2.105   4.701   1.453
 3512SOL     OW11434   0.857   3.710   7.002
 3512SOL    HW111435   0.903   3.741   6.919
 3512SOL    HW211436   0.779   3.768   0.002
 3513SOL     OW11437   6.496   2.233   1.187
 3513SOL    HW111438   6.429   2.164   1.160
 3513SOL    HW211439   6.532   2.211   1.277
 3514SOL     OW11440   5.537   0.819   2.366
 3514SOL    HW111441   5.504   0.744   2.308
 3514SOL    HW211442   5.479   0.826   2.446
 3515SOL     OW11443   5.743   6.192   3.874
 3515SOL    HW111444   5.778   6.132   3.946
 3515SOL    HW211445   5.643   6.196   3.879
 3516SOL     OW11446   5.042   7.001   0.976
 3516SOL    HW111447   4.979   7.010   0.899
 3516SOL    HW211448   5.066   0.073   1.010
 3517SOL     OW11449   0.332   0.815   1.305
 3517SOL    HW111450   0.420   0.779   1.275
 3517SOL    HW211451   0.263   0.742   1.299
 3518SOL     OW11452   5.456   2.184   4.866
 3518SOL    HW111453   5.431   2.091   4.891
 3518SOL    HW211454   5.393   2.217   4.795
 3519SOL     OW11455   2.693   1.388   6.859
 3519SOL    HW111456   2.648   1.477   6.857
 3519SOL    HW211457   2.632   1.321   6.901
 3520SOL     OW11458   3.809   6.115   6.205
 3520SOL    HW111459   3.756   6.054   6.265
 3520SOL    HW211460   3.752   6.193   6.179
 3521SOL     OW11461   3.614   2.793   6.672
 3521SOL    HW111462   3.600   2.754   6.763
 3521SOL    HW211463   3.542   2.860   6.653
 3522SOL     OW11464   6.562   5.253   6.424
 3522SOL    HW111465   6.652   5.212   6.405
 3522SOL    HW211466   6.569   5.352   6.419
 3523SOL     OW11467   1.199   4.618   5.658
 3523SOL    HW111468   1.143   4.582   5.583
 3523SOL    HW211469   1.250   4.697   5.626
 3524SOL     OW11470   5.324   1.855   2.617
 3524SOL    HW111471   5.411   1.840   2.570
 3524SOL    HW211472   5.248   1.841   2.553
 3525SOL     OW11473   5.996   3.668   3.842
 3525SOL    HW111474   6.004   3.685   3.744
 3525SOL    HW211475   6.055   3.591   3.867
 3526SOL     OW11476   1.710   6.115   3.506
 3526SOL    HW111477   1.772   6.178   3.459
 3526SOL    HW211478   1.709   6.027   3.458
 3527SOL     OW11479   6.042   3.031   5.890
 3527SOL    HW111480   6.132   2.997   5.865
 3527SOL    HW211481   5.989   3.051   5.807
 3528SOL     OW11482   2.415   6.036   4.953
 3528SOL    HW111483   2.352   6.026   4.875
 3528SOL    HW211484   2.418   5.950   5.004
 3529SOL     OW11485   4.177   6.554   6.561
 3529SOL    HW111486   4.190   6.578   6.464
 3529SOL    HW211487   4.143   6.633   6.611
 3530SOL     OW11488   6.935   5.025   2.044
 3530SOL    HW111489   6.877   4.965   1.989
 3530SOL    HW211490   0.011   5.011   2.018
 3531SOL     OW11491   5.246   2.220   1.450
 3531SOL    HW111492   5.224   2.203   1.546
 3531SOL    HW211493   5.327   2.167   1.425
 3532SOL     OW11494   2.606   0.603   1.915
 3532SOL    HW111495   2.664   0.631   1.991
 3532SOL    HW211496   2.644   0.639   1.830
 3533SOL     OW11497   0.320   1.966   2.828
 3533SOL    HW111498   0.388   1.893   2.818
 3533SOL    HW211499   0.232   1.926   2.854
 3534SOL     OW11500   0.953   2.413   2.233
 3534SOL    HW111501   1.040   2.421   2.186
 3534SOL    HW211502   0.893   2.488   2.207
 3535SOL     OW11503   2.785   5.197   5.439
 3535SOL    HW111504   2.743   5.158   5.357
 3535SOL    HW211505   2.818   5.289   5.419
 3536SOL     OW11506   3.615   1.724   3.053
 3536SOL    HW111507   3.627   1.650   3.120
 3536SOL    HW211508   3.518   1.734   3.031
 3537SOL     OW11509   1.129   5.969   2.317
 3537SOL    HW111510   1.118   5.992   2.414
 3537SOL    HW211511   1.106   6.048   2.261
 3538SOL     OW11512   3.398   5.433   5.657
 3538SOL    HW111513   3.414   5.449   5.559
 3538SOL    HW211514   3.485   5.413   5.702
 3539SOL     OW11515   3.792   3.711   4.510
 3539SOL    HW111516   3.837   3.637   4.461
 3539SOL    HW211517   3.698   3.722   4.475
 3540SOL     OW11518   2.148   2.461   4.228
 3540SOL    HW111519   2.065   2.409   4.208
 3540SOL    HW211520   2.124   2.544   4.279
 3541SOL     OW11521   2.951   3.034   5.304
 3541SOL    HW111522   2.854   3.052   5.287
 3541SOL    HW211523   2.966   3.019   5.401
 3542SOL     OW11524   1.863   4.978   3.114
 3542SOL    HW111525   1.953   4.955   3.151
 3542SOL    HW211526   1.841   5.073   3.137
 3543SOL     OW11527   5.739   2.990   4.115
 3543SOL    HW111528   5.758   3.017   4.210
 3543SOL    HW211529   5.691   2.902   4.114
 3544SOL     OW11530   1.866   4.171   6.910
 3544SOL    HW111531   1.807   4.158   6.990
 3544SOL    HW211532   1.961   4.159   6.936
 3545SOL     OW11533   4.079   6.174   6.278
 3545SOL    HW111534   4.134   6.202   6.199
 3545SOL    HW211535   3.984   6.159   6.249
 3546SOL     OW11536   0.429   5.671   3.169
 3546SOL    HW111537   0.478   5.747   3.211
 3546SOL    HW211538   0.468   5.651   3.080
 3547SOL     OW11539   4.113   5.464   3.769
 3547SOL    HW111540   4.099   5.554   3.728
 3547SOL    HW211541   4.115   5.473   3.869
 3548SOL     OW11542   5.000   2.199   5.928
 3548SOL    HW111543   5.003   2.193   6.027
 3548SOL    HW211544   5.064   2.268   5.896
 3549SOL     OW11545   6.661   4.819   4.541
 3549SOL    HW111546   6.743   4.777   4.502
 3549SOL    HW211547   6.682   4.854   4.632
 3550SOL     OW11548   5.422   2.534   3.023
 3550SOL    HW111549   5.445   2.452   2.971
 3550SOL    HW211550   5.404   2.610   2.960
 3551SOL     OW11551   3.515   6.365   3.307
 3551SOL    HW111552   3.517   6.271   3.273
 3551SOL    HW211553   3.595   6.381   3.365
 3552SOL     OW11554   4.752   5.588   2.743
 3552SOL    HW111555   4.753   5.559   2.838
 3552SOL    HW211556   4.739   5.508   2.684
 3553SOL     OW11557   5.422   2.957   2.345
 3553SOL    HW111558   5.383   3.043   2.377
 3553SOL    HW211559   5.452   2.967   2.250
 3554SOL     OW11560   4.250   3.725   0.109
 3554SOL    HW111561   4.216   3.813   0.075
 3554SOL    HW211562   4.271   3.733   0.207
 3555SOL     OW11563   0.822   3.283   2.834
 3555SOL    HW111564   0.886   3.360   2.836
 3555SOL    HW211565   0.739   3.310   2.784
 3556SOL     OW11566   3.267   0.384   5.394
 3556SOL    HW111567   3.284   0.328   5.475
 3556SOL    HW211568   3.217   0.466   5.420
 3557SOL     OW11569   1.120   0.932   4.873
 3557SOL    HW111570   1.091   0.975   4.788
 3557SOL    HW211571   1.208   0.969   4.901
 3558SOL     OW11572   7.014   5.651   1.670
 3558SOL    HW111573   0.036   5.576   1.618
 3558SOL    HW211574   0.059   5.726   1.678
 3559SOL     OW11575   0.318   0.196   5.016
 3559SOL    HW111576   0.247   0.179   4.948
 3559SOL    HW211577   0.361   0.285   4.998
 3560SOL     OW11578   1.477   5.812   1.186
 3560SOL    HW111579   1.572   5.791   1.161
 3560SOL    HW211580   1.454   5.904   1.154
 3561SOL     OW11581   5.056   4.786   6.126
 3561SOL    HW111582   5.061   4.760   6.222
 3561SOL    HW211583   5.146   4.774   6.083
 3562SOL     OW11584   5.083   0.375   3.804
 3562SOL    HW111585   5.042   0.434   3.734
 3562SOL    HW211586   5.159   0.324   3.765
 3563SOL     OW11587   5.210   1.478   1.483
 3563SOL    HW111588   5.310   1.481   1.482
 3563SOL    HW211589   5.176   1.529   1.562
 3564SOL     OW11590   0.774   4.206   4.682
 3564SOL    HW111591   0.705   4.135   4.699
 3564SOL    HW211592   0.839   4.209   4.758
 3565SOL     OW11593   3.147   6.386   4.914
 3565SOL    HW111594   3.169   6.289   4.901
 3565SOL    HW211595   3.051   6.396   4.939
 3566SOL     OW11596   6.938   3.154   5.886
 3566SOL    HW111597   6.974   3.232   5.835
 3566SOL    HW211598   6.838   3.157   5.885
 3567SOL     OW11599   0.914   2.556   0.611
 3567SOL    HW111600   0.838   2.541   0.548
 3567SOL    HW211601   0.924   2.654   0.629
 3568SOL     OW11602   4.968   5.084   2.922
 3568SOL    HW111603   5.020   5.028   2.857
 3568SOL    HW211604   4.870   5.065   2.911
 3569SOL     OW11605   3.170   2.929   4.887
 3569SOL    HW111606   3.260   2.900   4.922
 3569SOL    HW211607   3.125   2.987   4.955
 3570SOL     OW11608   6.044   1.784   5.373
 3570SOL    HW111609   6.085   1.790   5.282
 3570SOL    HW211610   5.987   1.702   5.379
 3571SOL     OW11611   1.630   0.714   4.862
 3571SOL    HW111612   1.699   0.764   4.810
 3571SOL    HW211613   1.672   0.673   4.943
 3572SOL     OW11614   5.204   4.321   2.217
 3572SOL    HW111615   5.248   4.355   2.300
 3572SOL    HW211616   5.118   4.371   2.202
 3573SOL     OW11617   6.498   4.394   2.051
 3573SOL    HW111618   6.452   4.483   2.056
 3573SOL    HW211619   6.483   4.343   2.136
 3574SOL     OW11620   2.431   3.012   6.269
 3574SOL    HW111621   2.493   2.936   6.251
 3574SOL    HW211622   2.432   3.076   6.192
 3575SOL     OW11623   4.697   5.917   0.548
 3575SOL    HW111624   4.765   5.963   0.605
 3575SOL    HW211625   4.742   5.851   0.488
 3576SOL     OW11626   0.257   2.960   7.009
 3576SOL    HW111627   0.285   2.877   6.963
 3576SOL    HW211628   0.327   2.989   0.054
 3577SOL     OW11629   2.142   2.760   5.405
 3577SOL    HW111630   2.183   2.709   5.482
 3577SOL    HW211631   2.137   2.700   5.325
 3578SOL     OW11632   3.166   2.722   0.668
 3578SOL    HW111633   3.225   2.649   0.634
 3578SOL    HW211634   3.200   2.753   0.757
 3579SOL     OW11635   0.245   3.486   2.191
 3579SOL    HW111636   0.254   3.413   2.259
 3579SOL    HW211637   0.166   3.468   2.133
 3580SOL     OW11638   0.752   2.835   0.879
 3580SOL    HW111639   0.817   2.827   0.954
 3580SOL    HW211640   0.746   2.930   0.849
 3581SOL     OW11641   0.797   0.131   3.187
 3581SOL    HW111642   0.778   0.155   3.092
 3581SOL    HW211643   0.723   0.164   3.245
 3582SOL     OW11644   3.110   4.280   5.803
 3582SOL    HW111645   3.150   4.357   5.753
 3582SOL    HW211646   3.021   4.257   5.762
 3583SOL     OW11647   0.567   4.525   0.661
 3583SOL    HW111648   0.584   4.592   0.588
 3583SOL    HW211649   0.651   4.510   0.713
 3584SOL     OW11650   5.806   4.454   5.551
 3584SOL    HW111651   5.709   4.449   5.573
 3584SOL    HW211652   5.817   4.492   5.459
 3585SOL     OW11653   2.546   2.522   4.658
 3585SOL    HW111654   2.570   2.559   4.568
 3585SOL    HW211655   2.603   2.443   4.678
 3586SOL     OW11656   6.259   2.944   3.813
 3586SOL    HW111657   6.260   3.044   3.821
 3586SOL    HW211658   6.348   2.912   3.781
 3587SOL     OW11659   3.639   6.336   6.151
 3587SOL    HW111660   3.666   6.402   6.221
 3587SOL    HW211661   3.669   6.368   6.061
 3588SOL     OW11662   6.317   4.068   4.653
 3588SOL    HW111663   6.363   4.055   4.565
 3588SOL    HW211664   6.334   3.989   4.711
 3589SOL     OW11665   0.216   7.011   5.713
 3589SOL    HW111666   0.228   0.060   5.785
 3589SOL    HW211667   0.189   6.924   5.754
 3590SOL     OW11668   0.198   4.187   0.351
 3590SOL    HW111669   0.215   4.217   0.445
 3590SOL    HW211670   0.271   4.219   0.292
 3591SOL     OW11671   5.682   2.327   6.837
 3591SOL    HW111672   5.611   2.351   6.904
 3591SOL    HW211673   5.674   2.230   6.813
 3592SOL     OW11674   0.954   0.529   2.163
 3592SOL    HW111675   1.049   0.498   2.151
 3592SOL    HW211676   0.927   0.515   2.258
 3593SOL     OW11677   5.834   3.478   5.924
 3593SOL    HW111678   5.840   3.566   5.877
 3593SOL    HW211679   5.738   3.451   5.932
 3594SOL     OW11680   4.110   5.506   4.901
 3594SOL    HW111681   4.089   5.581   4.839
 3594SOL    HW211682   4.208   5.506   4.922
 3595SOL     OW11683   5.786   5.874   6.750
 3595SOL    HW111684   5.728   5.817   6.809
 3595SOL    HW211685   5.741   5.962   6.734
 3596SOL     OW11686   3.986   1.737   3.380
 3596SOL    HW111687   3.897   1.700   3.407
 3596SOL    HW211688   4.007   1.818   3.435
 3597SOL     OW11689   1.768   3.282   5.116
 3597SOL    HW111690   1.829   3.203   5.123
 3597SOL    HW211691   1.805   3.347   5.049
 3598SOL     OW11692   1.319   5.433   5.272
 3598SOL    HW111693   1.394   5.398   5.329
 3598SOL    HW211694   1.232   5.402   5.309
 3599SOL     OW11695   4.414   1.592   6.029
 3599SOL    HW111696   4.417   1.660   5.956
 3599SOL    HW211697   4.472   1.514   6.005
 3600SOL     OW11698   3.006   3.721   0.477
 3600SOL    HW111699   3.067   3.660   0.527
 3600SOL    HW211700   3.009   3.699   0.380
 3601SOL     OW11701   5.065   1.267   5.380
 3601SOL    HW111702   5.044   1.359   5.348
 3601SOL    HW211703   5.009   1.200   5.332
 3602SOL     OW11704   1.853   2.474   1.413
 3602SOL    HW111705   1.772   2.503   1.464
 3602SOL    HW211706   1.886   2.387   1.450
 3603SOL     OW11707   3.245   0.991   6.030
 3603SOL    HW111708   3.345   0.990   6.022
 3603SOL    HW211709   3.209   1.075   5.991
 3604SOL     OW11710   0.050   0.753   3.644
 3604SOL    HW111711   0.116   0.727   3.714
 3604SOL    HW211712   6.979   0.764   3.686
 3605SOL     OW11713   1.147   5.082   3.143
 3605SOL    HW111714   1.062   5.082   3.197
 3605SOL    HW211715   1.225   5.083   3.205
 3606SOL     OW11716   1.742   6.411   1.838
 3606SOL    HW111717   1.663   6.438   1.781
 3606SOL    HW211718   1.723   6.324   1.882
 3607SOL     OW11719   5.117   2.759   2.717
 3607SOL    HW111720   5.063   2.771   2.800
 3607SOL    HW211721   5.070   2.800   2.639
 3608SOL     OW11722   4.067   2.052   4.232
 3608SOL    HW111723   4.051   2.092   4.322
 3608SOL    HW211724   4.057   2.122   4.162
 3609SOL     OW11725   2.502   6.619   4.442
 3609SOL    HW111726   2.508   6.681   4.364
 3609SOL    HW211727   2.439   6.544   4.421
 3610SOL     OW11728   2.128   0.057   5.506
 3610SOL    HW111729   2.125   6.991   5.454
 3610SOL    HW211730   2.061   0.121   5.468
 3611SOL     OW11731   4.576   4.420   4.004
 3611SOL    HW111732   4.666   4.458   3.983
 3611SOL    HW211733   4.552   4.351   3.937
 3612SOL     OW11734   6.009   1.180   6.884
 3612SOL    HW111735   5.915   1.191   6.917
 3612SOL    HW211736   6.069   1.157   6.960
 3613SOL     OW11737   3.139   5.372   1.294
 3613SOL    HW111738   3.134   5.342   1.390
 3613SOL    HW211739   3.235   5.383   1.268
 3614SOL     OW11740   3.640   4.162   6.630
 3614SOL    HW111741   3.723   4.194   6.586
 3614SOL    HW211742   3.593   4.238   6.675
 3615SOL     OW11743   6.327   2.816   5.400
 3615SOL    HW111744   6.382   2.758   5.340
 3615SOL    HW211745   6.230   2.801   5.381
 3616SOL     OW11746   2.246   1.637   6.748
 3616SOL    HW111747   2.273   1.675   6.659
 3616SOL    HW211748   2.224   1.712   6.810
 3617SOL     OW11749   4.131   7.003   5.757
 3617SOL    HW111750   4.172   6.912   5.747
 3617SOL    HW211751   4.058   7.014   5.689
 3618SOL     OW11752   1.730   4.024   4.970
 3618SOL    HW111753   1.826   4.001   4.952
 3618SOL    HW211754   1.676   3.940   4.973
 3619SOL     OW11755   6.094   2.817   0.824
 3619SOL    HW111756   6.003   2.778   0.843
 3619SOL    HW211757   6.085   2.893   0.761
 3620SOL     OW11758   6.354   6.563   4.864
 3620SOL    HW111759   6.435   6.508   4.883
 3620SOL    HW211760   6.381   6.659   4.852
 3621SOL     OW11761   3.962   3.037   4.029
 3621SOL    HW111762   3.974   3.045   4.128
 3621SOL    HW211763   4.033   3.091   3.983
 3622SOL     OW11764   0.942   6.563   0.529
 3622SOL    HW111765   0.888   6.618   0.466
 3622SOL    HW211766   0.881   6.514   0.591
 3623SOL     OW11767   1.428   5.317   5.970
 3623SOL    HW111768   1.472   5.227   5.958
 3623SOL    HW211769   1.484   5.373   6.031
 3624SOL     OW11770   3.210   0.745   1.747
 3624SOL    HW111771   3.155   0.685   1.805
 3624SOL    HW211772   3.280   0.789   1.803
 3625SOL     OW11773   6.338   3.029   6.598
 3625SOL    HW111774   6.263   3.068   6.652
 3625SOL    HW211775   6.414   3.005   6.658
 3626SOL     OW11776   0.505   2.452   5.148
 3626SOL    HW111777   0.522   2.372   5.207
 3626SOL    HW211778   0.530   2.535   5.197
 3627SOL     OW11779   4.318   3.065   1.103
 3627SOL    HW111780   4.378   3.081   1.024
 3627SOL    HW211781   4.234   3.022   1.073
 3628SOL     OW11782   0.656   0.891   1.881
 3628SOL    HW111783   0.701   0.863   1.966
 3628SOL    HW211784   0.562   0.918   1.900
 3629SOL     OW11785   1.055   1.513   4.571
 3629SOL    HW111786   1.099   1.581   4.513
 3629SOL    HW211787   0.958   1.536   4.580
 3630SOL     OW11788   6.985   2.680   3.467
 3630SOL    HW111789   6.982   2.759   3.527
 3630SOL    HW211790   0.011   2.604   3.514
 3631SOL     OW11791   1.576   6.424   2.662
 3631SOL    HW111792   1.591   6.478   2.745
 3631SOL    HW211793   1.578   6.327   2.685
 3632SOL     OW11794   4.431   3.600   0.996
 3632SOL    HW111795   4.521   3.563   0.973
 3632SOL    HW211796   4.433   3.700   0.991
 3633SOL     OW11797   3.856   2.789   6.152
 3633SOL    HW111798   3.852   2.889   6.150
 3633SOL    HW211799   3.898   2.760   6.238
 3634SOL     OW11800   3.055   5.582   5.838
 3634SOL    HW111801   3.149   5.617   5.850
 3634SOL    HW211802   3.021   5.609   5.748
 3635SOL     OW11803   3.239   0.966   1.612
 3635SOL    HW111804   3.215   1.047   1.665
 3635SOL    HW211805   3.224   0.884   1.668
 3636SOL     OW11806   1.324   5.712   6.708
 3636SOL    HW111807   1.291   5.804   6.728
 3636SOL    HW211808   1.259   5.665   6.648
 3637SOL     OW11809   0.007   2.982   6.791
 3637SOL    HW111810   0.088   2.947   6.837
 3637SOL    HW211811   6.968   3.029   6.858
 3638SOL     OW11812   5.847   4.763   2.150
 3638SOL    HW111813   5.826   4.778   2.246
 3638SOL    HW211814   5.946   4.768   2.136
 3639SOL     OW11815   3.774   4.082   4.520
 3639SOL    HW111816   3.743   4.153   4.583
 3639SOL    HW211817   3.743   4.103   4.427
 3640SOL     OW11818   5.179   2.831   0.208
 3640SOL    HW111819   5.187   2.925   0.173
 3640SOL    HW211820   5.184   2.767   0.131
 3641SOL     OW11821   0.039   4.074   1.496
 3641SOL    HW111822   0.029   4.109   1.589
 3641SOL    HW211823   6.978   4.019   1.473
 3642SOL     OW11824   6.116   2.255   6.586
 3642SOL    HW111825   6.080   2.167   6.615
 3642SOL    HW211826   6.054   2.328   6.615
 3643SOL     OW11827   4.005   5.743   5.610
 3643SOL    HW111828   4.034   5.836   5.631
 3643SOL    HW211829   3.981   5.737   5.513
 3644SOL     OW11830   3.494   0.545   1.774
 3644SOL    HW111831   3.416   0.534   1.835
 3644SOL    HW211832   3.578   0.547   1.827
 3645SOL     OW11833   1.642   4.193   4.394
 3645SOL    HW111834   1.566   4.245   4.435
 3645SOL    HW211835   1.634   4.097   4.421
 3646SOL     OW11836   2.734   4.719   4.784
 3646SOL    HW111837   2.808   4.688   4.844
 3646SOL    HW211838   2.646   4.687   4.820
 3647SOL     OW11839   2.334   0.293   0.649
 3647SOL    HW111840   2.366   0.377   0.693
 3647SOL    HW211841   2.236   0.302   0.628
 3648SOL     OW11842   4.540   5.586   3.671
 3648SOL    HW111843   4.476   5.661   3.652
 3648SOL    HW211844   4.625   5.601   3.619
 3649SOL     OW11845   5.820   3.552   0.280
 3649SOL    HW111846   5.874   3.633   0.303
 3649SOL    HW211847   5.782   3.512   0.363
 3650SOL     OW11848   4.912   4.902   0.166
 3650SOL    HW111849   4.972   4.832   0.126
 3650SOL    HW211850   4.818   4.870   0.162
 3651SOL     OW11851   0.909   2.211   5.962
 3651SOL    HW111852   0.937   2.134   5.904
 3651SOL    HW211853   0.912   2.184   6.058
 3652SOL     OW11854   4.823   1.773   1.809
 3652SOL    HW111855   4.823   1.674   1.827
 3652SOL    HW211856   4.869   1.791   1.722
 3653SOL     OW11857   0.584   1.314   1.797
 3653SOL    HW111858   0.638   1.257   1.735
 3653SOL    HW211859   0.488   1.314   1.768
 3654SOL     OW11860   5.499   0.316   0.639
 3654SOL    HW111861   5.433   0.246   0.663
 3654SOL    HW211862   5.484   0.398   0.694
 3655SOL     OW11863   1.566   1.960   4.279
 3655SOL    HW111864   1.634   1.942   4.208
 3655SOL    HW211865   1.477   1.925   4.248
 3656SOL     OW11866   0.274   5.599   1.420
 3656SOL    HW111867   0.259   5.639   1.511
 3656SOL    HW211868   0.217   5.646   1.353
 3657SOL     OW11869   4.843   6.469   4.574
 3657SOL    HW111870   4.766   6.411   4.602
 3657SOL    HW211871   4.813   6.530   4.501
 3658SOL     OW11872   1.325   5.331   6.257
 3658SOL    HW111873   1.232   5.298   6.272
 3658SOL    HW211874   1.341   5.341   6.159
 3659SOL     OW11875   6.974   2.077   6.194
 3659SOL    HW111876   6.999   2.049   6.287
 3659SOL    HW211877   6.888   2.033   6.168
 3660SOL     OW11878   6.280   5.515   6.394
 3660SOL    HW111879   6.339   5.557   6.462
 3660SOL    HW211880   6.203   5.469   6.440
 3661SOL     OW11881   6.803   1.543   5.010
 3661SOL    HW111882   6.818   1.626   4.957
 3661SOL    HW211883   6.804   1.464   4.949
 3662SOL     OW11884   3.594   1.013   5.286
 3662SOL    HW111885   3.654   1.086   5.254
 3662SOL    HW211886   3.552   1.040   5.372
 3663SOL     OW11887   2.355   2.454   6.085
 3663SOL    HW111888   2.382   2.366   6.044
 3663SOL    HW211889   2.428   2.485   6.146
 3664SOL     OW11890   3.978   1.902   2.166
 3664SOL    HW111891   3.963   2.000   2.165
 3664SOL    HW211892   4.010   1.873   2.076
 3665SOL     OW11893   0.825   5.926   5.702
 3665SOL    HW111894   0.850   5.992   5.631
 3665SOL    HW211895   0.804   5.838   5.660
 3666SOL     OW11896   2.155   1.766   4.966
 3666SOL    HW111897   2.094   1.731   5.036
 3666SOL    HW211898   2.118   1.852   4.930
 3667SOL     OW11899   2.329   0.640   2.744
 3667SOL    HW111900   2.252   0.604   2.690
 3667SOL    HW211901   2.382   0.703   2.687
 3668SOL     OW11902   0.463   0.335   1.499
 3668SOL    HW111903   0.552   0.352   1.456
 3668SOL    HW211904   0.425   0.250   1.465
 3669SOL     OW11905   6.807   1.525   3.893
 3669SOL    HW111906   6.838   1.610   3.936
 3669SOL    HW211907   6.770   1.545   3.802
 3670SOL     OW11908   3.600   5.320   1.555
 3670SOL    HW111909   3.511   5.285   1.582
 3670SOL    HW211910   3.645   5.362   1.634
 3671SOL     OW11911   0.095   0.480   3.617
 3671SOL    HW111912   0.146   0.491   3.532
 3671SOL    HW211913   0.025   0.552   3.624
 3672SOL     OW11914   4.099   0.537   3.030
 3672SOL    HW111915   4.141   0.459   3.076
 3672SOL    HW211916   4.016   0.563   3.078
 3673SOL     OW11917   5.092   5.966   1.041
 3673SOL    HW111918   5.099   6.063   1.065
 3673SOL    HW211919   5.124   5.911   1.117
 3674SOL     OW11920   1.502   5.034   5.973
 3674SOL    HW111921   1.555   4.988   5.901
 3674SOL    HW211922   1.411   4.991   5.980
 3675SOL     OW11923   0.213   1.438   4.030
 3675SOL    HW111924   0.210   1.429   4.129
 3675SOL    HW211925   0.154   1.513   4.002
 3676SOL     OW11926   4.681   1.561   3.336
 3676SOL    HW111927   4.593   1.527   3.304
 3676SOL    HW211928   4.707   1.642   3.284
 3677SOL     OW11929   2.210   0.398   3.773
 3677SOL    HW111930   2.265   0.341   3.834
 3677SOL    HW211931   2.146   0.453   3.827
 3678SOL     OW11932   1.563   0.451   3.497
 3678SOL    HW111933   1.661   0.459   3.516
 3678SOL    HW211934   1.550   0.412   3.405
 3679SOL     OW11935   4.749   1.073   2.609
 3679SOL    HW111936   4.738   1.089   2.707
 3679SOL    HW211937   4.811   1.142   2.570
 3680SOL     OW11938   3.895   1.190   4.137
 3680SOL    HW111939   3.942   1.231   4.215
 3680SOL    HW211940   3.847   1.261   4.087
 3681SOL     OW11941   1.400   0.048   4.786
 3681SOL    HW111942   1.306   0.080   4.774
 3681SOL    HW211943   1.444   0.038   4.697
 3682SOL     OW11944   5.585   2.503   1.259
 3682SOL    HW111945   5.515   2.441   1.224
 3682SOL    HW211946   5.642   2.455   1.326
 3683SOL     OW11947   6.955   0.592   6.041
 3683SOL    HW111948   6.882   0.649   6.004
 3683SOL    HW211949   6.921   0.543   6.122
 3684SOL     OW11950   1.928   6.616   5.567
 3684SOL    HW111951   1.869   6.581   5.640
 3684SOL    HW211952   1.894   6.705   5.537
 3685SOL     OW11953   2.353   5.918   5.509
 3685SOL    HW111954   2.354   5.954   5.417
 3685SOL    HW211955   2.300   5.833   5.511
 3686SOL     OW11956   0.257   4.128   3.946
 3686SOL    HW111957   0.305   4.104   4.030
 3686SOL    HW211958   0.267   4.226   3.928
 3687SOL     OW11959   4.798   5.897   3.252
 3687SOL    HW111960   4.853   5.980   3.245
 3687SOL    HW211961   4.843   5.822   3.204
 3688SOL     OW11962   5.733   3.399   0.509
 3688SOL    HW111963   5.656   3.335   0.516
 3688SOL    HW211964   5.769   3.418   0.600
 3689SOL     OW11965   1.652   0.274   5.664
 3689SOL    HW111966   1.723   0.204   5.661
 3689SOL    HW211967   1.628   0.293   5.759
 3690SOL     OW11968   4.754   4.913   0.681
 3690SOL    HW111969   4.742   4.813   0.680
 3690SOL    HW211970   4.829   4.938   0.619
 3691SOL     OW11971   2.703   2.558   0.430
 3691SOL    HW111972   2.660   2.471   0.407
 3691SOL    HW211973   2.734   2.556   0.525
 3692SOL     OW11974   0.820   3.368   6.229
 3692SOL    HW111975   0.816   3.368   6.329
 3692SOL    HW211976   0.820   3.274   6.196
 3693SOL     OW11977   0.525   1.652   2.659
 3693SOL    HW111978   0.486   1.657   2.752
 3693SOL    HW211979   0.620   1.623   2.664
 3694SOL     OW11980   7.017   0.026   1.573
 3694SOL    HW111981   6.949   7.018   1.642
 3694SOL    HW211982   7.006   0.123   1.552
 3695SOL     OW11983   6.644   2.593   2.646
 3695SOL    HW111984   6.676   2.604   2.552
 3695SOL    HW211985   6.723   2.595   2.708
 3696SOL     OW11986   5.407   1.051   4.637
 3696SOL    HW111987   5.405   1.112   4.557
 3696SOL    HW211988   5.379   0.959   4.609
 3697SOL     OW11989   6.459   6.582   3.552
 3697SOL    HW111990   6.499   6.504   3.600
 3697SOL    HW211991   6.366   6.598   3.586
 3698SOL     OW11992   2.231   0.598   3.016
 3698SOL    HW111993   2.233   0.613   2.917
 3698SOL    HW211994   2.151   0.644   3.055
 3699SOL     OW11995   2.499   2.284   3.849
 3699SOL    HW111996   2.495   2.362   3.912
 3699SOL    HW211997   2.530   2.203   3.899
 3700SOL     OW11998   0.787   5.120   5.230
 3700SOL    HW111999   0.722   5.062   5.279
 3700SOL    HW212000   0.877   5.074   5.228
 3701SOL     OW12001   1.535   0.181   2.681
 3701SOL    HW112002   1.628   0.170   2.645
 3701SOL    HW212003   1.472   0.203   2.607
 3702SOL     OW12004   5.105   4.762   3.940
 3702SOL    HW112005   5.193   4.714   3.935
 3702SOL    HW212006   5.116   4.855   3.904
 3703SOL     OW12007   1.229   1.718   4.771
 3703SOL    HW112008   1.308   1.706   4.711
 3703SOL    HW212009   1.192   1.628   4.795
 3704SOL     OW12010   0.077   2.191   1.114
 3704SOL    HW112011   0.158   2.145   1.078
 3704SOL    HW212012   0.105   2.264   1.176
 3705SOL     OW12013   4.894   4.382   3.221
 3705SOL    HW112014   4.935   4.471   3.240
 3705SOL    HW212015   4.825   4.361   3.289
 3706SOL     OW12016   1.124   3.655   0.402
 3706SOL    HW112017   1.048   3.626   0.459
 3706SOL    HW212018   1.209   3.647   0.453
 3707SOL     OW12019   1.611   4.998   3.399
 3707SOL    HW112020   1.698   5.035   3.432
 3707SOL    HW212021   1.617   4.898   3.394
 3708SOL     OW12022   3.655   6.963   0.724
 3708SOL    HW112023   3.711   7.017   0.786
 3708SOL    HW212024   3.673   6.866   0.739
 3709SOL     OW12025   1.757   0.525   2.728
 3709SOL    HW112026   1.706   0.604   2.761
 3709SOL    HW212027   1.731   0.507   2.632
 3710SOL     OW12028   6.899   5.311   5.601
 3710SOL    HW112029   6.986   5.324   5.554
 3710SOL    HW212030   6.897   5.366   5.685
 3711SOL     OW12031   1.535   5.790   4.730
 3711SOL    HW112032   1.560   5.786   4.827
 3711SOL    HW212033   1.457   5.851   4.718
 3712SOL     OW12034   1.787   5.113   4.937
 3712SOL    HW112035   1.788   5.171   4.855
 3712SOL    HW212036   1.758   5.167   5.016
 3713SOL     OW12037   6.136   6.630   5.008
 3713SOL    HW112038   6.217   6.636   4.949
 3713SOL    HW212039   6.054   6.649   4.954
 3714SOL     OW12040   0.893   4.808   0.130
 3714SOL    HW112041   0.917   4.724   0.082
 3714SOL    HW212042   0.877   4.881   0.063
 3715SOL     OW12043   6.599   5.819   3.701
 3715SOL    HW112044   6.515   5.857   3.663
 3715SOL    HW212045   6.623   5.735   3.652
 3716SOL     OW12046   4.931   5.855   3.604
 3716SOL    HW112047   5.025   5.847   3.638
 3716SOL    HW212048   4.927   5.927   3.535
 3717SOL     OW12049   4.438   1.167   1.351
 3717SOL    HW112050   4.447   1.193   1.447
 3717SOL    HW212051   4.529   1.159   1.310
 3718SOL     OW12052   6.963   6.481   6.180
 3718SOL    HW112053   6.957   6.580   6.166
 3718SOL    HW212054   0.023   6.460   6.236
 3719SOL     OW12055   4.436   3.872   6.087
 3719SOL    HW112056   4.505   3.838   6.151
 3719SOL    HW212057   4.429   3.810   6.009
 3720SOL     OW12058   0.068   2.962   1.611
 3720SOL    HW112059   0.059   2.983   1.708
 3720SOL    HW212060   0.033   2.870   1.593
 3721SOL     OW12061   6.459   4.716   6.850
 3721SOL    HW112062   6.457   4.676   6.759
 3721SOL    HW212063   6.548   4.695   6.893
 3722SOL     OW12064   4.113   6.992   2.669
 3722SOL    HW112065   4.172   0.040   2.713
 3722SOL    HW212066   4.019   7.005   2.700
 3723SOL     OW12067   4.827   4.787   6.828
 3723SOL    HW112068   4.812   4.688   6.830
 3723SOL    HW212069   4.800   4.827   6.915
 3724SOL     OW12070   1.464   4.681   5.300
 3724SOL    HW112071   1.384   4.707   5.248
 3724SOL    HW212072   1.547   4.700   5.247
 3725SOL     OW12073   0.730   6.372   6.791
 3725SOL    HW112074   0.760   6.453   6.741
 3725SOL    HW212075   0.645   6.337   6.751
 3726SOL     OW12076   5.546   3.390   3.737
 3726SOL    HW112077   5.597   3.389   3.651
 3726SOL    HW212078   5.458   3.345   3.724
 3727SOL     OW12079   0.107   3.254   4.174
 3727SOL    HW112080   0.079   3.187   4.106
 3727SOL    HW212081   0.195   3.226   4.213
 3728SOL     OW12082   3.332   3.626   7.004
 3728SOL    HW112083   3.429   3.647   7.002
 3728SOL    HW212084   3.317   3.543   0.038
 3729SOL     OW12085   0.697   6.981   5.552
 3729SOL    HW112086   0.789   7.019   5.561
 3729SOL    HW212087   0.702   6.882   5.540
 3730SOL     OW12088   3.731   5.660   5.510
 3730SOL    HW112089   3.802   5.712   5.461
 3730SOL    HW212090   3.772   5.616   5.590
 3731SOL     OW12091   0.485   2.270   6.438
 3731SOL    HW112092   0.495   2.178   6.478
 3731SOL    HW212093   0.472   2.336   6.512
 3732SOL     OW12094   2.845   2.172   0.112
 3732SOL    HW112095   2.788   2.141   0.188
 3732SOL    HW212096   2.940   2.149   0.131
 3733SOL     OW12097   1.760   1.765   3.557
 3733SOL    HW112098   1.758   1.670   3.524
 3733SOL    HW212099   1.854   1.788   3.584
 3734SOL     OW12100   3.992   6.989   1.038
 3734SOL    HW112101   3.920   6.990   1.107
 3734SOL    HW212102   4.048   6.907   1.048
 3735SOL     OW12103   4.151   6.884   2.417
 3735SOL    HW112104   4.149   6.924   2.509
 3735SOL    HW212105   4.065   6.836   2.400
 3736SOL     OW12106   0.113   1.177   1.061
 3736SOL    HW112107   0.038   1.147   1.120
 3736SOL    HW212108   0.197   1.183   1.114
 3737SOL     OW12109   0.651   2.343   3.252
 3737SOL    HW112110   0.657   2.324   3.153
 3737SOL    HW212111   0.566   2.304   3.287
 3738SOL     OW12112   6.725   6.592   0.769
 3738SOL    HW112113   6.799   6.585   0.836
 3738SOL    HW212114   6.638   6.568   0.812
 3739SOL     OW12115   2.872   5.189   1.052
 3739SOL    HW112116   2.947   5.158   0.994
 3739SOL    HW212117   2.904   5.194   1.147
 3740SOL     OW12118   5.582   5.255   6.798
 3740SOL    HW112119   5.565   5.324   6.868
 3740SOL    HW212120   5.672   5.271   6.756
 3741SOL     OW12121   5.138   3.156   0.434
 3741SOL    HW112122   5.216   3.176   0.375
 3741SOL    HW212123   5.059   3.131   0.377
 3742SOL     OW12124   3.242   5.761   6.945
 3742SOL    HW112125   3.304   5.763   0.003
 3742SOL    HW212126   3.153   5.800   6.971
 3743SOL     OW12127   4.289   3.521   1.433
 3743SOL    HW112128   4.225   3.549   1.504
 3743SOL    HW212129   4.308   3.423   1.442
 3744SOL     OW12130   0.138   6.711   2.407
 3744SOL    HW112131   0.040   6.711   2.422
 3744SOL    HW212132   0.160   6.644   2.335
 3745SOL     OW12133   4.905   4.050   2.293
 3745SOL    HW112134   4.881   4.103   2.212
 3745SOL    HW212135   4.962   3.973   2.266
 3746SOL     OW12136   6.420   0.768   4.236
 3746SOL    HW112137   6.338   0.711   4.231
 3746SOL    HW212138   6.420   0.818   4.323
 3747SOL     OW12139   4.037   6.482   5.981
 3747SOL    HW112140   4.024   6.383   5.970
 3747SOL    HW212141   4.135   6.501   5.990
 3748SOL     OW12142   5.354   1.547   2.675
 3748SOL    HW112143   5.265   1.581   2.705
 3748SOL    HW212144   5.363   1.557   2.576
 3749SOL     OW12145   0.130   6.168   3.003
 3749SOL    HW112146   0.055   6.225   3.037
 3749SOL    HW212147   0.142   6.089   3.063
 3750SOL     OW12148   5.897   4.015   0.199
 3750SOL    HW112149   5.849   4.077   0.138
 3750SOL    HW212150   5.971   4.063   0.245
 3751SOL     OW12151   1.928   3.446   1.701
 3751SOL    HW112152   1.917   3.450   1.602
 3751SOL    HW212153   1.970   3.530   1.734
 3752SOL     OW12154   1.029   6.696   6.696
 3752SOL    HW112155   0.964   6.639   6.647
 3752SOL    HW212156   1.085   6.747   6.631
 3753SOL     OW12157   6.949   6.073   4.302
 3753SOL    HW112158   6.900   6.040   4.221
 3753SOL    HW212159   0.026   6.051   4.294
 3754SOL     OW12160   6.156   6.144   1.534
 3754SOL    HW112161   6.252   6.156   1.509
 3754SOL    HW212162   6.119   6.064   1.485
 3755SOL     OW12163   4.845   4.044   3.670
 3755SOL    HW112164   4.854   3.987   3.751
 3755SOL    HW212165   4.919   4.024   3.606
 3756SOL     OW12166   2.334   1.952   6.623
 3756SOL    HW112167   2.316   1.885   6.551
 3756SOL    HW212168   2.349   1.903   6.710
 3757SOL     OW12169   2.742   5.688   6.462
 3757SOL    HW112170   2.797   5.754   6.513
 3757SOL    HW212171   2.781   5.675   6.371
 3758SOL     OW12172   2.184   1.273   4.243
 3758SOL    HW112173   2.177   1.358   4.191
 3758SOL    HW212174   2.140   1.199   4.192
 3759SOL     OW12175   4.995   4.605   5.838
 3759SOL    HW112176   4.935   4.671   5.882
 3759SOL    HW212177   4.999   4.522   5.893
 3760SOL     OW12178   1.743   2.498   4.643
 3760SOL    HW112179   1.779   2.548   4.722
 3760SOL    HW212180   1.814   2.437   4.607
 3761SOL     OW12181   0.800   6.436   4.731
 3761SOL    HW112182   0.855   6.419   4.813
 3761SOL    HW212183   0.837   6.516   4.683
 3762SOL     OW12184   0.613   3.983   0.516
 3762SOL    HW112185   0.706   4.014   0.532
 3762SOL    HW212186   0.578   3.938   0.599
 3763SOL     OW12187   6.500   2.969   6.364
 3763SOL    HW112188   6.446   2.983   6.447
 3763SOL    HW212189   6.584   3.024   6.368
 3764SOL     OW12190   2.508   6.946   3.844
 3764SOL    HW112191   2.513   0.004   3.781
 3764SOL    HW212192   2.494   6.979   3.937
 3765SOL     OW12193   5.929   0.602   3.104
 3765SOL    HW112194   5.902   0.604   3.200
 3765SOL    HW212195   5.951   0.509   3.077
 3766SOL     OW12196   0.465   0.987   4.250
 3766SOL    HW112197   0.476   0.936   4.165
 3766SOL    HW212198   0.379   1.038   4.248
 3767SOL     OW12199   1.381   5.220   6.932
 3767SOL    HW112200   1.436   5.211   7.015
 3767SOL    HW212201   1.398   5.141   6.873
 3768SOL     OW12202   4.993   6.470   0.114
 3768SOL    HW112203   4.896   6.488   0.098
 3768SOL    HW212204   5.034   6.433   0.030
 3769SOL     OW12205   5.021   6.361   5.487
 3769SOL    HW112206   4.979   6.294   5.548
 3769SOL    HW212207   4.957   6.435   5.468
 3770SOL     OW12208   2.175   1.402   6.598
 3770SOL    HW112209   2.254   1.389   6.539
 3770SOL    HW212210   2.196   1.470   6.668
 3771SOL     OW12211   5.602   1.828   6.368
 3771SOL    HW112212   5.533   1.789   6.429
 3771SOL    HW212213   5.556   1.871   6.290
 3772SOL     OW12214   5.372   0.796   1.572
 3772SOL    HW112215   5.422   0.811   1.487
 3772SOL    HW212216   5.344   0.700   1.578
 3773SOL     OW12217   6.418   2.328   6.221
 3773SOL    HW112218   6.346   2.259   6.223
 3773SOL    HW212219   6.389   2.404   6.162
 3774SOL     OW12220   0.122   0.791   6.955
 3774SOL    HW112221   0.144   0.760   6.863
 3774SOL    HW212222   0.048   0.858   6.952
 3775SOL     OW12223   6.077   3.717   3.566
 3775SOL    HW112224   6.165   3.706   3.520
 3775SOL    HW212225   6.014   3.646   3.535
 3776SOL     OW12226   2.210   2.757   1.509
 3776SOL    HW112227   2.210   2.725   1.603
 3776SOL    HW212228   2.303   2.755   1.473
 3777SOL     OW12229   2.801   5.202   3.874
 3777SOL    HW112230   2.724   5.141   3.859
 3777SOL    HW212231   2.771   5.280   3.929
 3778SOL     OW12232   2.823   5.497   1.639
 3778SOL    HW112233   2.915   5.537   1.636
 3778SOL    HW212234   2.781   5.517   1.727
 3779SOL     OW12235   2.783   4.696   6.889
 3779SOL    HW112236   2.786   4.596   6.885
 3779SOL    HW212237   2.689   4.726   6.903
 3780SOL     OW12238   3.332   6.160   4.983
 3780SOL    HW112239   3.239   6.131   5.006
 3780SOL    HW212240   3.397   6.091   5.015
 3781SOL     OW12241   3.217   6.162   4.619
 3781SOL    HW112242   3.276   6.164   4.538
 3781SOL    HW212243   3.233   6.076   4.669
 3782SOL     OW12244   2.145   1.553   4.211
 3782SOL    HW112245   2.207   1.592   4.280
 3782SOL    HW212246   2.191   1.554   4.122
 3783SOL     OW12247   5.245   6.487   4.940
 3783SOL    HW112248   5.250   6.541   5.024
 3783SOL    HW212249   5.180   6.412   4.952
 3784SOL     OW12250   5.503   0.936   3.001
 3784SOL    HW112251   5.499   1.033   2.980
 3784SOL    HW212252   5.504   0.922   3.100
 3785SOL     OW12253   2.492   1.980   1.157
 3785SOL    HW112254   2.446   2.023   1.234
 3785SOL    HW212255   2.572   2.035   1.131
 3786SOL     OW12256   3.269   5.171   2.785
 3786SOL    HW112257   3.257   5.268   2.806
 3786SOL    HW212258   3.214   5.147   2.705
 3787SOL     OW12259   4.431   1.302   3.815
 3787SOL    HW112260   4.349   1.276   3.866
 3787SOL    HW212261   4.491   1.355   3.873
 3788SOL     OW12262   5.874   3.132   2.627
 3788SOL    HW112263   5.812   3.120   2.550
 3788SOL    HW212264   5.833   3.094   2.709
 3789SOL     OW12265   1.857   4.763   4.011
 3789SOL    HW112266   1.875   4.849   4.059
 3789SOL    HW212267   1.943   4.723   3.979
 3790SOL     OW12268   2.016   3.009   4.043
 3790SOL    HW112269   2.062   3.002   3.955
 3790SOL    HW212270   2.065   3.073   4.103
 3791SOL     OW12271   5.133   6.634   1.776
 3791SOL    HW112272   5.115   6.721   1.822
 3791SOL    HW212273   5.094   6.559   1.830
 3792SOL     OW12274   6.071   6.765   5.321
 3792SOL    HW112275   6.027   6.696   5.264
 3792SOL    HW212276   6.167   6.741   5.335
 3793SOL     OW12277   1.997   1.470   2.647
 3793SOL    HW112278   1.954   1.560   2.662
 3793SOL    HW212279   2.006   1.423   2.735
 3794SOL     OW12280   4.417   6.048   1.912
 3794SOL    HW112281   4.486   6.117   1.935
 3794SOL    HW212282   4.353   6.086   1.844
 3795SOL     OW12283   5.252   0.497   6.457
 3795SOL    HW112284   5.181   0.466   6.394
 3795SOL    HW212285   5.331   0.435   6.451
 3796SOL     OW12286   1.297   1.918   1.592
 3796SOL    HW112287   1.210   1.880   1.624
 3796SOL    HW212288   1.336   1.856   1.523
 3797SOL     OW12289   1.400   4.837   2.757
 3797SOL    HW112290   1.314   4.799   2.789
 3797SOL    HW212291   1.423   4.797   2.668
 3798SOL     OW12292   2.360   5.032   2.743
 3798SOL    HW112293   2.456   5.011   2.726
 3798SOL    HW212294   2.309   4.947   2.756
 3799SOL     OW12295   1.817   1.382   5.528
 3799SOL    HW112296   1.814   1.325   5.447
 3799SOL    HW212297   1.910   1.419   5.540
 3800SOL     OW12298   4.704   2.424   4.883
 3800SOL    HW112299   4.785   2.476   4.856
 3800SOL    HW212300   4.627   2.487   4.893
 3801SOL     OW12301   6.565   6.234   6.011
 3801SOL    HW112302   6.580   6.162   5.944
 3801SOL    HW212303   6.466   6.243   6.028
 3802SOL     OW12304   0.786   2.154   5.020
 3802SOL    HW112305   0.879   2.120   5.035
 3802SOL    HW212306   0.790   2.247   4.984
 3803SOL     OW12307   3.810   0.070   1.275
 3803SOL    HW112308   3.757   0.140   1.322
 3803SOL    HW212309   3.892   0.111   1.236
 3804SOL     OW12310   4.470   2.001   4.554
 3804SOL    HW112311   4.417   2.063   4.496
 3804SOL    HW212312   4.467   2.033   4.648
 3805SOL     OW12313   3.006   4.204   1.723
 3805SOL    HW112314   3.003   4.287   1.778
 3805SOL    HW212315   2.913   4.173   1.703
 3806SOL     OW12316   2.772   2.678   0.198
 3806SOL    HW112317   2.690   2.700   0.145
 3806SOL    HW212318   2.745   2.645   0.289
 3807SOL     OW12319   0.971   0.123   3.963
 3807SOL    HW112320   0.951   0.194   4.031
 3807SOL    HW212321   1.023   0.049   4.007
 3808SOL     OW12322   3.722   6.770   1.770
 3808SOL    HW112323   3.721   6.797   1.866
 3808SOL    HW212324   3.810   6.794   1.729
 3809SOL     OW12325   5.676   1.404   6.931
 3809SOL    HW112326   5.621   1.389   7.013
 3809SOL    HW212327   5.734   1.485   6.945
 3810SOL     OW12328   3.174   3.162   5.195
 3810SOL    HW112329   3.117   3.080   5.193
 3810SOL    HW212330   3.207   3.177   5.289
 3811SOL     OW12331   0.677   4.663   4.907
 3811SOL    HW112332   0.718   4.576   4.935
 3811SOL    HW212333   0.731   4.702   4.832
 3812SOL     OW12334   5.868   1.573   5.398
 3812SOL    HW112335   5.944   1.512   5.417
 3812SOL    HW212336   5.788   1.520   5.370
 3813SOL     OW12337   3.068   5.581   0.387
 3813SOL    HW112338   3.012   5.498   0.390
 3813SOL    HW212339   3.125   5.579   0.305
 3814SOL     OW12340   6.914   6.032   1.948
 3814SOL    HW112341   6.909   5.934   1.927
 3814SOL    HW212342   6.837   6.058   2.005
 3815SOL     OW12343   5.390   2.147   1.777
 3815SOL    HW112344   5.297   2.173   1.750
 3815SOL    HW212345   5.398   2.152   1.876
 3816SOL     OW12346   0.127   6.996   1.830
 3816SOL    HW112347   0.085   0.048   1.885
 3816SOL    HW212348   0.092   7.001   1.736
 3817SOL     OW12349   4.601   1.774   4.466
 3817SOL    HW112350   4.561   1.857   4.507
 3817SOL    HW212351   4.643   1.719   4.538
 3818SOL     OW12352   4.752   6.485   2.558
 3818SOL    HW112353   4.750   6.574   2.513
 3818SOL    HW212354   4.766   6.498   2.657
 3819SOL     OW12355   5.053   5.138   0.131
 3819SOL    HW112356   5.019   5.044   0.139
 3819SOL    HW212357   5.034   5.187   0.215
 3820SOL     OW12358   4.902   6.036   4.111
 3820SOL    HW112359   4.816   5.985   4.117
 3820SOL    HW212360   4.961   5.995   4.041
 3821SOL     OW12361   1.353   3.606   1.696
 3821SOL    HW112362   1.435   3.556   1.669
 3821SOL    HW212363   1.314   3.652   1.616
 3822SOL     OW12364   2.461   5.202   1.157
 3822SOL    HW112365   2.427   5.252   1.236
 3822SOL    HW212366   2.498   5.267   1.090
 3823SOL     OW12367   3.448   2.840   5.595
 3823SOL    HW112368   3.528   2.898   5.608
 3823SOL    HW212369   3.450   2.799   5.504
 3824SOL     OW12370   6.455   1.965   6.235
 3824SOL    HW112371   6.431   2.052   6.279
 3824SOL    HW212372   6.411   1.960   6.145
 3825SOL     OW12373   0.304   6.371   6.048
 3825SOL    HW112374   0.273   6.303   6.116
 3825SOL    HW212375   0.321   6.325   5.961
 3826SOL     OW12376   6.752   3.425   1.659
 3826SOL    HW112377   6.780   3.353   1.596
 3826SOL    HW212378   6.733   3.509   1.608
 3827SOL     OW12379   4.148   3.119   0.517
 3827SOL    HW112380   4.153   3.193   0.450
 3827SOL    HW212381   4.171   3.154   0.607
 3828SOL     OW12382   5.307   2.037   2.319
 3828SOL    HW112383   5.375   2.080   2.379
 3828SOL    HW212384   5.215   2.060   2.351
 3829SOL     OW12385   2.445   5.371   3.726
 3829SOL    HW112386   2.452   5.300   3.796
 3829SOL    HW212387   2.507   5.446   3.747
 3830SOL     OW12388   2.684   0.553   4.912
 3830SOL    HW112389   2.778   0.520   4.919
 3830SOL    HW212390   2.663   0.611   4.991
 3831SOL     OW12391   4.100   1.820   2.534
 3831SOL    HW112392   4.011   1.801   2.576
 3831SOL    HW212393   4.137   1.735   2.497
 3832SOL     OW12394   6.359   0.669   1.787
 3832SOL    HW112395   6.340   0.576   1.820
 3832SOL    HW212396   6.404   0.664   1.698
 3833SOL     OW12397   0.773   5.018   7.013
 3833SOL    HW112398   0.724   5.075   0.059
 3833SOL    HW212399   0.805   5.074   6.937
 3834SOL     OW12400   3.505   1.656   0.564
 3834SOL    HW112401   3.581   1.594   0.546
 3834SOL    HW212402   3.438   1.611   0.623
 3835SOL     OW12403   3.721   5.377   5.808
 3835SOL    HW112404   3.783   5.322   5.865
 3835SOL    HW212405   3.633   5.330   5.801
 3836SOL     OW12406   1.354   3.816   6.157
 3836SOL    HW112407   1.341   3.717   6.153
 3836SOL    HW212408   1.321   3.857   6.071
 3837SOL     OW12409   3.814   3.679   0.451
 3837SOL    HW112410   3.866   3.719   0.375
 3837SOL    HW212411   3.767   3.597   0.420
 3838SOL     OW12412   6.337   2.305   4.441
 3838SOL    HW112413   6.402   2.350   4.380
 3838SOL    HW212414   6.271   2.371   4.475
 3839SOL     OW12415   5.741   6.037   5.659
 3839SOL    HW112416   5.661   6.081   5.699
 3839SOL    HW212417   5.819   6.100   5.663
 3840SOL     OW12418   1.670   1.355   3.833
 3840SOL    HW112419   1.605   1.326   3.763
 3840SOL    HW212420   1.711   1.275   3.876
 3841SOL     OW12421   0.659   3.475   5.548
 3841SOL    HW112422   0.749   3.472   5.592
 3841SOL    HW212423   0.663   3.422   5.463
 3842SOL     OW12424   0.679   4.777   6.893
 3842SOL    HW112425   0.713   4.761   6.800
 3842SOL    HW212426   0.716   4.863   6.928
 3843SOL     OW12427   5.872   3.436   0.762
 3843SOL    HW112428   5.847   3.339   0.765
 3843SOL    HW212429   5.967   3.447   0.791
 3844SOL     OW12430   2.119   5.143   6.230
 3844SOL    HW112431   2.171   5.191   6.301
 3844SOL    HW212432   2.051   5.084   6.274
 3845SOL     OW12433   3.418   3.975   3.194
 3845SOL    HW112434   3.363   4.028   3.129
 3845SOL    HW212435   3.360   3.908   3.240
 3846SOL     OW12436   0.452   4.923   4.562
 3846SOL    HW112437   0.435   4.878   4.650
 3846SOL    HW212438   0.403   5.010   4.559
 3847SOL     OW12439   0.412   0.175   6.350
 3847SOL    HW112440   0.378   0.087   6.382
 3847SOL    HW212441   0.511   0.173   6.345
 3848SOL     OW12442   2.286   4.733   1.160
 3848SOL    HW112443   2.346   4.802   1.200
 3848SOL    HW212444   2.198   4.774   1.136
 3849SOL     OW12445   1.535   1.747   5.475
 3849SOL    HW112446   1.562   1.655   5.447
 3849SOL    HW212447   1.575   1.768   5.564
 3850SOL     OW12448   3.379   4.098   1.921
 3850SOL    HW112449   3.334   4.104   1.832
 3850SOL    HW212450   3.470   4.137   1.915
 3851SOL     OW12451   2.137   3.097   2.631
 3851SOL    HW112452   2.093   3.045   2.705
 3851SOL    HW212453   2.118   3.194   2.643
 3852SOL     OW12454   4.051   1.073   4.655
 3852SOL    HW112455   3.985   1.013   4.701
 3852SOL    HW212456   4.113   1.113   4.722
 3853SOL     OW12457   0.949   3.518   1.958
 3853SOL    HW112458   0.920   3.469   1.876
 3853SOL    HW212459   0.997   3.455   2.019
 3854SOL     OW12460   1.225   3.610   4.334
 3854SOL    HW112461   1.173   3.567   4.407
 3854SOL    HW212462   1.255   3.540   4.269
 3855SOL     OW12463   6.656   3.208   5.854
 3855SOL    HW112464   6.667   3.288   5.914
 3855SOL    HW212465   6.593   3.230   5.780
 3856SOL     OW12466   0.284   6.145   5.831
 3856SOL    HW112467   0.257   6.064   5.884
 3856SOL    HW212468   0.249   6.137   5.738
 3857SOL     OW12469   0.840   6.755   4.991
 3857SOL    HW112470   0.906   6.711   5.052
 3857SOL    HW212471   0.858   6.854   4.988
 3858SOL     OW12472   2.414   5.926   6.779
 3858SOL    HW112473   2.448   5.852   6.720
 3858SOL    HW212474   2.465   5.927   6.865
 3859SOL     OW12475   0.410   3.237   2.310
 3859SOL    HW112476   0.445   3.180   2.385
 3859SOL    HW212477   0.486   3.274   2.257
 3860SOL     OW12478   2.700   6.901   5.885
 3860SOL    HW112479   2.703   6.923   5.788
 3860SOL    HW212480   2.779   6.942   5.931
 3861SOL     OW12481   4.783   4.577   0.773
 3861SOL    HW112482   4.684   4.589   0.761
 3861SOL    HW212483   4.831   4.627   0.701
 3862SOL     OW12484   1.233   5.743   6.022
 3862SOL    HW112485   1.239   5.798   5.939
 3862SOL    HW212486   1.244   5.646   5.998
 3863SOL     OW12487   3.164   3.820   1.615
 3863SOL    HW112488   3.216   3.859   1.691
 3863SOL    HW212489   3.087   3.880   1.593
 3864SOL     OW12490   3.117   2.038   0.205
 3864SOL    HW112491   3.084   1.946   0.229
 3864SOL    HW212492   3.111   2.097   0.285
 3865SOL     OW12493   4.596   0.383   2.279
 3865SOL    HW112494   4.599   0.341   2.188
 3865SOL    HW212495   4.567   0.478   2.270
 3866SOL     OW12496   3.924   6.949   6.850
 3866SOL    HW112497   3.872   6.979   6.771
 3866SOL    HW212498   3.861   6.921   6.923
 3867SOL     OW12499   2.044   3.115   3.179
 3867SOL    HW112500   2.047   3.183   3.252
 3867SOL    HW212501   2.042   3.161   3.091
 3868SOL     OW12502   1.754   5.927   3.079
 3868SOL    HW112503   1.775   5.832   3.053
 3868SOL    HW212504   1.708   5.973   3.003
 3869SOL     OW12505   0.930   2.935   3.409
 3869SOL    HW112506   0.842   2.895   3.381
 3869SOL    HW212507   1.005   2.875   3.379
 3870SOL     OW12508   2.538   4.798   6.967
 3870SOL    HW112509   2.530   4.898   6.972
 3870SOL    HW212510   2.449   4.758   6.944
 3871SOL     OW12511   2.557   0.402   3.145
 3871SOL    HW112512   2.495   0.386   3.068
 3871SOL    HW212513   2.626   0.329   3.148
 3872SOL     OW12514   3.525   4.043   0.676
 3872SOL    HW112515   3.481   3.957   0.652
 3872SOL    HW212516   3.597   4.026   0.743
 3873SOL     OW12517   5.088   4.912   2.470
 3873SOL    HW112518   5.122   4.836   2.413
 3873SOL    HW212519   5.005   4.883   2.517
 3874SOL     OW12520   4.322   0.648   6.215
 3874SOL    HW112521   4.235   0.612   6.182
 3874SOL    HW212522   4.393   0.578   6.203
 3875SOL     OW12523   1.443   4.977   1.079
 3875SOL    HW112524   1.437   5.020   1.169
 3875SOL    HW212525   1.531   4.999   1.037
 3876SOL     OW12526   5.080   3.707   3.291
 3876SOL    HW112527   5.112   3.678   3.201
 3876SOL    HW212528   5.154   3.698   3.358
 3877SOL     OW12529   5.956   1.205   2.356
 3877SOL    HW112530   5.938   1.154   2.440
 3877SOL    HW212531   6.054   1.224   2.348
 3878SOL     OW12532   3.248   6.374   5.782
 3878SOL    HW112533   3.162   6.387   5.732
 3878SOL    HW212534   3.273   6.459   5.827
 3879SOL     OW12535   3.851   5.935   1.523
 3879SOL    HW112536   3.803   5.985   1.451
 3879SOL    HW212537   3.803   5.947   1.610
 3880SOL     OW12538   5.539   3.188   4.091
 3880SOL    HW112539   5.451   3.140   4.099
 3880SOL    HW212540   5.612   3.130   4.125
 3881SOL     OW12541   1.765   3.497   0.564
 3881SOL    HW112542   1.768   3.454   0.473
 3881SOL    HW212543   1.840   3.563   0.572
 3882SOL     OW12544   0.353   0.426   5.926
 3882SOL    HW112545   0.282   0.358   5.943
 3882SOL    HW212546   0.321   0.516   5.954
 3883SOL     OW12547   3.696   0.706   5.772
 3883SOL    HW112548   3.705   0.784   5.710
 3883SOL    HW212549   3.619   0.649   5.744
 3884SOL     OW12550   1.452   4.751   6.175
 3884SOL    HW112551   1.360   4.752   6.215
 3884SOL    HW212552   1.460   4.674   6.112
 3885SOL     OW12553   6.575   1.358   4.300
 3885SOL    HW112554   6.559   1.273   4.249
 3885SOL    HW212555   6.666   1.355   4.342
 3886SOL     OW12556   6.822   6.014   5.505
 3886SOL    HW112557   6.858   6.103   5.533
 3886SOL    HW212558   6.819   6.008   5.406
 3887SOL     OW12559   4.557   2.591   5.597
 3887SOL    HW112560   4.558   2.499   5.558
 3887SOL    HW212561   4.513   2.587   5.687
 3888SOL     OW12562   6.522   2.229   0.659
 3888SOL    HW112563   6.578   2.281   0.724
 3888SOL    HW212564   6.429   2.266   0.658
 3889SOL     OW12565   0.720   5.882   6.326
 3889SOL    HW112566   0.804   5.894   6.274
 3889SOL    HW212567   0.641   5.884   6.264
 3890SOL     OW12568   6.022   3.782   2.822
 3890SOL    HW112569   5.952   3.710   2.821
 3890SOL    HW212570   5.999   3.852   2.754
 3891SOL     OW12571   5.363   4.897   5.562
 3891SOL    HW112572   5.438   4.960   5.583
 3891SOL    HW212573   5.384   4.807   5.600
 3892SOL     OW12574   5.216   6.557   3.262
 3892SOL    HW112575   5.214   6.617   3.182
 3892SOL    HW212576   5.158   6.478   3.245
 3893SOL     OW12577   2.822   6.073   3.946
 3893SOL    HW112578   2.726   6.087   3.919
 3893SOL    HW212579   2.830   6.080   4.045
 3894SOL     OW12580   5.261   4.252   0.085
 3894SOL    HW112581   5.339   4.313   0.094
 3894SOL    HW212582   5.257   4.191   0.164
 3895SOL     OW12583   2.192   2.114   5.816
 3895SOL    HW112584   2.219   2.069   5.731
 3895SOL    HW212585   2.180   2.211   5.800
 3896SOL     OW12586   6.818   2.328   5.551
 3896SOL    HW112587   6.839   2.426   5.560
 3896SOL    HW212588   6.802   2.289   5.642
 3897SOL     OW12589   3.422   6.285   2.100
 3897SOL    HW112590   3.411   6.384   2.090
 3897SOL    HW212591   3.433   6.243   2.011
 3898SOL     OW12592   3.772   4.013   4.152
 3898SOL    HW112593   3.713   4.087   4.185
 3898SOL    HW212594   3.806   3.961   4.231
 3899SOL     OW12595   4.762   1.636   5.017
 3899SOL    HW112596   4.789   1.540   5.015
 3899SOL    HW212597   4.831   1.692   4.972
 3900SOL     OW12598   6.922   2.375   3.684
 3900SOL    HW112599   6.880   2.345   3.599
 3900SOL    HW212600   6.908   2.306   3.755
 3901SOL     OW12601   2.060   5.843   5.169
 3901SOL    HW112602   2.064   5.795   5.082
 3901SOL    HW212603   2.137   5.814   5.227
 3902SOL     OW12604   4.423   5.164   1.270
 3902SOL    HW112605   4.499   5.113   1.310
 3902SOL    HW212606   4.458   5.236   1.211
 3903SOL     OW12607   3.636   3.104   6.006
 3903SOL    HW112608   3.677   3.025   5.959
 3903SOL    HW212609   3.705   3.175   6.017
 3904SOL     OW12610   2.226   6.353   0.898
 3904SOL    HW112611   2.252   6.448   0.880
 3904SOL    HW212612   2.154   6.350   0.967
 3905SOL     OW12613   0.408   0.491   5.249
 3905SOL    HW112614   0.483   0.556   5.249
 3905SOL    HW212615   0.326   0.534   5.212
 3906SOL     OW12616   0.198   5.589   5.058
 3906SOL    HW112617   0.168   5.503   5.017
 3906SOL    HW212618   0.158   5.665   5.008
 3907SOL     OW12619   0.778   1.090   4.844
 3907SOL    HW112620   0.844   1.162   4.863
 3907SOL    HW212621   0.738   1.104   4.754
 3908SOL     OW12622   1.858   0.340   4.330
 3908SOL    HW112623   1.828   0.377   4.242
 3908SOL    HW212624   1.779   0.313   4.384
 3909SOL     OW12625   6.028   2.381   0.544
 3909SOL    HW112626   5.961   2.308   0.528
 3909SOL    HW212627   5.981   2.468   0.549
 3910SOL     OW12628   3.561   3.134   0.787
 3910SOL    HW112629   3.575   3.077   0.706
 3910SOL    HW212630   3.566   3.078   0.869
 3911SOL     OW12631   6.757   0.962   0.754
 3911SOL    HW112632   6.731   1.047   0.800
 3911SOL    HW212633   6.675   0.916   0.721
 3912SOL     OW12634   3.918   2.569   0.226
 3912SOL    HW112635   3.983   2.576   0.150
 3912SOL    HW212636   3.825   2.588   0.192
 3913SOL     OW12637   4.779   5.548   1.461
 3913SOL    HW112638   4.680   5.555   1.469
 3913SOL    HW212639   4.817   5.510   1.545
 3914SOL     OW12640   6.958   1.026   0.571
 3914SOL    HW112641   0.019   1.020   0.629
 3914SOL    HW212642   6.879   0.990   0.620
 3915SOL     OW12643   4.741   5.613   5.771
 3915SOL    HW112644   4.661   5.566   5.735
 3915SOL    HW212645   4.715   5.703   5.806
 3916SOL     OW12646   2.517   1.901   2.605
 3916SOL    HW112647   2.519   1.829   2.536
 3916SOL    HW212648   2.600   1.897   2.660
 3917SOL     OW12649   3.525   4.360   1.435
 3917SOL    HW112650   3.430   4.382   1.415
 3917SOL    HW212651   3.579   4.445   1.436
 3918SOL     OW12652   5.359   1.198   0.331
 3918SOL    HW112653   5.351   1.105   0.294
 3918SOL    HW212654   5.268   1.232   0.356
 3919SOL     OW12655   4.207   6.440   2.367
 3919SOL    HW112656   4.194   6.397   2.457
 3919SOL    HW212657   4.280   6.508   2.373
 3920SOL     OW12658   3.094   1.577   5.414
 3920SOL    HW112659   3.089   1.676   5.404
 3920SOL    HW212660   3.167   1.554   5.480
 3921SOL     OW12661   0.062   3.046   6.273
 3921SOL    HW112662   0.014   2.974   6.323
 3921SOL    HW212663   0.015   3.133   6.287
 3922SOL     OW12664   4.824   4.080   3.060
 3922SOL    HW112665   4.808   4.091   3.159
 3922SOL    HW212666   4.889   4.006   3.045
 3923SOL     OW12667   5.238   1.151   1.422
 3923SOL    HW112668   5.220   1.149   1.521
 3923SOL    HW212669   5.212   1.241   1.386
 3924SOL     OW12670   5.508   5.439   4.225
 3924SOL    HW112671   5.468   5.526   4.253
 3924SOL    HW212672   5.481   5.367   4.289
 3925SOL     OW12673   5.152   3.974   0.999
 3925SOL    HW112674   5.185   4.020   1.082
 3925SOL    HW212675   5.197   4.012   0.919
 3926SOL     OW12676   0.382   5.822   5.687
 3926SOL    HW112677   0.441   5.744   5.665
 3926SOL    HW212678   0.296   5.814   5.637
 3927SOL     OW12679   5.529   2.245   5.926
 3927SOL    HW112680   5.450   2.302   5.903
 3927SOL    HW212681   5.599   2.255   5.855
 3928SOL     OW12682   3.308   5.828   2.059
 3928SOL    HW112683   3.331   5.815   2.155
 3928SOL    HW212684   3.391   5.843   2.006
 3929SOL     OW12685   0.494   2.242   5.328
 3929SOL    HW112686   0.590   2.222   5.347
 3929SOL    HW212687   0.445   2.157   5.308
 3930SOL     OW12688   2.021   4.347   3.952
 3930SOL    HW112689   2.033   4.383   4.044
 3930SOL    HW212690   2.094   4.381   3.893
 3931SOL     OW12691   2.047   2.252   1.467
 3931SOL    HW112692   2.120   2.191   1.499
 3931SOL    HW212693   1.970   2.248   1.530
 3932SOL     OW12694   2.452   4.799   3.855
 3932SOL    HW112695   2.404   4.788   3.768
 3932SOL    HW212696   2.388   4.785   3.930
 3933SOL     OW12697   1.917   5.949   1.212
 3933SOL    HW112698   1.866   6.026   1.249
 3933SOL    HW212699   1.855   5.874   1.190
 3934SOL     OW12700   0.037   0.639   1.613
 3934SOL    HW112701   0.030   0.736   1.589
 3934SOL    HW212702   0.105   0.595   1.554
 3935SOL     OW12703   6.329   3.605   5.831
 3935SOL    HW112704   6.256   3.560   5.884
 3935SOL    HW212705   6.328   3.703   5.851
 3936SOL     OW12706   6.458   4.289   5.762
 3936SOL    HW112707   6.518   4.255   5.689
 3936SOL    HW212708   6.470   4.233   5.843
 3937SOL     OW12709   0.192   6.009   1.612
 3937SOL    HW112710   0.180   6.099   1.653
 3937SOL    HW212711   0.127   5.997   1.537
 3938SOL     OW12712   1.235   3.232   1.710
 3938SOL    HW112713   1.140   3.210   1.687
 3938SOL    HW212714   1.290   3.230   1.626
 3939SOL     OW12715   0.974   1.098   3.058
 3939SOL    HW112716   1.006   1.079   3.150
 3939SOL    HW212717   0.994   1.019   2.999
 3940SOL     OW12718   2.997   6.132   0.759
 3940SOL    HW112719   3.081   6.103   0.804
 3940SOL    HW212720   2.963   6.216   0.803
 3941SOL     OW12721   5.360   6.085   2.280
 3941SOL    HW112722   5.440   6.129   2.321
 3941SOL    HW212723   5.318   6.024   2.346
 3942SOL     OW12724   6.908   5.855   5.195
 3942SOL    HW112725   6.851   5.773   5.206
 3942SOL    HW212726   6.924   5.872   5.098
 3943SOL     OW12727   1.444   2.726   0.274
 3943SOL    HW112728   1.462   2.745   0.178
 3943SOL    HW212729   1.383   2.646   0.281
 3944SOL     OW12730   5.395   3.249   6.799
 3944SOL    HW112731   5.473   3.284   6.749
 3944SOL    HW212732   5.313   3.254   6.742
 3945SOL     OW12733   5.828   0.643   3.360
 3945SOL    HW112734   5.735   0.647   3.325
 3945SOL    HW212735   5.847   0.724   3.415
 3946SOL     OW12736   0.688   3.137   7.016
 3946SOL    HW112737   0.756   3.099   0.059
 3946SOL    HW212738   0.598   3.134   0.039
 3947SOL     OW12739   5.972   5.644   1.951
 3947SOL    HW112740   5.938   5.738   1.959
 3947SOL    HW212741   5.935   5.588   2.025
 3948SOL     OW12742   1.610   3.090   5.723
 3948SOL    HW112743   1.553   3.161   5.682
 3948SOL    HW212744   1.704   3.098   5.689
 3949SOL     OW12745   5.933   0.347   1.573
 3949SOL    HW112746   5.869   0.410   1.529
 3949SOL    HW212747   6.027   0.379   1.558
 3950SOL     OW12748   3.219   4.555   1.679
 3950SOL    HW112749   3.201   4.594   1.769
 3950SOL    HW212750   3.135   4.557   1.624
 3951SOL     OW12751   0.813   2.459   4.376
 3951SOL    HW112752   0.756   2.532   4.414
 3951SOL    HW212753   0.805   2.378   4.434
 3952SOL     OW12754   5.767   3.638   0.026
 3952SOL    HW112755   5.787   3.736   0.021
 3952SOL    HW212756   5.795   3.602   0.115
 3953SOL     OW12757   3.279   3.664   6.723
 3953SOL    HW112758   3.371   3.705   6.723
 3953SOL    HW212759   3.270   3.603   6.802
 3954SOL     OW12760   0.485   2.565   5.766
 3954SOL    HW112761   0.450   2.533   5.678
 3954SOL    HW212762   0.540   2.494   5.809
 3955SOL     OW12763   0.457   3.751   0.412
 3955SOL    HW112764   0.526   3.800   0.358
 3955SOL    HW212765   0.369   3.796   0.402
 3956SOL     OW12766   6.869   2.972   5.631
 3956SOL    HW112767   6.957   3.000   5.668
 3956SOL    HW212768   6.804   2.959   5.706
 3957SOL     OW12769   1.000   1.437   3.232
 3957SOL    HW112770   0.989   1.473   3.139
 3957SOL    HW212771   0.938   1.360   3.245
 3958SOL     OW12772   5.555   6.180   0.183
 3958SOL    HW112773   5.626   6.246   0.211
 3958SOL    HW212774   5.465   6.220   0.200
 3959SOL     OW12775   2.600   5.723   0.764
 3959SOL    HW112776   2.547   5.688   0.688
 3959SOL    HW212777   2.618   5.821   0.751
 3960SOL     OW12778   4.993   3.387   1.061
 3960SOL    HW112779   4.894   3.393   1.069
 3960SOL    HW212780   5.017   3.353   0.970
 3961SOL     OW12781   5.500   0.430   1.892
 3961SOL    HW112782   5.566   0.365   1.929
 3961SOL    HW212783   5.494   0.509   1.953
 3962SOL     OW12784   0.721   6.712   5.615
 3962SOL    HW112785   0.807   6.681   5.575
 3962SOL    HW212786   0.704   6.662   5.700
 3963SOL     OW12787   4.391   5.796   3.587
 3963SOL    HW112788   4.424   5.825   3.498
 3963SOL    HW212789   4.300   5.835   3.603
 3964SOL     OW12790   5.626   6.394   6.205
 3964SOL    HW112791   5.694   6.333   6.164
 3964SOL    HW212792   5.557   6.341   6.254
 3965SOL     OW12793   4.212   2.750   0.172
 3965SOL    HW112794   4.251   2.834   0.209
 3965SOL    HW212795   4.135   2.772   0.113
 3966SOL     OW12796   6.066   3.537   5.354
 3966SOL    HW112797   6.108   3.468   5.294
 3966SOL    HW212798   5.978   3.502   5.386
 3967SOL     OW12799   1.678   6.490   6.640
 3967SOL    HW112800   1.653   6.464   6.734
 3967SOL    HW212801   1.701   6.408   6.588
 3968SOL     OW12802   5.630   0.243   1.472
 3968SOL    HW112803   5.605   0.300   1.550
 3968SOL    HW212804   5.689   0.295   1.411
 3969SOL     OW12805   0.376   6.139   1.820
 3969SOL    HW112806   0.462   6.090   1.830
 3969SOL    HW212807   0.395   6.233   1.792
 3970SOL     OW12808   4.947   4.619   4.277
 3970SOL    HW112809   4.982   4.561   4.351
 3970SOL    HW212810   4.919   4.707   4.314
 3971SOL     OW12811   1.602   5.992   3.946
 3971SOL    HW112812   1.621   5.917   4.009
 3971SOL    HW212813   1.560   6.068   3.996
 3972SOL     OW12814   1.152   0.284   0.500
 3972SOL    HW112815   1.059   0.264   0.469
 3972SOL    HW212816   1.175   0.379   0.479
 3973SOL     OW12817   3.659   2.903   2.799
 3973SOL    HW112818   3.651   2.914   2.700
 3973SOL    HW212819   3.577   2.938   2.844
 3974SOL     OW12820   6.012   0.493   6.098
 3974SOL    HW112821   6.061   0.568   6.054
 3974SOL    HW212822   5.922   0.525   6.127
 3975SOL     OW12823   6.873   6.289   5.555
 3975SOL    HW112824   6.972   6.284   5.543
 3975SOL    HW212825   6.844   6.385   5.560
 3976SOL     OW12826   1.294   2.956   6.417
 3976SOL    HW112827   1.327   2.894   6.489
 3976SOL    HW212828   1.326   3.049   6.435
 3977SOL     OW12829   4.324   6.483   5.997
 3977SOL    HW112830   4.342   6.397   6.045
 3977SOL    HW212831   4.318   6.466   5.899
 3978SOL     OW12832   6.107   3.745   6.944
 3978SOL    HW112833   6.147   3.749   6.852
 3978SOL    HW212834   6.180   3.751   7.012
 3979SOL     OW12835   1.052   0.141   3.260
 3979SOL    HW112836   0.959   0.158   3.227
 3979SOL    HW212837   1.048   0.090   3.346
 3980SOL     OW12838   4.907   3.541   4.749
 3980SOL    HW112839   5.005   3.548   4.763
 3980SOL    HW212840   4.859   3.565   4.833
 3981SOL     OW12841   6.193   1.951   5.570
 3981SOL    HW112842   6.180   1.876   5.506
 3981SOL    HW212843   6.105   1.993   5.591
 3982SOL     OW12844   3.079   1.998   4.063
 3982SOL    HW112845   3.143   1.947   4.006
 3982SOL    HW212846   3.123   2.024   4.149
 3983SOL     OW12847   3.658   6.765   4.038
 3983SOL    HW112848   3.651   6.825   4.117
 3983SOL    HW212849   3.589   6.791   3.970
 3984SOL     OW12850   1.462   7.018   1.468
 3984SOL    HW112851   1.420   0.054   1.397
 3984SOL    HW212852   1.464   0.049   1.554
 3985SOL     OW12853   1.319   3.429   1.910
 3985SOL    HW112854   1.282   3.355   1.853
 3985SOL    HW212855   1.351   3.503   1.851
 3986SOL     OW12856   1.385   2.555   2.278
 3986SOL    HW112857   1.335   2.472   2.254
 3986SOL    HW212858   1.443   2.583   2.201
 3987SOL     OW12859   2.375   4.425   6.442
 3987SOL    HW112860   2.354   4.454   6.348
 3987SOL    HW212861   2.464   4.381   6.444
 3988SOL     OW12862   4.497   1.962   6.708
 3988SOL    HW112863   4.501   2.052   6.664
 3988SOL    HW212864   4.585   1.917   6.698
 3989SOL     OW12865   4.158   0.796   6.644
 3989SOL    HW112866   4.151   0.872   6.709
 3989SOL    HW212867   4.230   0.734   6.674
 3990SOL     OW12868   1.225   2.594   3.343
 3990SOL    HW112869   1.154   2.524   3.351
 3990SOL    HW212870   1.235   2.642   3.430
 3991SOL     OW12871   6.847   1.287   4.467
 3991SOL    HW112872   6.777   1.319   4.531
 3991SOL    HW212873   6.929   1.343   4.477
 3992SOL     OW12874   5.297   4.080   6.192
 3992SOL    HW112875   5.338   4.165   6.158
 3992SOL    HW212876   5.341   4.053   6.277
 3993SOL     OW12877   1.654   1.638   3.222
 3993SOL    HW112878   1.659   1.579   3.142
 3993SOL    HW212879   1.729   1.616   3.285
 3994SOL     OW12880   2.519   2.046   3.973
 3994SOL    HW112881   2.459   1.973   3.940
 3994SOL    HW212882   2.614   2.016   3.969
 3995SOL     OW12883   1.240   3.666   2.175
 3995SOL    HW112884   1.282   3.575   2.168
 3995SOL    HW212885   1.241   3.695   2.271
 3996SOL     OW12886   5.821   6.661   3.354
 3996SOL    HW112887   5.801   6.583   3.414
 3996SOL    HW212888   5.808   6.746   3.404
 3997SOL     OW12889   5.731   3.832   3.153
 3997SOL    HW112890   5.634   3.841   3.132
 3997SOL    HW212891   5.742   3.799   3.247
 3998SOL     OW12892   5.458   2.623   3.280
 3998SOL    HW112893   5.427   2.567   3.357
 3998SOL    HW212894   5.437   2.576   3.194
 3999SOL     OW12895   4.883   2.605   1.485
 3999SOL    HW112896   4.960   2.569   1.432
 3999SOL    HW212897   4.805   2.622   1.425
 4000SOL     OW12898   3.202   5.307   2.187
 4000SOL    HW112899   3.228   5.213   2.209
 4000SOL    HW212900   3.268   5.347   2.124
 4001SOL     OW12901   1.572   4.810   4.522
 4001SOL    HW112902   1.616   4.803   4.612
 4001SOL    HW212903   1.582   4.724   4.473
 4002SOL     OW12904   3.461   4.101   3.427
 4002SOL    HW112905   3.550   4.082   3.470
 4002SOL    HW212906   3.459   4.058   3.336
 4003SOL     OW12907   2.645   1.134   5.524
 4003SOL    HW112908   2.568   1.071   5.528
 4003SOL    HW212909   2.646   1.179   5.434
 4004SOL     OW12910   1.043   3.757   3.468
 4004SOL    HW112911   1.014   3.834   3.412
 4004SOL    HW212912   1.075   3.790   3.557
 4005SOL     OW12913   4.960   2.979   0.897
 4005SOL    HW112914   5.004   2.948   0.981
 4005SOL    HW212915   4.981   2.916   0.823
 4006SOL     OW12916   4.562   5.019   3.310
 4006SOL    HW112917   4.580   5.100   3.254
 4006SOL    HW212918   4.644   4.993   3.360
 4007SOL     OW12919   6.861   1.112   3.237
 4007SOL    HW112920   6.947   1.060   3.238
 4007SOL    HW212921   6.859   1.172   3.157
 4008SOL     OW12922   3.289   0.602   1.005
 4008SOL    HW112923   3.233   0.630   1.084
 4008SOL    HW212924   3.253   0.516   0.968
 4009SOL     OW12925   4.853   2.128   0.805
 4009SOL    HW112926   4.908   2.134   0.721
 4009SOL    HW212927   4.756   2.134   0.781
 4010SOL     OW12928   2.642   4.983   1.708
 4010SOL    HW112929   2.720   5.041   1.733
 4010SOL    HW212930   2.662   4.888   1.733
 4011SOL     OW12931   5.012   5.813   6.868
 4011SOL    HW112932   4.982   5.811   6.963
 4011SOL    HW212933   4.979   5.731   6.821
 4012SOL     OW12934   4.344   0.467   2.474
 4012SOL    HW112935   4.389   0.472   2.563
 4012SOL    HW212936   4.312   0.374   2.457
 4013SOL     OW12937   0.372   1.101   6.435
 4013SOL    HW112938   0.318   1.184   6.422
 4013SOL    HW212939   0.331   1.045   6.506
 4014SOL     OW12940   2.994   5.161   2.585
 4014SOL    HW112941   2.906   5.187   2.625
 4014SOL    HW212942   2.996   5.062   2.570
 4015SOL     OW12943   3.981   4.594   5.903
 4015SOL    HW112944   4.058   4.574   5.963
 4015SOL    HW212945   3.922   4.514   5.895
 4016SOL     OW12946   4.079   5.430   5.564
 4016SOL    HW112947   4.033   5.469   5.644
 4016SOL    HW212948   4.116   5.504   5.508
 4017SOL     OW12949   0.588   4.844   5.985
 4017SOL    HW112950   0.596   4.829   6.083
 4017SOL    HW212951   0.535   4.770   5.943
 4018SOL     OW12952   4.581   6.288   1.936
 4018SOL    HW112953   4.667   6.241   1.954
 4018SOL    HW212954   4.549   6.332   2.020
 4019SOL     OW12955   5.161   3.401   3.558
 4019SOL    HW112956   5.065   3.412   3.584
 4019SOL    HW212957   5.212   3.483   3.585
 4020SOL     OW12958   6.334   4.941   3.865
 4020SOL    HW112959   6.348   4.932   3.964
 4020SOL    HW212960   6.243   4.978   3.848
 4021SOL     OW12961   4.266   3.634   5.952
 4021SOL    HW112962   4.247   3.729   5.978
 4021SOL    HW212963   4.181   3.581   5.958
 4022SOL     OW12964   2.392   1.026   1.424
 4022SOL    HW112965   2.327   1.012   1.350
 4022SOL    HW212966   2.477   0.976   1.405
 4023SOL     OW12967   0.164   1.509   4.957
 4023SOL    HW112968   0.102   1.575   4.915
 4023SOL    HW212969   0.202   1.449   4.887
 4024SOL     OW12970   0.461   5.503   4.667
 4024SOL    HW112971   0.392   5.433   4.653
 4024SOL    HW212972   0.551   5.461   4.678
 4025SOL     OW12973   0.454   5.792   4.043
 4025SOL    HW112974   0.459   5.715   4.106
 4025SOL    HW212975   0.470   5.760   3.949
 4026SOL     OW12976   6.625   6.393   3.670
 4026SOL    HW112977   6.651   6.304   3.634
 4026SOL    HW212978   6.607   6.385   3.768
 4027SOL     OW12979   2.715   4.250   5.912
 4027SOL    HW112980   2.789   4.239   5.846
 4027SOL    HW212981   2.627   4.243   5.865
 4028SOL     OW12982   4.880   1.791   2.726
 4028SOL    HW112983   4.865   1.838   2.639
 4028SOL    HW212984   4.798   1.740   2.751
 4029SOL     OW12985   2.062   5.403   6.428
 4029SOL    HW112986   2.128   5.328   6.434
 4029SOL    HW212987   2.024   5.421   6.518
 4030SOL     OW12988   0.197   1.282   2.720
 4030SOL    HW112989   0.130   1.270   2.647
 4030SOL    HW212990   0.156   1.258   2.808
 4031SOL     OW12991   6.060   6.435   1.318
 4031SOL    HW112992   6.100   6.525   1.302
 4031SOL    HW212993   6.031   6.427   1.413
 4032SOL     OW12994   5.678   0.914   1.591
 4032SOL    HW112995   5.719   0.991   1.641
 4032SOL    HW212996   5.587   0.941   1.558
 4033SOL     OW12997   2.036   2.660   2.685
 4033SOL    HW112998   2.063   2.576   2.640
 4033SOL    HW212999   1.966   2.640   2.754
 4034SOL     OW13000   0.250   2.912   4.913
 4034SOL    HW113001   0.177   2.860   4.869
 4034SOL    HW213002   0.227   2.927   5.009
 4035SOL     OW13003   5.442   1.801   1.374
 4035SOL    HW113004   5.427   1.822   1.471
 4035SOL    HW213005   5.366   1.748   1.339
 4036SOL     OW13006   2.592   5.444   3.117
 4036SOL    HW113007   2.585   5.345   3.120
 4036SOL    HW213008   2.500   5.484   3.114
 4037SOL     OW13009   2.275   0.726   6.015
 4037SOL    HW113010   2.257   0.632   6.044
 4037SOL    HW213011   2.203   0.786   6.048
 4038SOL     OW13012   3.446   3.856   5.813
 4038SOL    HW113013   3.526   3.796   5.807
 4038SOL    HW213014   3.451   3.924   5.739
 4039SOL     OW13015   5.969   5.200   1.832
 4039SOL    HW113016   5.915   5.162   1.908
 4039SOL    HW213017   5.909   5.256   1.774
 4040SOL     OW13018   3.488   5.417   5.105
 4040SOL    HW113019   3.406   5.375   5.066
 4040SOL    HW213020   3.558   5.347   5.119
 4041SOL     OW13021   2.771   6.010   0.856
 4041SOL    HW113022   2.685   6.019   0.807
 4041SOL    HW213023   2.846   6.044   0.799
 4042SOL     OW13024   6.178   0.582   3.781
 4042SOL    HW113025   6.258   0.635   3.809
 4042SOL    HW213026   6.182   0.564   3.683
 4043SOL     OW13027   5.145   3.738   6.493
 4043SOL    HW113028   5.160   3.825   6.541
 4043SOL    HW213029   5.221   3.722   6.430
 4044SOL     OW13030   3.906   5.019   3.625
 4044SOL    HW113031   3.881   5.087   3.555
 4044SOL    HW213032   3.993   5.046   3.667
 4045SOL     OW13033   5.099   0.151   5.438
 4045SOL    HW113034   5.094   0.130   5.536
 4045SOL    HW213035   5.033   0.093   5.389
 4046SOL     OW13036   6.695   1.786   2.631
 4046SOL    HW113037   6.733   1.744   2.549
 4046SOL    HW213038   6.669   1.715   2.697
 4047SOL     OW13039   2.611   3.372   6.848
 4047SOL    HW113040   2.700   3.408   6.879
 4047SOL    HW213041   2.592   3.286   6.895
 4048SOL     OW13042   4.499   1.539   2.223
 4048SOL    HW113043   4.441   1.590   2.160
 4048SOL    HW213044   4.567   1.486   2.171
 4049SOL     OW13045   3.950   4.686   6.646
 4049SOL    HW113046   3.856   4.673   6.614
 4049SOL    HW213047   4.006   4.718   6.571
 4050SOL     OW13048   0.294   5.387   2.806
 4050SOL    HW113049   0.280   5.379   2.708
 4050SOL    HW213050   0.343   5.306   2.840
 4051SOL     OW13051   5.183   1.087   5.543
 4051SOL    HW113052   5.209   1.131   5.630
 4051SOL    HW213053   5.149   1.156   5.480
 4052SOL     OW13054   6.245   1.950   3.850
 4052SOL    HW113055   6.327   1.969   3.904
 4052SOL    HW213056   6.234   2.021   3.780
 4053SOL     OW13057   1.065   5.756   4.576
 4053SOL    HW113058   1.001   5.825   4.543
 4053SOL    HW213059   1.150   5.761   4.523
 4054SOL     OW13060   5.112   4.349   0.661
 4054SOL    HW113061   5.049   4.360   0.584
 4054SOL    HW213062   5.063   4.366   0.746
 4055SOL     OW13063   1.189   3.705   1.262
 4055SOL    HW113064   1.279   3.679   1.297
 4055SOL    HW213065   1.199   3.780   1.197
 4056SOL     OW13066   4.655   3.485   0.922
 4056SOL    HW113067   4.674   3.388   0.906
 4056SOL    HW213068   4.699   3.514   1.007
 4057SOL     OW13069   6.495   3.459   6.365
 4057SOL    HW113070   6.425   3.474   6.296
 4057SOL    HW213071   6.454   3.421   6.448
 4058SOL     OW13072   2.741   6.523   5.765
 4058SOL    HW113073   2.774   6.476   5.847
 4058SOL    HW213074   2.645   6.498   5.749
 4059SOL     OW13075   1.083   1.904   4.176
 4059SOL    HW113076   1.095   1.845   4.096
 4059SOL    HW213077   1.113   1.997   4.154
 4060SOL     OW13078   6.315   5.769   5.118
 4060SOL    HW113079   6.395   5.811   5.076
 4060SOL    HW213080   6.273   5.834   5.182
 4061SOL     OW13081   2.368   5.107   1.707
 4061SOL    HW113082   2.448   5.063   1.748
 4061SOL    HW213083   2.322   5.042   1.646
 4062SOL     OW13084   2.236   1.831   1.785
 4062SOL    HW113085   2.300   1.855   1.712
 4062SOL    HW213086   2.142   1.850   1.754
 4063SOL     OW13087   5.620   1.850   0.517
 4063SOL    HW113088   5.588   1.755   0.515
 4063SOL    HW213089   5.720   1.852   0.507
 4064SOL     OW13090   2.019   2.025   4.936
 4064SOL    HW113091   1.954   2.010   5.011
 4064SOL    HW213092   1.972   2.073   4.861
 4065SOL     OW13093   1.930   7.015   0.408
 4065SOL    HW113094   1.895   0.037   0.492
 4065SOL    HW213095   1.921   0.060   0.332
 4066SOL     OW13096   0.273   4.082   3.418
 4066SOL    HW113097   0.329   4.050   3.341
 4066SOL    HW213098   0.202   4.143   3.385
 4067SOL     OW13099   5.385   5.101   2.513
 4067SOL    HW113100   5.285   5.098   2.511
 4067SOL    HW213101   5.416   5.194   2.533
 4068SOL     OW13102   1.543   2.879   5.393
 4068SOL    HW113103   1.617   2.946   5.385
 4068SOL    HW213104   1.527   2.859   5.490
 4069SOL     OW13105   4.026   0.183   6.887
 4069SOL    HW113106   3.988   0.091   6.876
 4069SOL    HW213107   4.000   0.239   6.809
 4070SOL     OW13108   1.420   2.972   2.868
 4070SOL    HW113109   1.368   2.974   2.783
 4070SOL    HW213110   1.473   2.887   2.872
 4071SOL     OW13111   0.638   0.491   3.849
 4071SOL    HW113112   0.681   0.550   3.781
 4071SOL    HW213113   0.550   0.458   3.813
 4072SOL     OW13114   1.691   5.445   3.418
 4072SOL    HW113115   1.745   5.453   3.335
 4072SOL    HW213116   1.693   5.533   3.467
 4073SOL     OW13117   3.188   4.869   0.238
 4073SOL    HW113118   3.127   4.906   0.168
 4073SOL    HW213119   3.278   4.852   0.198
 4074SOL     OW13120   0.963   5.794   2.504
 4074SOL    HW113121   1.029   5.789   2.579
 4074SOL    HW213122   0.943   5.890   2.483
 4075SOL     OW13123   5.338   0.155   0.771
 4075SOL    HW113124   5.241   0.154   0.747
 4075SOL    HW213125   5.352   0.101   0.854
 4076SOL     OW13126   3.017   3.834   5.167
 4076SOL    HW113127   2.984   3.800   5.079
 4076SOL    HW213128   3.067   3.762   5.214
 4077SOL     OW13129   4.037   2.080   1.775
 4077SOL    HW113130   4.020   2.177   1.793
 4077SOL    HW213131   3.994   2.025   1.846
 4078SOL     OW13132   3.116   4.846   2.856
 4078SOL    HW113133   3.181   4.899   2.910
 4078SOL    HW213134   3.160   4.816   2.771
 4079SOL     OW13135   1.160   2.520   4.144
 4079SOL    HW113136   1.249   2.565   4.140
 4079SOL    HW213137   1.114   2.545   4.230
 4080SOL     OW13138   5.456   1.155   5.136
 4080SOL    HW113139   5.525   1.096   5.178
 4080SOL    HW213140   5.379   1.099   5.104
 4081SOL     OW13141   1.571   3.350   3.208
 4081SOL    HW113142   1.653   3.398   3.238
 4081SOL    HW213143   1.575   3.335   3.109
 4082SOL     OW13144   1.366   3.135   0.883
 4082SOL    HW113145   1.361   3.056   0.822
 4082SOL    HW213146   1.284   3.139   0.940
 4083SOL     OW13147   5.873   2.587   4.425
 4083SOL    HW113148   5.893   2.630   4.337
 4083SOL    HW213149   5.927   2.630   4.497
 4084SOL     OW13150   6.525   1.697   4.183
 4084SOL    HW113151   6.497   1.676   4.089
 4084SOL    HW213152   6.453   1.668   4.246
 4085SOL     OW13153   3.399   5.973   0.287
 4085SOL    HW113154   3.417   5.993   0.383
 4085SOL    HW213155   3.486   5.965   0.237
 4086SOL     OW13156   1.747   5.283   1.109
 4086SOL    HW113157   1.724   5.187   1.126
 4086SOL    HW213158   1.746   5.334   1.195
 4087SOL     OW13159   2.337   2.017   3.211
 4087SOL    HW113160   2.372   2.107   3.187
 4087SOL    HW213161   2.351   2.001   3.309
 4088SOL     OW13162   6.482   1.827   1.043
 4088SOL    HW113163   6.432   1.816   1.129
 4088SOL    HW213164   6.580   1.824   1.061
 4089SOL     OW13165   0.673   0.903   4.032
 4089SOL    HW113166   0.663   0.994   3.992
 4089SOL    HW213167   0.676   0.911   4.132
 4090SOL     OW13168   2.458   4.028   6.390
 4090SOL    HW113169   2.459   4.120   6.350
 4090SOL    HW213170   2.397   3.970   6.337
 4091SOL     OW13171   4.743   6.045   0.300
 4091SOL    HW113172   4.670   5.991   0.258
 4091SOL    HW213173   4.813   5.984   0.336
 4092SOL     OW13174   0.553   2.715   5.234
 4092SOL    HW113175   0.535   2.781   5.161
 4092SOL    HW213176   0.492   2.733   5.311
 4093SOL     OW13177   5.829   1.301   3.482
 4093SOL    HW113178   5.910   1.251   3.513
 4093SOL    HW213179   5.837   1.320   3.384
 4094SOL     OW13180   2.093   4.275   5.407
 4094SOL    HW113181   2.008   4.304   5.364
 4094SOL    HW213182   2.163   4.346   5.392
 4095SOL     OW13183   1.088   2.884   5.890
 4095SOL    HW113184   1.156   2.945   5.851
 4095SOL    HW213185   1.075   2.906   5.987
 4096SOL     OW13186   4.758   5.260   6.666
 4096SOL    HW113187   4.822   5.241   6.741
 4096SOL    HW213188   4.810   5.272   6.581
 4097SOL     OW13189   3.518   3.519   5.772
 4097SOL    HW113190   3.578   3.599   5.762
 4097SOL    HW213191   3.568   3.437   5.747
 4098SOL     OW13192   0.508   2.723   3.055
 4098SOL    HW113193   0.543   2.783   3.126
 4098SOL    HW213194   0.409   2.712   3.067
 4099SOL     OW13195   3.098   5.967   1.982
 4099SOL    HW113196   3.191   5.930   1.985
 4099SOL    HW213197   3.101   6.065   2.000
 4100SOL     OW13198   4.497   6.255   3.585
 4100SOL    HW113199   4.576   6.216   3.632
 4100SOL    HW213200   4.524   6.286   3.494
 4101SOL     OW13201   6.014   1.772   5.952
 4101SOL    HW113202   6.050   1.770   6.046
 4101SOL    HW213203   5.986   1.679   5.926
 4102SOL     OW13204   5.962   0.681   0.766
 4102SOL    HW113205   6.039   0.624   0.738
 4102SOL    HW213206   5.877   0.628   0.762
 4103SOL     OW13207   0.382   0.978   2.167
 4103SOL    HW113208   0.288   0.949   2.184
 4103SOL    HW213209   0.439   0.897   2.152
 4104SOL     OW13210   1.899   4.521   2.714
 4104SOL    HW113211   1.990   4.513   2.674
 4104SOL    HW213212   1.834   4.469   2.658
 4105SOL     OW13213   3.862   5.428   0.477
 4105SOL    HW113214   3.794   5.427   0.550
 4105SOL    HW213215   3.919   5.511   0.486
 4106SOL     OW13216   0.046   3.697   4.716
 4106SOL    HW113217   0.054   3.795   4.734
 4106SOL    HW213218   0.030   3.648   4.802
 4107SOL     OW13219   0.255   6.481   1.481
 4107SOL    HW113220   0.246   6.569   1.528
 4107SOL    HW213221   0.280   6.497   1.385
 4108SOL     OW13222   6.597   3.753   6.404
 4108SOL    HW113223   6.662   3.767   6.478
 4108SOL    HW213224   6.567   3.657   6.403
 4109SOL     OW13225   3.795   6.540   3.960
 4109SOL    HW113226   3.862   6.493   4.018
 4109SOL    HW213227   3.754   6.615   4.011
 4110SOL     OW13228   4.911   3.120   6.203
 4110SOL    HW113229   4.973   3.188   6.244
 4110SOL    HW213230   4.818   3.138   6.235
 4111SOL     OW13231   4.396   2.570   0.100
 4111SOL    HW113232   4.326   2.640   0.105
 4111SOL    HW213233   4.354   2.482   0.077
 4112SOL     OW13234   4.123   1.591   4.429
 4112SOL    HW113235   4.072   1.601   4.514
 4112SOL    HW213236   4.098   1.663   4.365
 4113SOL     OW13237   3.496   5.181   5.328
 4113SOL    HW113238   3.539   5.123   5.260
 4113SOL    HW213239   3.540   5.270   5.330
 4114SOL     OW13240   3.065   1.522   4.367
 4114SOL    HW113241   2.991   1.498   4.304
 4114SOL    HW213242   3.060   1.619   4.389
 4115SOL     OW13243   4.857   5.729   1.769
 4115SOL    HW113244   4.851   5.801   1.838
 4115SOL    HW213245   4.954   5.711   1.749
 4116SOL     OW13246   3.735   1.931   1.929
 4116SOL    HW113247   3.742   1.997   2.004
 4116SOL    HW213248   3.745   1.979   1.842
 4117SOL     OW13249   1.171   4.924   1.041
 4117SOL    HW113250   1.118   4.999   1.003
 4117SOL    HW213251   1.269   4.947   1.036
 4118SOL     OW13252   1.274   6.876   0.955
 4118SOL    HW113253   1.279   6.842   1.049
 4118SOL    HW213254   1.343   6.829   0.899
 4119SOL     OW13255   3.412   0.741   4.096
 4119SOL    HW113256   3.369   0.683   4.027
 4119SOL    HW213257   3.500   0.702   4.122
 4120SOL     OW13258   3.970   6.844   1.739
 4120SOL    HW113259   4.004   6.757   1.704
 4120SOL    HW213260   3.963   6.910   1.665
 4121SOL     OW13261   6.813   2.633   4.676
 4121SOL    HW113262   6.763   2.692   4.613
 4121SOL    HW213263   6.768   2.635   4.766
 4122SOL     OW13264   0.595   6.663   5.250
 4122SOL    HW113265   0.569   6.752   5.214
 4122SOL    HW213266   0.527   6.633   5.318
 4123SOL     OW13267   5.691   4.352   5.950
 4123SOL    HW113268   5.659   4.308   5.866
 4123SOL    HW213269   5.673   4.450   5.945
 4124SOL     OW13270   5.540   6.778   3.733
 4124SOL    HW113271   5.599   6.716   3.683
 4124SOL    HW213272   5.459   6.729   3.766
 4125SOL     OW13273   4.673   0.821   1.897
 4125SOL    HW113274   4.574   0.808   1.901
 4125SOL    HW213275   4.696   0.915   1.922
 4126SOL     OW13276   1.703   4.312   4.699
 4126SOL    HW113277   1.668   4.234   4.647
 4126SOL    HW213278   1.771   4.361   4.645
 4127SOL     OW13279   5.595   3.328   4.852
 4127SOL    HW113280   5.639   3.417   4.857
 4127SOL    HW213281   5.615   3.286   4.763
 4128SOL     OW13282   1.671   3.529   2.452
 4128SOL    HW113283   1.742   3.595   2.479
 4128SOL    HW213284   1.586   3.552   2.500
 4129SOL     OW13285   5.705   2.284   5.697
 4129SOL    HW113286   5.667   2.307   5.607
 4129SOL    HW213287   5.765   2.204   5.688
 4130SOL     OW13288   6.515   4.012   6.315
 4130SOL    HW113289   6.557   4.079   6.376
 4130SOL    HW213290   6.543   3.920   6.341
 4131SOL     OW13291   0.146   5.751   3.830
 4131SOL    HW113292   0.198   5.721   3.910
 4131SOL    HW213293   0.081   5.679   3.804
 4132SOL     OW13294   4.880   3.436   3.449
 4132SOL    HW113295   4.804   3.467   3.392
 4132SOL    HW213296   4.957   3.499   3.439
 4133SOL     OW13297   2.892   0.922   1.240
 4133SOL    HW113298   2.941   0.883   1.318
 4133SOL    HW213299   2.948   0.995   1.199
 4134SOL     OW13300   2.382   1.890   0.723
 4134SOL    HW113301   2.448   1.878   0.797
 4134SOL    HW213302   2.312   1.818   0.729
 4135SOL     OW13303   1.639   0.741   2.845
 4135SOL    HW113304   1.634   0.741   2.945
 4135SOL    HW213305   1.633   0.834   2.811
 4136SOL     OW13306   0.222   2.466   4.052
 4136SOL    HW113307   0.250   2.461   3.956
 4136SOL    HW213308   0.278   2.534   4.099
 4137SOL     OW13309   3.372   4.064   6.537
 4137SOL    HW113310   3.470   4.046   6.544
 4137SOL    HW213311   3.351   4.149   6.586
 4138SOL     OW13312   4.402   4.598   4.111
 4138SOL    HW113313   4.464   4.525   4.081
 4138SOL    HW213314   4.361   4.642   4.031
 4139SOL     OW13315   1.880   1.901   5.919
 4139SOL    HW113316   1.830   1.964   5.860
 4139SOL    HW213317   1.965   1.873   5.873
 4140SOL     OW13318   3.796   1.197   5.217
 4140SOL    HW113319   3.840   1.143   5.145
 4140SOL    HW213320   3.783   1.291   5.185
 4141SOL     OW13321   5.488   5.239   1.061
 4141SOL    HW113322   5.565   5.182   1.087
 4141SOL    HW213323   5.515   5.302   0.988
 4142SOL     OW13324   6.954   4.709   0.801
 4142SOL    HW113325   6.862   4.723   0.766
 4142SOL    HW213326   6.951   4.652   0.883
 4143SOL     OW13327   6.493   2.740   0.880
 4143SOL    HW113328   6.559   2.770   0.811
 4143SOL    HW213329   6.410   2.708   0.834
 4144SOL     OW13330   5.267   1.572   1.737
 4144SOL    HW113331   5.248   1.670   1.723
 4144SOL    HW213332   5.359   1.551   1.705
 4145SOL     OW13333   1.188   6.855   1.367
 4145SOL    HW113334   1.223   6.884   1.456
 4145SOL    HW213335   1.091   6.834   1.375
 4146SOL     OW13336   5.364   0.077   6.441
 4146SOL    HW113337   5.358   0.003   6.373
 4146SOL    HW213338   5.425   0.149   6.406
 4147SOL     OW13339   3.482   2.261   5.978
 4147SOL    HW113340   3.400   2.317   5.965
 4147SOL    HW213341   3.463   2.188   6.044
 4148SOL     OW13342   6.903   0.526   3.881
 4148SOL    HW113343   6.993   0.507   3.920
 4148SOL    HW213344   6.870   0.445   3.833
 4149SOL     OW13345   6.157   3.230   0.824
 4149SOL    HW113346   6.125   3.241   0.918
 4149SOL    HW213347   6.227   3.159   0.820
 4150SOL     OW13348   5.504   0.463   6.185
 4150SOL    HW113349   5.405   0.450   6.185
 4150SOL    HW213350   5.525   0.554   6.148
 4151SOL     OW13351   6.899   5.940   0.691
 4151SOL    HW113352   6.974   6.000   0.721
 4151SOL    HW213353   6.879   5.958   0.594
 4152SOL     OW13354   4.394   4.805   2.110
 4152SOL    HW113355   4.388   4.893   2.064
 4152SOL    HW213356   4.316   4.748   2.085
 4153SOL     OW13357   6.014   5.343   6.377
 4153SOL    HW113358   5.997   5.292   6.461
 4153SOL    HW213359   5.987   5.287   6.298
 4154SOL     OW13360   5.956   3.343   4.771
 4154SOL    HW113361   5.894   3.418   4.793
 4154SOL    HW213362   5.967   3.284   4.852
 4155SOL     OW13363   0.735   3.800   2.328
 4155SOL    HW113364   0.658   3.751   2.286
 4155SOL    HW213365   0.707   3.834   2.418
 4156SOL     OW13366   5.657   6.808   5.505
 4156SOL    HW113367   5.685   6.727   5.454
 4156SOL    HW213368   5.729   6.834   5.570
 4157SOL     OW13369   4.329   0.832   3.822
 4157SOL    HW113370   4.260   0.762   3.836
 4157SOL    HW213371   4.341   0.885   3.906
 4158SOL     OW13372   0.599   4.971   3.151
 4158SOL    HW113373   0.569   5.066   3.160
 4158SOL    HW213374   0.571   4.920   3.232
 4159SOL     OW13375   1.058   2.902   4.085
 4159SOL    HW113376   1.013   2.984   4.051
 4159SOL    HW213377   1.094   2.849   4.007
 4160SOL     OW13378   6.446   0.457   0.792
 4160SOL    HW113379   6.495   0.375   0.760
 4160SOL    HW213380   6.513   0.523   0.828
 4161SOL     OW13381   1.429   1.067   6.787
 4161SOL    HW113382   1.348   1.116   6.754
 4161SOL    HW213383   1.511   1.117   6.763
 4162SOL     OW13384   6.145   6.750   4.382
 4162SOL    HW113385   6.059   6.801   4.380
 4162SOL    HW213386   6.134   6.668   4.438
 4163SOL     OW13387   5.601   1.447   3.487
 4163SOL    HW113388   5.693   1.410   3.487
 4163SOL    HW213389   5.599   1.532   3.540
 4164SOL     OW13390   2.067   0.778   6.844
 4164SOL    HW113391   2.027   0.814   6.759
 4164SOL    HW213392   2.166   0.770   6.832
 4165SOL     OW13393   4.017   6.496   0.826
 4165SOL    HW113394   4.044   6.592   0.821
 4165SOL    HW213395   4.059   6.445   0.751
 4166SOL     OW13396   4.283   2.896   0.767
 4166SOL    HW113397   4.285   2.994   0.789
 4166SOL    HW213398   4.200   2.855   0.805
 4167SOL     OW13399   2.250   2.661   1.765
 4167SOL    HW113400   2.330   2.675   1.824
 4167SOL    HW213401   2.214   2.569   1.780
 4168SOL     OW13402   0.443   5.281   1.683
 4168SOL    HW113403   0.474   5.221   1.609
 4168SOL    HW213404   0.347   5.260   1.704
 4169SOL     OW13405   4.937   3.868   3.875
 4169SOL    HW113406   4.875   3.901   3.946
 4169SOL    HW213407   5.025   3.915   3.883
 4170SOL     OW13408   3.925   2.815   5.576
 4170SOL    HW113409   3.960   2.758   5.650
 4170SOL    HW213410   3.963   2.784   5.489
 4171SOL     OW13411   5.053   3.937   1.333
 4171SOL    HW113412   4.990   3.860   1.338
 4171SOL    HW213413   5.001   4.022   1.325
 4172SOL     OW13414   0.462   1.882   0.983
 4172SOL    HW113415   0.437   1.971   1.022
 4172SOL    HW213416   0.551   1.854   1.020
 4173SOL     OW13417   5.388   2.920   4.851
 4173SOL    HW113418   5.436   2.840   4.814
 4173SOL    HW213419   5.329   2.892   4.927
 4174SOL     OW13420   4.772   0.975   3.457
 4174SOL    HW113421   4.810   0.932   3.539
 4174SOL    HW213422   4.845   1.024   3.409
 4175SOL     OW13423   3.287   0.112   3.549
 4175SOL    HW113424   3.211   0.100   3.485
 4175SOL    HW213425   3.327   0.022   3.570
 4176SOL     OW13426   4.594   0.168   2.655
 4176SOL    HW113427   4.629   0.241   2.596
 4176SOL    HW213428   4.632   0.179   2.747
 4177SOL     OW13429   0.263   6.150   3.780
 4177SOL    HW113430   0.178   6.184   3.741
 4177SOL    HW213431   0.253   6.139   3.879
 4178SOL     OW13432   3.363   1.922   6.064
 4178SOL    HW113433   3.311   1.938   5.980
 4178SOL    HW213434   3.461   1.928   6.045
 4179SOL     OW13435   5.348   3.485   5.333
 4179SOL    HW113436   5.406   3.505   5.411
 4179SOL    HW213437   5.356   3.388   5.310
 4180SOL     OW13438   5.147   4.601   1.076
 4180SOL    HW113439   5.054   4.636   1.072
 4180SOL    HW213440   5.160   4.553   1.163
 4181SOL     OW13441   0.726   1.684   6.500
 4181SOL    HW113442   0.646   1.626   6.514
 4181SOL    HW213443   0.781   1.686   6.583
 4182SOL     OW13444   6.588   0.330   2.312
 4182SOL    HW113445   6.494   0.327   2.278
 4182SOL    HW213446   6.647   0.278   2.251
 4183SOL     OW13447   2.586   1.416   1.778
 4183SOL    HW113448   2.571   1.318   1.763
 4183SOL    HW213449   2.501   1.459   1.807
 4184SOL     OW13450   3.572   5.663   0.574
 4184SOL    HW113451   3.515   5.590   0.536
 4184SOL    HW213452   3.613   5.715   0.499
 4185SOL     OW13453   0.222   0.079   3.336
 4185SOL    HW113454   0.198   0.078   3.239
 4185SOL    HW213455   0.147   0.043   3.390
 4186SOL     OW13456   2.476   3.813   0.774
 4186SOL    HW113457   2.549   3.752   0.806
 4186SOL    HW213458   2.461   3.798   0.676
 4187SOL     OW13459   3.710   3.564   6.471
 4187SOL    HW113460   3.703   3.629   6.396
 4187SOL    HW213461   3.744   3.477   6.437
 4188SOL     OW13462   4.761   0.560   4.066
 4188SOL    HW113463   4.765   0.483   4.003
 4188SOL    HW213464   4.766   0.527   4.160
 4189SOL     OW13465   2.292   1.584   4.509
 4189SOL    HW113466   2.242   1.571   4.595
 4189SOL    HW213467   2.295   1.681   4.486
 4190SOL     OW13468   3.057   1.149   6.851
 4190SOL    HW113469   3.063   1.169   6.949
 4190SOL    HW213470   3.147   1.124   6.815
 4191SOL     OW13471   6.344   2.683   2.998
 4191SOL    HW113472   6.259   2.726   2.969
 4191SOL    HW213473   6.332   2.584   3.004
 4192SOL     OW13474   5.865   1.243   2.983
 4192SOL    HW113475   5.874   1.322   2.922
 4192SOL    HW213476   5.819   1.270   3.067
 4193SOL     OW13477   2.424   6.972   2.585
 4193SOL    HW113478   2.490   6.957   2.511
 4193SOL    HW213479   2.334   6.939   2.557
 4194SOL     OW13480   6.957   1.736   4.056
 4194SOL    HW113481   0.026   1.753   4.099
 4194SOL    HW213482   6.886   1.788   4.104
 4195SOL     OW13483   5.757   0.490   1.389
 4195SOL    HW113484   5.822   0.566   1.400
 4195SOL    HW213485   5.754   0.463   1.293
 4196SOL     OW13486   4.995   2.649   4.526
 4196SOL    HW113487   4.922   2.614   4.467
 4196SOL    HW213488   5.014   2.745   4.503
 4197SOL     OW13489   5.187   4.520   4.872
 4197SOL    HW113490   5.165   4.455   4.798
 4197SOL    HW213491   5.276   4.562   4.855
 4198SOL     OW13492   5.884   3.879   6.953
 4198SOL    HW113493   5.891   3.925   0.021
 4198SOL    HW213494   5.966   3.824   6.938
 4199SOL     OW13495   3.143   3.755   4.867
 4199SOL    HW113496   3.061   3.712   4.906
 4199SOL    HW213497   3.166   3.711   4.780
 4200SOL     OW13498   2.047   0.446   6.889
 4200SOL    HW113499   2.080   0.355   6.861
 4200SOL    HW213500   1.996   0.487   6.813
 4201SOL     OW13501   5.767   0.246   3.759
 4201SOL    HW113502   5.843   0.195   3.720
 4201SOL    HW213503   5.684   0.192   3.753
 4202SOL     OW13504   5.425   5.105   5.376
 4202SOL    HW113505   5.488   5.091   5.452
 4202SOL    HW213506   5.472   5.154   5.302
 4203SOL     OW13507   5.079   5.473   3.014
 4203SOL    HW113508   5.157   5.476   3.077
 4203SOL    HW213509   5.102   5.416   2.936
 4204SOL     OW13510   3.516   3.117   1.290
 4204SOL    HW113511   3.419   3.122   1.313
 4204SOL    HW213512   3.557   3.038   1.335
 4205SOL     OW13513   3.544   5.259   4.324
 4205SOL    HW113514   3.530   5.345   4.373
 4205SOL    HW213515   3.505   5.265   4.232
 4206SOL     OW13516   4.941   0.314   4.951
 4206SOL    HW113517   5.008   0.362   4.895
 4206SOL    HW213518   4.854   0.310   4.901
 4207SOL     OW13519   1.303   0.728   1.835
 4207SOL    HW113520   1.327   0.714   1.739
 4207SOL    HW213521   1.205   0.709   1.847
 4208SOL     OW13522   1.261   2.694   0.650
 4208SOL    HW113523   1.221   2.743   0.572
 4208SOL    HW213524   1.194   2.692   0.725
 4209SOL     OW13525   2.293   6.846   5.272
 4209SOL    HW113526   2.281   6.930   5.219
 4209SOL    HW213527   2.341   6.779   5.217
 4210SOL     OW13528   4.266   3.174   0.825
 4210SOL    HW113529   4.211   3.225   0.891
 4210SOL    HW213530   4.299   3.236   0.754
 4211SOL     OW13531   4.316   4.756   3.891
 4211SOL    HW113532   4.363   4.740   3.804
 4211SOL    HW213533   4.218   4.768   3.874
 4212SOL     OW13534   6.189   1.131   2.990
 4212SOL    HW113535   6.127   1.084   2.926
 4212SOL    HW213536   6.257   1.067   3.023
 4213SOL     OW13537   1.673   1.011   2.382
 4213SOL    HW113538   1.758   0.975   2.420
 4213SOL    HW213539   1.668   0.990   2.284
 4214SOL     OW13540   0.953   3.449   5.219
 4214SOL    HW113541   0.965   3.379   5.148
 4214SOL    HW213542   1.043   3.483   5.247
 4215SOL     OW13543   0.648   5.180   5.015
 4215SOL    HW113544   0.696   5.172   5.103
 4215SOL    HW213545   0.713   5.175   4.940
 4216SOL     OW13546   0.536   2.680   4.325
 4216SOL    HW113547   0.584   2.767   4.334
 4216SOL    HW213548   0.558   2.623   4.404
 4217SOL     OW13549   0.069   0.985   3.146
 4217SOL    HW113550   0.052   0.887   3.149
 4217SOL    HW213551   0.165   1.002   3.123
 4218SOL     OW13552   4.208   6.935   1.924
 4218SOL    HW113553   4.291   6.951   1.870
 4218SOL    HW213554   4.137   6.897   1.866
 4219SOL     OW13555   4.697   5.729   4.553
 4219SOL    HW113556   4.710   5.828   4.555
 4219SOL    HW213557   4.729   5.693   4.466
 4220SOL     OW13558   6.506   3.570   4.306
 4220SOL    HW113559   6.479   3.653   4.355
 4220SOL    HW213560   6.563   3.514   4.365
 4221SOL     OW13561   5.109   5.675   6.444
 4221SOL    HW113562   5.117   5.729   6.360
 4221SOL    HW213563   5.165   5.593   6.438
 4222SOL     OW13564   4.967   2.795   1.650
 4222SOL    HW113565   4.872   2.814   1.673
 4222SOL    HW213566   4.972   2.709   1.598
 4223SOL     OW13567   3.334   4.030   2.196
 4223SOL    HW113568   3.354   4.070   2.107
 4223SOL    HW213569   3.235   4.030   2.211
 4224SOL     OW13570   4.377   2.375   4.914
 4224SOL    HW113571   4.428   2.461   4.911
 4224SOL    HW213572   4.301   2.384   4.978
 4225SOL     OW13573   6.233   0.034   4.551
 4225SOL    HW113574   6.223   0.097   4.628
 4225SOL    HW213575   6.308   6.990   4.570
 4226SOL     OW13576   0.326   1.669   3.797
 4226SOL    HW113577   0.269   1.739   3.755
 4226SOL    HW213578   0.336   1.688   3.895
 4227SOL     OW13579   4.479   4.390   0.242
 4227SOL    HW113580   4.432   4.450   0.177
 4227SOL    HW213581   4.571   4.370   0.208
 4228SOL     OW13582   6.562   5.258   3.221
 4228SOL    HW113583   6.643   5.267   3.164
 4228SOL    HW213584   6.483   5.296   3.173
 4229SOL     OW13585   4.506   4.702   5.791
 4229SOL    HW113586   4.562   4.726   5.870
 4229SOL    HW213587   4.551   4.733   5.707
 4230SOL     OW13588   3.619   0.628   4.893
 4230SOL    HW113589   3.615   0.710   4.950
 4230SOL    HW213590   3.583   0.648   4.802
 4231SOL     OW13591   4.420   6.953   5.138
 4231SOL    HW113592   4.459   0.010   5.088
 4231SOL    HW213593   4.474   6.871   5.118
 4232SOL     OW13594   2.176   4.831   2.844
 4232SOL    HW113595   2.136   4.745   2.876
 4232SOL    HW213596   2.150   4.905   2.905
 4233SOL     OW13597   6.869   6.619   0.106
 4233SOL    HW113598   6.810   6.549   0.146
 4233SOL    HW213599   6.902   6.680   0.178
 4234SOL     OW13600   3.114   4.868   6.252
 4234SOL    HW113601   3.155   4.801   6.189
 4234SOL    HW213602   3.037   4.913   6.207
 4235SOL     OW13603   6.183   3.427   5.653
 4235SOL    HW113604   6.130   3.444   5.736
 4235SOL    HW213605   6.206   3.515   5.610
 4236SOL     OW13606   1.466   3.014   4.532
 4236SOL    HW113607   1.425   3.105   4.529
 4236SOL    HW213608   1.512   2.995   4.445
 4237SOL     OW13609   5.157   3.555   4.831
 4237SOL    HW113610   5.173   3.653   4.844
 4237SOL    HW213611   5.228   3.517   4.772
 4238SOL     OW13612   4.032   5.739   3.737
 4238SOL    HW113613   3.973   5.744   3.818
 4238SOL    HW213614   4.076   5.827   3.723
 4239SOL     OW13615   4.991   5.932   5.909
 4239SOL    HW113616   5.017   5.836   5.896
 4239SOL    HW213617   5.061   5.991   5.870
 4240SOL     OW13618   2.599   4.933   6.585
 4240SOL    HW113619   2.516   4.928   6.530
 4240SOL    HW213620   2.592   4.870   6.663
 4241SOL     OW13621   4.426   0.390   0.750
 4241SOL    HW113622   4.521   0.416   0.769
 4241SOL    HW213623   4.425   0.305   0.697
 4242SOL     OW13624   1.996   0.682   3.117
 4242SOL    HW113625   1.962   0.605   3.063
 4242SOL    HW213626   1.931   0.701   3.191
 4243SOL     OW13627   1.113   3.365   2.106
 4243SOL    HW113628   1.131   3.378   2.203
 4243SOL    HW213629   1.194   3.390   2.054
 4244SOL     OW13630   4.778   6.906   1.125
 4244SOL    HW113631   4.752   6.810   1.125
 4244SOL    HW213632   4.850   6.922   1.057
 4245SOL     OW13633   6.684   3.268   1.051
 4245SOL    HW113634   6.774   3.310   1.068
 4245SOL    HW213635   6.646   3.306   0.967
 4246SOL     OW13636   5.318   1.738   2.900
 4246SOL    HW113637   5.309   1.833   2.930
 4246SOL    HW213638   5.370   1.734   2.815
 4247SOL     OW13639   1.808   4.737   5.308
 4247SOL    HW113640   1.835   4.833   5.315
 4247SOL    HW213641   1.794   4.699   5.400
 4248SOL     OW13642   1.871   0.761   3.335
 4248SOL    HW113643   1.801   0.788   3.401
 4248SOL    HW213644   1.958   0.803   3.360
 4249SOL     OW13645   6.816   0.059   5.200
 4249SOL    HW113646   6.793   0.002   5.279
 4249SOL    HW213647   6.908   0.096   5.211
 4250SOL     OW13648   0.001   5.794   4.459
 4250SOL    HW113649   6.986   5.882   4.492
 4250SOL    HW213650   0.098   5.803   4.438
 4251SOL     OW13651   5.767   1.962   5.882
 4251SOL    HW113652   5.813   2.020   5.948
 4251SOL    HW213653   5.810   1.872   5.879
 4252SOL     OW13654   6.483   6.670   6.948
 4252SOL    HW113655   6.556   6.642   6.886
 4252SOL    HW213656   6.479   6.770   6.952
 4253SOL     OW13657   4.284   5.328   2.516
 4253SOL    HW113658   4.298   5.341   2.418
 4253SOL    HW213659   4.228   5.402   2.552
 4254SOL     OW13660   1.656   2.954   6.839
 4254SOL    HW113661   1.613   3.022   6.780
 4254SOL    HW213662   1.641   2.979   6.935
 4255SOL     OW13663   0.883   3.745   2.901
 4255SOL    HW113664   0.911   3.649   2.900
 4255SOL    HW213665   0.803   3.756   2.961
 4256SOL     OW13666   0.712   5.258   1.810
 4256SOL    HW113667   0.633   5.294   1.759
 4256SOL    HW213668   0.794   5.266   1.753
 4257SOL     OW13669   5.779   0.625   5.340
 4257SOL    HW113670   5.785   0.565   5.260
 4257SOL    HW213671   5.839   0.590   5.413
 4258SOL     OW13672   3.638   5.976   0.163
 4258SOL    HW113673   3.605   5.932   0.079
 4258SOL    HW213674   3.715   6.035   0.141
 4259SOL     OW13675   0.724   6.928   2.319
 4259SOL    HW113676   0.796   6.875   2.362
 4259SOL    HW213677   0.689   6.996   2.384
 4260SOL     OW13678   5.023   0.350   4.531
 4260SOL    HW113679   5.071   0.351   4.443
 4260SOL    HW213680   5.064   0.418   4.592
 4261SOL     OW13681   2.196   6.971   3.885
 4261SOL    HW113682   2.274   6.915   3.856
 4261SOL    HW213683   2.115   6.948   3.831
 4262SOL     OW13684   1.484   4.099   6.845
 4262SOL    HW113685   1.536   4.014   6.836
 4262SOL    HW213686   1.497   4.136   6.937
 4263SOL     OW13687   2.595   2.486   4.097
 4263SOL    HW113688   2.604   2.503   4.195
 4263SOL    HW213689   2.567   2.571   4.051
 4264SOL     OW13690   5.398   1.431   4.687
 4264SOL    HW113691   5.490   1.462   4.708
 4264SOL    HW213692   5.402   1.357   4.620
 4265SOL     OW13693   3.583   1.271   0.601
 4265SOL    HW113694   3.575   1.299   0.696
 4265SOL    HW213695   3.608   1.174   0.597
 4266SOL     OW13696   1.703   6.650   0.894
 4266SOL    HW113697   1.747   6.611   0.814
 4266SOL    HW213698   1.720   6.592   0.974
 4267SOL     OW13699   1.777   4.486   4.907
 4267SOL    HW113700   1.735   4.448   4.825
 4267SOL    HW213701   1.740   4.441   4.988
 4268SOL     OW13702   1.180   4.255   6.410
 4268SOL    HW113703   1.254   4.312   6.446
 4268SOL    HW213704   1.103   4.314   6.383
 4269SOL     OW13705   2.740   1.458   4.481
 4269SOL    HW113706   2.749   1.548   4.440
 4269SOL    HW213707   2.644   1.430   4.482
 4270SOL     OW13708   3.856   2.559   0.576
 4270SOL    HW113709   3.833   2.465   0.551
 4270SOL    HW213710   3.936   2.589   0.523
 4271SOL     OW13711   6.919   0.838   1.105
 4271SOL    HW113712   7.013   0.824   1.073
 4271SOL    HW213713   6.896   0.768   1.172
 4272SOL     OW13714   6.653   1.323   6.191
 4272SOL    HW113715   6.572   1.285   6.235
 4272SOL    HW213716   6.632   1.350   6.097
 4273SOL     OW13717   3.708   5.514   4.856
 4273SOL    HW113718   3.635   5.470   4.804
 4273SOL    HW213719   3.770   5.562   4.793
 4274SOL     OW13720   6.859   1.229   1.664
 4274SOL    HW113721   6.944   1.187   1.695
 4274SOL    HW213722   6.783   1.195   1.721
 4275SOL     OW13723   0.429   3.066   3.436
 4275SOL    HW113724   0.402   3.161   3.422
 4275SOL    HW213725   0.482   3.059   3.521
 4276SOL     OW13726   2.057   6.027   4.362
 4276SOL    HW113727   2.054   6.065   4.454
 4276SOL    HW213728   2.076   5.929   4.366
 4277SOL     OW13729   6.226   5.516   3.363
 4277SOL    HW113730   6.157   5.578   3.401
 4277SOL    HW213731   6.301   5.506   3.428
 4278SOL     OW13732   1.095   6.829   1.949
 4278SOL    HW113733   0.996   6.843   1.945
 4278SOL    HW213734   1.140   6.918   1.958
 4279SOL     OW13735   2.070   1.978   3.165
 4279SOL    HW113736   2.008   2.045   3.205
 4279SOL    HW213737   2.165   2.009   3.178
 4280SOL     OW13738   0.908   6.791   6.276
 4280SOL    HW113739   0.851   6.809   6.356
 4280SOL    HW213740   0.857   6.813   6.193
 4281SOL     OW13741   4.198   6.212   3.369
 4281SOL    HW113742   4.288   6.171   3.355
 4281SOL    HW213743   4.133   6.142   3.398
 4282SOL     OW13744   3.535   4.231   1.107
 4282SOL    HW113745   3.619   4.252   1.157
 4282SOL    HW213746   3.508   4.136   1.126
 4283SOL     OW13747   5.042   1.315   3.739
 4283SOL    HW113748   5.087   1.234   3.700
 4283SOL    HW213749   5.087   1.340   3.825
 4284SOL     OW13750   4.680   5.775   6.119
 4284SOL    HW113751   4.746   5.847   6.144
 4284SOL    HW213752   4.728   5.688   6.108
 4285SOL     OW13753   3.002   0.045   5.625
 4285SOL    HW113754   3.000   0.142   5.648
 4285SOL    HW213755   2.909   0.008   5.625
 4286SOL     OW13756   5.604   0.969   6.283
 4286SOL    HW113757   5.535   0.906   6.320
 4286SOL    HW213758   5.562   1.025   6.211
 4287SOL     OW13759   4.622   0.582   0.185
 4287SOL    HW113760   4.633   0.630   0.098
 4287SOL    HW213761   4.541   0.616   0.233
 4288SOL     OW13762   6.545   6.672   2.293
 4288SOL    HW113763   6.473   6.726   2.250
 4288SOL    HW213764   6.560   6.704   2.387
 4289SOL     OW13765   0.641   3.410   4.508
 4289SOL    HW113766   0.732   3.445   4.528
 4289SOL    HW213767   0.635   3.314   4.533
 4290SOL     OW13768   0.139   1.053   3.412
 4290SOL    HW113769   0.080   1.062   3.493
 4290SOL    HW213770   0.124   0.964   3.370
 4291SOL     OW13771   5.194   3.259   6.610
 4291SOL    HW113772   5.204   3.173   6.561
 4291SOL    HW213773   5.141   3.323   6.555
 4292SOL     OW13774   5.879   2.260   0.890
 4292SOL    HW113775   5.961   2.204   0.878
 4292SOL    HW213776   5.904   2.348   0.931
 4293SOL     OW13777   3.521   4.320   0.112
 4293SOL    HW113778   3.477   4.279   0.032
 4293SOL    HW213779   3.620   4.307   0.105
 4294SOL     OW13780   2.493   2.133   6.515
 4294SOL    HW113781   2.474   2.230   6.496
 4294SOL    HW213782   2.430   2.101   6.586
 4295SOL     OW13783   3.693   6.229   2.850
 4295SOL    HW113784   3.771   6.177   2.818
 4295SOL    HW213785   3.664   6.294   2.780
 4296SOL     OW13786   2.828   6.157   1.889
 4296SOL    HW113787   2.847   6.255   1.883
 4296SOL    HW213788   2.855   6.112   1.804
 4297SOL     OW13789   5.984   4.738   0.841
 4297SOL    HW113790   6.081   4.719   0.850
 4297SOL    HW213791   5.955   4.800   0.914
 4298SOL     OW13792   3.251   6.724   0.187
 4298SOL    HW113793   3.262   6.626   0.172
 4298SOL    HW213794   3.300   6.775   0.117
 4299SOL     OW13795   1.153   2.747   0.091
 4299SOL    HW113796   1.118   2.746   7.017
 4299SOL    HW213797   1.240   2.797   0.093
 4300SOL     OW13798   3.198   1.086   0.777
 4300SOL    HW113799   3.202   1.181   0.806
 4300SOL    HW213800   3.228   1.026   0.852
 4301SOL     OW13801   3.105   6.727   1.655
 4301SOL    HW113802   3.096   6.798   1.725
 4301SOL    HW213803   3.197   6.687   1.659
 4302SOL     OW13804   1.757   5.555   5.798
 4302SOL    HW113805   1.732   5.622   5.867
 4302SOL    HW213806   1.792   5.472   5.842
 4303SOL     OW13807   6.078   4.347   3.477
 4303SOL    HW113808   5.990   4.391   3.458
 4303SOL    HW213809   6.152   4.411   3.460
 4304SOL     OW13810   3.477   3.696   1.363
 4304SOL    HW113811   3.447   3.791   1.373
 4304SOL    HW213812   3.402   3.634   1.388
 4305SOL     OW13813   1.667   0.259   5.217
 4305SOL    HW113814   1.578   0.250   5.172
 4305SOL    HW213815   1.662   0.331   5.287
 4306SOL     OW13816   5.366   3.254   5.015
 4306SOL    HW113817   5.442   3.284   4.958
 4306SOL    HW213818   5.282   3.299   4.985
 4307SOL     OW13819   6.650   1.613   5.348
 4307SOL    HW113820   6.731   1.560   5.372
 4307SOL    HW213821   6.678   1.701   5.309
 4308SOL     OW13822   4.839   5.181   6.966
 4308SOL    HW113823   4.873   5.115   0.013
 4308SOL    HW213824   4.805   5.262   7.013
 4309SOL     OW13825   1.471   3.016   0.392
 4309SOL    HW113826   1.536   3.002   0.467
 4309SOL    HW213827   1.474   2.938   0.330
 4310SOL     OW13828   6.839   1.672   2.884
 4310SOL    HW113829   6.828   1.760   2.931
 4310SOL    HW213830   6.887   1.686   2.798
 4311SOL     OW13831   0.976   0.195   2.475
 4311SOL    HW113832   1.044   0.123   2.490
 4311SOL    HW213833   1.019   0.284   2.486
 4312SOL     OW13834   0.390   4.741   2.535
 4312SOL    HW113835   0.482   4.735   2.497
 4312SOL    HW213836   0.366   4.837   2.550
 4313SOL     OW13837   6.131   1.907   0.183
 4313SOL    HW113838   6.157   1.958   0.101
 4313SOL    HW213839   6.116   1.971   0.258
 4314SOL     OW13840   6.606   2.194   5.185
 4314SOL    HW113841   6.569   2.173   5.276
 4314SOL    HW213842   6.534   2.181   5.116
 4315SOL     OW13843   2.702   1.693   4.330
 4315SOL    HW113844   2.732   1.773   4.382
 4315SOL    HW213845   2.626   1.718   4.270
 4316SOL     OW13846   5.353   0.054   1.808
 4316SOL    HW113847   5.291   0.109   1.863
 4316SOL    HW213848   5.329   0.063   1.711
 4317SOL     OW13849   4.380   1.047   6.180
 4317SOL    HW113850   4.397   1.045   6.082
 4317SOL    HW213851   4.286   1.077   6.198
 4318SOL     OW13852   0.483   1.244   4.443
 4318SOL    HW113853   0.534   1.280   4.365
 4318SOL    HW213854   0.505   1.147   4.455
 4319SOL     OW13855   1.090   4.752   2.411
 4319SOL    HW113856   1.057   4.680   2.472
 4319SOL    HW213857   1.036   4.751   2.327
 4320SOL     OW13858   3.420   6.100   0.526
 4320SOL    HW113859   3.440   6.191   0.561
 4320SOL    HW213860   3.321   6.088   0.520
 4321SOL     OW13861   6.278   6.417   2.340
 4321SOL    HW113862   6.367   6.417   2.386
 4321SOL    HW213863   6.263   6.507   2.298
 4322SOL     OW13864   0.621   3.104   5.386
 4322SOL    HW113865   0.702   3.045   5.388
 4322SOL    HW213866   0.649   3.197   5.362
 4323SOL     OW13867   4.072   5.435   6.598
 4323SOL    HW113868   4.142   5.383   6.647
 4323SOL    HW213869   4.116   5.504   6.541
 4324SOL     OW13870   6.837   4.288   5.631
 4324SOL    HW113871   6.887   4.203   5.617
 4324SOL    HW213872   6.814   4.297   5.728
 4325SOL     OW13873   2.721   0.415   2.502
 4325SOL    HW113874   2.701   0.444   2.596
 4325SOL    HW213875   2.793   0.346   2.504
 4326SOL     OW13876   4.741   2.706   2.838
 4326SOL    HW113877   4.652   2.679   2.876
 4326SOL    HW213878   4.781   2.628   2.789
 4327SOL     OW13879   3.289   5.825   4.298
 4327SOL    HW113880   3.375   5.875   4.288
 4327SOL    HW213881   3.212   5.886   4.281
 4328SOL     OW13882   5.499   6.335   4.957
 4328SOL    HW113883   5.445   6.272   5.012
 4328SOL    HW213884   5.440   6.408   4.922
 4329SOL     OW13885   6.671   2.059   5.680
 4329SOL    HW113886   6.734   2.119   5.729
 4329SOL    HW213887   6.576   2.087   5.697
 4330SOL     OW13888   2.890   4.972   5.143
 4330SOL    HW113889   2.945   4.914   5.203
 4330SOL    HW213890   2.848   4.916   5.071
 4331SOL     OW13891   6.340   0.921   1.903
 4331SOL    HW113892   6.248   0.959   1.904
 4331SOL    HW213893   6.341   0.839   1.845
 4332SOL     OW13894   0.335   4.984   2.638
 4332SOL    HW113895   0.383   5.006   2.723
 4332SOL    HW213896   0.378   5.034   2.562
 4333SOL     OW13897   3.477   2.163   5.632
 4333SOL    HW113898   3.458   2.089   5.697
 4333SOL    HW213899   3.418   2.241   5.653
 4334SOL     OW13900   0.508   2.534   4.103
 4334SOL    HW113901   0.512   2.580   4.191
 4334SOL    HW213902   0.482   2.599   4.032
 4335SOL     OW13903   2.566   3.572   0.949
 4335SOL    HW113904   2.497   3.557   1.019
 4335SOL    HW213905   2.604   3.484   0.921
 4336SOL     OW13906   3.210   5.328   5.831
 4336SOL    HW113907   3.272   5.376   5.769
 4336SOL    HW213908   3.143   5.392   5.868
 4337SOL     OW13909   1.659   5.241   3.692
 4337SOL    HW113910   1.684   5.153   3.732
 4337SOL    HW213911   1.560   5.245   3.678
 4338SOL     OW13912   4.370   0.814   6.421
 4338SOL    HW113913   4.304   0.889   6.411
 4338SOL    HW213914   4.353   0.745   6.351
 4339SOL     OW13915   3.878   3.047   6.257
 4339SOL    HW113916   3.849   3.139   6.231
 4339SOL    HW213917   3.891   3.042   6.356
 4340SOL     OW13918   0.116   3.549   0.886
 4340SOL    HW113919   0.195   3.487   0.879
 4340SOL    HW213920   0.117   3.613   0.809
 4341SOL     OW13921   6.870   6.920   2.596
 4341SOL    HW113922   6.860   6.982   2.517
 4341SOL    HW213923   6.931   6.845   2.572
 4342SOL     OW13924   5.516   3.941   2.701
 4342SOL    HW113925   5.527   4.023   2.757
 4342SOL    HW213926   5.503   3.862   2.762
 4343SOL     OW13927   4.306   0.621   5.810
 4343SOL    HW113928   4.319   0.700   5.870
 4343SOL    HW213929   4.363   0.545   5.841
 4344SOL     OW13930   0.420   3.450   3.597
 4344SOL    HW113931   0.517   3.431   3.588
 4344SOL    HW213932   0.405   3.518   3.669
 4345SOL     OW13933   2.841   3.480   2.283
 4345SOL    HW113934   2.847   3.543   2.206
 4345SOL    HW213935   2.758   3.424   2.275
 4346SOL     OW13936   1.125   3.775   1.964
 4346SOL    HW113937   1.070   3.694   1.941
 4346SOL    HW213938   1.195   3.748   2.031
 4347SOL     OW13939   5.986   5.086   1.235
 4347SOL    HW113940   6.035   5.030   1.302
 4347SOL    HW213941   5.967   5.175   1.274
 4348SOL     OW13942   5.411   5.862   4.081
 4348SOL    HW113943   5.413   5.782   4.141
 4348SOL    HW213944   5.369   5.939   4.130
 4349SOL     OW13945   0.068   3.390   4.398
 4349SOL    HW113946   0.062   3.358   4.304
 4349SOL    HW213947   0.006   3.336   4.455
 4350SOL     OW13948   4.576   1.272   4.892
 4350SOL    HW113949   4.613   1.288   4.800
 4350SOL    HW213950   4.651   1.250   4.954
 4351SOL     OW13951   0.988   6.348   0.373
 4351SOL    HW113952   0.947   6.263   0.408
 4351SOL    HW213953   0.974   6.421   0.439
 4352SOL     OW13954   3.587   3.846   1.047
 4352SOL    HW113955   3.538   3.779   0.991
 4352SOL    HW213956   3.522   3.898   1.102
 4353SOL     OW13957   3.306   2.771   0.918
 4353SOL    HW113958   3.401   2.765   0.888
 4353SOL    HW213959   3.279   2.868   0.922
 4354SOL     OW13960   5.520   0.082   3.618
 4354SOL    HW113961   5.512   0.039   3.708
 4354SOL    HW213962   5.499   0.015   3.548
 4355SOL     OW13963   1.291   6.268   3.432
 4355SOL    HW113964   1.324   6.350   3.480
 4355SOL    HW213965   1.206   6.290   3.385
 4356SOL     OW13966   5.699   2.563   5.746
 4356SOL    HW113967   5.789   2.603   5.764
 4356SOL    HW213968   5.711   2.471   5.707
 4357SOL     OW13969   6.821   0.782   2.700
 4357SOL    HW113970   6.853   0.721   2.772
 4357SOL    HW213971   6.841   0.877   2.726
 4358SOL     OW13972   1.405   6.789   6.681
 4358SOL    HW113973   1.486   6.754   6.727
 4358SOL    HW213974   1.410   6.766   6.583
 4359SOL     OW13975   1.975   1.528   0.013
 4359SOL    HW113976   1.886   1.482   0.014
 4359SOL    HW213977   2.047   1.459   0.006
 4360SOL     OW13978   1.586   3.103   3.395
 4360SOL    HW113979   1.573   3.018   3.344
 4360SOL    HW213980   1.604   3.177   3.330
 4361SOL     OW13981   0.257   1.273   0.643
 4361SOL    HW113982   0.209   1.294   0.558
 4361SOL    HW213983   0.341   1.223   0.622
 4362SOL     OW13984   1.212   5.818   3.709
 4362SOL    HW113985   1.214   5.806   3.808
 4362SOL    HW213986   1.304   5.837   3.675
 4363SOL     OW13987   4.771   1.467   2.037
 4363SOL    HW113988   4.827   1.389   2.009
 4363SOL    HW213989   4.815   1.515   2.113
 4364SOL     OW13990   4.082   3.759   2.628
 4364SOL    HW113991   4.106   3.700   2.551
 4364SOL    HW213992   4.102   3.712   2.714
 4365SOL     OW13993   3.167   2.080   1.734
 4365SOL    HW113994   3.219   2.008   1.688
 4365SOL    HW213995   3.189   2.079   1.832
 4366SOL     OW13996   4.212   6.098   5.005
 4366SOL    HW113997   4.202   6.197   5.018
 4366SOL    HW213998   4.124   6.059   4.978
 4367SOL     OW13999   2.074   5.520   3.425
 4367SOL    HW114000   2.143   5.581   3.386
 4367SOL    HW214001   2.084   5.516   3.524
 4368SOL     OW14002   4.678   4.344   3.061
 4368SOL    HW114003   4.756   4.395   3.096
 4368SOL    HW214004   4.704   4.249   3.045
 4369SOL     OW14005   4.001   4.814   3.019
 4369SOL    HW114006   4.070   4.745   2.997
 4369SOL    HW214007   3.969   4.857   2.935
 4370SOL     OW14008   3.937   4.399   1.523
 4370SOL    HW114009   3.869   4.331   1.549
 4370SOL    HW214010   4.012   4.354   1.474
 4371SOL     OW14011   3.317   1.120   1.335
 4371SOL    HW114012   3.399   1.082   1.377
 4371SOL    HW214013   3.238   1.103   1.393
 4372SOL     OW14014   1.979   3.089   4.400
 4372SOL    HW114015   1.885   3.103   4.368
 4372SOL    HW214016   1.998   3.154   4.473
 4373SOL     OW14017   4.673   1.310   5.247
 4373SOL    HW114018   4.671   1.407   5.270
 4373SOL    HW214019   4.580   1.274   5.244
 4374SOL     OW14020   2.232   1.538   1.571
 4374SOL    HW114021   2.262   1.586   1.653
 4374SOL    HW214022   2.284   1.453   1.561
 4375SOL     OW14023   4.477   0.811   3.592
 4375SOL    HW114024   4.448   0.898   3.552
 4375SOL    HW214025   4.444   0.806   3.687
 4376SOL     OW14026   0.040   6.623   1.335
 4376SOL    HW114027   0.076   6.541   1.381
 4376SOL    HW214028   7.012   6.680   1.402
 4377SOL     OW14029   5.705   6.762   6.433
 4377SOL    HW114030   5.663   6.850   6.452
 4377SOL    HW214031   5.666   6.692   6.492
 4378SOL     OW14032   2.033   5.282   2.958
 4378SOL    HW114033   2.074   5.220   2.891
 4378SOL    HW214034   1.992   5.229   3.032
 4379SOL     OW14035   1.069   0.338   1.841
 4379SOL    HW114036   1.071   0.437   1.853
 4379SOL    HW214037   1.036   0.316   1.749
 4380SOL     OW14038   1.492   5.847   5.405
 4380SOL    HW114039   1.471   5.793   5.323
 4380SOL    HW214040   1.477   5.944   5.385
 4381SOL     OW14041   3.514   6.313   4.802
 4381SOL    HW114042   3.566   6.378   4.858
 4381SOL    HW214043   3.439   6.276   4.856
 4382SOL     OW14044   4.803   3.965   4.096
 4382SOL    HW114045   4.739   4.011   4.157
 4382SOL    HW214046   4.874   3.919   4.150
 4383SOL     OW14047   0.548   3.028   5.906
 4383SOL    HW114048   0.640   3.043   5.872
 4383SOL    HW214049   0.551   2.992   5.999
 4384SOL     OW14050   3.624   5.956   0.654
 4384SOL    HW114051   3.592   5.891   0.723
 4384SOL    HW214052   3.547   5.987   0.599
 4385SOL     OW14053   0.570   2.570   2.271
 4385SOL    HW114054   0.567   2.538   2.176
 4385SOL    HW214055   0.552   2.493   2.333
 4386SOL     OW14056   1.015   3.088   6.695
 4386SOL    HW114057   1.010   3.100   6.596
 4386SOL    HW214058   0.923   3.075   6.732
 4387SOL     OW14059   0.050   3.187   1.913
 4387SOL    HW114060   0.086   3.095   1.931
 4387SOL    HW214061   0.105   3.231   1.843
 4388SOL     OW14062   3.523   0.955   6.004
 4388SOL    HW114063   3.611   0.934   5.960
 4388SOL    HW214064   3.534   1.034   6.064
 4389SOL     OW14065   5.378   2.712   2.808
 4389SOL    HW114066   5.425   2.737   2.723
 4389SOL    HW214067   5.279   2.724   2.796
 4390SOL     OW14068   4.696   2.791   2.260
 4390SOL    HW114069   4.740   2.705   2.233
 4390SOL    HW214070   4.676   2.846   2.179
 4391SOL     OW14071   1.334   5.693   0.368
 4391SOL    HW114072   1.267   5.630   0.408
 4391SOL    HW214073   1.286   5.762   0.314
 4392SOL     OW14074   4.985   2.885   4.383
 4392SOL    HW114075   4.920   2.875   4.307
 4392SOL    HW214076   5.024   2.977   4.381
 4393SOL     OW14077   4.694   6.617   3.057
 4393SOL    HW114078   4.757   6.544   3.031
 4393SOL    HW214079   4.642   6.646   2.977
 4394SOL     OW14080   5.137   0.299   2.780
 4394SOL    HW114081   5.178   0.319   2.869
 4394SOL    HW214082   5.038   0.289   2.791
 4395SOL     OW14083   5.727   1.917   1.836
 4395SOL    HW114084   5.690   1.946   1.925
 4395SOL    HW214085   5.822   1.889   1.848
 4396SOL     OW14086   1.056   0.831   4.235
 4396SOL    HW114087   1.079   0.873   4.147
 4396SOL    HW214088   1.139   0.823   4.291
 4397SOL     OW14089   6.476   0.068   5.075
 4397SOL    HW114090   6.553   0.035   5.020
 4397SOL    HW214091   6.473   0.168   5.070
 4398SOL     OW14092   0.346   4.335   4.601
 4398SOL    HW114093   0.295   4.328   4.515
 4398SOL    HW214094   0.297   4.394   4.665
 4399SOL     OW14095   2.013   1.378   0.980
 4399SOL    HW114096   2.024   1.369   0.881
 4399SOL    HW214097   1.962   1.462   1.001
 4400SOL     OW14098   3.213   6.432   4.635
 4400SOL    HW114099   3.157   6.444   4.718
 4400SOL    HW214100   3.246   6.338   4.631
 4401SOL     OW14101   5.723   5.982   4.741
 4401SOL    HW114102   5.745   5.962   4.837
 4401SOL    HW214103   5.643   6.041   4.737
 4402SOL     OW14104   0.465   6.444   2.915
 4402SOL    HW114105   0.418   6.531   2.896
 4402SOL    HW214106   0.564   6.459   2.915
 4403SOL     OW14107   0.832   0.379   3.580
 4403SOL    HW114108   0.820   0.476   3.601
 4403SOL    HW214109   0.817   0.364   3.482
 4404SOL     OW14110   0.849   4.029   3.576
 4404SOL    HW114111   0.864   3.956   3.643
 4404SOL    HW214112   0.892   4.004   3.489
 4405SOL     OW14113   3.390   4.268   5.826
 4405SOL    HW114114   3.299   4.302   5.802
 4405SOL    HW214115   3.452   4.283   5.749
 4406SOL     OW14116   5.896   4.189   1.245
 4406SOL    HW114117   5.836   4.137   1.305
 4406SOL    HW214118   5.989   4.190   1.282
 4407SOL     OW14119   5.737   0.194   6.876
 4407SOL    HW114120   5.831   0.227   6.872
 4407SOL    HW214121   5.700   0.186   6.783
 4408SOL     OW14122   4.526   6.877   6.252
 4408SOL    HW114123   4.573   6.941   6.190
 4408SOL    HW214124   4.575   6.790   6.253
 4409SOL     OW14125   3.636   0.526   1.527
 4409SOL    HW114126   3.721   0.516   1.579
 4409SOL    HW214127   3.559   0.534   1.590
 4410SOL     OW14128   2.228   5.146   1.959
 4410SOL    HW114129   2.295   5.203   1.912
 4410SOL    HW214130   2.140   5.152   1.913
 4411SOL     OW14131   3.882   3.226   2.802
 4411SOL    HW114132   3.916   3.150   2.857
 4411SOL    HW214133   3.868   3.306   2.861
 4412SOL     OW14134   3.782   1.255   6.777
 4412SOL    HW114135   3.877   1.276   6.799
 4412SOL    HW214136   3.746   1.189   6.843
 4413SOL     OW14137   4.306   6.466   4.488
 4413SOL    HW114138   4.305   6.506   4.579
 4413SOL    HW214139   4.221   6.491   4.440
 4414SOL     OW14140   3.891   4.985   1.862
 4414SOL    HW114141   3.853   4.957   1.950
 4414SOL    HW214142   3.846   4.933   1.788
 4415SOL     OW14143   5.264   2.586   6.729
 4415SOL    HW114144   5.273   2.612   6.826
 4415SOL    HW214145   5.324   2.509   6.710
 4416SOL     OW14146   3.179   0.229   4.562
 4416SOL    HW114147   3.105   0.176   4.604
 4416SOL    HW214148   3.247   0.252   4.631
 4417SOL     OW14149   0.117   6.150   2.300
 4417SOL    HW114150   0.099   6.229   2.359
 4417SOL    HW214151   0.149   6.182   2.211
 4418SOL     OW14152   3.608   0.045   3.739
 4418SOL    HW114153   3.560   0.094   3.666
 4418SOL    HW214154   3.541   0.005   3.802
 4419SOL     OW14155   0.354   5.220   6.798
 4419SOL    HW114156   0.369   5.127   6.832
 4419SOL    HW214157   0.402   5.284   6.857
 4420SOL     OW14158   5.423   1.775   6.568
 4420SOL    HW114159   5.378   1.690   6.595
 4420SOL    HW214160   5.489   1.802   6.638
 4421SOL     OW14161   1.432   1.592   3.408
 4421SOL    HW114162   1.380   1.610   3.325
 4421SOL    HW214163   1.528   1.575   3.384
 4422SOL     OW14164   1.779   4.257   6.054
 4422SOL    HW114165   1.805   4.267   5.958
 4422SOL    HW214166   1.804   4.166   6.087
 4423SOL     OW14167   1.497   2.086   6.399
 4423SOL    HW114168   1.417   2.046   6.354
 4423SOL    HW214169   1.474   2.109   6.493
 4424SOL     OW14170   6.713   0.140   2.851
 4424SOL    HW114171   6.729   0.145   2.753
 4424SOL    HW214172   6.725   0.231   2.891
 4425SOL     OW14173   4.256   4.623   6.521
 4425SOL    HW114174   4.220   4.547   6.467
 4425SOL    HW214175   4.258   4.706   6.464
 4426SOL     OW14176   0.372   0.475   5.632
 4426SOL    HW114177   0.400   0.455   5.726
 4426SOL    HW214178   0.348   0.389   5.586
 4427SOL     OW14179   1.389   0.512   3.112
 4427SOL    HW114180   1.378   0.501   3.211
 4427SOL    HW214181   1.428   0.428   3.074
 4428SOL     OW14182   2.301   5.768   4.058
 4428SOL    HW114183   2.247   5.759   3.974
 4428SOL    HW214184   2.330   5.864   4.069
 4429SOL     OW14185   3.413   6.869   3.358
 4429SOL    HW114186   3.431   6.790   3.298
 4429SOL    HW214187   3.393   6.836   3.450
 4430SOL     OW14188   2.460   0.634   2.380
 4430SOL    HW114189   2.526   0.707   2.361
 4430SOL    HW214190   2.439   0.584   2.296
 4431SOL     OW14191   2.652   1.947   3.577
 4431SOL    HW114192   2.691   1.962   3.486
 4431SOL    HW214193   2.707   1.995   3.645
 4432SOL     OW14194   2.974   3.747   2.955
 4432SOL    HW114195   3.043   3.789   3.014
 4432SOL    HW214196   2.900   3.813   2.937
 4433SOL     OW14197   6.060   6.904   2.327
 4433SOL    HW114198   6.123   6.953   2.387
 4433SOL    HW214199   6.021   6.968   2.261
 4434SOL     OW14200   6.224   2.750   4.228
 4434SOL    HW114201   6.240   2.784   4.321
 4434SOL    HW214202   6.130   2.716   4.220
 4435SOL     OW14203   3.570   2.906   1.623
 4435SOL    HW114204   3.545   3.003   1.626
 4435SOL    HW214205   3.602   2.877   1.713
 4436SOL     OW14206   4.890   1.704   6.678
 4436SOL    HW114207   4.831   1.631   6.712
 4436SOL    HW214208   4.922   1.760   6.754
 4437SOL     OW14209   3.303   1.063   4.664
 4437SOL    HW114210   3.274   0.996   4.595
 4437SOL    HW214211   3.311   1.153   4.621
 4438SOL     OW14212   4.446   2.816   6.881
 4438SOL    HW114213   4.447   2.914   6.901
 4438SOL    HW214214   4.353   2.790   6.853
 4439SOL     OW14215   1.940   5.847   2.415
 4439SOL    HW114216   1.950   5.944   2.434
 4439SOL    HW214217   1.890   5.803   2.491
 4440SOL     OW14218   1.008   0.037   6.463
 4440SOL    HW114219   0.916   0.009   6.434
 4440SOL    HW214220   1.005   0.064   6.560
 4441SOL     OW14221   5.645   2.768   2.924
 4441SOL    HW114222   5.616   2.687   2.975
 4441SOL    HW214223   5.567   2.806   2.874
 4442SOL     OW14224   3.248   6.015   3.585
 4442SOL    HW114225   3.165   5.989   3.634
 4442SOL    HW214226   3.298   5.932   3.560
 4443SOL     OW14227   2.493   1.778   5.792
 4443SOL    HW114228   2.554   1.853   5.821
 4443SOL    HW214229   2.487   1.710   5.865
 4444SOL     OW14230   5.651   0.074   1.115
 4444SOL    HW114231   5.586   0.073   1.191
 4444SOL    HW214232   5.604   0.045   1.031
 4445SOL     OW14233   1.236   0.769   6.204
 4445SOL    HW114234   1.152   0.822   6.197
 4445SOL    HW214235   1.304   0.819   6.258
 4446SOL     OW14236   6.641   0.178   2.522
 4446SOL    HW114237   6.739   0.195   2.533
 4446SOL    HW214238   6.598   0.256   2.476
 4447SOL     OW14239   5.361   2.492   5.548
 4447SOL    HW114240   5.436   2.425   5.550
 4447SOL    HW214241   5.310   2.483   5.463
 4448SOL     OW14242   2.372   3.765   6.908
 4448SOL    HW114243   2.366   3.679   6.859
 4448SOL    HW214244   2.468   3.782   6.934
 4449SOL     OW14245   1.510   1.536   5.129
 4449SOL    HW114246   1.548   1.529   5.221
 4449SOL    HW214247   1.470   1.627   5.116
 4450SOL     OW14248   3.798   3.316   3.379
 4450SOL    HW114249   3.874   3.254   3.396
 4450SOL    HW214250   3.718   3.263   3.350
 4451SOL     OW14251   6.678   4.907   2.219
 4451SOL    HW114252   6.762   4.853   2.212
 4451SOL    HW214253   6.677   4.956   2.307
 4452SOL     OW14254   6.132   6.365   6.545
 4452SOL    HW114255   6.135   6.387   6.448
 4452SOL    HW214256   6.194   6.427   6.594
 4453SOL     OW14257   5.181   2.625   1.147
 4453SOL    HW114258   5.165   2.596   1.241
 4453SOL    HW214259   5.195   2.544   1.090
 4454SOL     OW14260   5.652   3.239   1.447
 4454SOL    HW114261   5.736   3.247   1.394
 4454SOL    HW214262   5.575   3.223   1.384
 4455SOL     OW14263   4.059   1.548   2.400
 4455SOL    HW114264   3.969   1.577   2.366
 4455SOL    HW214265   4.130   1.604   2.358
 4456SOL     OW14266   1.340   5.003   3.346
 4456SOL    HW114267   1.291   4.920   3.375
 4456SOL    HW214268   1.438   4.992   3.363
 4457SOL     OW14269   5.478   1.937   6.156
 4457SOL    HW114270   5.530   1.909   6.076
 4457SOL    HW214271   5.382   1.950   6.131
 4458SOL     OW14272   3.556   2.423   6.367
 4458SOL    HW114273   3.619   2.456   6.296
 4458SOL    HW214274   3.488   2.494   6.386
 4459SOL     OW14275   4.958   6.777   4.558
 4459SOL    HW114276   5.051   6.747   4.581
 4459SOL    HW214277   4.939   6.757   4.462
 4460SOL     OW14278   3.107   2.255   6.218
 4460SOL    HW114279   3.122   2.298   6.307
 4460SOL    HW214280   3.194   2.247   6.169
 4461SOL     OW14281   2.101   7.003   2.541
 4461SOL    HW114282   2.020   6.961   2.500
 4461SOL    HW214283   2.136   0.053   2.479
 4462SOL     OW14284   6.977   5.262   1.133
 4462SOL    HW114285   0.015   5.183   1.155
 4462SOL    HW214286   6.991   5.288   1.037
 4463SOL     OW14287   1.707   3.686   5.985
 4463SOL    HW114288   1.776   3.614   5.996
 4463SOL    HW214289   1.692   3.731   6.073
 4464SOL     OW14290   5.403   3.731   6.342
 4464SOL    HW114291   5.424   3.654   6.402
 4464SOL    HW214292   5.487   3.781   6.321
 4465SOL     OW14293   1.291   6.143   1.929
 4465SOL    HW114294   1.298   6.115   2.024
 4465SOL    HW214295   1.247   6.071   1.876
 4466SOL     OW14296   1.013   1.851   3.022
 4466SOL    HW114297   1.083   1.848   3.094
 4466SOL    HW214298   0.973   1.942   3.017
 4467SOL     OW14299   1.300   6.527   3.779
 4467SOL    HW114300   1.212   6.548   3.821
 4467SOL    HW214301   1.374   6.556   3.840
 4468SOL     OW14302   1.210   2.843   0.443
 4468SOL    HW114303   1.295   2.887   0.415
 4468SOL    HW214304   1.135   2.873   0.383
 4469SOL     OW14305   4.090   0.250   0.604
 4469SOL    HW114306   4.017   0.238   0.537
 4469SOL    HW214307   4.075   0.334   0.655
 4470SOL     OW14308   4.784   3.818   1.227
 4470SOL    HW114309   4.805   3.865   1.141
 4470SOL    HW214310   4.733   3.879   1.287
 4471SOL     OW14311   6.532   3.053   1.102
 4471SOL    HW114312   6.591   3.134   1.102
 4471SOL    HW214313   6.583   2.975   1.137
 4472SOL     OW14314   1.849   4.198   2.310
 4472SOL    HW114315   1.770   4.144   2.281
 4472SOL    HW214316   1.867   4.183   2.407
 4473SOL     OW14317   6.862   6.841   4.402
 4473SOL    HW114318   6.814   6.800   4.480
 4473SOL    HW214319   6.796   6.866   4.332
 4474SOL     OW14320   4.512   0.487   2.709
 4474SOL    HW114321   4.462   0.574   2.707
 4474SOL    HW214322   4.521   0.456   2.804
 4475SOL     OW14323   1.902   4.065   0.274
 4475SOL    HW114324   1.868   4.025   0.359
 4475SOL    HW214325   1.968   4.003   0.232
 4476SOL     OW14326   4.879   6.358   2.186
 4476SOL    HW114327   4.913   6.290   2.251
 4476SOL    HW214328   4.849   6.313   2.102
 4477SOL     OW14329   1.660   1.435   0.545
 4477SOL    HW114330   1.587   1.498   0.572
 4477SOL    HW214331   1.698   1.464   0.457
 4478SOL     OW14332   2.048   6.620   2.327
 4478SOL    HW114333   1.998   6.540   2.294
 4478SOL    HW214334   1.996   6.665   2.399
 4479SOL     OW14335   1.366   0.285   5.555
 4479SOL    HW114336   1.399   0.192   5.539
 4479SOL    HW214337   1.441   0.342   5.589
 4480SOL     OW14338   1.036   4.831   4.594
 4480SOL    HW114339   1.102   4.837   4.669
 4480SOL    HW214340   0.946   4.806   4.632
 4481SOL     OW14341   1.263   6.323   4.302
 4481SOL    HW114342   1.229   6.279   4.386
 4481SOL    HW214343   1.252   6.259   4.226
 4482SOL     OW14344   0.446   4.802   3.983
 4482SOL    HW114345   0.430   4.718   4.034
 4482SOL    HW214346   0.377   4.870   4.008
 4483SOL     OW14347   5.382   3.082   1.800
 4483SOL    HW114348   5.312   3.149   1.773
 4483SOL    HW214349   5.473   3.122   1.786
 4484SOL     OW14350   3.691   2.504   5.427
 4484SOL    HW114351   3.653   2.592   5.397
 4484SOL    HW214352   3.791   2.508   5.423
 4485SOL     OW14353   5.062   1.587   6.460
 4485SOL    HW114354   4.971   1.553   6.436
 4485SOL    HW214355   5.057   1.633   6.549
 4486SOL     OW14356   6.287   3.213   4.519
 4486SOL    HW114357   6.305   3.134   4.460
 4486SOL    HW214358   6.282   3.296   4.462
 4487SOL     OW14359   2.960   3.229   6.537
 4487SOL    HW114360   2.861   3.219   6.548
 4487SOL    HW214361   2.980   3.273   6.449
 4488SOL     OW14362   6.649   1.694   4.445
 4488SOL    HW114363   6.561   1.735   4.471
 4488SOL    HW214364   6.644   1.665   4.349
 4489SOL     OW14365   5.765   6.695   4.623
 4489SOL    HW114366   5.773   6.612   4.678
 4489SOL    HW214367   5.782   6.775   4.680
 4490SOL     OW14368   6.473   1.841   2.947
 4490SOL    HW114369   6.531   1.764   2.971
 4490SOL    HW214370   6.383   1.808   2.918
 4491SOL     OW14371   0.781   3.836   2.624
 4491SOL    HW114372   0.804   3.755   2.678
 4491SOL    HW214373   0.682   3.848   2.624
 4492SOL     OW14374   4.932   3.024   0.290
 4492SOL    HW114375   4.959   2.969   0.211
 4492SOL    HW214376   4.836   3.050   0.281
 4493SOL     OW14377   5.846   5.816   4.457
 4493SOL    HW114378   5.766   5.828   4.398
 4493SOL    HW214379   5.875   5.906   4.491
 4494SOL     OW14380   6.710   4.203   5.273
 4494SOL    HW114381   6.801   4.165   5.290
 4494SOL    HW214382   6.703   4.230   5.177
 4495SOL     OW14383   4.818   6.402   1.727
 4495SOL    HW114384   4.912   6.372   1.748
 4495SOL    HW214385   4.761   6.322   1.709
 4496SOL     OW14386   5.050   3.544   5.396
 4496SOL    HW114387   5.013   3.540   5.303
 4496SOL    HW214388   5.149   3.554   5.392
 4497SOL     OW14389   6.238   5.238   0.378
 4497SOL    HW114390   6.243   5.191   0.289
 4497SOL    HW214391   6.172   5.192   0.437
 4498SOL     OW14392   0.163   3.303   0.117
 4498SOL    HW114393   0.246   3.342   0.077
 4498SOL    HW214394   0.181   3.208   0.143
 4499SOL     OW14395   0.003   2.932   6.018
 4499SOL    HW114396   0.032   2.940   6.113
 4499SOL    HW214397   7.000   3.022   5.981
 4500SOL     OW14398   2.998   3.669   4.344
 4500SOL    HW114399   2.955   3.678   4.434
 4500SOL    HW214400   3.067   3.596   4.347
 4501SOL     OW14401   7.005   4.524   5.862
 4501SOL    HW114402   6.917   4.475   5.866
 4501SOL    HW214403   0.060   4.458   5.855
 4502SOL     OW14404   0.809   2.351   6.919
 4502SOL    HW114405   0.868   2.392   6.849
 4502SOL    HW214406   0.775   2.423   6.980
 4503SOL     OW14407   1.263   1.495   3.613
 4503SOL    HW114408   1.213   1.411   3.596
 4503SOL    HW214409   1.339   1.503   3.547
 4504SOL     OW14410   5.472   2.542   4.557
 4504SOL    HW114411   5.447   2.446   4.562
 4504SOL    HW214412   5.532   2.557   4.478
 4505SOL     OW14413   1.596   6.439   5.227
 4505SOL    HW114414   1.609   6.449   5.325
 4505SOL    HW214415   1.597   6.529   5.184
 4506SOL     OW14416   4.012   0.430   5.164
 4506SOL    HW114417   3.957   0.476   5.095
 4506SOL    HW214418   4.031   0.336   5.135
 4507SOL     OW14419   5.693   4.303   0.648
 4507SOL    HW114420   5.636   4.328   0.726
 4507SOL    HW214421   5.638   4.304   0.565
 4508SOL     OW14422   1.132   3.629   6.776
 4508SOL    HW114423   1.188   3.706   6.743
 4508SOL    HW214424   1.161   3.606   6.869
 4509SOL     OW14425   3.025   1.654   4.843
 4509SOL    HW114426   2.929   1.630   4.832
 4509SOL    HW214427   3.077   1.625   4.762
 4510SOL     OW14428   4.874   0.331   5.221
 4510SOL    HW114429   4.870   0.327   5.122
 4510SOL    HW214430   4.969   0.340   5.250
 4511SOL     OW14431   6.460   2.563   0.608
 4511SOL    HW114432   6.537   2.532   0.664
 4511SOL    HW214433   6.387   2.495   0.611
 4512SOL     OW14434   2.791   5.682   6.843
 4512SOL    HW114435   2.808   5.659   6.748
 4512SOL    HW214436   2.805   5.780   6.857
 4513SOL     OW14437   4.955   0.497   1.844
 4513SOL    HW114438   4.953   0.596   1.831
 4513SOL    HW214439   5.050   0.467   1.847
 4514SOL     OW14440   2.881   1.238   5.351
 4514SOL    HW114441   2.865   1.294   5.269
 4514SOL    HW214442   2.855   1.290   5.432
 4515SOL     OW14443   0.504   4.983   0.595
 4515SOL    HW114444   0.451   4.946   0.672
 4515SOL    HW214445   0.486   5.081   0.587
 4516SOL     OW14446   1.002   1.155   5.273
 4516SOL    HW114447   0.917   1.199   5.244
 4516SOL    HW214448   1.007   1.154   5.373
 4517SOL     OW14449   3.537   6.701   5.582
 4517SOL    HW114450   3.595   6.756   5.522
 4517SOL    HW214451   3.552   6.604   5.562
 4518SOL     OW14452   0.871   2.439   3.588
 4518SOL    HW114453   0.842   2.430   3.683
 4518SOL    HW214454   0.841   2.359   3.536
 4519SOL     OW14455   0.185   3.000   3.684
 4519SOL    HW114456   0.211   3.096   3.670
 4519SOL    HW214457   0.129   2.969   3.606
 4520SOL     OW14458   6.845   4.679   3.306
 4520SOL    HW114459   6.938   4.714   3.306
 4520SOL    HW214460   6.839   4.599   3.246
 4521SOL     OW14461   5.427   2.962   6.894
 4521SOL    HW114462   5.524   2.950   6.917
 4521SOL    HW214463   5.413   3.053   6.855
 4522SOL     OW14464   6.413   7.019   4.089
 4522SOL    HW114465   6.427   6.988   3.995
 4522SOL    HW214466   6.317   7.009   4.114
 4523SOL     OW14467   3.233   4.042   6.826
 4523SOL    HW114468   3.244   3.954   6.779
 4523SOL    HW214469   3.138   4.053   6.854
 4524SOL     OW14470   5.113   0.540   4.851
 4524SOL    HW114471   5.167   0.564   4.931
 4524SOL    HW214472   5.047   0.613   4.832
 4525SOL     OW14473   6.259   1.682   4.900
 4525SOL    HW114474   6.318   1.611   4.861
 4525SOL    HW214475   6.270   1.766   4.846
 4526SOL     OW14476   4.869   6.501   0.763
 4526SOL    HW114477   4.953   6.530   0.718
 4526SOL    HW214478   4.819   6.438   0.704
 4527SOL     OW14479   5.168   0.605   2.396
 4527SOL    HW114480   5.084   0.562   2.364
 4527SOL    HW214481   5.173   0.599   2.496
 4528SOL     OW14482   5.833   7.003   0.713
 4528SOL    HW114483   5.881   6.986   0.627
 4528SOL    HW214484   5.803   6.917   0.753
 4529SOL     OW14485   3.154   0.060   2.898
 4529SOL    HW114486   3.197   0.010   2.973
 4529SOL    HW214487   3.108   0.141   2.935
 4530SOL     OW14488   0.273   3.079   5.877
 4530SOL    HW114489   0.208   3.051   5.948
 4530SOL    HW214490   0.360   3.031   5.891
 4531SOL     OW14491   0.311   3.276   3.945
 4531SOL    HW114492   0.398   3.250   3.904
 4531SOL    HW214493   0.249   3.198   3.947
 4532SOL     OW14494   6.359   1.105   0.949
 4532SOL    HW114495   6.388   1.014   0.919
 4532SOL    HW214496   6.420   1.137   1.021
 4533SOL     OW14497   1.851   5.681   3.012
 4533SOL    HW114498   1.939   5.722   3.035
 4533SOL    HW214499   1.861   5.625   2.929
 4534SOL     OW14500   6.076   3.735   5.166
 4534SOL    HW114501   5.977   3.744   5.177
 4534SOL    HW214502   6.111   3.666   5.228
 4535SOL     OW14503   4.865   3.079   2.275
 4535SOL    HW114504   4.835   3.035   2.360
 4535SOL    HW214505   4.816   3.038   2.198
 4536SOL     OW14506   5.861   1.006   4.778
 4536SOL    HW114507   5.801   1.081   4.750
 4536SOL    HW214508   5.898   1.026   4.869
 4537SOL     OW14509   3.988   2.721   6.986
 4537SOL    HW114510   3.964   2.647   6.923
 4537SOL    HW214511   3.906   2.772   7.010
 4538SOL     OW14512   3.433   1.454   3.096
 4538SOL    HW114513   3.439   1.356   3.077
 4538SOL    HW214514   3.511   1.482   3.152
 4539SOL     OW14515   2.319   1.939   2.779
 4539SOL    HW114516   2.338   2.021   2.833
 4539SOL    HW214517   2.394   1.923   2.716
 4540SOL     OW14518   3.816   3.394   4.648
 4540SOL    HW114519   3.811   3.488   4.613
 4540SOL    HW214520   3.897   3.384   4.706
 4541SOL     OW14521   5.094   2.013   1.317
 4541SOL    HW114522   5.148   2.084   1.363
 4541SOL    HW214523   5.033   1.970   1.382
 4542SOL     OW14524   5.722   6.620   2.514
 4542SOL    HW114525   5.732   6.525   2.543
 4542SOL    HW214526   5.732   6.680   2.594
 4543SOL     OW14527   5.772   1.492   1.104
 4543SOL    HW114528   5.714   1.446   1.037
 4543SOL    HW214529   5.737   1.584   1.121
 4544SOL     OW14530   3.347   5.482   6.699
 4544SOL    HW114531   3.259   5.507   6.741
 4544SOL    HW214532   3.363   5.384   6.711
 4545SOL     OW14533   3.697   2.319   5.720
 4545SOL    HW114534   3.651   2.407   5.710
 4545SOL    HW214535   3.629   2.249   5.742
 4546SOL     OW14536   0.860   6.524   6.577
 4546SOL    HW114537   0.896   6.432   6.562
 4546SOL    HW214538   0.827   6.561   6.490
 4547SOL     OW14539   5.314   2.630   1.575
 4547SOL    HW114540   5.292   2.706   1.635
 4547SOL    HW214541   5.384   2.572   1.618
 4548SOL     OW14542   0.546   4.041   3.640
 4548SOL    HW114543   0.641   4.071   3.629
 4548SOL    HW214544   0.539   3.943   3.621
 4549SOL     OW14545   6.634   3.090   2.975
 4549SOL    HW114546   6.571   3.109   3.050
 4549SOL    HW214547   6.726   3.074   3.011
 4550SOL     OW14548   0.974   5.390   3.562
 4550SOL    HW114549   0.935   5.324   3.499
 4550SOL    HW214550   0.910   5.466   3.576
 4551SOL     OW14551   0.891   2.813   5.464
 4551SOL    HW114552   0.977   2.804   5.414
 4551SOL    HW214553   0.821   2.757   5.420
 4552SOL     OW14554   0.320   3.399   4.654
 4552SOL    HW114555   0.282   3.418   4.563
 4552SOL    HW214556   0.365   3.310   4.652
 4553SOL     OW14557   4.415   5.008   0.392
 4553SOL    HW114558   4.376   4.927   0.347
 4553SOL    HW214559   4.481   5.051   0.332
 4554SOL     OW14560   4.524   6.984   2.903
 4554SOL    HW114561   4.600   0.029   2.907
 4554SOL    HW214562   4.450   7.016   2.963
 4555SOL     OW14563   5.335   2.327   6.529
 4555SOL    HW114564   5.346   2.395   6.456
 4555SOL    HW214565   5.246   2.283   6.520
 4556SOL     OW14566   4.069   0.833   3.594
 4556SOL    HW114567   3.977   0.871   3.581
 4556SOL    HW214568   4.093   0.835   3.691
 4557SOL     OW14569   5.617   0.317   5.979
 4557SOL    HW114570   5.590   0.359   6.066
 4557SOL    HW214571   5.707   0.274   5.989
 4558SOL     OW14572   6.494   3.312   6.747
 4558SOL    HW114573   6.399   3.282   6.745
 4558SOL    HW214574   6.502   3.393   6.805
 4559SOL     OW14575   1.756   6.452   1.261
 4559SOL    HW114576   1.738   6.380   1.195
 4559SOL    HW214577   1.853   6.474   1.261
 4560SOL     OW14578   5.166   3.213   3.081
 4560SOL    HW114579   5.067   3.222   3.070
 4560SOL    HW214580   5.192   3.242   3.173
 4561SOL     OW14581   3.471   0.413   6.777
 4561SOL    HW114582   3.468   0.432   6.679
 4561SOL    HW214583   3.380   0.383   6.807
 4562SOL     OW14584   2.748   5.123   7.014
 4562SOL    HW114585   2.783   5.177   6.938
 4562SOL    HW214586   2.653   5.098   6.996
 4563SOL     OW14587   5.681   1.856   6.758
 4563SOL    HW114588   5.749   1.929   6.769
 4563SOL    HW214589   5.615   1.860   6.832
 4564SOL     OW14590   1.745   6.294   0.325
 4564SOL    HW114591   1.739   6.351   0.243
 4564SOL    HW214592   1.722   6.200   0.302
 4565SOL     OW14593   0.908   0.880   5.483
 4565SOL    HW114594   0.849   0.898   5.404
 4565SOL    HW214595   0.936   0.967   5.524
 4566SOL     OW14596   6.847   0.732   6.971
 4566SOL    HW114597   6.789   0.650   6.961
 4566SOL    HW214598   6.830   0.774   0.040
 4567SOL     OW14599   6.687   1.458   0.936
 4567SOL    HW114600   6.645   1.491   0.851
 4567SOL    HW214601   6.760   1.520   0.963
 4568SOL     OW14602   3.203   4.499   5.677
 4568SOL    HW114603   3.295   4.516   5.642
 4568SOL    HW214604   3.144   4.576   5.654
 4569SOL     OW14605   0.864   1.700   4.367
 4569SOL    HW114606   0.959   1.731   4.370
 4569SOL    HW214607   0.841   1.653   4.452
 4570SOL     OW14608   6.921   5.858   3.831
 4570SOL    HW114609   6.877   5.789   3.889
 4570SOL    HW214610   7.014   5.828   3.808
 4571SOL     OW14611   3.122   3.342   4.836
 4571SOL    HW114612   3.152   3.381   4.923
 4571SOL    HW214613   3.024   3.360   4.824
 4572SOL     OW14614   1.378   6.847   1.199
 4572SOL    HW114615   1.304   6.862   1.265
 4572SOL    HW214616   1.436   6.773   1.231
 4573SOL     OW14617   5.428   5.877   0.794
 4573SOL    HW114618   5.525   5.889   0.775
 4573SOL    HW214619   5.376   5.946   0.744
 4574SOL     OW14620   0.061   4.202   1.771
 4574SOL    HW114621   6.994   4.248   1.786
 4574SOL    HW214622   0.126   4.229   1.842
 4575SOL     OW14623   6.874   0.874   2.147
 4575SOL    HW114624   6.948   0.869   2.081
 4575SOL    HW214625   6.794   0.824   2.112
 4576SOL     OW14626   3.550   5.241   6.592
 4576SOL    HW114627   3.647   5.223   6.576
 4576SOL    HW214628   3.515   5.300   6.519
 4577SOL     OW14629   1.354   3.367   2.902
 4577SOL    HW114630   1.333   3.397   2.994
 4577SOL    HW214631   1.430   3.301   2.905
 4578SOL     OW14632   0.025   3.777   4.213
 4578SOL    HW114633   0.013   3.874   4.234
 4578SOL    HW214634   6.963   3.727   4.238
 4579SOL     OW14635   5.315   2.112   3.266
 4579SOL    HW114636   5.314   2.211   3.248
 4579SOL    HW214637   5.405   2.086   3.302
 4580SOL     OW14638   6.224   6.247   0.598
 4580SOL    HW114639   6.226   6.163   0.651
 4580SOL    HW214640   6.134   6.260   0.557
 4581SOL     OW14641   3.216   5.444   3.510
 4581SOL    HW114642   3.184   5.350   3.499
 4581SOL    HW214643   3.140   5.507   3.493
 4582SOL     OW14644   5.344   6.244   3.212
 4582SOL    HW114645   5.244   6.238   3.212
 4582SOL    HW214646   5.372   6.340   3.209
 4583SOL     OW14647   3.269   1.935   5.765
 4583SOL    HW114648   3.194   1.914   5.827
 4583SOL    HW214649   3.329   1.855   5.758
 4584SOL     OW14650   0.491   5.309   5.452
 4584SOL    HW114651   0.554   5.287   5.526
 4584SOL    HW214652   0.533   5.285   5.365
 4585SOL     OW14653   3.285   6.356   3.113
 4585SOL    HW114654   3.373   6.309   3.123
 4585SOL    HW214655   3.222   6.321   3.181
 4586SOL     OW14656   3.561   5.861   1.930
 4586SOL    HW114657   3.610   5.820   2.007
 4586SOL    HW214658   3.622   5.924   1.882
 4587SOL     OW14659   2.733   3.285   1.348
 4587SOL    HW114660   2.818   3.337   1.340
 4587SOL    HW214661   2.743   3.217   1.420
 4588SOL     OW14662   3.841   3.428   5.394
 4588SOL    HW114663   3.823   3.446   5.491
 4588SOL    HW214664   3.906   3.352   5.386
 4589SOL     OW14665   6.204   2.239   4.169
 4589SOL    HW114666   6.211   2.277   4.076
 4589SOL    HW214667   6.274   2.281   4.227
 4590SOL     OW14668   4.577   5.109   2.690
 4590SOL    HW114669   4.636   5.106   2.771
 4590SOL    HW214670   4.548   5.017   2.666
 4591SOL     OW14671   5.472   5.590   5.242
 4591SOL    HW114672   5.508   5.631   5.326
 4591SOL    HW214673   5.545   5.584   5.174
 4592SOL     OW14674   4.035   2.360   6.888
 4592SOL    HW114675   3.954   2.416   6.872
 4592SOL    HW214676   4.015   2.265   6.861
 4593SOL     OW14677   3.731   6.460   2.398
 4593SOL    HW114678   3.695   6.431   2.486
 4593SOL    HW214679   3.802   6.397   2.368
 4594SOL     OW14680   2.340   1.554   1.870
 4594SOL    HW114681   2.294   1.642   1.880
 4594SOL    HW214682   2.306   1.490   1.939
 4595SOL     OW14683   4.323   3.046   6.649
 4595SOL    HW114684   4.409   3.000   6.628
 4595SOL    HW214685   4.256   2.979   6.680
 4596SOL     OW14686   5.693   6.901   2.104
 4596SOL    HW114687   5.708   6.819   2.159
 4596SOL    HW214688   5.652   6.972   2.160
 4597SOL     OW14689   5.401   4.098   6.461
 4597SOL    HW114690   5.411   4.009   6.504
 4597SOL    HW214691   5.490   4.134   6.434
 4598SOL     OW14692   2.366   5.494   6.734
 4598SOL    HW114693   2.386   5.589   6.707
 4598SOL    HW214694   2.396   5.432   6.662
 4599SOL     OW14695   1.486   4.791   1.462
 4599SOL    HW114696   1.451   4.773   1.370
 4599SOL    HW214697   1.482   4.707   1.516
 4600SOL     OW14698   2.909   5.792   0.965
 4600SOL    HW114699   2.885   5.712   0.911
 4600SOL    HW214700   2.853   5.870   0.937
 4601SOL     OW14701   2.070   0.498   5.241
 4601SOL    HW114702   2.045   0.404   5.219
 4601SOL    HW214703   2.143   0.497   5.309
 4602SOL     OW14704   1.191   0.192   2.264
 4602SOL    HW114705   1.241   0.122   2.213
 4602SOL    HW214706   1.179   0.162   2.359
 4603SOL     OW14707   3.416   6.631   1.156
 4603SOL    HW114708   3.464   6.605   1.240
 4603SOL    HW214709   3.451   6.719   1.124
 4604SOL     OW14710   3.207   0.248   2.229
 4604SOL    HW114711   3.291   0.246   2.282
 4604SOL    HW214712   3.130   0.272   2.288
 4605SOL     OW14713   5.307   0.341   4.857
 4605SOL    HW114714   5.237   0.411   4.845
 4605SOL    HW214715   5.319   0.291   4.771
 4606SOL     OW14716   6.321   6.544   5.189
 4606SOL    HW114717   6.324   6.604   5.269
 4606SOL    HW214718   6.248   6.574   5.127
 4607SOL     OW14719   3.314   1.414   1.493
 4607SOL    HW114720   3.329   1.513   1.496
 4607SOL    HW214721   3.232   1.394   1.439
 4608SOL     OW14722   2.188   4.053   5.576
 4608SOL    HW114723   2.140   4.121   5.521
 4608SOL    HW214724   2.151   3.962   5.558
 4609SOL     OW14725   4.890   6.829   0.137
 4609SOL    HW114726   4.922   6.886   0.213
 4609SOL    HW214727   4.956   6.833   0.062
 4610SOL     OW14728   0.159   3.143   6.567
 4610SOL    HW114729   0.254   3.136   6.598
 4610SOL    HW214730   0.104   3.070   6.609
 4611SOL     OW14731   0.593   3.806   0.008
 4611SOL    HW114732   0.580   3.715   6.990
 4611SOL    HW214733   0.548   3.812   0.097
 4612SOL     OW14734   2.030   6.688   6.360
 4612SOL    HW114735   2.093   6.750   6.407
 4612SOL    HW214736   2.068   6.595   6.361
 4613SOL     OW14737   3.134   5.363   2.429
 4613SOL    HW114738   3.156   5.343   2.334
 4613SOL    HW214739   3.085   5.286   2.469
 4614SOL     OW14740   1.854   5.547   0.085
 4614SOL    HW114741   1.820   5.453   0.089
 4614SOL    HW214742   1.898   5.571   0.171
 4615SOL     OW14743   1.422   2.129   0.230
 4615SOL    HW114744   1.509   2.094   0.263
 4615SOL    HW214745   1.424   2.229   0.228
 4616SOL     OW14746   5.703   0.924   6.570
 4616SOL    HW114747   5.707   1.014   6.526
 4616SOL    HW214748   5.641   0.929   6.649
 4617SOL     OW14749   0.654   2.667   1.639
 4617SOL    HW114750   0.613   2.576   1.640
 4617SOL    HW214751   0.645   2.706   1.547
 4618SOL     OW14752   0.913   2.119   6.262
 4618SOL    HW114753   0.858   2.043   6.297
 4618SOL    HW214754   0.944   2.175   6.338
 4619SOL     OW14755   3.939   0.806   3.333
 4619SOL    HW114756   4.035   0.825   3.352
 4619SOL    HW214757   3.894   0.771   3.415
 4620SOL     OW14758   2.667   4.586   6.520
 4620SOL    HW114759   2.661   4.490   6.494
 4620SOL    HW214760   2.609   4.603   6.600
 4621SOL     OW14761   0.748   0.331   5.234
 4621SOL    HW114762   0.704   0.415   5.268
 4621SOL    HW214763   0.679   0.259   5.226
 4622SOL     OW14764   1.368   3.537   0.488
 4622SOL    HW114765   1.419   3.545   0.573
 4622SOL    HW214766   1.407   3.598   0.419
 4623SOL     OW14767   6.752   4.928   1.422
 4623SOL    HW114768   6.747   5.023   1.452
 4623SOL    HW214769   6.806   4.923   1.338
 4624SOL     OW14770   5.216   0.385   4.044
 4624SOL    HW114771   5.163   0.359   3.963
 4624SOL    HW214772   5.294   0.323   4.053
 4625SOL     OW14773   1.108   3.931   6.671
 4625SOL    HW114774   1.020   3.909   6.713
 4625SOL    HW214775   1.099   3.930   6.571
 4626SOL     OW14776   6.735   5.087   1.072
 4626SOL    HW114777   6.794   5.123   1.001
 4626SOL    HW214778   6.765   4.994   1.097
 4627SOL     OW14779   3.337   6.019   5.623
 4627SOL    HW114780   3.302   5.932   5.590
 4627SOL    HW214781   3.333   6.020   5.723
 4628SOL     OW14782   6.365   4.661   2.041
 4628SOL    HW114783   6.336   4.672   2.136
 4628SOL    HW214784   6.309   4.719   1.983
 4629SOL     OW14785   2.101   4.729   5.534
 4629SOL    HW114786   2.002   4.720   5.542
 4629SOL    HW214787   2.123   4.807   5.477
 4630SOL     OW14788   2.552   5.769   2.704
 4630SOL    HW114789   2.590   5.804   2.790
 4630SOL    HW214790   2.626   5.738   2.645
 4631SOL     OW14791   2.687   6.132   2.636
 4631SOL    HW114792   2.656   6.149   2.542
 4631SOL    HW214793   2.619   6.166   2.700
 4632SOL     OW14794   5.161   5.591   4.199
 4632SOL    HW114795   5.097   5.597   4.122
 4632SOL    HW214796   5.116   5.545   4.276
 4633SOL     OW14797   6.758   1.860   4.202
 4633SOL    HW114798   6.748   1.955   4.230
 4633SOL    HW214799   6.671   1.813   4.211
 4634SOL     OW14800   3.178   4.812   1.027
 4634SOL    HW114801   3.096   4.771   1.067
 4634SOL    HW214802   3.167   4.912   1.023
 4635SOL     OW14803   5.154   3.453   2.351
 4635SOL    HW114804   5.077   3.404   2.393
 4635SOL    HW214805   5.199   3.510   2.420
 4636SOL     OW14806   3.210   5.576   0.632
 4636SOL    HW114807   3.173   5.496   0.680
 4636SOL    HW214808   3.142   5.610   0.567
 4637SOL     OW14809   1.395   1.063   5.304
 4637SOL    HW114810   1.326   1.006   5.348
 4637SOL    HW214811   1.476   1.067   5.362
 4638SOL     OW14812   4.988   3.065   5.939
 4638SOL    HW114813   4.933   3.113   5.871
 4638SOL    HW214814   4.947   3.077   6.029
 4639SOL     OW14815   0.458   3.833   5.565
 4639SOL    HW114816   0.439   3.736   5.574
 4639SOL    HW214817   0.525   3.861   5.634
 4640SOL     OW14818   5.579   4.181   2.829
 4640SOL    HW114819   5.501   4.225   2.872
 4640SOL    HW214820   5.604   4.229   2.745
 4641SOL     OW14821   2.412   5.098   4.399
 4641SOL    HW114822   2.388   5.001   4.399
 4641SOL    HW214823   2.506   5.109   4.365
 4642SOL     OW14824   6.371   6.122   4.223
 4642SOL    HW114825   6.322   6.089   4.303
 4642SOL    HW214826   6.402   6.045   4.168
 4643SOL     OW14827   4.008   2.335   1.816
 4643SOL    HW114828   4.024   2.426   1.780
 4643SOL    HW214829   3.916   2.330   1.855
 4644SOL     OW14830   1.587   6.424   4.700
 4644SOL    HW114831   1.638   6.508   4.721
 4644SOL    HW214832   1.574   6.417   4.602
 4645SOL     OW14833   1.977   6.546   4.590
 4645SOL    HW114834   2.001   6.460   4.635
 4645SOL    HW214835   1.998   6.540   4.493
 4646SOL     OW14836   3.185   0.565   2.195
 4646SOL    HW114837   3.182   0.659   2.159
 4646SOL    HW214838   3.092   0.529   2.201
 4647SOL     OW14839   6.234   0.558   4.282
 4647SOL    HW114840   6.201   0.560   4.188
 4647SOL    HW214841   6.164   0.598   4.342
 4648SOL     OW14842   2.315   5.620   2.527
 4648SOL    HW114843   2.356   5.667   2.605
 4648SOL    HW214844   2.288   5.527   2.555
 4649SOL     OW14845   5.017   0.555   5.529
 4649SOL    HW114846   4.925   0.527   5.501
 4649SOL    HW214847   5.021   0.655   5.537
 4650SOL     OW14848   5.242   5.390   2.456
 4650SOL    HW114849   5.233   5.428   2.364
 4650SOL    HW214850   5.158   5.340   2.479
 4651SOL     OW14851   0.313   2.199   1.618
 4651SOL    HW114852   0.374   2.244   1.683
 4651SOL    HW214853   0.345   2.106   1.601
 4652SOL     OW14854   6.649   6.859   5.707
 4652SOL    HW114855   6.713   6.868   5.631
 4652SOL    HW214856   6.563   6.906   5.684
 4653SOL     OW14857   0.274   6.221   6.772
 4653SOL    HW114858   0.236   6.313   6.767
 4653SOL    HW214859   0.205   6.155   6.740
 4654SOL     OW14860   0.907   0.221   6.979
 4654SOL    HW114861   0.889   0.319   6.976
 4654SOL    HW214862   0.995   0.204   0.005
 4655SOL     OW14863   0.491   4.576   3.268
 4655SOL    HW114864   0.487   4.546   3.363
 4655SOL    HW214865   0.584   4.561   3.232
 4656SOL     OW14866   1.410   0.554   3.710
 4656SOL    HW114867   1.467   0.496   3.652
 4656SOL    HW214868   1.391   0.641   3.664
 4657SOL     OW14869   5.095   6.974   1.361
 4657SOL    HW114870   5.148   6.920   1.295
 4657SOL    HW214871   5.022   0.002   1.312
 4658SOL     OW14872   4.853   0.369   2.777
 4658SOL    HW114873   4.827   0.389   2.683
 4658SOL    HW214874   4.905   0.446   2.814
 4659SOL     OW14875   1.832   2.649   4.848
 4659SOL    HW114876   1.860   2.721   4.784
 4659SOL    HW214877   1.797   2.691   4.932
 4660SOL     OW14878   0.075   1.285   6.128
 4660SOL    HW114879   0.004   1.353   6.148
 4660SOL    HW214880   0.126   1.314   6.047
 4661SOL     OW14881   3.354   3.849   4.005
 4661SOL    HW114882   3.309   3.760   4.008
 4661SOL    HW214883   3.289   3.919   3.976
 4662SOL     OW14884   4.784   0.516   5.394
 4662SOL    HW114885   4.684   0.516   5.402
 4662SOL    HW214886   4.811   0.447   5.326
 4663SOL     OW14887   7.019   2.314   2.606
 4663SOL    HW114888   6.971   2.239   2.651
 4663SOL    HW214889   6.998   2.312   2.508
 4664SOL     OW14890   3.622   2.586   0.228
 4664SOL    HW114891   3.606   2.657   0.159
 4664SOL    HW214892   3.592   2.498   0.191
 4665SOL     OW14893   5.061   0.178   6.757
 4665SOL    HW114894   4.975   0.224   6.737
 4665SOL    HW214895   5.112   0.229   6.827
 4666SOL     OW14896   2.533   1.321   0.602
 4666SOL    HW114897   2.494   1.245   0.654
 4666SOL    HW214898   2.626   1.299   0.575
 4667SOL     OW14899   0.064   5.080   6.385
 4667SOL    HW114900   0.093   5.096   6.479
 4667SOL    HW214901   0.070   4.983   6.364
 4668SOL     OW14902   6.263   1.640   4.402
 4668SOL    HW114903   6.208   1.714   4.442
 4668SOL    HW214904   6.232   1.552   4.438
 4669SOL     OW14905   1.207   0.040   0.626
 4669SOL    HW114906   1.165   0.126   0.597
 4669SOL    HW214907   1.136   6.993   0.647
 4670SOL     OW14908   2.643   2.187   4.407
 4670SOL    HW114909   2.576   2.261   4.410
 4670SOL    HW214910   2.642   2.138   4.494
 4671SOL     OW14911   5.300   3.394   1.498
 4671SOL    HW114912   5.390   3.438   1.495
 4671SOL    HW214913   5.234   3.450   1.448
 4672SOL     OW14914   2.088   4.010   6.511
 4672SOL    HW114915   2.113   4.105   6.524
 4672SOL    HW214916   2.111   3.958   6.594
 4673SOL     OW14917   3.736   1.496   2.528
 4673SOL    HW114918   3.768   1.402   2.516
 4673SOL    HW214919   3.672   1.519   2.455
 4674SOL     OW14920   4.538   5.615   5.037
 4674SOL    HW114921   4.535   5.619   5.136
 4674SOL    HW214922   4.616   5.668   5.003
 4675SOL     OW14923   1.032   4.130   0.195
 4675SOL    HW114924   0.961   4.196   0.221
 4675SOL    HW214925   1.048   4.067   0.270
 4676SOL     OW14926   1.166   5.431   3.197
 4676SOL    HW114927   1.091   5.488   3.229
 4676SOL    HW214928   1.203   5.379   3.274
 4677SOL     OW14929   1.782   2.794   0.183
 4677SOL    HW114930   1.834   2.775   0.266
 4677SOL    HW214931   1.717   2.720   0.167
 4678SOL     OW14932   2.027   4.640   2.947
 4678SOL    HW114933   1.975   4.621   3.031
 4678SOL    HW214934   1.969   4.624   2.867
 4679SOL     OW14935   5.022   0.074   1.902
 4679SOL    HW114936   5.068   0.121   1.827
 4679SOL    HW214937   4.991   7.004   1.871
 4680SOL     OW14938   2.528   1.158   1.750
 4680SOL    HW114939   2.492   1.126   1.838
 4680SOL    HW214940   2.616   1.114   1.733
 4681SOL     OW14941   5.483   3.941   1.431
 4681SOL    HW114942   5.398   3.890   1.443
 4681SOL    HW214943   5.519   3.968   1.521
 4682SOL     OW14944   4.411   3.497   6.456
 4682SOL    HW114945   4.487   3.444   6.495
 4682SOL    HW214946   4.391   3.574   6.516
 4683SOL     OW14947   6.230   4.208   3.829
 4683SOL    HW114948   6.322   4.238   3.853
 4683SOL    HW214949   6.175   4.198   3.912
 4684SOL     OW14950   4.430   6.397   6.887
 4684SOL    HW114951   4.516   6.447   6.881
 4684SOL    HW214952   4.446   6.300   6.866
 4685SOL     OW14953   2.749   3.685   5.886
 4685SOL    HW114954   2.761   3.590   5.914
 4685SOL    HW214955   2.728   3.742   5.966
 4686SOL     OW14956   3.105   6.115   0.493
 4686SOL    HW114957   3.057   6.120   0.581
 4686SOL    HW214958   3.055   6.169   0.425
 4687SOL     OW14959   2.893   0.802   2.867
 4687SOL    HW114960   2.938   0.773   2.783
 4687SOL    HW214961   2.923   0.744   2.943
 4688SOL     OW14962   5.721   2.947   5.996
 4688SOL    HW114963   5.771   3.015   5.942
 4688SOL    HW214964   5.765   2.937   6.085
 4689SOL     OW14965   5.583   0.632   0.573
 4689SOL    HW114966   5.582   0.669   0.480
 4689SOL    HW214967   5.507   0.672   0.625
 4690SOL     OW14968   2.742   1.209   0.491
 4690SOL    HW114969   2.771   1.279   0.425
 4690SOL    HW214970   2.680   1.145   0.446
 4691SOL     OW14971   6.098   4.909   0.668
 4691SOL    HW114972   6.170   4.918   0.736
 4691SOL    HW214973   6.043   4.828   0.687
 4692SOL     OW14974   6.353   4.174   2.972
 4692SOL    HW114975   6.399   4.216   2.893
 4692SOL    HW214976   6.370   4.231   3.053
 4693SOL     OW14977   1.903   0.793   3.632
 4693SOL    HW114978   1.852   0.878   3.621
 4693SOL    HW214979   1.859   0.736   3.702
 4694SOL     OW14980   2.871   1.463   0.354
 4694SOL    HW114981   2.931   1.406   0.298
 4694SOL    HW214982   2.909   1.555   0.360
 4695SOL     OW14983   1.379   5.845   0.847
 4695SOL    HW114984   1.454   5.910   0.860
 4695SOL    HW214985   1.407   5.756   0.883
 4696SOL     OW14986   1.606   5.062   6.234
 4696SOL    HW114987   1.541   5.058   6.158
 4696SOL    HW214988   1.593   5.147   6.284
 4697SOL     OW14989   2.816   4.755   1.001
 4697SOL    HW114990   2.826   4.849   1.035
 4697SOL    HW214991   2.782   4.757   0.907
 4698SOL     OW14992   4.646   0.622   3.047
 4698SOL    HW114993   4.632   0.683   3.125
 4698SOL    HW214994   4.558   0.591   3.013
 4699SOL     OW14995   0.809   0.375   2.352
 4699SOL    HW114996   0.872   0.321   2.408
 4699SOL    HW214997   0.792   0.327   2.266
 4700SOL     OW14998   5.906   2.113   2.959
 4700SOL    HW114999   5.908   2.062   3.045
 4700SOL    HW215000   5.817   2.101   2.915
 4701SOL     OW15001   3.281   1.577   1.818
 4701SOL    HW115002   3.235   1.603   1.733
 4701SOL    HW215003   3.212   1.560   1.889
 4702SOL     OW15004   5.390   4.735   6.219
 4702SOL    HW115005   5.440   4.742   6.133
 4702SOL    HW215006   5.368   4.827   6.252
 4703SOL     OW15007   1.151   4.801   3.116
 4703SOL    HW115008   1.203   4.744   3.180
 4703SOL    HW215009   1.158   4.897   3.144
 4704SOL     OW15010   0.384   5.160   5.733
 4704SOL    HW115011   0.357   5.237   5.791
 4704SOL    HW215012   0.334   5.164   5.647
 4705SOL     OW15013   3.157   2.705   1.486
 4705SOL    HW115014   3.106   2.646   1.549
 4705SOL    HW215015   3.092   2.748   1.423
 4706SOL     OW15016   1.366   0.723   0.405
 4706SOL    HW115017   1.377   0.687   0.313
 4706SOL    HW215018   1.455   0.749   0.442
 4707SOL     OW15019   1.219   0.252   1.504
 4707SOL    HW115020   1.126   0.286   1.519
 4707SOL    HW215021   1.273   0.322   1.458
 4708SOL     OW15022   0.717   2.737   4.021
 4708SOL    HW115023   0.739   2.787   4.105
 4708SOL    HW215024   0.737   2.640   4.034
 4709SOL     OW15025   4.659   4.117   5.428
 4709SOL    HW115026   4.699   4.175   5.357
 4709SOL    HW215027   4.668   4.021   5.402
 4710SOL     OW15028   5.618   6.504   4.232
 4710SOL    HW115029   5.529   6.544   4.256
 4710SOL    HW215030   5.619   6.408   4.256
 4711SOL     OW15031   6.146   3.140   3.151
 4711SOL    HW115032   6.106   3.054   3.182
 4711SOL    HW215033   6.138   3.147   3.052
 4712SOL     OW15034   4.350   4.181   5.322
 4712SOL    HW115035   4.325   4.271   5.288
 4712SOL    HW215036   4.403   4.191   5.406
 4713SOL     OW15037   5.844   4.286   0.982
 4713SOL    HW115038   5.884   4.252   1.067
 4713SOL    HW215039   5.755   4.329   1.003
 4714SOL     OW15040   6.563   0.820   6.127
 4714SOL    HW115041   6.519   0.869   6.202
 4714SOL    HW215042   6.511   0.737   6.106
 4715SOL     OW15043   6.188   1.990   1.606
 4715SOL    HW115044   6.121   2.061   1.625
 4715SOL    HW215045   6.150   1.925   1.541
 4716SOL     OW15046   3.573   4.374   5.639
 4716SOL    HW115047   3.670   4.397   5.638
 4716SOL    HW215048   3.550   4.323   5.556
 4717SOL     OW15049   3.166   5.106   5.651
 4717SOL    HW115050   3.171   5.135   5.556
 4717SOL    HW215051   3.203   5.178   5.710
 4718SOL     OW15052   5.379   4.276   1.504
 4718SOL    HW115053   5.369   4.250   1.600
 4718SOL    HW215054   5.381   4.194   1.448
 4719SOL     OW15055   6.568   3.336   3.709
 4719SOL    HW115056   6.611   3.255   3.668
 4719SOL    HW215057   6.513   3.309   3.788
 4720SOL     OW15058   2.828   4.433   6.916
 4720SOL    HW115059   2.883   4.462   6.995
 4720SOL    HW215060   2.870   4.352   6.875
 4721SOL     OW15061   6.613   3.507   2.595
 4721SOL    HW115062   6.531   3.458   2.624
 4721SOL    HW215063   6.603   3.604   2.616
 4722SOL     OW15064   0.982   4.390   6.244
 4722SOL    HW115065   0.959   4.464   6.180
 4722SOL    HW215066   0.970   4.302   6.198
 4723SOL     OW15067   4.001   4.027   6.404
 4723SOL    HW115068   3.972   3.971   6.482
 4723SOL    HW215069   4.095   4.004   6.378
 4724SOL     OW15070   0.538   6.445   4.177
 4724SOL    HW115071   0.622   6.399   4.147
 4724SOL    HW215072   0.469   6.438   4.105
 4725SOL     OW15073   5.837   5.389   0.504
 4725SOL    HW115074   5.868   5.454   0.435
 4725SOL    HW215075   5.746   5.414   0.536
 4726SOL     OW15076   2.068   2.957   5.782
 4726SOL    HW115077   2.158   2.968   5.738
 4726SOL    HW215078   2.077   2.972   5.880
 4727SOL     OW15079   0.988   5.701   0.456
 4727SOL    HW115080   0.982   5.796   0.426
 4727SOL    HW215081   1.056   5.692   0.528
 4728SOL     OW15082   6.151   0.925   3.856
 4728SOL    HW115083   6.083   0.995   3.877
 4728SOL    HW215084   6.175   0.929   3.759
 4729SOL     OW15085   6.226   0.589   0.694
 4729SOL    HW115086   6.302   0.557   0.751
 4729SOL    HW215087   6.258   0.600   0.600
 4730SOL     OW15088   3.301   6.620   4.872
 4730SOL    HW115089   3.247   6.559   4.930
 4730SOL    HW215090   3.378   6.569   4.833
 4731SOL     OW15091   3.045   0.041   0.609
 4731SOL    HW115092   2.959   0.087   0.590
 4731SOL    HW215093   3.033   6.997   0.686
 4732SOL     OW15094   6.812   3.664   4.276
 4732SOL    HW115095   6.784   3.582   4.326
 4732SOL    HW215096   6.732   3.723   4.262
 4733SOL     OW15097   2.011   3.320   3.007
 4733SOL    HW115098   2.033   3.282   2.917
 4733SOL    HW215099   1.960   3.405   2.995
 4734SOL     OW15100   4.866   4.105   6.337
 4734SOL    HW115101   4.792   4.077   6.398
 4734SOL    HW215102   4.952   4.107   6.387
 4735SOL     OW15103   0.137   6.414   4.846
 4735SOL    HW115104   0.170   6.494   4.796
 4735SOL    HW215105   0.215   6.363   4.883
 4736SOL     OW15106   6.514   2.055   3.103
 4736SOL    HW115107   6.516   1.981   3.036
 4736SOL    HW215108   6.434   2.044   3.162
 4737SOL     OW15109   1.930   5.079   1.298
 4737SOL    HW115110   1.937   5.176   1.318
 4737SOL    HW215111   1.837   5.058   1.266
 4738SOL     OW15112   2.344   0.334   3.557
 4738SOL    HW115113   2.354   0.378   3.468
 4738SOL    HW215114   2.286   0.391   3.616
 4739SOL     OW15115   5.945   3.680   4.571
 4739SOL    HW115116   5.975   3.736   4.494
 4739SOL    HW215117   5.869   3.621   4.541
 4740SOL     OW15118   0.299   1.336   1.754
 4740SOL    HW115119   0.288   1.342   1.853
 4740SOL    HW215120   0.283   1.425   1.712
 4741SOL     OW15121   4.531   4.864   1.309
 4741SOL    HW115122   4.572   4.793   1.367
 4741SOL    HW215123   4.584   4.873   1.225
 4742SOL     OW15124   2.629   5.749   1.206
 4742SOL    HW115125   2.566   5.762   1.283
 4742SOL    HW215126   2.671   5.836   1.183
 4743SOL     OW15127   2.124   1.790   0.033
 4743SOL    HW115128   2.058   1.857   0.068
 4743SOL    HW215129   2.082   1.700   0.029
 4744SOL     OW15130   1.954   3.634   5.680
 4744SOL    HW115131   2.008   3.680   5.610
 4744SOL    HW215132   1.871   3.596   5.638
 4745SOL     OW15133   3.707   5.285   5.036
 4745SOL    HW115134   3.709   5.369   4.982
 4745SOL    HW215135   3.755   5.213   4.986
 4746SOL     OW15136   6.517   6.314   0.736
 4746SOL    HW115137   6.434   6.327   0.682
 4746SOL    HW215138   6.492   6.272   0.824
 4747SOL     OW15139   6.788   2.088   0.629
 4747SOL    HW115140   6.785   2.135   0.541
 4747SOL    HW215141   6.715   2.125   0.688
 4748SOL     OW15142   0.955   0.674   1.244
 4748SOL    HW115143   1.007   0.636   1.167
 4748SOL    HW215144   1.003   0.655   1.329
 4749SOL     OW15145   2.301   6.630   0.115
 4749SOL    HW115146   2.268   6.725   0.108
 4749SOL    HW215147   2.387   6.621   0.065
 4750SOL     OW15148   6.885   0.788   4.375
 4750SOL    HW115149   6.890   0.710   4.437
 4750SOL    HW215150   6.977   0.811   4.344
 4751SOL     OW15151   1.807   4.717   6.331
 4751SOL    HW115152   1.789   4.633   6.281
 4751SOL    HW215153   1.799   4.795   6.269
 4752SOL     OW15154   3.152   6.185   1.700
 4752SOL    HW115155   3.076   6.133   1.660
 4752SOL    HW215156   3.131   6.205   1.796
 4753SOL     OW15157   5.749   6.554   5.391
 4753SOL    HW115158   5.825   6.530   5.331
 4753SOL    HW215159   5.662   6.532   5.346
 4754SOL     OW15160   0.182   0.163   5.960
 4754SOL    HW115161   0.095   0.208   5.939
 4754SOL    HW215162   0.164   0.073   6.001
 4755SOL     OW15163   2.529   1.752   6.228
 4755SOL    HW115164   2.488   1.842   6.244
 4755SOL    HW215165   2.613   1.744   6.282
 4756SOL     OW15166   4.640   2.918   1.402
 4756SOL    HW115167   4.670   2.903   1.496
 4756SOL    HW215168   4.692   2.859   1.341
 4757SOL     OW15169   2.195   2.197   1.858
 4757SOL    HW115170   2.113   2.162   1.904
 4757SOL    HW215171   2.200   2.158   1.766
 4758SOL     OW15172   4.962   5.137   5.297
 4758SOL    HW115173   5.058   5.132   5.269
 4758SOL    HW215174   4.957   5.147   5.396
 4759SOL     OW15175   5.592   5.696   6.187
 4759SOL    HW115176   5.690   5.677   6.191
 4759SOL    HW215177   5.540   5.613   6.205
 4760SOL     OW15178   1.987   1.054   1.749
 4760SOL    HW115179   1.988   1.053   1.849
 4760SOL    HW215180   2.033   1.136   1.716
 4761SOL     OW15181   6.735   6.919   6.396
 4761SOL    HW115182   6.747   6.820   6.401
 4761SOL    HW215183   6.811   6.960   6.347
 4762SOL     OW15184   2.515   5.353   1.995
 4762SOL    HW115185   2.456   5.378   2.072
 4762SOL    HW215186   2.580   5.426   1.977
 4763SOL     OW15187   6.079   6.146   3.403
 4763SOL    HW115188   6.172   6.178   3.385
 4763SOL    HW215189   6.016   6.223   3.400
 4764SOL     OW15190   4.082   3.609   5.262
 4764SOL    HW115191   4.097   3.598   5.163
 4764SOL    HW215192   4.167   3.592   5.311
 4765SOL     OW15193   4.860   5.857   4.997
 4765SOL    HW115194   4.960   5.847   4.994
 4765SOL    HW215195   4.827   5.829   5.087
 4766SOL     OW15196   2.293   0.047   3.599
 4766SOL    HW115197   2.389   0.020   3.588
 4766SOL    HW215198   2.286   0.146   3.606
 4767SOL     OW15199   4.091   6.784   6.693
 4767SOL    HW115200   4.016   6.815   6.752
 4767SOL    HW215201   4.137   6.862   6.653
 4768SOL     OW15202   6.056   0.433   4.564
 4768SOL    HW115203   6.054   0.511   4.500
 4768SOL    HW215204   5.977   0.374   4.547
 4769SOL     OW15205   4.268   6.221   1.722
 4769SOL    HW115206   4.231   6.188   1.635
 4769SOL    HW215207   4.197   6.271   1.772
 4770SOL     OW15208   2.632   0.650   3.083
 4770SOL    HW115209   2.570   0.692   3.149
 4770SOL    HW215210   2.630   0.550   3.094
 4771SOL     OW15211   3.696   4.088   5.792
 4771SOL    HW115212   3.629   4.070   5.720
 4771SOL    HW215213   3.698   4.186   5.812
 4772SOL     OW15214   3.057   1.286   1.475
 4772SOL    HW115215   2.991   1.220   1.438
 4772SOL    HW215216   3.008   1.357   1.526
 4773SOL     OW15217   0.331   5.838   3.434
 4773SOL    HW115218   0.409   5.868   3.489
 4773SOL    HW215219   0.337   5.880   3.343
 4774SOL     OW15220   0.953   3.494   1.657
 4774SOL    HW115221   0.993   3.407   1.687
 4774SOL    HW215222   1.026   3.559   1.636
 4775SOL     OW15223   4.337   0.128   2.743
 4775SOL    HW115224   4.269   0.191   2.705
 4775SOL    HW215225   4.427   0.148   2.704
 4776SOL     OW15226   2.753   5.786   2.172
 4776SOL    HW115227   2.702   5.788   2.086
 4776SOL    HW215228   2.712   5.719   2.234
 4777SOL     OW15229   2.618   4.688   1.367
 4777SOL    HW115230   2.680   4.642   1.303
 4777SOL    HW215231   2.574   4.620   1.426
 4778SOL     OW15232   4.931   3.722   1.938
 4778SOL    HW115233   4.947   3.624   1.929
 4778SOL    HW215234   4.840   3.744   1.904
 4779SOL     OW15235   6.781   0.380   2.950
 4779SOL    HW115236   6.761   0.421   3.039
 4779SOL    HW215237   6.722   0.422   2.881
 4780SOL     OW15238   1.110   6.606   6.162
 4780SOL    HW115239   1.204   6.585   6.188
 4780SOL    HW215240   1.061   6.647   6.239
 4781SOL     OW15241   2.213   5.144   0.974
 4781SOL    HW115242   2.264   5.184   1.051
 4781SOL    HW215243   2.266   5.155   0.890
 4782SOL     OW15244   5.468   6.512   6.941
 4782SOL    HW115245   5.385   6.506   6.886
 4782SOL    HW215246   5.532   6.440   6.911
 4783SOL     OW15247   5.512   4.119   1.239
 4783SOL    HW115248   5.488   4.043   1.300
 4783SOL    HW215249   5.431   4.148   1.188
 4784SOL     OW15250   5.544   5.225   5.151
 4784SOL    HW115251   5.546   5.192   5.057
 4784SOL    HW215252   5.561   5.323   5.153
 4785SOL     OW15253   6.840   6.261   0.814
 4785SOL    HW115254   6.784   6.325   0.763
 4785SOL    HW215255   6.936   6.274   0.789
 4786SOL     OW15256   1.858   3.128   1.874
 4786SOL    HW115257   1.908   3.050   1.836
 4786SOL    HW215258   1.867   3.127   1.974
 4787SOL     OW15259   3.141   2.075   3.328
 4787SOL    HW115260   3.127   2.136   3.406
 4787SOL    HW215261   3.073   2.095   3.257
 4788SOL     OW15262   0.937   4.924   5.053
 4788SOL    HW115263   1.000   4.999   5.033
 4788SOL    HW215264   0.889   4.897   4.970
 4789SOL     OW15265   5.757   0.455   6.679
 4789SOL    HW115266   5.748   0.529   6.613
 4789SOL    HW215267   5.673   0.400   6.679
 4790SOL     OW15268   6.026   2.725   6.568
 4790SOL    HW115269   6.116   2.706   6.529
 4790SOL    HW215270   6.001   2.820   6.550
 4791SOL     OW15271   5.417   6.768   2.073
 4791SOL    HW115272   5.430   6.815   2.161
 4791SOL    HW215273   5.431   6.670   2.085
 4792SOL     OW15274   2.365   2.652   2.903
 4792SOL    HW115275   2.319   2.728   2.949
 4792SOL    HW215276   2.303   2.573   2.900
 4793SOL     OW15277   1.497   7.018   6.408
 4793SOL    HW115278   1.482   6.941   6.347
 4793SOL    HW215279   1.414   0.053   6.414
 4794SOL     OW15280   2.514   6.863   3.041
 4794SOL    HW115281   2.481   6.954   3.066
 4794SOL    HW215282   2.468   6.833   2.958
 4795SOL     OW15283   6.439   3.312   4.127
 4795SOL    HW115284   6.355   3.358   4.156
 4795SOL    HW215285   6.509   3.380   4.107
 4796SOL     OW15286   5.969   3.807   0.862
 4796SOL    HW115287   5.973   3.902   0.833
 4796SOL    HW215288   5.880   3.788   0.904
 4797SOL     OW15289   0.855   4.905   5.957
 4797SOL    HW115290   0.900   4.827   5.913
 4797SOL    HW215291   0.758   4.885   5.970
 4798SOL     OW15292   0.386   3.995   4.155
 4798SOL    HW115293   0.346   4.021   4.243
 4798SOL    HW215294   0.344   3.911   4.122
 4799SOL     OW15295   4.439   1.483   5.000
 4799SOL    HW115296   4.493   1.413   4.954
 4799SOL    HW215297   4.341   1.464   4.988
 4800SOL     OW15298   2.562   2.860   5.532
 4800SOL    HW115299   2.548   2.844   5.434
 4800SOL    HW215300   2.585   2.956   5.547
 4801SOL     OW15301   1.448   1.613   0.650
 4801SOL    HW115302   1.375   1.678   0.666
 4801SOL    HW215303   1.522   1.657   0.599
 4802SOL     OW15304   2.754   6.922   1.749
 4802SOL    HW115305   2.751   6.964   1.658
 4802SOL    HW215306   2.756   6.994   1.819
 4803SOL     OW15307   0.880   6.809   0.392
 4803SOL    HW115308   0.877   6.786   0.294
 4803SOL    HW215309   0.787   6.822   0.426
 4804SOL     OW15310   4.123   5.183   6.210
 4804SOL    HW115311   4.170   5.177   6.298
 4804SOL    HW215312   4.130   5.095   6.163
 4805SOL     OW15313   6.795   1.621   0.172
 4805SOL    HW115314   6.724   1.690   0.168
 4805SOL    HW215315   6.784   1.557   0.096
 4806SOL     OW15316   0.585   3.580   2.874
 4806SOL    HW115317   0.492   3.607   2.898
 4806SOL    HW215318   0.597   3.588   2.775
 4807SOL     OW15319   0.464   6.112   1.478
 4807SOL    HW115320   0.455   6.170   1.397
 4807SOL    HW215321   0.375   6.101   1.521
 4808SOL     OW15322   5.135   3.526   1.285
 4808SOL    HW115323   5.090   3.602   1.240
 4808SOL    HW215324   5.152   3.453   1.219
 4809SOL     OW15325   3.621   5.144   6.958
 4809SOL    HW115326   3.550   5.210   6.934
 4809SOL    HW215327   3.602   5.107   0.029
 4810SOL     OW15328   0.725   5.819   1.553
 4810SOL    HW115329   0.722   5.844   1.456
 4810SOL    HW215330   0.634   5.828   1.593
 4811SOL     OW15331   3.597   5.150   1.891
 4811SOL    HW115332   3.628   5.099   1.971
 4811SOL    HW215333   3.581   5.086   1.815
 4812SOL     OW15334   0.226   5.604   4.068
 4812SOL    HW115335   0.309   5.601   4.124
 4812SOL    HW215336   0.210   5.514   4.027
 4813SOL     OW15337   5.104   1.788   2.420
 4813SOL    HW115338   5.168   1.770   2.346
 4813SOL    HW215339   5.037   1.857   2.390
 4814SOL     OW15340   0.014   3.876   1.145
 4814SOL    HW115341   0.032   3.870   1.047
 4814SOL    HW215342   7.008   3.970   1.168
 4815SOL     OW15343   4.841   5.393   1.695
 4815SOL    HW115344   4.913   5.367   1.759
 4815SOL    HW215345   4.773   5.319   1.690
 4816SOL     OW15346   5.113   5.302   2.789
 4816SOL    HW115347   5.044   5.248   2.837
 4816SOL    HW215348   5.092   5.304   2.691
 4817SOL     OW15349   1.446   2.299   5.917
 4817SOL    HW115350   1.401   2.231   5.859
 4817SOL    HW215351   1.465   2.381   5.864
 4818SOL     OW15352   6.939   6.821   3.651
 4818SOL    HW115353   6.939   6.721   3.650
 4818SOL    HW215354   6.870   6.854   3.716
 4819SOL     OW15355   1.483   3.183   6.776
 4819SOL    HW115356   1.461   3.272   6.736
 4819SOL    HW215357   1.485   3.191   6.876
 4820SOL     OW15358   6.750   3.033   2.043
 4820SOL    HW115359   6.769   3.068   2.135
 4820SOL    HW215360   6.771   3.104   1.976
 4821SOL     OW15361   6.744   5.816   2.419
 4821SOL    HW115362   6.822   5.779   2.368
 4821SOL    HW215363   6.692   5.878   2.360
 4822SOL     OW15364   1.362   4.050   4.326
 4822SOL    HW115365   1.435   4.084   4.266
 4822SOL    HW215366   1.320   3.969   4.285
 4823SOL     OW15367   1.911   2.638   1.702
 4823SOL    HW115368   1.941   2.674   1.791
 4823SOL    HW215369   1.904   2.714   1.637
 4824SOL     OW15370   5.487   0.836   5.092
 4824SOL    HW115371   5.421   0.870   5.159
 4824SOL    HW215372   5.454   0.856   5.000
 4825SOL     OW15373   1.803   0.092   3.997
 4825SOL    HW115374   1.895   0.130   3.991
 4825SOL    HW215375   1.737   0.166   4.010
 4826SOL     OW15376   4.443   0.046   1.520
 4826SOL    HW115377   4.542   0.053   1.533
 4826SOL    HW215378   4.396   0.114   1.576
 4827SOL     OW15379   6.946   1.850   0.999
 4827SOL    HW115380   6.907   1.796   0.925
 4827SOL    HW215381   6.938   1.799   1.085
 4828SOL     OW15382   4.611   0.859   2.616
 4828SOL    HW115383   4.672   0.833   2.691
 4828SOL    HW215384   4.634   0.951   2.585
 4829SOL     OW15385   3.549   0.055   5.421
 4829SOL    HW115386   3.537   0.046   5.323
 4829SOL    HW215387   3.586   0.145   5.443
 4830SOL     OW15388   3.185   5.750   3.819
 4830SOL    HW115389   3.237   5.717   3.740
 4830SOL    HW215390   3.110   5.686   3.839
 4831SOL     OW15391   3.464   4.971   6.411
 4831SOL    HW115392   3.369   4.989   6.436
 4831SOL    HW215393   3.468   4.892   6.349
 4832SOL     OW15394   3.097   3.022   3.957
 4832SOL    HW115395   3.052   2.934   3.972
 4832SOL    HW215396   3.034   3.096   3.984
 4833SOL     OW15397   0.158   2.790   3.860
 4833SOL    HW115398   0.160   2.853   3.782
 4833SOL    HW215399   0.080   2.729   3.850
 4834SOL     OW15400   1.999   5.187   1.757
 4834SOL    HW115401   1.917   5.215   1.806
 4834SOL    HW215402   2.064   5.262   1.754
 4835SOL     OW15403   7.006   2.366   4.993
 4835SOL    HW115404   0.062   2.417   5.034
 4835SOL    HW215405   7.016   2.365   4.894
 4836SOL     OW15406   4.843   1.168   4.994
 4836SOL    HW115407   4.875   1.138   5.084
 4836SOL    HW215408   4.899   1.125   4.923
 4837SOL     OW15409   6.898   3.601   4.539
 4837SOL    HW115410   6.964   3.607   4.614
 4837SOL    HW215411   6.947   3.599   4.452
 4838SOL     OW15412   1.277   4.528   6.528
 4838SOL    HW115413   1.237   4.607   6.480
 4838SOL    HW215414   1.363   4.555   6.571
 4839SOL     OW15415   2.396   1.793   0.146
 4839SOL    HW115416   2.429   1.838   0.229
 4839SOL    HW215417   2.302   1.822   0.128
 4840SOL     OW15418   5.573   3.560   5.068
 4840SOL    HW115419   5.505   3.534   5.137
 4840SOL    HW215420   5.654   3.502   5.077
 4841SOL     OW15421   3.228   5.438   3.191
 4841SOL    HW115422   3.133   5.458   3.215
 4841SOL    HW215423   3.277   5.524   3.174
 4842SOL     OW15424   2.950   5.525   3.229
 4842SOL    HW115425   2.897   5.460   3.284
 4842SOL    HW215426   2.892   5.566   3.160
 4843SOL     OW15427   0.432   2.570   2.652
 4843SOL    HW115428   0.393   2.515   2.578
 4843SOL    HW215429   0.448   2.663   2.620
 4844SOL     OW15430   1.035   5.521   4.749
 4844SOL    HW115431   1.074   5.542   4.839
 4844SOL    HW215432   1.037   5.602   4.692
 4845SOL     OW15433   5.012   3.779   4.996
 4845SOL    HW115434   4.954   3.698   4.997
 4845SOL    HW215435   4.979   3.845   5.063
 4846SOL     OW15436   0.068   3.639   5.085
 4846SOL    HW115437   0.107   3.570   5.024
 4846SOL    HW215438   0.131   3.655   5.161
 4847SOL     OW15439   2.213   6.629   6.087
 4847SOL    HW115440   2.284   6.596   6.150
 4847SOL    HW215441   2.211   6.729   6.088
 4848SOL     OW15442   2.673   0.708   3.995
 4848SOL    HW115443   2.649   0.641   3.925
 4848SOL    HW215444   2.600   0.712   4.064
 4849SOL     OW15445   1.749   6.781   1.164
 4849SOL    HW115446   1.839   6.738   1.167
 4849SOL    HW215447   1.747   6.848   1.089
 4850SOL     OW15448   4.743   0.752   0.859
 4850SOL    HW115449   4.677   0.745   0.784
 4850SOL    HW215450   4.826   0.702   0.835
 4851SOL     OW15451   3.525   5.732   6.667
 4851SOL    HW115452   3.457   5.661   6.685
 4851SOL    HW215453   3.592   5.698   6.600
 4852SOL     OW15454   4.363   5.191   4.364
 4852SOL    HW115455   4.384   5.126   4.436
 4852SOL    HW215456   4.411   5.277   4.380
 4853SOL     OW15457   3.636   0.541   2.884
 4853SOL    HW115458   3.730   0.576   2.890
 4853SOL    HW215459   3.575   0.600   2.937
 4854SOL     OW15460   5.983   6.342   1.558
 4854SOL    HW115461   6.048   6.266   1.571
 4854SOL    HW215462   5.909   6.311   1.498
 4855SOL     OW15463   6.385   4.808   4.602
 4855SOL    HW115464   6.480   4.828   4.579
 4855SOL    HW215465   6.340   4.766   4.523
 4856SOL     OW15466   0.240   3.951   3.007
 4856SOL    HW115467   0.175   3.910   3.072
 4856SOL    HW215468   0.326   3.971   3.055
 4857SOL     OW15469   2.372   2.024   4.792
 4857SOL    HW115470   2.339   2.111   4.831
 4857SOL    HW215471   2.429   1.978   4.860
 4858SOL     OW15472   0.265   5.862   4.416
 4858SOL    HW115473   0.355   5.884   4.454
 4858SOL    HW215474   0.273   5.845   4.318
 4859SOL     OW15475   0.609   5.893   2.189
 4859SOL    HW115476   0.547   5.862   2.117
 4859SOL    HW215477   0.686   5.830   2.197
 4860SOL     OW15478   4.850   5.321   0.841
 4860SOL    HW115479   4.917   5.287   0.907
 4860SOL    HW215480   4.864   5.419   0.827
 4861SOL     OW15481   0.527   4.655   6.618
 4861SOL    HW115482   0.504   4.572   6.669
 4861SOL    HW215483   0.626   4.661   6.608
 4862SOL     OW15484   2.678   4.656   5.314
 4862SOL    HW115485   2.687   4.727   5.244
 4862SOL    HW215486   2.717   4.570   5.280
 4863SOL     OW15487   4.347   2.021   3.017
 4863SOL    HW115488   4.266   2.073   2.988
 4863SOL    HW215489   4.409   2.081   3.067
 4864SOL     OW15490   3.223   1.231   1.690
 4864SOL    HW115491   3.185   1.246   1.598
 4864SOL    HW215492   3.273   1.312   1.719
 4865SOL     OW15493   3.924   5.722   5.340
 4865SOL    HW115494   3.962   5.650   5.281
 4865SOL    HW215495   3.970   5.808   5.320
 4866SOL     OW15496   6.123   4.573   1.094
 4866SOL    HW115497   6.121   4.541   0.999
 4866SOL    HW215498   6.094   4.668   1.098
 4867SOL     OW15499   4.908   6.060   2.891
 4867SOL    HW115500   4.829   6.001   2.876
 4867SOL    HW215501   4.992   6.007   2.878
 4868SOL     OW15502   0.421   5.386   1.285
 4868SOL    HW115503   0.426   5.316   1.357
 4868SOL    HW215504   0.371   5.465   1.320
 4869SOL     OW15505   6.846   1.068   0.324
 4869SOL    HW115506   6.881   1.148   0.275
 4869SOL    HW215507   6.897   1.057   0.409
 4870SOL     OW15508   5.518   6.524   2.345
 4870SOL    HW115509   5.419   6.520   2.355
 4870SOL    HW215510   5.553   6.610   2.383
 4871SOL     OW15511   1.340   3.422   4.155
 4871SOL    HW115512   1.258   3.380   4.116
 4871SOL    HW215513   1.421   3.378   4.118
 4872SOL     OW15514   1.170   0.876   2.443
 4872SOL    HW115515   1.230   0.913   2.372
 4872SOL    HW215516   1.222   0.815   2.502
 4873SOL     OW15517   0.180   5.696   5.528
 4873SOL    HW115518   0.167   5.762   5.454
 4873SOL    HW215519   0.240   5.622   5.498
 4874SOL     OW15520   5.225   3.340   3.306
 4874SOL    HW115521   5.215   3.435   3.275
 4874SOL    HW215522   5.204   3.335   3.403
 4875SOL     OW15523   5.932   2.225   0.039
 4875SOL    HW115524   5.840   2.227   0.077
 4875SOL    HW215525   5.979   2.311   0.062
 4876SOL     OW15526   0.347   1.508   0.080
 4876SOL    HW115527   0.330   1.471   0.171
 4876SOL    HW215528   0.399   1.442   0.026
 4877SOL     OW15529   6.364   1.266   1.327
 4877SOL    HW115530   6.429   1.301   1.260
 4877SOL    HW215531   6.400   1.280   1.419
 4878SOL     OW15532   6.721   2.055   2.051
 4878SOL    HW115533   6.758   1.964   2.030
 4878SOL    HW215534   6.629   2.045   2.088
 4879SOL     OW15535   4.371   5.180   3.455
 4879SOL    HW115536   4.440   5.110   3.436
 4879SOL    HW215537   4.416   5.267   3.476
 4880SOL     OW15538   5.855   1.806   6.241
 4880SOL    HW115539   5.768   1.809   6.290
 4880SOL    HW215540   5.849   1.865   6.160
 4881SOL     OW15541   3.620   6.406   6.541
 4881SOL    HW115542   3.714   6.439   6.533
 4881SOL    HW215543   3.618   6.307   6.528
 4882SOL     OW15544   5.565   0.280   5.499
 4882SOL    HW115545   5.523   0.356   5.450
 4882SOL    HW215546   5.499   0.205   5.506
 4883SOL     OW15547   0.167   4.977   1.962
 4883SOL    HW115548   0.181   4.895   2.018
 4883SOL    HW215549   0.240   4.983   1.894
 4884SOL     OW15550   3.331   6.604   1.680
 4884SOL    HW115551   3.414   6.578   1.729
 4884SOL    HW215552   3.287   6.522   1.644
 4885SOL     OW15553   1.814   7.001   1.815
 4885SOL    HW115554   1.907   7.002   1.849
 4885SOL    HW215555   1.811   0.018   1.722
 4886SOL     OW15556   6.351   0.324   0.001
 4886SOL    HW115557   6.269   0.371   6.988
 4886SOL    HW215558   6.421   0.324   6.949
 4887SOL     OW15559   0.430   2.068   3.649
 4887SOL    HW115560   0.478   1.981   3.659
 4887SOL    HW215561   0.341   2.052   3.606
 4888SOL     OW15562   2.791   5.172   2.850
 4888SOL    HW115563   2.811   5.123   2.935
 4888SOL    HW215564   2.788   5.270   2.868
 4889SOL     OW15565   0.808   1.989   0.168
 4889SOL    HW115566   0.874   2.063   0.179
 4889SOL    HW215567   0.738   2.017   0.102
 4890SOL     OW15568   1.188   0.821   4.577
 4890SOL    HW115569   1.230   0.799   4.489
 4890SOL    HW215570   1.098   0.860   4.562
 4891SOL     OW15571   0.854   4.762   0.401
 4891SOL    HW115572   0.878   4.782   0.306
 4891SOL    HW215573   0.933   4.721   0.448
 4892SOL     OW15574   0.961   5.364   0.511
 4892SOL    HW115575   0.864   5.373   0.533
 4892SOL    HW215576   1.007   5.451   0.527
 4893SOL     OW15577   0.636   3.216   6.547
 4893SOL    HW115578   0.721   3.270   6.546
 4893SOL    HW215579   0.596   3.215   6.455
 4894SOL     OW15580   2.437   1.441   3.373
 4894SOL    HW115581   2.346   1.463   3.337
 4894SOL    HW215582   2.428   1.378   3.451
 4895SOL     OW15583   1.049   3.207   6.964
 4895SOL    HW115584   1.103   3.259   0.010
 4895SOL    HW215585   1.085   3.114   6.958
 4896SOL     OW15586   4.021   5.282   4.723
 4896SOL    HW115587   4.067   5.325   4.645
 4896SOL    HW215588   4.013   5.348   4.798
 4897SOL     OW15589   3.709   5.618   6.451
 4897SOL    HW115590   3.618   5.582   6.432
 4897SOL    HW215591   3.776   5.571   6.393
 4898SOL     OW15592   5.234   1.966   5.253
 4898SOL    HW115593   5.199   2.032   5.187
 4898SOL    HW215594   5.192   1.982   5.342
 4899SOL     OW15595   5.712   4.281   3.748
 4899SOL    HW115596   5.666   4.197   3.777
 4899SOL    HW215597   5.778   4.308   3.819
 4900SOL     OW15598   1.131   6.969   5.454
 4900SOL    HW115599   1.198   6.922   5.511
 4900SOL    HW215600   1.077   0.012   5.511
 4901SOL     OW15601   0.644   0.061   3.835
 4901SOL    HW115602   0.707   0.040   3.909
 4901SOL    HW215603   0.551   0.066   3.871
 4902SOL     OW15604   2.268   4.469   1.838
 4902SOL    HW115605   2.305   4.376   1.848
 4902SOL    HW215606   2.168   4.464   1.831
 4903SOL     OW15607   4.791   0.115   6.642
 4903SOL    HW115608   4.754   0.112   6.734
 4903SOL    HW215609   4.736   0.056   6.582
 4904SOL     OW15610   2.452   6.005   4.121
 4904SOL    HW115611   2.543   5.976   4.152
 4904SOL    HW215612   2.417   6.076   4.182
 4905SOL     OW15613   4.985   3.259   2.081
 4905SOL    HW115614   4.965   3.182   2.021
 4905SOL    HW215615   4.963   3.234   2.176
 4906SOL     OW15616   5.151   0.611   0.320
 4906SOL    HW115617   5.157   0.685   0.387
 4906SOL    HW215618   5.056   0.585   0.307
 4907SOL     OW15619   3.283   0.935   3.235
 4907SOL    HW115620   3.363   0.886   3.268
 4907SOL    HW215621   3.246   0.888   3.155
 4908SOL     OW15622   3.351   6.010   6.361
 4908SOL    HW115623   3.331   5.921   6.320
 4908SOL    HW215624   3.378   5.999   6.456
 4909SOL     OW15625   6.746   6.775   5.171
 4909SOL    HW115626   6.671   6.801   5.233
 4909SOL    HW215627   6.727   6.684   5.133
 4910SOL     OW15628   5.759   0.147   4.908
 4910SOL    HW115629   5.704   0.178   4.986
 4910SOL    HW215630   5.851   0.122   4.939
 4911SOL     OW15631   0.057   2.575   6.055
 4911SOL    HW115632   0.025   2.505   5.991
 4911SOL    HW215633   0.143   2.613   6.023
 4912SOL     OW15634   2.445   2.294   2.419
 4912SOL    HW115635   2.403   2.383   2.403
 4912SOL    HW215636   2.522   2.281   2.357
 4913SOL     OW15637   3.040   3.959   3.235
 4913SOL    HW115638   3.079   4.033   3.290
 4913SOL    HW215639   3.057   3.977   3.138
 4914SOL     OW15640   2.356   6.667   3.347
 4914SOL    HW115641   2.300   6.741   3.382
 4914SOL    HW215642   2.446   6.669   3.391
 4915SOL     OW15643   3.352   5.694   4.076
 4915SOL    HW115644   3.287   5.736   4.012
 4915SOL    HW215645   3.338   5.731   4.167
 4916SOL     OW15646   2.278   1.579   2.601
 4916SOL    HW115647   2.202   1.599   2.663
 4916SOL    HW215648   2.328   1.499   2.635
 4917SOL     OW15649   1.933   5.064   0.734
 4917SOL    HW115650   1.906   4.970   0.752
 4917SOL    HW215651   1.936   5.115   0.820
 4918SOL     OW15652   2.160   0.314   2.114
 4918SOL    HW115653   2.205   0.401   2.093
 4918SOL    HW215654   2.227   0.240   2.106
 4919SOL     OW15655   2.475   2.645   1.899
 4919SOL    HW115656   2.454   2.637   1.996
 4919SOL    HW215657   2.540   2.574   1.873
 4920SOL     OW15658   4.451   0.933   0.158
 4920SOL    HW115659   4.444   0.839   0.127
 4920SOL    HW215660   4.521   0.940   0.229
 4921SOL     OW15661   1.104   4.480   1.640
 4921SOL    HW115662   1.102   4.559   1.701
 4921SOL    HW215663   1.119   4.509   1.546
 4922SOL     OW15664   1.374   2.944   5.086
 4922SOL    HW115665   1.427   2.978   5.008
 4922SOL    HW215666   1.433   2.937   5.166
 4923SOL     OW15667   5.007   0.861   1.106
 4923SOL    HW115668   5.028   0.898   1.196
 4923SOL    HW215669   4.932   0.912   1.064
 4924SOL     OW15670   0.587   4.030   4.756
 4924SOL    HW115671   0.621   3.943   4.720
 4924SOL    HW215672   0.594   4.030   4.856
 4925SOL     OW15673   4.530   6.145   6.836
 4925SOL    HW115674   4.454   6.080   6.847
 4925SOL    HW215675   4.593   6.135   6.913
 4926SOL     OW15676   4.690   2.381   1.937
 4926SOL    HW115677   4.729   2.442   1.868
 4926SOL    HW215678   4.753   2.373   2.014
 4927SOL     OW15679   3.333   2.911   3.331
 4927SOL    HW115680   3.275   2.969   3.389
 4927SOL    HW215681   3.365   2.965   3.253
 4928SOL     OW15682   0.296   5.963   6.938
 4928SOL    HW115683   0.355   6.040   6.964
 4928SOL    HW215684   0.353   5.887   6.906
 4929SOL     OW15685   0.873   5.243   4.194
 4929SOL    HW115686   0.827   5.192   4.267
 4929SOL    HW215687   0.970   5.220   4.192
 4930SOL     OW15688   0.349   2.181   0.818
 4930SOL    HW115689   0.318   2.093   0.853
 4930SOL    HW215690   0.288   2.212   0.745
 4931SOL     OW15691   7.012   0.770   0.406
 4931SOL    HW115692   0.090   0.750   0.404
 4931SOL    HW215693   6.998   0.866   0.431
 4932SOL     OW15694   2.666   2.197   1.606
 4932SOL    HW115695   2.581   2.217   1.654
 4932SOL    HW215696   2.743   2.209   1.668
 4933SOL     OW15697   2.776   0.939   4.103
 4933SOL    HW115698   2.775   0.860   4.041
 4933SOL    HW215699   2.868   0.951   4.140
 4934SOL     OW15700   0.894   5.950   4.413
 4934SOL    HW115701   0.918   5.996   4.328
 4934SOL    HW215702   0.841   6.012   4.471
 4935SOL     OW15703   1.584   1.180   0.652
 4935SOL    HW115704   1.671   1.151   0.693
 4935SOL    HW215705   1.597   1.268   0.607
 4936SOL     OW15706   4.019   5.419   0.752
 4936SOL    HW115707   4.041   5.490   0.686
 4936SOL    HW215708   3.920   5.401   0.750
 4937SOL     OW15709   0.567   2.886   6.137
 4937SOL    HW115710   0.631   2.819   6.101
 4937SOL    HW215711   0.615   2.948   6.198
 4938SOL     OW15712   3.480   4.642   1.591
 4938SOL    HW115713   3.529   4.648   1.678
 4938SOL    HW215714   3.389   4.603   1.607
 4939SOL     OW15715   1.974   1.692   1.901
 4939SOL    HW115716   1.950   1.597   1.924
 4939SOL    HW215717   1.907   1.729   1.838
 4940SOL     OW15718   0.463   2.547   4.844
 4940SOL    HW115719   0.454   2.523   4.941
 4940SOL    HW215720   0.373   2.543   4.800
 4941SOL     OW15721   3.788   2.261   5.301
 4941SOL    HW115722   3.864   2.324   5.314
 4941SOL    HW215723   3.821   2.176   5.260
 4942SOL     OW15724   6.070   1.880   4.091
 4942SOL    HW115725   6.052   1.781   4.095
 4942SOL    HW215726   6.104   1.904   4.000
 4943SOL     OW15727   5.795   2.897   6.528
 4943SOL    HW115728   5.826   2.973   6.585
 4943SOL    HW215729   5.795   2.812   6.581
 4944SOL     OW15730   1.445   5.285   1.171
 4944SOL    HW115731   1.375   5.250   1.109
 4944SOL    HW215732   1.446   5.230   1.254
 4945SOL     OW15733   1.956   1.138   4.982
 4945SOL    HW115734   1.861   1.109   4.980
 4945SOL    HW215735   1.963   1.235   4.958
 4946SOL     OW15736   2.077   5.321   0.053
 4946SOL    HW115737   2.024   5.352   0.132
 4946SOL    HW215738   2.094   5.223   0.060
 4947SOL     OW15739   1.675   1.006   1.822
 4947SOL    HW115740   1.709   1.081   1.765
 4947SOL    HW215741   1.711   0.919   1.788
 4948SOL     OW15742   1.355   2.450   1.907
 4948SOL    HW115743   1.278   2.514   1.913
 4948SOL    HW215744   1.350   2.384   1.981
 4949SOL     OW15745   6.971   4.092   0.434
 4949SOL    HW115746   0.042   4.130   0.415
 4949SOL    HW215747   6.907   4.126   0.366
 4950SOL     OW15748   2.114   4.059   5.222
 4950SOL    HW115749   2.113   4.156   5.248
 4950SOL    HW215750   2.208   4.032   5.200
 4951SOL     OW15751   4.797   5.631   3.577
 4951SOL    HW115752   4.827   5.547   3.531
 4951SOL    HW215753   4.865   5.703   3.563
 4952SOL     OW15754   0.564   6.555   5.995
 4952SOL    HW115755   0.572   6.651   6.021
 4952SOL    HW215756   0.473   6.538   5.958
 4953SOL     OW15757   0.790   2.231   4.568
 4953SOL    HW115758   0.822   2.302   4.630
 4953SOL    HW215759   0.691   2.219   4.580
 4954SOL     OW15760   3.199   4.152   4.732
 4954SOL    HW115761   3.153   4.240   4.749
 4954SOL    HW215762   3.241   4.120   4.817
 4955SOL     OW15763   3.137   5.505   0.093
 4955SOL    HW115764   3.204   5.431   0.100
 4955SOL    HW215765   3.183   5.593   0.100
 4956SOL     OW15766   2.450   6.937   4.849
 4956SOL    HW115767   2.456   7.017   4.909
 4956SOL    HW215768   2.359   6.896   4.857
 4957SOL     OW15769   6.035   4.514   0.299
 4957SOL    HW115770   5.978   4.583   0.344
 4957SOL    HW215771   5.976   4.455   0.243
 4958SOL     OW15772   2.983   6.473   0.325
 4958SOL    HW115773   2.887   6.484   0.351
 4958SOL    HW215774   3.006   6.540   0.254
 4959SOL     OW15775   0.849   3.379   2.350
 4959SOL    HW115776   0.897   3.458   2.311
 4959SOL    HW215777   0.916   3.310   2.377
 4960SOL     OW15778   3.997   5.917   4.184
 4960SOL    HW115779   4.014   6.002   4.135
 4960SOL    HW215780   4.074   5.898   4.245
 4961SOL     OW15781   3.824   1.131   0.444
 4961SOL    HW115782   3.881   1.105   0.523
 4961SOL    HW215783   3.730   1.102   0.460
 4962SOL     OW15784   0.896   4.408   1.065
 4962SOL    HW115785   0.877   4.408   1.163
 4962SOL    HW215786   0.994   4.411   1.050
 4963SOL     OW15787   1.033   4.088   6.047
 4963SOL    HW115788   1.119   4.132   6.074
 4963SOL    HW215789   0.976   4.075   6.127
 4964SOL     OW15790   2.849   6.751   4.628
 4964SOL    HW115791   2.757   6.786   4.610
 4964SOL    HW215792   2.916   6.802   4.573
 4965SOL     OW15793   1.417   6.241   2.816
 4965SOL    HW115794   1.398   6.336   2.791
 4965SOL    HW215795   1.338   6.201   2.862
 4966SOL     OW15796   3.677   6.195   4.625
 4966SOL    HW115797   3.633   6.236   4.706
 4966SOL    HW215798   3.611   6.190   4.550
 4967SOL     OW15799   4.271   4.795   4.923
 4967SOL    HW115800   4.316   4.872   4.967
 4967SOL    HW215801   4.314   4.710   4.953
 4968SOL     OW15802   6.941   1.630   3.274
 4968SOL    HW115803   6.929   1.536   3.307
 4968SOL    HW215804   6.961   1.690   3.352
 4969SOL     OW15805   0.710   5.936   2.917
 4969SOL    HW115806   0.746   5.843   2.905
 4969SOL    HW215807   0.614   5.931   2.946
 4970SOL     OW15808   1.367   1.270   1.705
 4970SOL    HW115809   1.311   1.331   1.649
 4970SOL    HW215810   1.405   1.197   1.648
 4971SOL     OW15811   6.915   6.343   3.045
 4971SOL    HW115812   6.901   6.367   2.949
 4971SOL    HW215813   6.884   6.419   3.102
 4972SOL     OW15814   1.748   4.296   1.281
 4972SOL    HW115815   1.744   4.343   1.193
 4972SOL    HW215816   1.695   4.212   1.278
 4973SOL     OW15817   6.795   0.466   1.129
 4973SOL    HW115818   6.855   0.449   1.050
 4973SOL    HW215819   6.829   0.545   1.180
 4974SOL     OW15820   3.658   5.003   5.194
 4974SOL    HW115821   3.673   4.988   5.096
 4974SOL    HW215822   3.743   5.035   5.236
 4975SOL     OW15823   5.997   3.682   0.633
 4975SOL    HW115824   5.920   3.619   0.629
 4975SOL    HW215825   5.999   3.729   0.721
 4976SOL     OW15826   1.528   0.037   4.536
 4976SOL    HW115827   1.448   0.029   4.477
 4976SOL    HW215828   1.611   0.031   4.480
 4977SOL     OW15829   2.647   4.810   6.333
 4977SOL    HW115830   2.666   4.715   6.359
 4977SOL    HW215831   2.654   4.868   6.414
 4978SOL     OW15832   5.092   4.695   5.052
 4978SOL    HW115833   5.099   4.618   4.989
 4978SOL    HW215834   5.174   4.752   5.044
 4979SOL     OW15835   1.777   6.806   6.304
 4979SOL    HW115836   1.718   6.775   6.230
 4979SOL    HW215837   1.865   6.758   6.300
 4980SOL     OW15838   5.980   4.192   2.690
 4980SOL    HW115839   5.922   4.126   2.642
 4980SOL    HW215840   6.069   4.197   2.645
 4981SOL     OW15841   3.538   4.921   1.745
 4981SOL    HW115842   3.631   4.915   1.708
 4981SOL    HW215843   3.526   4.852   1.816
 4982SOL     OW15844   4.655   1.447   6.556
 4982SOL    HW115845   4.730   1.429   6.492
 4982SOL    HW215846   4.592   1.514   6.517
 4983SOL     OW15847   6.960   5.228   2.876
 4983SOL    HW115848   6.961   5.322   2.844
 4983SOL    HW215849   0.011   5.215   2.946
 4984SOL     OW15850   5.375   4.357   2.902
 4984SOL    HW115851   5.349   4.447   2.868
 4984SOL    HW215852   5.314   4.288   2.863
 4985SOL     OW15853   5.850   5.590   3.256
 4985SOL    HW115854   5.819   5.649   3.181
 4985SOL    HW215855   5.859   5.645   3.339
 4986SOL     OW15856   1.222   4.995   2.483
 4986SOL    HW115857   1.242   5.042   2.398
 4986SOL    HW215858   1.204   4.898   2.465
 4987SOL     OW15859   0.619   0.698   2.104
 4987SOL    HW115860   0.614   0.664   2.010
 4987SOL    HW215861   0.561   0.642   2.163
 4988SOL     OW15862   5.926   0.212   3.420
 4988SOL    HW115863   5.962   0.199   3.512
 4988SOL    HW215864   5.906   0.123   3.379
 4989SOL     OW15865   4.043   1.473   2.778
 4989SOL    HW115866   4.009   1.380   2.767
 4989SOL    HW215867   3.976   1.538   2.741
 4990SOL     OW15868   4.507   1.733   5.397
 4990SOL    HW115869   4.454   1.812   5.368
 4990SOL    HW215870   4.474   1.702   5.487
 4991SOL     OW15871   1.009   5.387   5.139
 4991SOL    HW115872   1.033   5.477   5.102
 4991SOL    HW215873   0.960   5.399   5.226
 4992SOL     OW15874   0.010   1.500   3.567
 4992SOL    HW115875   7.005   1.442   3.489
 4992SOL    HW215876   0.040   1.443   3.643
 4993SOL     OW15877   4.064   6.639   4.664
 4993SOL    HW115878   4.121   6.718   4.645
 4993SOL    HW215879   3.968   6.667   4.665
 4994SOL     OW15880   3.275   5.158   6.083
 4994SOL    HW115881   3.211   5.084   6.062
 4994SOL    HW215882   3.245   5.242   6.038
 4995SOL     OW15883   1.014   0.405   5.219
 4995SOL    HW115884   1.074   0.329   5.243
 4995SOL    HW215885   0.922   0.371   5.204
 4996SOL     OW15886   6.792   0.917   4.725
 4996SOL    HW115887   6.764   0.823   4.740
 4996SOL    HW215888   6.786   0.968   4.810
 4997SOL     OW15889   3.417   2.136   1.503
 4997SOL    HW115890   3.352   2.202   1.466
 4997SOL    HW215891   3.475   2.181   1.571
 4998SOL     OW15892   1.094   3.349   4.071
 4998SOL    HW115893   1.090   3.261   4.023
 4998SOL    HW215894   1.050   3.419   4.014
 4999SOL     OW15895   0.418   3.645   4.787
 4999SOL    HW115896   0.392   3.563   4.736
 4999SOL    HW215897   0.486   3.621   4.856
 5000SOL     OW15898   2.967   5.520   3.858
 5000SOL    HW115899   2.978   5.439   3.800
 5000SOL    HW215900   3.019   5.509   3.942
 5001SOL     OW15901   0.974   4.961   2.642
 5001SOL    HW115902   1.037   4.959   2.565
 5001SOL    HW215903   1.002   5.033   2.706
 5002SOL     OW15904   0.665   3.819   3.075
 5002SOL    HW115905   0.667   3.743   3.140
 5002SOL    HW215906   0.659   3.905   3.126
 5003SOL     OW15907   4.323   6.562   3.680
 5003SOL    HW115908   4.414   6.603   3.672
 5003SOL    HW215909   4.287   6.542   3.589
 5004SOL     OW15910   2.703   5.917   6.144
 5004SOL    HW115911   2.780   5.977   6.122
 5004SOL    HW215912   2.712   5.884   6.238
 5005SOL     OW15913   2.909   2.907   6.258
 5005SOL    HW115914   2.871   2.898   6.350
 5005SOL    HW215915   2.949   2.819   6.230
 5006SOL     OW15916   5.439   1.757   1.914
 5006SOL    HW115917   5.480   1.679   1.960
 5006SOL    HW215918   5.482   1.842   1.946
 5007SOL     OW15919   6.020   0.089   2.046
 5007SOL    HW115920   6.085   0.150   2.002
 5007SOL    HW215921   5.979   0.028   1.977
 5008SOL     OW15922   6.213   6.557   1.611
 5008SOL    HW115923   6.152   6.500   1.667
 5008SOL    HW215924   6.158   6.616   1.552
 5009SOL     OW15925   1.067   2.474   0.082
 5009SOL    HW115926   0.983   2.527   0.076
 5009SOL    HW215927   1.115   2.497   0.167
 5010SOL     OW15928   3.794   3.028   0.465
 5010SOL    HW115929   3.698   3.003   0.477
 5010SOL    HW215930   3.847   3.000   0.545
 5011SOL     OW15931   2.129   3.804   6.727
 5011SOL    HW115932   2.048   3.801   6.786
 5011SOL    HW215933   2.210   3.823   6.782
 5012SOL     OW15934   5.806   1.717   5.112
 5012SOL    HW115935   5.831   1.674   5.198
 5012SOL    HW215936   5.778   1.646   5.046
 5013SOL     OW15937   5.781   0.141   5.805
 5013SOL    HW115938   5.768   0.231   5.763
 5013SOL    HW215939   5.692   0.107   5.837
 5014SOL     OW15940   6.475   3.444   1.709
 5014SOL    HW115941   6.558   3.446   1.766
 5014SOL    HW215942   6.501   3.422   1.615
 5015SOL     OW15943   5.540   7.017   3.865
 5015SOL    HW115944   5.540   6.918   3.852
 5015SOL    HW215945   5.605   0.021   3.937
 5016SOL     OW15946   1.305   3.424   4.925
 5016SOL    HW115947   1.403   3.407   4.927
 5016SOL    HW215948   1.259   3.353   4.871
 5017SOL     OW15949   0.433   2.324   1.379
 5017SOL    HW115950   0.443   2.351   1.283
 5017SOL    HW215951   0.337   2.330   1.406
 5018SOL     OW15952   0.463   5.869   1.619
 5018SOL    HW115953   0.415   5.957   1.617
 5018SOL    HW215954   0.399   5.796   1.642
 5019SOL     OW15955   1.393   5.189   5.121
 5019SOL    HW115956   1.467   5.127   5.147
 5019SOL    HW215957   1.387   5.263   5.188
 5020SOL     OW15958   0.564   6.657   4.424
 5020SOL    HW115959   0.533   6.602   4.347
 5020SOL    HW215960   0.527   6.750   4.416
 5021SOL     OW15961   1.969   0.917   1.098
 5021SOL    HW115962   1.930   1.008   1.085
 5021SOL    HW215963   1.896   0.849   1.097
 5022SOL     OW15964   0.549   3.033   1.439
 5022SOL    HW115965   0.567   3.106   1.372
 5022SOL    HW215966   0.456   3.041   1.472
 5023SOL     OW15967   0.807   4.504   2.196
 5023SOL    HW115968   0.817   4.405   2.204
 5023SOL    HW215969   0.738   4.526   2.128
 5024SOL     OW15970   5.217   3.814   1.508
 5024SOL    HW115971   5.253   3.739   1.452
 5024SOL    HW215972   5.154   3.869   1.453
 5025SOL     OW15973   4.179   1.166   3.490
 5025SOL    HW115974   4.243   1.166   3.567
 5025SOL    HW215975   4.139   1.257   3.480
 5026SOL     OW15976   6.159   6.206   5.157
 5026SOL    HW115977   6.167   6.117   5.203
 5026SOL    HW215978   6.246   6.255   5.164
 5027SOL     OW15979   5.422   0.508   6.961
 5027SOL    HW115980   5.334   0.556   6.959
 5027SOL    HW215981   5.479   0.545   0.014
 5028SOL     OW15982   6.910   2.591   2.750
 5028SOL    HW115983   6.997   2.553   2.720
 5028SOL    HW215984   6.922   2.687   2.775
 5029SOL     OW15985   6.384   2.317   2.162
 5029SOL    HW115986   6.291   2.349   2.182
 5029SOL    HW215987   6.448   2.360   2.226
 5030SOL     OW15988   6.945   5.417   6.735
 5030SOL    HW115989   6.870   5.375   6.786
 5030SOL    HW215990   7.012   5.347   6.710
 5031SOL     OW15991   6.949   0.526   5.620
 5031SOL    HW115992   6.928   0.517   5.523
 5031SOL    HW215993   6.864   0.517   5.673
 5032SOL     OW15994   3.653   2.977   5.256
 5032SOL    HW115995   3.565   2.970   5.208
 5032SOL    HW215996   3.727   2.967   5.190
 5033SOL     OW15997   2.263   1.244   0.807
 5033SOL    HW115998   2.239   1.290   0.722
 5033SOL    HW215999   2.185   1.190   0.839
 5034SOL     OW16000   4.769   6.332   4.015
 5034SOL    HW116001   4.860   6.350   4.053
 5034SOL    HW216002   4.712   6.289   4.085
 5035SOL     OW16003   0.616   4.401   4.552
 5035SOL    HW116004   0.684   4.355   4.610
 5035SOL    HW216005   0.524   4.377   4.582
 5036SOL     OW16006   6.677   3.398   5.285
 5036SOL    HW116007   6.772   3.417   5.262
 5036SOL    HW216008   6.622   3.480   5.269
 5037SOL     OW16009   4.632   4.530   1.147
 5037SOL    HW116010   4.561   4.461   1.163
 5037SOL    HW216011   4.589   4.620   1.138
 5038SOL     OW16012   3.299   3.377   4.043
 5038SOL    HW116013   3.398   3.383   4.049
 5038SOL    HW216014   3.274   3.305   3.978
 5039SOL     OW16015   2.040   2.986   6.337
 5039SOL    HW116016   2.026   2.887   6.337
 5039SOL    HW216017   2.025   3.021   6.430
 5040SOL     OW16018   1.209   5.193   5.803
 5040SOL    HW116019   1.298   5.238   5.803
 5040SOL    HW216020   1.162   5.211   5.890
 5041SOL     OW16021   0.385   3.428   1.910
 5041SOL    HW116022   0.428   3.518   1.898
 5041SOL    HW216023   0.352   3.419   2.004
 5042SOL     OW16024   7.010   3.510   5.915
 5042SOL    HW116025   6.968   3.547   5.831
 5042SOL    HW216026   0.058   3.441   5.890
 5043SOL     OW16027   4.259   0.744   0.523
 5043SOL    HW116028   4.216   0.807   0.588
 5043SOL    HW216029   4.204   0.660   0.517
 5044SOL     OW16030   6.958   5.471   0.718
 5044SOL    HW116031   6.868   5.471   0.764
 5044SOL    HW216032   6.952   5.416   0.635
 5045SOL     OW16033   6.034   3.990   6.474
 5045SOL    HW116034   5.960   4.007   6.538
 5045SOL    HW216035   6.016   4.039   6.388
 5046SOL     OW16036   3.251   3.284   3.793
 5046SOL    HW116037   3.205   3.364   3.753
 5046SOL    HW216038   3.206   3.201   3.763
 5047SOL     OW16039   1.817   3.555   2.976
 5047SOL    HW116040   1.742   3.593   3.030
 5047SOL    HW216041   1.781   3.512   2.894
 5048SOL     OW16042   1.466   1.488   5.750
 5048SOL    HW116043   1.484   1.492   5.652
 5048SOL    HW216044   1.493   1.398   5.785
 5049SOL     OW16045   6.364   0.590   6.151
 5049SOL    HW116046   6.300   0.598   6.075
 5049SOL    HW216047   6.347   0.664   6.216
 5050SOL     OW16048   1.843   1.119   0.429
 5050SOL    HW116049   1.762   1.130   0.372
 5050SOL    HW216050   1.925   1.123   0.372
 5051SOL     OW16051   3.759   4.573   1.391
 5051SOL    HW116052   3.773   4.672   1.390
 5051SOL    HW216053   3.840   4.528   1.428
 5052SOL     OW16054   3.310   1.870   5.467
 5052SOL    HW116055   3.361   1.784   5.475
 5052SOL    HW216056   3.317   1.921   5.553
 5053SOL     OW16057   0.496   5.131   2.469
 5053SOL    HW116058   0.500   5.101   2.374
 5053SOL    HW216059   0.563   5.203   2.484
 5054SOL     OW16060   3.985   4.661   5.287
 5054SOL    HW116061   4.002   4.704   5.198
 5054SOL    HW216062   3.898   4.611   5.284
 5055SOL     OW16063   6.563   3.232   6.156
 5055SOL    HW116064   6.607   3.169   6.220
 5055SOL    HW216065   6.540   3.317   6.203
 5056SOL     OW16066   5.244   3.716   5.215
 5056SOL    HW116067   5.204   3.691   5.127
 5056SOL    HW216068   5.282   3.635   5.259
 5057SOL     OW16069   1.109   6.811   2.242
 5057SOL    HW116070   1.027   6.803   2.299
 5057SOL    HW216071   1.082   6.820   2.146
 5058SOL     OW16072   2.860   5.032   6.634
 5058SOL    HW116073   2.761   5.027   6.646
 5058SOL    HW216074   2.900   4.942   6.654
 5059SOL     OW16075   0.664   0.597   2.838
 5059SOL    HW116076   0.633   0.508   2.807
 5059SOL    HW216077   0.692   0.652   2.759
 5060SOL     OW16078   6.522   1.797   6.490
 5060SOL    HW116079   6.491   1.850   6.411
 5060SOL    HW216080   6.442   1.769   6.544
 5061SOL     OW16081   4.697   3.132   0.250
 5061SOL    HW116082   4.624   3.083   0.204
 5061SOL    HW216083   4.681   3.231   0.242
 5062SOL     OW16084   0.585   0.032   1.191
 5062SOL    HW116085   0.542   0.109   1.144
 5062SOL    HW216086   0.665   0.065   1.243
 5063SOL     OW16087   0.834   6.888   2.023
 5063SOL    HW116088   0.769   6.819   1.990
 5063SOL    HW216089   0.789   6.946   2.091
 5064SOL     OW16090   4.418   3.156   0.401
 5064SOL    HW116091   4.431   3.256   0.406
 5064SOL    HW216092   4.490   3.111   0.455
 5065SOL     OW16093   2.560   6.867   5.404
 5065SOL    HW116094   2.579   6.773   5.433
 5065SOL    HW216095   2.469   6.871   5.363
 5066SOL     OW16096   5.689   4.756   1.578
 5066SOL    HW116097   5.652   4.663   1.588
 5066SOL    HW216098   5.760   4.756   1.507
 5067SOL     OW16099   4.984   0.953   0.638
 5067SOL    HW116100   5.049   1.001   0.696
 5067SOL    HW216101   4.996   0.854   0.649
 5068SOL     OW16102   3.023   4.760   0.432
 5068SOL    HW116103   3.056   4.692   0.498
 5068SOL    HW216104   3.100   4.793   0.377
 5069SOL     OW16105   0.774   4.682   2.873
 5069SOL    HW116106   0.704   4.616   2.900
 5069SOL    HW216107   0.751   4.721   2.784
 5070SOL     OW16108   4.982   3.171   4.192
 5070SOL    HW116109   5.009   3.235   4.264
 5070SOL    HW216110   5.063   3.145   4.139
 5071SOL     OW16111   4.237   1.988   5.870
 5071SOL    HW116112   4.218   2.070   5.925
 5071SOL    HW216113   4.227   2.011   5.773
 5072SOL     OW16114   0.295   4.614   0.907
 5072SOL    HW116115   0.335   4.672   0.977
 5072SOL    HW216116   0.203   4.647   0.885
 5073SOL     OW16117   6.186   6.658   2.240
 5073SOL    HW116118   6.147   6.744   2.274
 5073SOL    HW216119   6.174   6.654   2.140
 5074SOL     OW16120   2.939   4.211   6.612
 5074SOL    HW116121   2.960   4.289   6.553
 5074SOL    HW216122   2.870   4.153   6.568
 5075SOL     OW16123   0.501   5.358   5.148
 5075SOL    HW116124   0.527   5.284   5.087
 5075SOL    HW216125   0.508   5.446   5.100
 5076SOL     OW16126   2.990   0.558   0.736
 5076SOL    HW116127   3.023   0.518   0.822
 5076SOL    HW216128   3.068   0.591   0.683
 5077SOL     OW16129   1.489   2.655   3.526
 5077SOL    HW116130   1.418   2.691   3.585
 5077SOL    HW216131   1.551   2.597   3.579
 5078SOL     OW16132   1.489   2.086   4.553
 5078SOL    HW116133   1.486   2.185   4.570
 5078SOL    HW216134   1.520   2.070   4.460
 5079SOL     OW16135   3.552   5.069   5.593
 5079SOL    HW116136   3.518   5.085   5.500
 5079SOL    HW216137   3.651   5.056   5.590
 5080SOL     OW16138   5.681   6.422   5.639
 5080SOL    HW116139   5.602   6.384   5.591
 5080SOL    HW216140   5.749   6.452   5.572
 5081SOL     OW16141   3.263   3.737   3.023
 5081SOL    HW116142   3.237   3.795   2.946
 5081SOL    HW216143   3.362   3.732   3.029
 5082SOL     OW16144   5.475   5.901   5.810
 5082SOL    HW116145   5.462   5.970   5.881
 5082SOL    HW216146   5.570   5.871   5.809
 5083SOL     OW16147   1.455   6.656   1.853
 5083SOL    HW116148   1.442   6.557   1.857
 5083SOL    HW216149   1.553   6.676   1.840
 5084SOL     OW16150   1.176   5.636   3.936
 5084SOL    HW116151   1.218   5.553   3.973
 5084SOL    HW216152   1.208   5.716   3.988
 5085SOL     OW16153   5.778   1.641   6.573
 5085SOL    HW116154   5.874   1.662   6.553
 5085SOL    HW216155   5.740   1.714   6.630
 5086SOL     OW16156   6.605   4.908   3.919
 5086SOL    HW116157   6.535   4.844   3.949
 5086SOL    HW216158   6.580   5.000   3.947
 5087SOL     OW16159   6.530   5.867   4.973
 5087SOL    HW116160   6.579   5.789   4.935
 5087SOL    HW216161   6.520   5.938   4.903
 5088SOL     OW16162   6.115   0.579   5.625
 5088SOL    HW116163   6.132   0.513   5.552
 5088SOL    HW216164   6.049   0.541   5.689
 5089SOL     OW16165   5.587   3.390   2.980
 5089SOL    HW116166   5.613   3.296   3.003
 5089SOL    HW216167   5.488   3.401   2.989
 5090SOL     OW16168   1.559   5.030   1.581
 5090SOL    HW116169   1.618   4.994   1.653
 5090SOL    HW216170   1.495   4.959   1.551
 5091SOL     OW16171   0.996   6.220   2.250
 5091SOL    HW116172   0.953   6.196   2.163
 5091SOL    HW216173   1.060   6.295   2.236
 5092SOL     OW16174   3.423   2.077   0.619
 5092SOL    HW116175   3.505   2.019   0.610
 5092SOL    HW216176   3.449   2.173   0.613
 5093SOL     OW16177   1.479   1.924   2.117
 5093SOL    HW116178   1.397   1.968   2.081
 5093SOL    HW216179   1.456   1.833   2.151
 5094SOL     OW16180   0.585   6.238   5.098
 5094SOL    HW116181   0.598   6.336   5.082
 5094SOL    HW216182   0.670   6.199   5.134
 5095SOL     OW16183   2.411   0.260   5.265
 5095SOL    HW116184   2.347   0.313   5.321
 5095SOL    HW216185   2.497   0.310   5.258
 5096SOL     OW16186   5.146   3.715   1.083
 5096SOL    HW116187   5.099   3.670   1.008
 5096SOL    HW216188   5.161   3.811   1.061
 5097SOL     OW16189   1.782   6.549   5.796
 5097SOL    HW116190   1.696   6.558   5.847
 5097SOL    HW216191   1.849   6.502   5.852
 5098SOL     OW16192   0.219   1.588   2.710
 5098SOL    HW116193   0.213   1.491   2.733
 5098SOL    HW216194   0.286   1.632   2.771
 5099SOL     OW16195   1.409   0.159   5.097
 5099SOL    HW116196   1.371   0.251   5.100
 5099SOL    HW216197   1.386   0.117   5.009
 5100SOL     OW16198   5.661   5.932   0.257
 5100SOL    HW116199   5.616   5.990   0.190
 5100SOL    HW216200   5.758   5.954   0.262
 5101SOL     OW16201   4.160   6.323   6.754
 5101SOL    HW116202   4.236   6.349   6.814
 5101SOL    HW216203   4.144   6.395   6.687
 5102SOL     OW16204   4.044   6.937   4.982
 5102SOL    HW116205   3.956   6.964   4.943
 5102SOL    HW216206   4.117   6.991   4.941
 5103SOL     OW16207   0.125   0.476   3.988
 5103SOL    HW116208   0.177   0.540   3.931
 5103SOL    HW216209   0.188   0.414   4.035
 5104SOL     OW16210   1.413   0.570   2.045
 5104SOL    HW116211   1.376   0.637   1.980
 5104SOL    HW216212   1.445   0.618   2.127
 5105SOL     OW16213   3.554   3.843   6.415
 5105SOL    HW116214   3.576   3.905   6.340
 5105SOL    HW216215   3.473   3.789   6.391
 5106SOL     OW16216   3.450   0.221   2.326
 5106SOL    HW116217   3.463   0.319   2.344
 5106SOL    HW216218   3.474   0.169   2.408
 5107SOL     OW16219   2.528   0.275   6.423
 5107SOL    HW116220   2.611   0.311   6.381
 5107SOL    HW216221   2.453   0.279   6.357
 5108SOL     OW16222   2.930   3.659   4.055
 5108SOL    HW116223   2.902   3.754   4.044
 5108SOL    HW216224   2.952   3.641   4.151
 5109SOL     OW16225   0.226   1.061   1.306
 5109SOL    HW116226   0.287   0.982   1.305
 5109SOL    HW216227   0.278   1.143   1.331
 5110SOL     OW16228   2.005   5.541   5.663
 5110SOL    HW116229   1.908   5.560   5.678
 5110SOL    HW216230   2.053   5.541   5.751
 5111SOL     OW16231   1.572   1.209   7.010
 5111SOL    HW116232   1.573   1.179   6.914
 5111SOL    HW216233   1.503   1.157   0.040
 5112SOL     OW16234   0.585   6.051   3.767
 5112SOL    HW116235   0.589   6.061   3.867
 5112SOL    HW216236   0.505   5.996   3.743
 5113SOL     OW16237   1.440   0.650   0.139
 5113SOL    HW116238   1.526   0.700   0.125
 5113SOL    HW216239   1.408   0.614   0.051
 5114SOL     OW16240   3.740   4.860   6.920
 5114SOL    HW116241   3.672   4.799   6.880
 5114SOL    HW216242   3.710   4.955   6.910
 5115SOL     OW16243   1.754   3.680   5.377
 5115SOL    HW116244   1.727   3.694   5.472
 5115SOL    HW216245   1.797   3.590   5.367
 5116SOL     OW16246   6.314   5.065   0.142
 5116SOL    HW116247   6.410   5.037   0.131
 5116SOL    HW216248   6.254   4.987   0.123
 5117SOL     OW16249   2.430   4.420   4.864
 5117SOL    HW116250   2.356   4.393   4.925
 5117SOL    HW216251   2.516   4.382   4.898
 5118SOL     OW16252   4.368   6.059   0.091
 5118SOL    HW116253   4.381   6.152   0.126
 5118SOL    HW216254   4.435   5.998   0.132
 5119SOL     OW16255   5.979   0.900   1.916
 5119SOL    HW116256   5.984   0.903   2.016
 5119SOL    HW216257   5.901   0.954   1.885
 5120SOL     OW16258   4.999   1.569   2.533
 5120SOL    HW116259   5.038   1.653   2.495
 5120SOL    HW216260   5.026   1.560   2.629
 5121SOL     OW16261   6.962   3.204   5.281
 5121SOL    HW116262   6.934   3.254   5.363
 5121SOL    HW216263   6.923   3.112   5.282
 5122SOL     OW16264   2.228   6.866   3.448
 5122SOL    HW116265   2.187   6.904   3.365
 5122SOL    HW216266   2.235   6.937   3.518
 5123SOL     OW16267   4.739   4.140   2.769
 5123SOL    HW116268   4.722   4.107   2.862
 5123SOL    HW216269   4.808   4.212   2.771
 5124SOL     OW16270   2.998   6.404   6.613
 5124SOL    HW116271   3.036   6.313   6.597
 5124SOL    HW216272   3.066   6.461   6.658
 5125SOL     OW16273   6.984   2.853   4.479
 5125SOL    HW116274   7.008   2.892   4.390
 5125SOL    HW216275   0.007   2.764   4.489
 5126SOL     OW16276   6.166   4.804   6.338
 5126SOL    HW116277   6.203   4.889   6.300
 5126SOL    HW216278   6.183   4.729   6.274
 5127SOL     OW16279   5.876   3.181   6.676
 5127SOL    HW116280   5.890   3.280   6.677
 5127SOL    HW216281   5.964   3.135   6.660
 5128SOL     OW16282   6.944   0.535   6.765
 5128SOL    HW116283   6.869   0.567   6.822
 5128SOL    HW216284   6.985   0.454   6.808
 5129SOL     OW16285   4.645   1.817   2.215
 5129SOL    HW116286   4.560   1.779   2.177
 5129SOL    HW216287   4.655   1.787   2.310
 5130SOL     OW16288   1.277   5.393   4.020
 5130SOL    HW116289   1.198   5.333   4.029
 5130SOL    HW216290   1.361   5.343   4.044
 5131SOL     OW16291   3.148   5.188   3.128
 5131SOL    HW116292   3.141   5.141   3.040
 5131SOL    HW216293   3.196   5.275   3.117
 5132SOL     OW16294   3.956   1.640   0.006
 5132SOL    HW116295   3.861   1.673   0.005
 5132SOL    HW216296   3.997   1.659   0.095
 5133SOL     OW16297   4.074   4.438   6.838
 5133SOL    HW116298   4.012   4.500   6.886
 5133SOL    HW216299   4.163   4.482   6.827
 5134SOL     OW16300   6.685   6.104   1.647
 5134SOL    HW116301   6.733   6.188   1.670
 5134SOL    HW216302   6.752   6.034   1.621
 5135SOL     OW16303   6.117   3.129   1.854
 5135SOL    HW116304   6.171   3.110   1.771
 5135SOL    HW216305   6.077   3.044   1.887
 5136SOL     OW16306   0.473   0.615   6.141
 5136SOL    HW116307   0.374   0.615   6.130
 5136SOL    HW216308   0.514   0.551   6.076
 5137SOL     OW16309   5.226   1.000   5.076
 5137SOL    HW116310   5.207   0.973   5.170
 5137SOL    HW216311   5.196   0.928   5.013
 5138SOL     OW16312   3.492   2.865   4.191
 5138SOL    HW116313   3.449   2.847   4.279
 5138SOL    HW216314   3.462   2.954   4.157
 5139SOL     OW16315   2.127   0.147   4.632
 5139SOL    HW116316   2.086   0.126   4.544
 5139SOL    HW216317   2.218   0.187   4.618
 5140SOL     OW16318   4.483   2.179   6.550
 5140SOL    HW116319   4.528   2.128   6.477
 5140SOL    HW216320   4.387   2.192   6.528
 5141SOL     OW16321   6.219   3.112   2.439
 5141SOL    HW116322   6.214   3.017   2.407
 5141SOL    HW216323   6.277   3.165   2.377
 5142SOL     OW16324   0.202   0.216   2.511
 5142SOL    HW116325   0.203   0.222   2.611
 5142SOL    HW216326   0.269   0.279   2.473
 5143SOL     OW16327   0.572   5.351   3.684
 5143SOL    HW116328   0.575   5.447   3.655
 5143SOL    HW216329   0.664   5.321   3.711
 5144SOL     OW16330   2.633   2.850   6.166
 5144SOL    HW116331   2.732   2.859   6.179
 5144SOL    HW216332   2.610   2.878   6.073
 5145SOL     OW16333   2.970   6.091   6.802
 5145SOL    HW116334   2.991   6.021   6.870
 5145SOL    HW216335   3.050   6.107   6.745
 5146SOL     OW16336   5.438   4.866   5.978
 5146SOL    HW116337   5.496   4.917   5.915
 5146SOL    HW216338   5.385   4.798   5.928
 5147SOL     OW16339   4.818   2.789   3.531
 5147SOL    HW116340   4.757   2.833   3.597
 5147SOL    HW216341   4.897   2.752   3.578
 5148SOL     OW16342   0.538   6.718   0.734
 5148SOL    HW116343   0.557   6.621   0.753
 5148SOL    HW216344   0.487   6.757   0.811
 5149SOL     OW16345   5.258   4.372   3.430
 5149SOL    HW116346   5.358   4.381   3.426
 5149SOL    HW216347   5.228   4.381   3.525
 5150SOL     OW16348   0.393   5.865   3.763
 5150SOL    HW116349   0.362   5.960   3.770
 5150SOL    HW216350   0.315   5.805   3.747
 5151SOL     OW16351   5.789   5.290   1.604
 5151SOL    HW116352   5.775   5.191   1.598
 5151SOL    HW216353   5.761   5.323   1.694
 5152SOL     OW16354   1.246   1.068   6.531
 5152SOL    HW116355   1.245   1.146   6.469
 5152SOL    HW216356   1.194   1.091   6.613
 5153SOL     OW16357   1.179   1.932   0.926
 5153SOL    HW116358   1.103   1.992   0.899
 5153SOL    HW216359   1.228   1.902   0.844
 5154SOL     OW16360   6.805   2.956   6.622
 5154SOL    HW116361   6.873   2.907   6.678
 5154SOL    HW216362   6.786   3.045   6.664
 5155SOL     OW16363   1.819   1.588   0.974
 5155SOL    HW116364   1.841   1.652   1.048
 5155SOL    HW216365   1.720   1.589   0.959
 5156SOL     OW16366   5.330   5.516   5.730
 5156SOL    HW116367   5.406   5.546   5.673
 5156SOL    HW216368   5.252   5.492   5.672
 5157SOL     OW16369   4.185   0.332   1.590
 5157SOL    HW116370   4.247   0.290   1.657
 5157SOL    HW216371   4.140   0.411   1.632
 5158SOL     OW16372   2.542   1.632   2.490
 5158SOL    HW116373   2.525   1.654   2.394
 5158SOL    HW216374   2.456   1.608   2.535
 5159SOL     OW16375   6.421   3.064   5.483
 5159SOL    HW116376   6.487   3.076   5.408
 5159SOL    HW216377   6.366   2.983   5.465
 5160SOL     OW16378   6.854   6.246   3.361
 5160SOL    HW116379   6.808   6.216   3.277
 5160SOL    HW216380   6.817   6.195   3.439
 5161SOL     OW16381   1.047   3.561   0.113
 5161SOL    HW116382   0.984   3.619   0.062
 5161SOL    HW216383   1.069   3.605   0.200
 5162SOL     OW16384   0.009   6.780   3.063
 5162SOL    HW116385   0.048   6.806   3.152
 5162SOL    HW216386   6.983   6.860   3.023
 5163SOL     OW16387   2.966   7.010   2.134
 5163SOL    HW116388   3.023   6.978   2.209
 5163SOL    HW216389   3.016   0.057   2.079
 5164SOL     OW16390   3.518   3.671   0.823
 5164SOL    HW116391   3.511   3.721   0.737
 5164SOL    HW216392   3.546   3.577   0.804
 5165SOL     OW16393   1.217   4.551   0.079
 5165SOL    HW116394   1.203   4.459   0.041
 5165SOL    HW216395   1.260   4.544   0.169
 5166SOL     OW16396   1.666   5.999   1.583
 5166SOL    HW116397   1.594   6.057   1.622
 5166SOL    HW216398   1.707   6.045   1.504
 5167SOL     OW16399   4.856   2.359   5.241
 5167SOL    HW116400   4.888   2.451   5.264
 5167SOL    HW216401   4.762   2.365   5.207
 5168SOL     OW16402   4.416   2.443   2.502
 5168SOL    HW116403   4.362   2.369   2.462
 5168SOL    HW216404   4.356   2.502   2.557
 5169SOL     OW16405   4.004   6.340   3.665
 5169SOL    HW116406   3.954   6.409   3.717
 5169SOL    HW216407   3.950   6.256   3.661
 5170SOL     OW16408   1.106   3.269   6.178
 5170SOL    HW116409   1.161   3.283   6.260
 5170SOL    HW216410   1.021   3.322   6.186
 5171SOL     OW16411   1.680   5.786   5.575
 5171SOL    HW116412   1.611   5.838   5.525
 5171SOL    HW216413   1.657   5.689   5.572
 5172SOL     OW16414   0.019   5.503   3.761
 5172SOL    HW116415   0.110   5.490   3.723
 5172SOL    HW216416   6.976   5.534   3.689
 5173SOL     OW16417   4.361   4.326   5.638
 5173SOL    HW116418   4.342   4.418   5.672
 5173SOL    HW216419   4.275   4.276   5.627
 5174SOL     OW16420   2.300   6.224   3.457
 5174SOL    HW116421   2.255   6.306   3.494
 5174SOL    HW216422   2.285   6.220   3.359
 5175SOL     OW16423   2.925   4.162   6.906
 5175SOL    HW116424   2.910   4.064   6.897
 5175SOL    HW216425   2.945   4.201   6.816
 5176SOL     OW16426   5.482   5.678   0.496
 5176SOL    HW116427   5.534   5.711   0.575
 5176SOL    HW216428   5.385   5.678   0.518
 5177SOL     OW16429   5.522   0.050   6.945
 5177SOL    HW116430   5.587   0.122   6.924
 5177SOL    HW216431   5.472   0.024   6.862
 5178SOL     OW16432   1.194   3.887   1.714
 5178SOL    HW116433   1.148   3.976   1.722
 5178SOL    HW216434   1.190   3.839   1.802
 5179SOL     OW16435   5.862   4.559   2.698
 5179SOL    HW116436   5.885   4.499   2.775
 5179SOL    HW216437   5.882   4.654   2.722
 5180SOL     OW16438   2.278   6.953   2.278
 5180SOL    HW116439   2.270   0.033   2.280
 5180SOL    HW216440   2.368   6.926   2.313
 5181SOL     OW16441   0.817   6.878   6.025
 5181SOL    HW116442   0.724   6.843   6.041
 5181SOL    HW216443   0.841   6.867   5.929
 5182SOL     OW16444   3.715   5.568   3.371
 5182SOL    HW116445   3.697   5.623   3.289
 5182SOL    HW216446   3.713   5.471   3.347
 5183SOL     OW16447   4.383   1.436   3.546
 5183SOL    HW116448   4.348   1.526   3.574
 5183SOL    HW216449   4.464   1.414   3.600
 5184SOL     OW16450   2.624   1.172   3.774
 5184SOL    HW116451   2.575   1.105   3.830
 5184SOL    HW216452   2.719   1.178   3.806
 5185SOL     OW16453   5.879   1.073   1.710
 5185SOL    HW116454   5.933   1.042   1.631
 5185SOL    HW216455   5.937   1.128   1.770
 5186SOL     OW16456   6.753   3.420   6.417
 5186SOL    HW116457   6.797   3.419   6.327
 5186SOL    HW216458   6.655   3.435   6.406
 5187SOL     OW16459   2.138   4.889   5.280
 5187SOL    HW116460   2.229   4.856   5.255
 5187SOL    HW216461   2.073   4.863   5.208
 5188SOL     OW16462   6.007   6.406   2.417
 5188SOL    HW116463   5.942   6.373   2.348
 5188SOL    HW216464   6.098   6.413   2.376
 5189SOL     OW16465   5.097   6.745   6.298
 5189SOL    HW116466   5.176   6.805   6.285
 5189SOL    HW216467   5.031   6.790   6.357
 5190SOL     OW16468   1.591   3.994   1.185
 5190SOL    HW116469   1.670   3.934   1.197
 5190SOL    HW216470   1.560   4.027   1.274
 5191SOL     OW16471   3.040   4.908   2.483
 5191SOL    HW116472   2.976   4.832   2.496
 5191SOL    HW216473   3.127   4.885   2.528
 5192SOL     OW16474   1.903   4.835   2.159
 5192SOL    HW116475   1.866   4.749   2.126
 5192SOL    HW216476   2.003   4.833   2.152
 5193SOL     OW16477   5.531   0.261   6.367
 5193SOL    HW116478   5.525   0.353   6.329
 5193SOL    HW216479   5.624   0.226   6.355
 5194SOL     OW16480   5.157   1.984   6.655
 5194SOL    HW116481   5.255   1.976   6.673
 5194SOL    HW216482   5.107   1.922   6.716
 5195SOL     OW16483   6.896   0.558   4.591
 5195SOL    HW116484   6.894   0.470   4.544
 5195SOL    HW216485   6.990   0.584   4.611
 5196SOL     OW16486   5.181   6.734   2.680
 5196SOL    HW116487   5.123   6.698   2.607
 5196SOL    HW216488   5.276   6.740   2.648
 5197SOL     OW16489   0.926   4.103   5.775
 5197SOL    HW116490   0.998   4.107   5.706
 5197SOL    HW216491   0.964   4.130   5.863
 5198SOL     OW16492   5.750   5.484   2.552
 5198SOL    HW116493   5.662   5.449   2.523
 5198SOL    HW216494   5.822   5.447   2.493
 5199SOL     OW16495   6.869   4.828   1.176
 5199SOL    HW116496   6.954   4.810   1.226
 5199SOL    HW216497   6.848   4.751   1.117
 5200SOL     OW16498   0.477   3.909   5.190
 5200SOL    HW116499   0.421   3.834   5.157
 5200SOL    HW216500   0.446   3.935   5.282
 5201SOL     OW16501   1.606   5.354   3.974
 5201SOL    HW116502   1.631   5.443   3.937
 5201SOL    HW216503   1.659   5.282   3.929
 5202SOL     OW16504   0.205   4.501   0.581
 5202SOL    HW116505   0.192   4.598   0.605
 5202SOL    HW216506   0.302   4.477   0.591
 5203SOL     OW16507   1.450   2.486   6.676
 5203SOL    HW116508   1.489   2.520   6.761
 5203SOL    HW216509   1.427   2.389   6.687
 5204SOL     OW16510   4.363   5.453   7.000
 5204SOL    HW116511   4.388   5.489   6.911
 5204SOL    HW216512   4.269   5.477   0.001
 5205SOL     OW16513   1.426   0.150   1.711
 5205SOL    HW116514   1.466   0.114   1.795
 5205SOL    HW216515   1.326   0.141   1.716
 5206SOL     OW16516   0.590   4.190   6.649
 5206SOL    HW116517   0.642   4.174   6.565
 5206SOL    HW216518   0.639   4.149   6.726
 5207SOL     OW16519   1.541   4.951   3.698
 5207SOL    HW116520   1.563   4.979   3.605
 5207SOL    HW216521   1.551   4.852   3.707
 5208SOL     OW16522   3.999   1.355   6.909
 5208SOL    HW116523   4.055   1.295   6.966
 5208SOL    HW216524   3.974   1.437   6.960
 5209SOL     OW16525   5.478   5.824   3.031
 5209SOL    HW116526   5.576   5.819   3.013
 5209SOL    HW216527   5.459   5.799   3.126
 5210SOL     OW16528   5.310   5.018   4.056
 5210SOL    HW116529   5.375   5.035   3.982
 5210SOL    HW216530   5.226   4.980   4.019
 5211SOL     OW16531   3.960   3.085   3.387
 5211SOL    HW116532   3.911   2.997   3.381
 5211SOL    HW216533   3.968   3.112   3.482
 5212SOL     OW16534   0.972   2.110   0.881
 5212SOL    HW116535   0.952   2.092   0.784
 5212SOL    HW216536   0.907   2.177   0.917
 5213SOL     OW16537   4.774   2.689   5.798
 5213SOL    HW116538   4.835   2.641   5.734
 5213SOL    HW216539   4.681   2.688   5.761
 5214SOL     OW16540   5.350   1.645   6.029
 5214SOL    HW116541   5.305   1.627   5.942
 5214SOL    HW216542   5.429   1.705   6.014
 5215SOL     OW16543   5.184   4.737   3.074
 5215SOL    HW116544   5.178   4.676   2.995
 5215SOL    HW216545   5.197   4.831   3.042
 5216SOL     OW16546   4.935   4.916   0.465
 5216SOL    HW116547   5.013   4.957   0.512
 5216SOL    HW216548   4.943   4.931   0.367
 5217SOL     OW16549   2.738   5.403   4.050
 5217SOL    HW116550   2.702   5.487   4.010
 5217SOL    HW216551   2.791   5.427   4.132
 5218SOL     OW16552   1.427   6.194   3.194
 5218SOL    HW116553   1.359   6.161   3.128
 5218SOL    HW216554   1.380   6.229   3.275
 5219SOL     OW16555   3.364   6.929   6.441
 5219SOL    HW116556   3.392   0.005   6.437
 5219SOL    HW216557   3.434   6.873   6.396
 5220SOL     OW16558   0.760   6.393   2.843
 5220SOL    HW116559   0.739   6.316   2.783
 5220SOL    HW216560   0.849   6.432   2.817
 5221SOL     OW16561   5.008   1.030   4.788
 5221SOL    HW116562   5.091   1.086   4.789
 5221SOL    HW216563   4.950   1.057   4.711
 5222SOL     OW16564   1.832   0.351   3.659
 5222SOL    HW116565   1.906   0.397   3.610
 5222SOL    HW216566   1.870   0.285   3.724
 5223SOL     OW16567   4.705   0.822   1.612
 5223SOL    HW116568   4.758   0.739   1.593
 5223SOL    HW216569   4.679   0.823   1.709
 5224SOL     OW16570   6.480   1.950   2.542
 5224SOL    HW116571   6.559   1.913   2.591
 5224SOL    HW216572   6.497   2.045   2.518
 5225SOL     OW16573   6.195   6.295   4.054
 5225SOL    HW116574   6.261   6.255   4.118
 5225SOL    HW216575   6.134   6.357   4.104
 5226SOL     OW16576   0.962   6.457   4.087
 5226SOL    HW116577   0.982   6.468   4.184
 5226SOL    HW216578   0.910   6.373   4.073
 5227SOL     OW16579   6.039   4.419   3.112
 5227SOL    HW116580   5.996   4.396   3.024
 5227SOL    HW216581   6.074   4.335   3.154
 5228SOL     OW16582   5.578   1.802   0.799
 5228SOL    HW116583   5.499   1.841   0.847
 5228SOL    HW216584   5.584   1.843   0.708
 5229SOL     OW16585   1.463   3.775   5.510
 5229SOL    HW116586   1.385   3.752   5.451
 5229SOL    HW216587   1.471   3.706   5.583
 5230SOL     OW16588   0.238   0.405   0.271
 5230SOL    HW116589   0.222   0.379   0.366
 5230SOL    HW216590   0.156   0.450   0.234
 5231SOL     OW16591   4.097   3.219   3.885
 5231SOL    HW116592   4.144   3.280   3.949
 5231SOL    HW216593   4.061   3.271   3.809
 5232SOL     OW16594   4.467   2.137   0.014
 5232SOL    HW116595   4.389   2.177   6.985
 5232SOL    HW216596   4.521   2.209   0.057
 5233SOL     OW16597   0.258   6.373   2.543
 5233SOL    HW116598   0.280   6.341   2.635
 5233SOL    HW216599   0.193   6.449   2.548
 5234SOL     OW16600   3.461   6.660   0.607
 5234SOL    HW116601   3.552   6.622   0.622
 5234SOL    HW216602   3.414   6.671   0.695
 5235SOL     OW16603   1.059   3.272   0.598
 5235SOL    HW116604   1.085   3.221   0.516
 5235SOL    HW216605   1.057   3.210   0.676
 5236SOL     OW16606   4.762   3.547   1.150
 5236SOL    HW116607   4.711   3.496   1.218
 5236SOL    HW216608   4.757   3.645   1.171
 5237SOL     OW16609   2.378   2.484   5.482
 5237SOL    HW116610   2.467   2.479   5.438
 5237SOL    HW216611   2.309   2.509   5.413
 5238SOL     OW16612   1.948   4.558   0.687
 5238SOL    HW116613   1.963   4.484   0.753
 5238SOL    HW216614   1.940   4.519   0.595
 5239SOL     OW16615   3.081   3.212   3.452
 5239SOL    HW116616   3.112   3.149   3.523
 5239SOL    HW216617   3.129   3.299   3.461
 5240SOL     OW16618   3.210   2.062   5.219
 5240SOL    HW116619   3.246   2.080   5.310
 5240SOL    HW216620   3.186   2.148   5.174
 5241SOL     OW16621   1.552   6.348   6.394
 5241SOL    HW116622   1.556   6.258   6.349
 5241SOL    HW216623   1.500   6.341   6.479
 5242SOL     OW16624   6.004   1.505   5.914
 5242SOL    HW116625   6.019   1.452   5.998
 5242SOL    HW216626   6.084   1.495   5.855
 5243SOL     OW16627   1.217   5.213   0.913
 5243SOL    HW116628   1.216   5.152   0.833
 5243SOL    HW216629   1.208   5.308   0.883
 5244SOL     OW16630   4.289   4.562   5.756
 5244SOL    HW116631   4.220   4.607   5.700
 5244SOL    HW216632   4.365   4.625   5.774
 5245SOL     OW16633   4.877   3.838   6.688
 5245SOL    HW116634   4.945   3.772   6.658
 5245SOL    HW216635   4.813   3.793   6.750
 5246SOL     OW16636   1.036   3.525   2.586
 5246SOL    HW116637   1.106   3.593   2.565
 5246SOL    HW216638   1.044   3.449   2.522
 5247SOL     OW16639   7.003   5.271   0.519
 5247SOL    HW116640   0.049   5.198   0.505
 5247SOL    HW216641   6.996   5.327   0.436
 5248SOL     OW16642   5.626   0.921   5.942
 5248SOL    HW116643   5.617   1.005   5.996
 5248SOL    HW216644   5.622   0.943   5.845
 5249SOL     OW16645   0.869   4.795   5.282
 5249SOL    HW116646   0.880   4.834   5.190
 5249SOL    HW216647   0.935   4.722   5.295
 5250SOL     OW16648   0.267   1.584   6.175
 5250SOL    HW116649   0.287   1.490   6.203
 5250SOL    HW216650   0.353   1.633   6.161
 5251SOL     OW16651   6.228   3.444   1.393
 5251SOL    HW116652   6.183   3.363   1.430
 5251SOL    HW216653   6.327   3.436   1.408
 5252SOL     OW16654   3.901   6.289   0.435
 5252SOL    HW116655   3.875   6.243   0.520
 5252SOL    HW216656   3.819   6.313   0.384
 5253SOL     OW16657   5.694   3.545   4.509
 5253SOL    HW116658   5.629   3.618   4.487
 5253SOL    HW216659   5.665   3.460   4.466
 5254SOL     OW16660   4.089   0.817   4.047
 5254SOL    HW116661   4.127   0.742   4.100
 5254SOL    HW216662   4.150   0.896   4.051
 5255SOL     OW16663   3.049   6.342   5.235
 5255SOL    HW116664   3.079   6.272   5.171
 5255SOL    HW216665   3.045   6.431   5.189
 5256SOL     OW16666   4.897   0.599   3.360
 5256SOL    HW116667   4.950   0.566   3.282
 5256SOL    HW216668   4.823   0.658   3.328
 5257SOL     OW16669   4.056   0.231   0.130
 5257SOL    HW116670   3.972   0.207   0.178
 5257SOL    HW216671   4.035   0.249   0.034
 5258SOL     OW16672   4.857   4.345   2.470
 5258SOL    HW116673   4.867   4.258   2.421
 5258SOL    HW216674   4.801   4.408   2.416
 5259SOL     OW16675   4.281   5.722   3.017
 5259SOL    HW116676   4.271   5.651   2.947
 5259SOL    HW216677   4.234   5.693   3.100
 5260SOL     OW16678   5.509   3.565   1.448
 5260SOL    HW116679   5.469   3.613   1.371
 5260SOL    HW216680   5.607   3.552   1.433
 5261SOL     OW16681   0.503   2.185   4.622
 5261SOL    HW116682   0.423   2.213   4.568
 5261SOL    HW216683   0.521   2.088   4.606
 5262SOL     OW16684   2.860   6.750   2.012
 5262SOL    HW116685   2.878   6.846   2.032
 5262SOL    HW216686   2.762   6.731   2.022
 5263SOL     OW16687   1.603   6.707   6.502
 5263SOL    HW116688   1.680   6.742   6.449
 5263SOL    HW216689   1.629   6.621   6.546
 5264SOL     OW16690   6.986   1.987   1.351
 5264SOL    HW116691   0.032   1.998   1.276
 5264SOL    HW216692   7.005   2.055   1.422
 5265SOL     OW16693   5.599   4.841   2.069
 5265SOL    HW116694   5.694   4.819   2.089
 5265SOL    HW216695   5.568   4.915   2.129
 5266SOL     OW16696   1.297   6.822   1.660
 5266SOL    HW116697   1.286   6.760   1.738
 5266SOL    HW216698   1.386   6.867   1.666
 5267SOL     OW16699   4.884   4.988   5.078
 5267SOL    HW116700   4.973   4.989   5.031
 5267SOL    HW216701   4.889   5.046   5.158
 5268SOL     OW16702   6.400   5.520   5.224
 5268SOL    HW116703   6.367   5.614   5.217
 5268SOL    HW216704   6.436   5.490   5.136
 5269SOL     OW16705   2.118   5.515   4.150
 5269SOL    HW116706   2.100   5.597   4.096
 5269SOL    HW216707   2.199   5.468   4.115
 5270SOL     OW16708   6.016   2.890   1.904
 5270SOL    HW116709   6.016   2.846   1.994
 5270SOL    HW216710   5.983   2.826   1.835
 5271SOL     OW16711   4.863   4.744   5.190
 5271SOL    HW116712   4.850   4.843   5.182
 5271SOL    HW216713   4.955   4.720   5.159
 5272SOL     OW16714   0.158   6.480   4.472
 5272SOL    HW116715   0.230   6.414   4.493
 5272SOL    HW216716   0.159   6.499   4.373
 5273SOL     OW16717   0.541   1.496   4.090
 5273SOL    HW116718   0.453   1.540   4.109
 5273SOL    HW216719   0.526   1.411   4.040
 5274SOL     OW16720   6.814   4.900   4.153
 5274SOL    HW116721   6.740   4.871   4.093
 5274SOL    HW216722   6.899   4.905   4.101
 5275SOL     OW16723   2.692   0.219   0.066
 5275SOL    HW116724   2.645   0.298   0.029
 5275SOL    HW216725   2.773   0.248   0.116
 5276SOL     OW16726   6.566   6.932   1.694
 5276SOL    HW116727   6.529   7.006   1.639
 5276SOL    HW216728   6.493   6.866   1.714
 5277SOL     OW16729   1.233   1.594   3.199
 5277SOL    HW116730   1.215   1.692   3.208
 5277SOL    HW216731   1.159   1.543   3.244
 5278SOL     OW16732   0.423   5.530   5.651
 5278SOL    HW116733   0.412   5.479   5.565
 5278SOL    HW216734   0.382   5.478   5.726
 5279SOL     OW16735   1.613   5.473   6.098
 5279SOL    HW116736   1.622   5.567   6.064
 5279SOL    HW216737   1.700   5.444   6.138
 5280SOL     OW16738   3.741   5.908   4.876
 5280SOL    HW116739   3.758   5.822   4.924
 5280SOL    HW216740   3.652   5.945   4.905
 5281SOL     OW16741   1.682   0.714   4.441
 5281SOL    HW116742   1.650   0.809   4.442
 5281SOL    HW216743   1.782   0.712   4.446
 5282SOL     OW16744   1.443   0.310   2.420
 5282SOL    HW116745   1.346   0.286   2.419
 5282SOL    HW216746   1.486   0.282   2.334
 5283SOL     OW16747   6.978   1.090   3.835
 5283SOL    HW116748   7.008   1.022   3.902
 5283SOL    HW216749   6.915   1.155   3.878
 5284SOL     OW16750   5.579   2.002   2.061
 5284SOL    HW116751   5.500   2.063   2.069
 5284SOL    HW216752   5.628   1.998   2.148
 5285SOL     OW16753   1.021   3.120   3.609
 5285SOL    HW116754   1.113   3.118   3.571
 5285SOL    HW216755   0.961   3.061   3.554
 5286SOL     OW16756   6.393   3.037   0.817
 5286SOL    HW116757   6.413   2.998   0.906
 5286SOL    HW216758   6.429   2.978   0.745
 5287SOL     OW16759   3.453   5.073   1.411
 5287SOL    HW116760   3.362   5.092   1.449
 5287SOL    HW216761   3.517   5.143   1.441
 5288SOL     OW16762   5.202   0.205   2.131
 5288SOL    HW116763   5.131   0.166   2.071
 5288SOL    HW216764   5.167   0.211   2.224
 5289SOL     OW16765   1.836   4.963   6.599
 5289SOL    HW116766   1.803   4.873   6.574
 5289SOL    HW216767   1.759   5.027   6.606
 5290SOL     OW16768   1.838   3.918   5.823
 5290SOL    HW116769   1.872   3.824   5.826
 5290SOL    HW216770   1.750   3.921   5.776
 5291SOL     OW16771   2.743   4.317   5.298
 5291SOL    HW116772   2.803   4.385   5.255
 5291SOL    HW216773   2.781   4.226   5.284
 5292SOL     OW16774   6.607   4.110   6.543
 5292SOL    HW116775   6.703   4.128   6.520
 5292SOL    HW216776   6.567   4.191   6.584
 5293SOL     OW16777   2.303   5.265   4.628
 5293SOL    HW116778   2.249   5.325   4.569
 5293SOL    HW216779   2.323   5.180   4.579
 5294SOL     OW16780   4.131   0.678   5.027
 5294SOL    HW116781   4.047   0.649   4.981
 5294SOL    HW216782   4.110   0.701   5.122
 5295SOL     OW16783   3.182   0.967   2.738
 5295SOL    HW116784   3.202   0.922   2.651
 5295SOL    HW216785   3.259   1.023   2.766
 5296SOL     OW16786   3.753   4.459   1.058
 5296SOL    HW116787   3.797   4.548   1.066
 5296SOL    HW216788   3.790   4.397   1.127
 5297SOL     OW16789   2.676   4.110   0.438
 5297SOL    HW116790   2.776   4.110   0.442
 5297SOL    HW216791   2.646   4.169   0.362
 5298SOL     OW16792   2.570   6.787   0.197
 5298SOL    HW116793   2.484   6.739   0.187
 5298SOL    HW216794   2.611   6.804   0.107
 5299SOL     OW16795   3.134   1.945   0.603
 5299SOL    HW116796   3.206   2.014   0.607
 5299SOL    HW216797   3.135   1.901   0.513
 5300SOL     OW16798   1.650   4.564   0.495
 5300SOL    HW116799   1.651   4.624   0.415
 5300SOL    HW216800   1.688   4.613   0.574
 5301SOL     OW16801   4.600   0.424   6.515
 5301SOL    HW116802   4.542   0.364   6.459
 5301SOL    HW216803   4.673   0.370   6.556
 5302SOL     OW16804   4.509   5.902   3.366
 5302SOL    HW116805   4.600   5.895   3.324
 5302SOL    HW216806   4.472   5.993   3.351
 5303SOL     OW16807   6.719   4.926   6.204
 5303SOL    HW116808   6.713   5.022   6.180
 5303SOL    HW216809   6.657   4.906   6.280
 5304SOL     OW16810   6.186   1.288   0.978
 5304SOL    HW116811   6.214   1.357   1.044
 5304SOL    HW216812   6.253   1.214   0.977
 5305SOL     OW16813   1.355   5.089   2.697
 5305SOL    HW116814   1.367   5.002   2.745
 5305SOL    HW216815   1.299   5.075   2.616
 5306SOL     OW16816   6.794   4.031   5.957
 5306SOL    HW116817   6.881   4.035   5.907
 5306SOL    HW216818   6.781   3.939   5.993
 5307SOL     OW16819   4.786   2.407   0.586
 5307SOL    HW116820   4.833   2.319   0.585
 5307SOL    HW216821   4.762   2.433   0.493
 5308SOL     OW16822   1.665   4.675   2.792
 5308SOL    HW116823   1.612   4.625   2.723
 5308SOL    HW216824   1.762   4.674   2.766
 5309SOL     OW16825   4.111   5.868   2.249
 5309SOL    HW116826   4.053   5.787   2.261
 5309SOL    HW216827   4.207   5.841   2.258
 5310SOL     OW16828   6.027   3.394   2.847
 5310SOL    HW116829   5.960   3.440   2.905
 5310SOL    HW216830   5.994   3.392   2.752
 5311SOL     OW16831   5.720   6.803   0.296
 5311SOL    HW116832   5.733   6.855   0.212
 5311SOL    HW216833   5.797   6.741   0.309
 5312SOL     OW16834   0.166   6.314   1.688
 5312SOL    HW116835   0.183   6.375   1.610
 5312SOL    HW216836   0.236   6.329   1.758
 5313SOL     OW16837   6.804   4.838   5.329
 5313SOL    HW116838   6.873   4.888   5.382
 5313SOL    HW216839   6.762   4.768   5.387
 5314SOL     OW16840   5.861   6.308   0.912
 5314SOL    HW116841   5.931   6.293   0.982
 5314SOL    HW216842   5.888   6.385   0.853
 5315SOL     OW16843   4.602   2.149   3.475
 5315SOL    HW116844   4.685   2.102   3.448
 5315SOL    HW216845   4.610   2.180   3.570
 5316SOL     OW16846   0.801   3.133   5.109
 5316SOL    HW116847   0.804   3.042   5.068
 5316SOL    HW216848   0.882   3.146   5.167
 5317SOL     OW16849   6.813   1.323   5.691
 5317SOL    HW116850   6.846   1.230   5.679
 5317SOL    HW216851   6.797   1.365   5.601
 5318SOL     OW16852   0.087   3.100   0.374
 5318SOL    HW116853   0.059   3.027   0.311
 5318SOL    HW216854   0.184   3.091   0.394
 5319SOL     OW16855   4.378   6.588   0.809
 5319SOL    HW116856   4.313   6.663   0.800
 5319SOL    HW216857   4.469   6.619   0.780
 5320SOL     OW16858   4.163   5.671   1.081
 5320SOL    HW116859   4.187   5.723   0.999
 5320SOL    HW216860   4.145   5.576   1.056
 5321SOL     OW16861   1.359   4.393   4.781
 5321SOL    HW116862   1.436   4.375   4.720
 5321SOL    HW216863   1.385   4.373   4.875
 5322SOL     OW16864   5.539   6.900   1.530
 5322SOL    HW116865   5.468   6.861   1.589
 5322SOL    HW216866   5.518   6.879   1.434
 5323SOL     OW16867   4.320   1.163   5.618
 5323SOL    HW116868   4.272   1.148   5.705
 5323SOL    HW216869   4.263   1.220   5.559
 5324SOL     OW16870   2.736   2.687   6.742
 5324SOL    HW116871   2.774   2.595   6.757
 5324SOL    HW216872   2.750   2.742   6.824
 5325SOL     OW16873   2.562   1.726   5.284
 5325SOL    HW116874   2.501   1.648   5.297
 5325SOL    HW216875   2.653   1.693   5.258
 5326SOL     OW16876   6.530   5.918   3.382
 5326SOL    HW116877   6.482   5.830   3.382
 5326SOL    HW216878   6.625   5.904   3.355
 5327SOL     OW16879   5.260   2.300   4.708
 5327SOL    HW116880   5.232   2.265   4.619
 5327SOL    HW216881   5.244   2.399   4.712
 5328SOL     OW16882   4.112   3.885   5.977
 5328SOL    HW116883   4.013   3.881   5.989
 5328SOL    HW216884   4.145   3.976   6.002
 5329SOL     OW16885   1.416   5.562   6.356
 5329SOL    HW116886   1.394   5.469   6.326
 5329SOL    HW216887   1.431   5.619   6.275
 5330SOL     OW16888   3.563   3.785   0.567
 5330SOL    HW116889   3.658   3.757   0.555
 5330SOL    HW216890   3.506   3.743   0.496
 5331SOL     OW16891   6.558   2.046   0.037
 5331SOL    HW116892   6.488   2.108   0.072
 5331SOL    HW216893   6.577   2.068   6.961
 5332SOL     OW16894   1.743   4.114   1.927
 5332SOL    HW116895   1.740   4.017   1.948
 5332SOL    HW216896   1.657   4.157   1.954
 5333SOL     OW16897   1.274   0.875   3.362
 5333SOL    HW116898   1.302   0.825   3.280
 5333SOL    HW216899   1.184   0.916   3.347
 5334SOL     OW16900   3.122   0.534   5.129
 5334SOL    HW116901   3.131   0.633   5.131
 5334SOL    HW216902   3.165   0.494   5.210
 5335SOL     OW16903   6.436   6.024   0.604
 5335SOL    HW116904   6.404   6.111   0.565
 5335SOL    HW216905   6.534   6.032   0.626
 5336SOL     OW16906   1.786   3.389   2.244
 5336SOL    HW116907   1.736   3.307   2.217
 5336SOL    HW216908   1.737   3.435   2.318
 5337SOL     OW16909   4.672   4.005   1.401
 5337SOL    HW116910   4.750   4.061   1.372
 5337SOL    HW216911   4.676   3.990   1.500
 5338SOL     OW16912   6.629   2.163   6.812
 5338SOL    HW116913   6.705   2.146   6.750
 5338SOL    HW216914   6.640   2.252   6.857
 5339SOL     OW16915   6.509   1.989   4.029
 5339SOL    HW116916   6.589   1.950   3.982
 5339SOL    HW216917   6.498   1.945   4.118
 5340SOL     OW16918   5.712   2.777   7.006
 5340SOL    HW116919   5.702   2.875   6.994
 5340SOL    HW216920   5.704   2.731   6.917
 5341SOL     OW16921   3.897   2.089   5.749
 5341SOL    HW116922   3.832   2.162   5.770
 5341SOL    HW216923   3.878   2.052   5.658
 5342SOL     OW16924   3.860   0.515   4.924
 5342SOL    HW116925   3.839   0.427   4.883
 5342SOL    HW216926   3.775   0.565   4.940
 5343SOL     OW16927   4.095   3.629   2.868
 5343SOL    HW116928   4.124   3.544   2.913
 5343SOL    HW216929   4.090   3.702   2.936
 5344SOL     OW16930   1.704   2.585   2.377
 5344SOL    HW116931   1.782   2.648   2.378
 5344SOL    HW216932   1.695   2.541   2.466
 5345SOL     OW16933   4.524   6.283   0.821
 5345SOL    HW116934   4.620   6.298   0.843
 5345SOL    HW216935   4.517   6.241   0.730
 5346SOL     OW16936   2.987   6.037   3.731
 5346SOL    HW116937   2.955   5.956   3.682
 5346SOL    HW216938   2.925   6.058   3.807
 5347SOL     OW16939   6.996   2.279   2.303
 5347SOL    HW116940   6.904   2.276   2.263
 5347SOL    HW216941   0.024   2.360   2.268
 5348SOL     OW16942   0.944   1.422   0.578
 5348SOL    HW116943   1.027   1.397   0.527
 5348SOL    HW216944   0.896   1.496   0.530
 5349SOL     OW16945   0.464   2.420   7.011
 5349SOL    HW116946   0.541   2.442   6.952
 5349SOL    HW216947   0.480   2.458   0.082
 5350SOL     OW16948   2.338   0.555   6.559
 5350SOL    HW116949   2.430   0.593   6.570
 5350SOL    HW216950   2.335   0.464   6.600
 5351SOL     OW16951   5.307   6.096   1.383
 5351SOL    HW116952   5.315   6.010   1.434
 5351SOL    HW216953   5.254   6.081   1.300
 5352SOL     OW16954   2.268   6.196   4.261
 5352SOL    HW116955   2.235   6.231   4.173
 5352SOL    HW216956   2.199   6.137   4.302
 5353SOL     OW16957   4.614   6.356   4.645
 5353SOL    HW116958   4.657   6.323   4.730
 5353SOL    HW216959   4.518   6.379   4.664
 5354SOL     OW16960   2.478   4.509   2.474
 5354SOL    HW116961   2.556   4.551   2.428
 5354SOL    HW216962   2.419   4.580   2.512
 5355SOL     OW16963   4.493   1.722   3.705
 5355SOL    HW116964   4.398   1.723   3.675
 5355SOL    HW216965   4.536   1.810   3.682
 5356SOL     OW16966   6.148   4.006   1.675
 5356SOL    HW116967   6.107   3.917   1.657
 5356SOL    HW216968   6.162   4.017   1.774
 5357SOL     OW16969   3.632   0.992   0.589
 5357SOL    HW116970   3.624   0.920   0.520
 5357SOL    HW216971   3.601   0.957   0.677
 5358SOL     OW16972   4.034   2.036   0.617
 5358SOL    HW116973   4.052   2.130   0.646
 5358SOL    HW216974   3.966   1.995   0.678
 5359SOL     OW16975   2.220   1.742   1.073
 5359SOL    HW116976   2.200   1.664   1.133
 5359SOL    HW216977   2.317   1.743   1.051
 5360SOL     OW16978   3.890   6.644   5.214
 5360SOL    HW116979   3.958   6.649   5.141
 5360SOL    HW216980   3.895   6.554   5.258
 5361SOL     OW16981   2.212   1.098   4.684
 5361SOL    HW116982   2.176   1.164   4.617
 5361SOL    HW216983   2.293   1.137   4.728
 5362SOL     OW16984   5.075   4.185   3.279
 5362SOL    HW116985   5.031   4.260   3.231
 5362SOL    HW216986   5.145   4.221   3.341
 5363SOL     OW16987   0.993   6.190   5.761
 5363SOL    HW116988   0.926   6.184   5.835
 5363SOL    HW216989   0.945   6.193   5.673
 5364SOL     OW16990   6.150   5.657   0.757
 5364SOL    HW116991   6.226   5.682   0.697
 5364SOL    HW216992   6.073   5.720   0.743
 5365SOL     OW16993   4.490   3.006   6.235
 5365SOL    HW116994   4.426   3.038   6.165
 5365SOL    HW216995   4.482   2.906   6.244
 5366SOL     OW16996   4.429   4.769   0.571
 5366SOL    HW116997   4.343   4.819   0.583
 5366SOL    HW216998   4.452   4.722   0.656
 5367SOL     OW16999   0.681   5.053   0.357
 5367SOL    HW117000   0.630   5.035   0.274
 5367SOL    HW217001   0.649   4.992   0.430
 5368SOL     OW17002   5.594   1.674   2.747
 5368SOL    HW117003   5.659   1.680   2.671
 5368SOL    HW217004   5.513   1.622   2.718
 5369SOL     OW17005   2.331   5.193   3.301
 5369SOL    HW117006   2.354   5.214   3.206
 5369SOL    HW217007   2.368   5.265   3.361
 5370SOL     OW17008   4.262   3.198   1.604
 5370SOL    HW117009   4.199   3.252   1.660
 5370SOL    HW217010   4.231   3.103   1.601
 5371SOL     OW17011   1.859   3.918   4.652
 5371SOL    HW117012   1.835   3.866   4.734
 5371SOL    HW217013   1.959   3.924   4.645
 5372SOL     OW17014   2.951   5.566   2.026
 5372SOL    HW117015   3.002   5.569   2.112
 5372SOL    HW217016   2.981   5.641   1.967
 5373SOL     OW17017   3.095   4.909   4.488
 5373SOL    HW117018   3.118   4.952   4.576
 5373SOL    HW217019   3.172   4.917   4.426
 5374SOL     OW17020   1.420   3.190   6.393
 5374SOL    HW117021   1.509   3.156   6.424
 5374SOL    HW217022   1.424   3.290   6.384
 5375SOL     OW17023   1.031   4.282   5.336
 5375SOL    HW117024   1.056   4.241   5.249
 5375SOL    HW217025   1.060   4.223   5.411
 5376SOL     OW17026   1.560   3.435   1.646
 5376SOL    HW117027   1.506   3.361   1.604
 5376SOL    HW217028   1.610   3.398   1.724
 5377SOL     OW17029   6.232   0.127   1.816
 5377SOL    HW117030   6.226   0.088   1.724
 5377SOL    HW217031   6.318   0.099   1.858
 5378SOL     OW17032   6.642   0.596   0.894
 5378SOL    HW117033   6.734   0.566   0.920
 5378SOL    HW217034   6.619   0.679   0.944
 5379SOL     OW17035   0.218   5.069   3.621
 5379SOL    HW117036   0.272   5.088   3.703
 5379SOL    HW217037   0.156   4.992   3.638
 5380SOL     OW17038   2.309   0.640   3.584
 5380SOL    HW117039   2.336   0.597   3.498
 5380SOL    HW217040   2.391   0.664   3.636
 5381SOL     OW17041   6.682   3.819   0.929
 5381SOL    HW117042   6.663   3.854   1.020
 5381SOL    HW217043   6.632   3.874   0.861
 5382SOL     OW17044   2.909   0.316   1.680
 5382SOL    HW117045   2.809   0.305   1.677
 5382SOL    HW217046   2.943   0.339   1.589
 5383SOL     OW17047   2.779   2.395   5.518
 5383SOL    HW117048   2.800   2.435   5.607
 5383SOL    HW217049   2.799   2.297   5.519
 5384SOL     OW17050   6.289   6.505   4.258
 5384SOL    HW117051   6.370   6.514   4.200
 5384SOL    HW217052   6.313   6.525   4.353
 5385SOL     OW17053   2.947   3.728   2.687
 5385SOL    HW117054   2.989   3.716   2.777
 5385SOL    HW217055   2.945   3.639   2.640
 5386SOL     OW17056   4.995   6.402   4.115
 5386SOL    HW117057   5.047   6.453   4.047
 5386SOL    HW217058   5.029   6.425   4.207
 5387SOL     OW17059   2.655   5.680   2.409
 5387SOL    HW117060   2.721   5.613   2.375
 5387SOL    HW217061   2.568   5.635   2.428
 5388SOL     OW17062   5.018   6.625   2.499
 5388SOL    HW117063   5.000   6.537   2.544
 5388SOL    HW217064   5.048   6.608   2.405
 5389SOL     OW17065   4.856   1.089   1.553
 5389SOL    HW117066   4.814   1.161   1.498
 5389SOL    HW217067   4.792   1.013   1.562
 5390SOL     OW17068   5.220   5.244   4.283
 5390SOL    HW117069   5.165   5.244   4.200
 5390SOL    HW217070   5.304   5.192   4.267
 5391SOL     OW17071   2.824   3.105   0.573
 5391SOL    HW117072   2.872   3.174   0.518
 5391SOL    HW217073   2.874   3.019   0.571
 5392SOL     OW17074   6.108   3.239   1.087
 5392SOL    HW117075   6.042   3.168   1.114
 5392SOL    HW217076   6.191   3.230   1.142
 5393SOL     OW17077   6.902   6.973   0.119
 5393SOL    HW117078   6.874   0.019   0.188
 5393SOL    HW217079   6.937   6.890   0.164
 5394SOL     OW17080   0.654   3.675   5.954
 5394SOL    HW117081   0.740   3.651   5.997
 5394SOL    HW217082   0.590   3.709   6.023
 5395SOL     OW17083   4.993   0.624   0.942
 5395SOL    HW117084   4.967   0.695   1.008
 5395SOL    HW217085   4.953   0.537   0.969
 5396SOL     OW17086   5.286   3.708   2.232
 5396SOL    HW117087   5.297   3.666   2.322
 5396SOL    HW217088   5.248   3.642   2.168
 5397SOL     OW17089   6.981   2.889   1.897
 5397SOL    HW117090   6.973   2.927   1.990
 5397SOL    HW217091   6.984   2.789   1.902
 5398SOL     OW17092   3.277   2.681   1.790
 5398SOL    HW117093   3.210   2.753   1.771
 5398SOL    HW217094   3.230   2.593   1.798
 5399SOL     OW17095   2.579   6.578   0.831
 5399SOL    HW117096   2.618   6.629   0.754
 5399SOL    HW217097   2.605   6.482   0.823
 5400SOL     OW17098   2.715   4.151   0.885
 5400SOL    HW117099   2.648   4.167   0.814
 5400SOL    HW217100   2.753   4.239   0.916
 5401SOL     OW17101   5.756   3.324   2.274
 5401SOL    HW117102   5.736   3.309   2.178
 5401SOL    HW217103   5.851   3.355   2.285
 5402SOL     OW17104   2.679   5.815   1.879
 5402SOL    HW117105   2.636   5.868   1.806
 5402SOL    HW217106   2.775   5.842   1.888
 5403SOL     OW17107   6.857   3.388   6.687
 5403SOL    HW117108   6.831   3.470   6.738
 5403SOL    HW217109   6.825   3.396   6.592
 5404SOL     OW17110   1.138   2.773   3.523
 5404SOL    HW117111   1.045   2.781   3.559
 5404SOL    HW217112   1.185   2.861   3.533
 5405SOL     OW17113   6.804   5.882   6.918
 5405SOL    HW117114   6.869   5.958   6.922
 5405SOL    HW217115   6.837   5.807   6.974
 5406SOL     OW17116   2.181   2.015   0.271
 5406SOL    HW117117   2.108   1.967   0.223
 5406SOL    HW217118   2.144   2.062   0.351
 5407SOL     OW17119   4.355   3.368   0.149
 5407SOL    HW117120   4.418   3.325   0.084
 5407SOL    HW217121   4.407   3.408   0.225
 5408SOL     OW17122   2.393   0.892   5.582
 5408SOL    HW117123   2.380   0.822   5.652
 5408SOL    HW217124   2.304   0.930   5.556
 5409SOL     OW17125   5.249   0.076   3.168
 5409SOL    HW117126   5.325   0.122   3.214
 5409SOL    HW217127   5.173   0.066   3.232
 5410SOL     OW17128   2.916   2.175   1.789
 5410SOL    HW117129   2.997   2.139   1.744
 5410SOL    HW217130   2.942   2.250   1.849
 5411SOL     OW17131   6.639   5.182   6.085
 5411SOL    HW117132   6.578   5.176   6.006
 5411SOL    HW217133   6.647   5.278   6.113
 5412SOL     OW17134   4.976   2.739   0.717
 5412SOL    HW117135   4.991   2.808   0.646
 5412SOL    HW217136   5.026   2.656   0.694
 5413SOL     OW17137   2.952   1.520   1.592
 5413SOL    HW117138   3.021   1.579   1.550
 5413SOL    HW217139   2.924   1.559   1.679
 5414SOL     OW17140   5.297   1.976   4.545
 5414SOL    HW117141   5.215   2.024   4.513
 5414SOL    HW217142   5.311   1.996   4.642
 5415SOL     OW17143   0.386   5.918   1.241
 5415SOL    HW117144   0.380   6.014   1.269
 5415SOL    HW217145   0.443   5.868   1.306
 5416SOL     OW17146   4.265   5.056   5.336
 5416SOL    HW117147   4.341   4.998   5.366
 5416SOL    HW217148   4.220   5.013   5.258
 5417SOL     OW17149   3.909   6.760   5.546
 5417SOL    HW117150   3.989   6.746   5.488
 5417SOL    HW217151   3.832   6.789   5.490
 5418SOL     OW17152   3.355   0.664   2.701
 5418SOL    HW117153   3.270   0.614   2.718
 5418SOL    HW217154   3.354   0.701   2.608
 5419SOL     OW17155   3.664   4.875   0.421
 5419SOL    HW117156   3.623   4.962   0.446
 5419SOL    HW217157   3.624   4.802   0.476
 5420SOL     OW17158   2.259   2.881   3.011
 5420SOL    HW117159   2.287   2.858   3.104
 5420SOL    HW217160   2.340   2.898   2.954
 5421SOL     OW17161   1.431   3.672   1.401
 5421SOL    HW117162   1.504   3.620   1.446
 5421SOL    HW217163   1.442   3.769   1.421
 5422SOL     OW17164   0.951   5.016   0.871
 5422SOL    HW117165   0.887   5.092   0.884
 5422SOL    HW217166   0.904   4.939   0.829
 5423SOL     OW17167   6.359   3.337   0.044
 5423SOL    HW117168   6.300   3.311   6.987
 5423SOL    HW217169   6.315   3.410   0.095
 5424SOL     OW17170   5.134   3.400   4.367
 5424SOL    HW117171   5.226   3.441   4.366
 5424SOL    HW217172   5.141   3.304   4.393
 5425SOL     OW17173   4.174   1.412   4.963
 5425SOL    HW117174   4.148   1.367   5.049
 5425SOL    HW217175   4.096   1.466   4.930
 5426SOL     OW17176   5.623   6.251   4.348
 5426SOL    HW117177   5.700   6.188   4.335
 5426SOL    HW217178   5.616   6.276   4.444
 5427SOL     OW17179   4.407   5.995   6.552
 5427SOL    HW117180   4.423   5.978   6.650
 5427SOL    HW217181   4.342   6.070   6.541
 5428SOL     OW17182   0.500   0.303   0.831
 5428SOL    HW117183   0.579   0.264   0.878
 5428SOL    HW217184   0.436   0.340   0.898
 5429SOL     OW17185   1.681   1.214   6.721
 5429SOL    HW117186   1.763   1.166   6.751
 5429SOL    HW217187   1.706   1.289   6.660
 5430SOL     OW17188   0.131   1.815   6.262
 5430SOL    HW117189   0.110   1.817   6.360
 5430SOL    HW217190   0.185   1.734   6.242
 5431SOL     OW17191   3.526   6.538   6.775
 5431SOL    HW117192   3.469   6.496   6.845
 5431SOL    HW217193   3.524   6.482   6.692
 5432SOL     OW17194   5.328   0.111   6.704
 5432SOL    HW117195   5.234   0.123   6.736
 5432SOL    HW217196   5.329   0.105   6.604
 5433SOL     OW17197   0.257   2.033   4.357
 5433SOL    HW117198   0.208   2.060   4.440
 5433SOL    HW217199   0.191   2.000   4.289
 5434SOL     OW17200   2.980   0.329   5.688
 5434SOL    HW117201   3.028   0.413   5.662
 5434SOL    HW217202   2.894   0.323   5.637
 5435SOL     OW17203   4.694   0.039   1.923
 5435SOL    HW117204   4.634   6.997   1.872
 5435SOL    HW217205   4.789   0.011   1.910
 5436SOL     OW17206   4.705   4.316   3.412
 5436SOL    HW117207   4.743   4.227   3.385
 5436SOL    HW217208   4.757   4.352   3.489
 5437SOL     OW17209   2.614   4.503   0.409
 5437SOL    HW117210   2.713   4.513   0.423
 5437SOL    HW217211   2.591   4.524   0.315
 5438SOL     OW17212   6.787   2.818   1.715
 5438SOL    HW117213   6.856   2.860   1.773
 5438SOL    HW217214   6.804   2.720   1.707
 5439SOL     OW17215   1.586   2.094   1.148
 5439SOL    HW117216   1.513   2.129   1.090
 5439SOL    HW217217   1.597   2.155   1.227
 5440SOL     OW17218   1.566   1.223   1.426
 5440SOL    HW117219   1.567   1.307   1.372
 5440SOL    HW217220   1.623   1.154   1.382
 5441SOL     OW17221   4.029   1.720   4.150
 5441SOL    HW117222   4.094   1.784   4.191
 5441SOL    HW217223   3.942   1.766   4.134
 5442SOL     OW17224   4.366   6.862   2.674
 5442SOL    HW117225   4.276   6.904   2.660
 5442SOL    HW217226   4.422   6.921   2.732
 5443SOL     OW17227   3.086   6.999   4.842
 5443SOL    HW117228   3.122   0.005   4.931
 5443SOL    HW217229   3.021   6.924   4.853
 5444SOL     OW17230   0.931   0.570   4.232
 5444SOL    HW117231   0.835   0.589   4.212
 5444SOL    HW217232   0.983   0.656   4.231
 5445SOL     OW17233   6.580   4.092   3.441
 5445SOL    HW117234   6.563   4.019   3.508
 5445SOL    HW217235   6.636   4.056   3.366
 5446SOL     OW17236   5.974   5.813   5.132
 5446SOL    HW117237   6.026   5.801   5.048
 5446SOL    HW217238   5.949   5.724   5.169
 5447SOL     OW17239   3.305   2.338   0.037
 5447SOL    HW117240   3.309   2.409   6.986
 5447SOL    HW217241   3.290   2.380   0.126
 5448SOL     OW17242   4.394   2.557   5.287
 5448SOL    HW117243   4.297   2.577   5.275
 5448SOL    HW217244   4.405   2.462   5.316
 5449SOL     OW17245   1.535   2.323   6.153
 5449SOL    HW117246   1.584   2.238   6.175
 5449SOL    HW217247   1.491   2.315   6.064
 5450SOL     OW17248   2.403   0.812   1.834
 5450SOL    HW117249   2.463   0.733   1.821
 5450SOL    HW217250   2.370   0.844   1.745
 5451SOL     OW17251   1.439   5.832   3.149
 5451SOL    HW117252   1.478   5.742   3.126
 5451SOL    HW217253   1.512   5.893   3.180
 5452SOL     OW17254   1.996   4.332   0.288
 5452SOL    HW117255   2.086   4.326   0.246
 5452SOL    HW217256   1.959   4.240   0.304
 5453SOL     OW17257   6.819   4.292   0.844
 5453SOL    HW117258   6.832   4.216   0.781
 5453SOL    HW217259   6.858   4.375   0.805
 5454SOL     OW17260   0.227   4.302   6.814
 5454SOL    HW117261   0.143   4.313   6.761
 5454SOL    HW217262   0.303   4.345   6.765
 5455SOL     OW17263   6.951   3.048   1.016
 5455SOL    HW117264   7.017   3.101   1.069
 5455SOL    HW217265   6.902   2.986   1.076
 5456SOL     OW17266   3.232   0.667   6.273
 5456SOL    HW117267   3.238   0.568   6.264
 5456SOL    HW217268   3.308   0.710   6.224
 5457SOL     OW17269   5.184   2.384   1.008
 5457SOL    HW117270   5.264   2.339   1.046
 5457SOL    HW217271   5.109   2.319   1.000
 5458SOL     OW17272   0.949   4.552   0.024
 5458SOL    HW117273   1.047   4.531   0.031
 5458SOL    HW217274   0.916   4.524   6.953
 5459SOL     OW17275   1.750   5.067   0.164
 5459SOL    HW117276   1.754   4.981   0.215
 5459SOL    HW217277   1.809   5.061   0.083
 5460SOL     OW17278   3.188   0.235   1.807
 5460SOL    HW117279   3.261   0.246   1.740
 5460SOL    HW217280   3.108   0.287   1.778
 5461SOL     OW17281   5.493   6.343   5.464
 5461SOL    HW117282   5.542   6.277   5.408
 5461SOL    HW217283   5.473   6.425   5.410
 5462SOL     OW17284   1.685   0.762   1.081
 5462SOL    HW117285   1.692   0.806   0.991
 5462SOL    HW217286   1.637   0.675   1.072
 5463SOL     OW17287   6.275   2.377   0.662
 5463SOL    HW117288   6.191   2.384   0.608
 5463SOL    HW217289   6.251   2.364   0.759
 5464SOL     OW17290   1.955   0.629   4.047
 5464SOL    HW117291   1.939   0.722   4.079
 5464SOL    HW217292   1.954   0.627   3.947
 5465SOL     OW17293   3.873   0.114   3.596
 5465SOL    HW117294   3.914   0.025   3.576
 5465SOL    HW217295   3.794   0.101   3.655
 5466SOL     OW17296   5.465   4.860   4.842
 5466SOL    HW117297   5.532   4.806   4.894
 5466SOL    HW217298   5.468   4.832   4.746
 5467SOL     OW17299   5.371   2.104   2.747
 5467SOL    HW117300   5.285   2.154   2.742
 5467SOL    HW217301   5.355   2.008   2.724
 5468SOL     OW17302   5.038   1.731   4.566
 5468SOL    HW117303   5.121   1.759   4.518
 5468SOL    HW217304   4.959   1.743   4.505
 5469SOL     OW17305   3.993   4.672   6.324
 5469SOL    HW117306   3.972   4.768   6.343
 5469SOL    HW217307   4.090   4.656   6.340
 5470SOL     OW17308   2.034   4.956   3.578
 5470SOL    HW117309   1.965   5.009   3.528
 5470SOL    HW217310   2.108   5.017   3.606
 5471SOL     OW17311   5.513   6.320   1.414
 5471SOL    HW117312   5.564   6.355   1.336
 5471SOL    HW217313   5.442   6.257   1.382
 5472SOL     OW17314   4.851   3.979   5.882
 5472SOL    HW117315   4.858   3.929   5.796
 5472SOL    HW217316   4.901   4.065   5.875
 5473SOL     OW17317   1.010   3.493   2.871
 5473SOL    HW117318   1.028   3.494   2.773
 5473SOL    HW217319   1.090   3.529   2.920
 5474SOL     OW17320   2.484   4.990   4.140
 5474SOL    HW117321   2.422   5.041   4.200
 5474SOL    HW217322   2.578   5.019   4.158
 5475SOL     OW17323   3.857   2.727   1.322
 5475SOL    HW117324   3.839   2.802   1.258
 5475SOL    HW217325   3.794   2.734   1.399
 5476SOL     OW17326   2.131   3.588   6.128
 5476SOL    HW117327   2.201   3.517   6.122
 5476SOL    HW217328   2.174   3.678   6.120
 5477SOL     OW17329   2.014   3.320   3.362
 5477SOL    HW117330   2.035   3.288   3.454
 5477SOL    HW217331   2.086   3.382   3.331
 5478SOL     OW17332   5.461   5.930   6.248
 5478SOL    HW117333   5.516   5.847   6.242
 5478SOL    HW217334   5.492   5.985   6.326
 5479SOL     OW17335   4.750   0.799   5.004
 5479SOL    HW117336   4.788   0.812   5.095
 5479SOL    HW217337   4.824   0.783   4.938
 5480SOL     OW17338   0.893   4.241   4.412
 5480SOL    HW117339   0.850   4.248   4.502
 5480SOL    HW217340   0.878   4.149   4.376
 5481SOL     OW17341   2.967   0.009   4.588
 5481SOL    HW117342   3.008   7.016   4.678
 5481SOL    HW217343   2.898   0.081   4.593
 5482SOL     OW17344   3.660   4.408   1.735
 5482SOL    HW117345   3.635   4.493   1.780
 5482SOL    HW217346   3.660   4.421   1.636
 5483SOL     OW17347   0.643   2.416   5.926
 5483SOL    HW117348   0.738   2.392   5.907
 5483SOL    HW217349   0.608   2.358   6.000
 5484SOL     OW17350   4.642   0.327   4.898
 5484SOL    HW117351   4.579   0.327   4.821
 5484SOL    HW217352   4.639   0.416   4.943
 5485SOL     OW17353   2.774   6.432   5.284
 5485SOL    HW117354   2.767   6.498   5.210
 5485SOL    HW217355   2.861   6.383   5.278
 5486SOL     OW17356   2.910   5.739   5.210
 5486SOL    HW117357   2.933   5.829   5.248
 5486SOL    HW217358   2.983   5.675   5.232
 5487SOL     OW17359   2.758   4.548   5.941
 5487SOL    HW117360   2.684   4.565   5.876
 5487SOL    HW217361   2.809   4.467   5.912
 5488SOL     OW17362   6.030   1.199   0.515
 5488SOL    HW117363   5.948   1.145   0.497
 5488SOL    HW217364   6.110   1.150   0.480
 5489SOL     OW17365   6.823   3.118   2.306
 5489SOL    HW117366   6.799   3.212   2.333
 5489SOL    HW217367   6.757   3.054   2.346
 5490SOL     OW17368   0.933   6.755   2.468
 5490SOL    HW117369   0.934   6.787   2.563
 5490SOL    HW217370   0.939   6.655   2.466
 5491SOL     OW17371   6.775   3.049   0.804
 5491SOL    HW117372   6.832   3.054   0.886
 5491SOL    HW217373   6.710   3.125   0.805
 5492SOL     OW17374   0.524   1.940   5.535
 5492SOL    HW117375   0.547   1.913   5.442
 5492SOL    HW217376   0.428   1.919   5.553
 5493SOL     OW17377   4.172   3.632   1.775
 5493SOL    HW117378   4.267   3.606   1.762
 5493SOL    HW217379   4.161   3.678   1.863
 5494SOL     OW17380   6.106   4.284   5.259
 5494SOL    HW117381   6.076   4.279   5.354
 5494SOL    HW217382   6.203   4.261   5.254
 5495SOL     OW17383   5.884   0.353   0.318
 5495SOL    HW117384   5.848   0.419   0.383
 5495SOL    HW217385   5.809   0.318   0.261
 5496SOL     OW17386   4.591   0.983   4.364
 5496SOL    HW117387   4.672   0.944   4.407
 5496SOL    HW217388   4.525   0.910   4.345
 5497SOL     OW17389   0.608   1.086   6.059
 5497SOL    HW117390   0.621   1.181   6.032
 5497SOL    HW217391   0.549   1.040   5.993
 5498SOL     OW17392   0.634   4.970   1.857
 5498SOL    HW117393   0.675   5.061   1.868
 5498SOL    HW217394   0.687   4.917   1.791
 5499SOL     OW17395   0.589   0.626   5.074
 5499SOL    HW117396   0.620   0.533   5.057
 5499SOL    HW217397   0.658   0.691   5.040
 5500SOL     OW17398   2.193   0.718   0.435
 5500SOL    HW117399   2.123   0.740   0.367
 5500SOL    HW217400   2.212   0.620   0.433
 5501SOL     OW17401   3.863   2.112   6.908
 5501SOL    HW117402   3.876   2.077   7.001
 5501SOL    HW217403   3.932   2.071   6.848
 5502SOL     OW17404   5.020   2.932   7.014
 5502SOL    HW117405   4.992   2.999   6.944
 5502SOL    HW217406   4.943   2.871   0.014
 5503SOL     OW17407   0.747   3.470   0.199
 5503SOL    HW117408   0.744   3.411   0.119
 5503SOL    HW217409   0.836   3.516   0.204
 5504SOL     OW17410   3.774   1.053   6.958
 5504SOL    HW117411   3.845   0.996   6.999
 5504SOL    HW217412   3.711   0.994   6.906
 5505SOL     OW17413   2.542   4.631   4.199
 5505SOL    HW117414   2.509   4.720   4.231
 5505SOL    HW217415   2.614   4.645   4.132
 5506SOL     OW17416   0.261   3.350   5.929
 5506SOL    HW117417   0.337   3.406   5.896
 5506SOL    HW217418   0.272   3.256   5.897
 5507SOL     OW17419   3.077   0.122   6.276
 5507SOL    HW117420   3.163   0.151   6.318
 5507SOL    HW217421   3.000   0.144   6.336
 5508SOL     OW17422   0.778   0.851   6.750
 5508SOL    HW117423   0.743   0.881   6.838
 5508SOL    HW217424   0.788   0.930   6.689
 5509SOL     OW17425   0.127   5.363   0.849
 5509SOL    HW117426   0.191   5.432   0.882
 5509SOL    HW217427   0.051   5.407   0.802
 5510SOL     OW17428   4.206   5.173   6.858
 5510SOL    HW117429   4.303   5.179   6.878
 5510SOL    HW217430   4.156   5.156   6.943
 5511SOL     OW17431   0.735   1.657   5.747
 5511SOL    HW117432   0.764   1.710   5.667
 5511SOL    HW217433   0.637   1.669   5.762
 5512SOL     OW17434   3.782   1.050   2.097
 5512SOL    HW117435   3.757   1.114   2.024
 5512SOL    HW217436   3.864   1.084   2.144
 5513SOL     OW17437   4.247   4.832   0.194
 5513SOL    HW117438   4.232   4.733   0.192
 5513SOL    HW217439   4.328   4.854   0.141
 5514SOL     OW17440   2.948   6.719   5.981
 5514SOL    HW117441   2.968   6.768   5.896
 5514SOL    HW217442   3.001   6.635   5.984
 5515SOL     OW17443   2.187   5.929   1.956
 5515SOL    HW117444   2.232   5.985   2.026
 5515SOL    HW217445   2.255   5.870   1.913
 5516SOL     OW17446   2.471   2.825   5.268
 5516SOL    HW117447   2.424   2.757   5.212
 5516SOL    HW217448   2.447   2.917   5.236
 5517SOL     OW17449   1.889   3.969   2.862
 5517SOL    HW117450   1.986   3.961   2.840
 5517SOL    HW217451   1.876   4.038   2.934
 5518SOL     OW17452   4.740   4.292   5.897
 5518SOL    HW117453   4.835   4.287   5.865
 5518SOL    HW217454   4.679   4.258   5.825
 5519SOL     OW17455   4.582   2.571   3.699
 5519SOL    HW117456   4.625   2.481   3.713
 5519SOL    HW217457   4.581   2.593   3.602
 5520SOL     OW17458   5.589   6.384   1.839
 5520SOL    HW117459   5.640   6.447   1.780
 5520SOL    HW217460   5.558   6.433   1.921
 5521SOL     OW17461   5.641   5.535   1.467
 5521SOL    HW117462   5.708   5.495   1.529
 5521SOL    HW217463   5.618   5.469   1.395
 5522SOL     OW17464   5.902   5.142   0.701
 5522SOL    HW117465   5.932   5.238   0.698
 5522SOL    HW217466   5.974   5.087   0.744
 5523SOL     OW17467   5.968   1.570   2.262
 5523SOL    HW117468   6.063   1.558   2.290
 5523SOL    HW217469   5.950   1.516   2.180
 5524SOL     OW17470   2.914   0.505   4.758
 5524SOL    HW117471   2.934   0.464   4.847
 5524SOL    HW217472   2.981   0.577   4.739
 5525SOL     OW17473   6.262   2.555   1.398
 5525SOL    HW117474   6.323   2.558   1.478
 5525SOL    HW217475   6.244   2.460   1.373
 5526SOL     OW17476   4.967   4.655   3.226
 5526SOL    HW117477   5.042   4.702   3.181
 5526SOL    HW217478   4.889   4.718   3.237
 5527SOL     OW17479   5.603   2.409   4.051
 5527SOL    HW117480   5.666   2.424   3.975
 5527SOL    HW217481   5.557   2.321   4.038
 5528SOL     OW17482   0.864   1.829   1.309
 5528SOL    HW117483   0.926   1.905   1.291
 5528SOL    HW217484   0.917   1.746   1.325
 5529SOL     OW17485   3.438   0.789   2.397
 5529SOL    HW117486   3.343   0.814   2.414
 5529SOL    HW217487   3.489   0.869   2.366
 5530SOL     OW17488   6.558   2.657   1.467
 5530SOL    HW117489   6.526   2.595   1.538
 5530SOL    HW217490   6.491   2.729   1.453
 5531SOL     OW17491   3.407   3.992   1.172
 5531SOL    HW117492   3.422   3.992   1.271
 5531SOL    HW217493   3.318   4.034   1.152
 5532SOL     OW17494   1.568   3.145   1.185
 5532SOL    HW117495   1.557   3.243   1.171
 5532SOL    HW217496   1.550   3.097   1.099
 5533SOL     OW17497   4.121   1.462   4.124
 5533SOL    HW117498   4.217   1.479   4.145
 5533SOL    HW217499   4.068   1.544   4.145
 5534SOL     OW17500   1.189   1.470   5.184
 5534SOL    HW117501   1.211   1.373   5.179
 5534SOL    HW217502   1.148   1.491   5.273
 5535SOL     OW17503   0.849   2.094   3.086
 5535SOL    HW117504   0.752   2.073   3.075
 5535SOL    HW217505   0.868   2.183   3.043
 5536SOL     OW17506   2.869   0.250   4.596
 5536SOL    HW117507   2.918   0.332   4.627
 5536SOL    HW217508   2.790   0.277   4.542
 5537SOL     OW17509   2.901   1.075   2.708
 5537SOL    HW117510   2.938   0.986   2.736
 5537SOL    HW217511   2.975   1.134   2.677
 5538SOL     OW17512   4.717   6.048   4.537
 5538SOL    HW117513   4.728   6.068   4.634
 5538SOL    HW217514   4.750   6.125   4.483
 5539SOL     OW17515   2.472   2.548   1.188
 5539SOL    HW117516   2.432   2.593   1.108
 5539SOL    HW217517   2.477   2.450   1.172
 5540SOL     OW17518   5.344   4.371   2.451
 5540SOL    HW117519   5.389   4.285   2.476
 5540SOL    HW217520   5.279   4.397   2.523
 5541SOL     OW17521   4.591   1.221   5.611
 5541SOL    HW117522   4.622   1.237   5.517
 5541SOL    HW217523   4.496   1.188   5.610
 5542SOL     OW17524   4.632   4.606   6.366
 5542SOL    HW117525   4.579   4.649   6.439
 5542SOL    HW217526   4.583   4.613   6.280
 5543SOL     OW17527   6.358   2.566   6.066
 5543SOL    HW117528   6.403   2.545   5.979
 5543SOL    HW217529   6.390   2.654   6.099
 5544SOL     OW17530   6.186   0.727   5.952
 5544SOL    HW117531   6.194   0.768   5.861
 5544SOL    HW217532   6.175   0.799   6.021
 5545SOL     OW17533   2.986   2.120   2.154
 5545SOL    HW117534   2.982   2.128   2.254
 5545SOL    HW217535   2.933   2.194   2.112
 5546SOL     OW17536   1.860   5.042   5.981
 5546SOL    HW117537   1.787   4.991   6.026
 5546SOL    HW217538   1.936   4.981   5.959
 5547SOL     OW17539   3.743   5.689   5.058
 5547SOL    HW117540   3.788   5.639   5.133
 5547SOL    HW217541   3.723   5.625   4.984
 5548SOL     OW17542   6.278   3.372   5.152
 5548SOL    HW117543   6.355   3.364   5.215
 5548SOL    HW217544   6.205   3.310   5.181
 5549SOL     OW17545   2.461   5.079   6.936
 5549SOL    HW117546   2.453   5.175   6.964
 5549SOL    HW217547   2.396   5.061   6.862
 5550SOL     OW17548   4.124   6.378   1.343
 5550SOL    HW117549   4.119   6.301   1.406
 5550SOL    HW217550   4.206   6.432   1.362
 5551SOL     OW17551   0.924   1.587   3.001
 5551SOL    HW117552   0.934   1.686   2.997
 5551SOL    HW217553   0.828   1.562   2.982
 5552SOL     OW17554   0.266   2.728   1.904
 5552SOL    HW117555   0.196   2.662   1.876
 5552SOL    HW217556   0.357   2.690   1.889
 5553SOL     OW17557   5.252   5.917   0.529
 5553SOL    HW117558   5.207   5.974   0.460
 5553SOL    HW217559   5.221   5.945   0.620
 5554SOL     OW17560   2.738   2.335   4.716
 5554SOL    HW117561   2.686   2.250   4.727
 5554SOL    HW217562   2.815   2.318   4.655
 5555SOL     OW17563   0.198   5.769   2.705
 5555SOL    HW117564   0.160   5.706   2.638
 5555SOL    HW217565   0.176   5.863   2.679
 5556SOL     OW17566   0.035   1.209   4.882
 5556SOL    HW117567   0.064   1.139   4.818
 5556SOL    HW217568   6.959   1.233   4.865
 5557SOL     OW17569   2.424   0.229   3.918
 5557SOL    HW117570   2.430   0.162   3.992
 5557SOL    HW217571   2.492   0.208   3.848
 5558SOL     OW17572   5.043   3.066   4.936
 5558SOL    HW117573   5.095   3.000   4.990
 5558SOL    HW217574   5.077   3.158   4.954
 5559SOL     OW17575   1.901   0.701   1.412
 5559SOL    HW117576   1.874   0.640   1.338
 5559SOL    HW217577   1.992   0.675   1.446
 5560SOL     OW17578   0.219   1.132   4.231
 5560SOL    HW117579   0.198   1.117   4.134
 5560SOL    HW217580   0.171   1.214   4.263
 5561SOL     OW17581   1.995   2.912   3.346
 5561SOL    HW117582   2.008   2.995   3.291
 5561SOL    HW217583   1.925   2.929   3.416
 5562SOL     OW17584   2.539   2.596   5.883
 5562SOL    HW117585   2.519   2.548   5.798
 5562SOL    HW217586   2.468   2.576   5.950
 5563SOL     OW17587   4.506   5.579   1.494
 5563SOL    HW117588   4.436   5.562   1.425
 5563SOL    HW217589   4.465   5.619   1.575
 5564SOL     OW17590   5.617   4.463   1.798
 5564SOL    HW117591   5.530   4.509   1.781
 5564SOL    HW217592   5.678   4.525   1.848
 5565SOL     OW17593   3.392   3.646   5.464
 5565SOL    HW117594   3.449   3.563   5.467
 5565SOL    HW217595   3.431   3.709   5.397
 5566SOL     OW17596   1.815   4.770   1.184
 5566SOL    HW117597   1.754   4.774   1.264
 5566SOL    HW217598   1.891   4.708   1.203
 5567SOL     OW17599   1.464   5.748   2.146
 5567SOL    HW117600   1.406   5.676   2.186
 5567SOL    HW217601   1.547   5.706   2.108
 5568SOL     OW17602   3.266   2.404   1.738
 5568SOL    HW117603   3.218   2.327   1.697
 5568SOL    HW217604   3.340   2.433   1.678
 5569SOL     OW17605   5.444   1.853   6.924
 5569SOL    HW117606   5.488   1.887   7.007
 5569SOL    HW217607   5.375   1.918   6.894
 5570SOL     OW17608   6.752   4.372   5.894
 5570SOL    HW117609   6.755   4.298   5.961
 5570SOL    HW217610   6.660   4.411   5.891
 5571SOL     OW17611   6.970   4.787   5.854
 5571SOL    HW117612   6.972   4.688   5.838
 5571SOL    HW217613   0.027   4.813   5.912
 5572SOL     OW17614   5.335   2.432   5.829
 5572SOL    HW117615   5.353   2.454   5.733
 5572SOL    HW217616   5.244   2.464   5.854
 5573SOL     OW17617   1.147   3.938   0.373
 5573SOL    HW117618   1.111   3.845   0.368
 5573SOL    HW217619   1.247   3.935   0.370
 5574SOL     OW17620   0.683   5.850   4.864
 5574SOL    HW117621   0.589   5.881   4.875
 5574SOL    HW217622   0.703   5.779   4.931
 5575SOL     OW17623   1.893   1.165   1.084
 5575SOL    HW117624   1.934   1.247   1.044
 5575SOL    HW217625   1.796   1.182   1.101
 5576SOL     OW17626   6.065   5.833   6.795
 5576SOL    HW117627   5.973   5.873   6.794
 5576SOL    HW217628   6.119   5.876   6.868
 5577SOL     OW17629   2.194   3.601   5.511
 5577SOL    HW117630   2.255   3.673   5.479
 5577SOL    HW217631   2.246   3.517   5.527
 5578SOL     OW17632   3.927   2.781   6.411
 5578SOL    HW117633   3.911   2.858   6.472
 5578SOL    HW217634   4.024   2.756   6.413
 5579SOL     OW17635   4.867   4.509   6.975
 5579SOL    HW117636   4.876   4.412   6.955
 5579SOL    HW217637   4.949   4.542   0.001
 5580SOL     OW17638   6.035   1.472   0.334
 5580SOL    HW117639   6.062   1.402   0.400
 5580SOL    HW217640   6.115   1.527   0.308
 5581SOL     OW17641   2.879   2.432   6.796
 5581SOL    HW117642   2.830   2.376   6.863
 5581SOL    HW217643   2.954   2.378   6.757
 5582SOL     OW17644   3.918   3.815   3.324
 5582SOL    HW117645   3.862   3.896   3.342
 5582SOL    HW217646   3.860   3.735   3.318
 5583SOL     OW17647   3.795   0.127   0.909
 5583SOL    HW117648   3.859   0.070   0.961
 5583SOL    HW217649   3.764   0.203   0.965
 5584SOL     OW17650   6.442   2.881   3.489
 5584SOL    HW117651   6.478   2.863   3.397
 5584SOL    HW217652   6.347   2.910   3.482
 5585SOL     OW17653   6.138   6.699   4.102
 5585SOL    HW117654   6.200   6.633   4.060
 5585SOL    HW217655   6.150   6.698   4.201
 5586SOL     OW17656   2.197   0.671   6.366
 5586SOL    HW117657   2.266   0.735   6.331
 5586SOL    HW217658   2.237   0.617   6.440
 5587SOL     OW17659   3.305   0.170   4.322
 5587SOL    HW117660   3.263   0.201   4.407
 5587SOL    HW217661   3.273   0.078   4.300
 5588SOL     OW17662   4.182   0.415   6.723
 5588SOL    HW117663   4.265   0.465   6.698
 5588SOL    HW217664   4.129   0.468   6.789
 5589SOL     OW17665   4.109   3.534   6.588
 5589SOL    HW117666   4.109   3.461   6.521
 5589SOL    HW217667   4.180   3.516   6.657
 5590SOL     OW17668   0.275   6.583   3.119
 5590SOL    HW117669   0.236   6.522   3.189
 5590SOL    HW217670   0.217   6.580   3.037
 5591SOL     OW17671   4.844   0.930   7.013
 5591SOL    HW117672   4.767   0.994   7.017
 5591SOL    HW217673   4.904   0.955   6.937
 5592SOL     OW17674   1.970   2.156   2.477
 5592SOL    HW117675   1.878   2.163   2.437
 5592SOL    HW217676   1.965   2.103   2.562
 5593SOL     OW17677   1.646   3.352   5.353
 5593SOL    HW117678   1.683   3.413   5.422
 5593SOL    HW217679   1.696   3.363   5.268
 5594SOL     OW17680   2.922   0.717   6.842
 5594SOL    HW117681   2.872   0.635   6.868
 5594SOL    HW217682   2.859   0.794   6.833
 5595SOL     OW17683   0.163   1.248   5.169
 5595SOL    HW117684   0.142   1.168   5.225
 5595SOL    HW217685   0.164   1.222   5.073
 5596SOL     OW17686   5.263   1.400   2.920
 5596SOL    HW117687   5.302   1.486   2.954
 5596SOL    HW217688   5.255   1.404   2.820
 5597SOL     OW17689   0.276   1.038   6.161
 5597SOL    HW117690   0.212   1.113   6.181
 5597SOL    HW217691   0.319   1.007   6.246
 5598SOL     OW17692   6.762   2.361   3.996
 5598SOL    HW117693   6.670   2.326   3.980
 5598SOL    HW217694   6.829   2.299   3.956
 5599SOL     OW17695   4.946   2.667   3.054
 5599SOL    HW117696   4.923   2.591   2.993
 5599SOL    HW217697   4.948   2.635   3.148
 5600SOL     OW17698   2.636   1.239   2.084
 5600SOL    HW117699   2.602   1.145   2.082
 5600SOL    HW217700   2.623   1.277   2.175
 5601SOL     OW17701   5.974   2.996   5.249
 5601SOL    HW117702   6.009   2.909   5.285
 5601SOL    HW217703   5.874   2.991   5.242
 5602SOL     OW17704   6.572   2.327   3.029
 5602SOL    HW117705   6.665   2.339   2.996
 5602SOL    HW217706   6.557   2.232   3.053
 5603SOL     OW17707   4.142   1.224   5.165
 5603SOL    HW117708   4.078   1.159   5.125
 5603SOL    HW217709   4.114   1.246   5.258
 5604SOL     OW17710   0.968   0.305   4.148
 5604SOL    HW117711   0.946   0.399   4.171
 5604SOL    HW217712   1.052   0.278   4.195
 5605SOL     OW17713   4.397   6.694   4.346
 5605SOL    HW117714   4.351   6.717   4.261
 5605SOL    HW217715   4.360   6.608   4.382
 5606SOL     OW17716   4.893   2.927   0.534
 5606SOL    HW117717   4.811   2.873   0.554
 5606SOL    HW217718   4.898   2.944   0.436
 5607SOL     OW17719   6.201   2.824   2.352
 5607SOL    HW117720   6.216   2.779   2.440
 5607SOL    HW217721   6.164   2.758   2.287
 5608SOL     OW17722   5.071   0.536   3.153
 5608SOL    HW117723   5.079   0.611   3.087
 5608SOL    HW217724   5.115   0.454   3.116
 5609SOL     OW17725   0.512   0.330   0.562
 5609SOL    HW117726   0.531   0.347   0.658
 5609SOL    HW217727   0.567   0.254   0.529
 5610SOL     OW17728   5.470   4.592   1.145
 5610SOL    HW117729   5.541   4.657   1.172
 5610SOL    HW217730   5.392   4.642   1.108
 5611SOL     OW17731   6.269   5.121   1.873
 5611SOL    HW117732   6.210   5.186   1.921
 5611SOL    HW217733   6.230   5.100   1.784
 5612SOL     OW17734   3.455   1.769   0.312
 5612SOL    HW117735   3.462   1.734   0.405
 5612SOL    HW217736   3.463   1.694   0.246
 5613SOL     OW17737   5.567   5.015   5.797
 5613SOL    HW117738   5.595   5.042   5.705
 5613SOL    HW217739   5.586   5.091   5.860
 5614SOL     OW17740   5.418   3.445   4.029
 5614SOL    HW117741   5.497   3.402   3.985
 5614SOL    HW217742   5.346   3.376   4.041
 5615SOL     OW17743   0.155   2.354   3.240
 5615SOL    HW117744   0.195   2.372   3.150
 5615SOL    HW217745   0.188   2.266   3.275
 5616SOL     OW17746   1.576   3.204   2.325
 5616SOL    HW117747   1.589   3.227   2.421
 5616SOL    HW217748   1.529   3.116   2.317
 5617SOL     OW17749   2.211   4.887   6.044
 5617SOL    HW117750   2.283   4.955   6.056
 5617SOL    HW217751   2.198   4.868   5.947
 5618SOL     OW17752   5.758   6.010   2.808
 5618SOL    HW117753   5.714   6.006   2.718
 5618SOL    HW217754   5.828   5.939   2.814
 5619SOL     OW17755   3.970   3.082   3.682
 5619SOL    HW117756   3.888   3.124   3.720
 5619SOL    HW217757   4.048   3.102   3.741
 5620SOL     OW17758   5.336   4.421   5.089
 5620SOL    HW117759   5.410   4.483   5.115
 5620SOL    HW217760   5.270   4.470   5.032
 5621SOL     OW17761   0.865   2.103   5.599
 5621SOL    HW117762   0.768   2.125   5.607
 5621SOL    HW217763   0.920   2.174   5.643
 5622SOL     OW17764   4.709   6.173   3.753
 5622SOL    HW117765   4.688   6.075   3.750
 5622SOL    HW217766   4.725   6.201   3.847
 5623SOL     OW17767   4.971   5.570   4.002
 5623SOL    HW117768   4.886   5.584   3.951
 5623SOL    HW217769   5.035   5.517   3.947
 5624SOL     OW17770   6.486   4.979   3.209
 5624SOL    HW117771   6.500   4.916   3.133
 5624SOL    HW217772   6.504   5.072   3.179
 5625SOL     OW17773   1.483   6.255   5.570
 5625SOL    HW117774   1.472   6.196   5.490
 5625SOL    HW217775   1.495   6.199   5.652
 5626SOL     OW17776   1.014   4.700   6.771
 5626SOL    HW117777   1.049   4.610   6.746
 5626SOL    HW217778   1.073   4.741   6.842
 5627SOL     OW17779   0.704   5.936   0.256
 5627SOL    HW117780   0.735   5.891   0.172
 5627SOL    HW217781   0.648   6.016   0.232
 5628SOL     OW17782   2.445   2.744   1.391
 5628SOL    HW117783   2.507   2.813   1.356
 5628SOL    HW217784   2.460   2.658   1.343
 5629SOL     OW17785   5.778   3.565   2.579
 5629SOL    HW117786   5.797   3.634   2.508
 5629SOL    HW217787   5.858   3.507   2.590
 5630SOL     OW17788   1.176   3.980   6.397
 5630SOL    HW117789   1.199   3.948   6.305
 5630SOL    HW217790   1.208   4.074   6.409
 5631SOL     OW17791   3.496   1.814   1.887
 5631SOL    HW117792   3.575   1.862   1.924
 5631SOL    HW217793   3.434   1.788   1.961
 5632SOL     OW17794   5.308   7.003   5.956
 5632SOL    HW117795   5.295   0.082   5.963
 5632SOL    HW217796   5.404   6.983   5.934
 5633SOL     OW17797   0.599   4.764   5.573
 5633SOL    HW117798   0.698   4.752   5.562
 5633SOL    HW217799   0.582   4.839   5.637
 5634SOL     OW17800   2.223   0.114   1.384
 5634SOL    HW117801   2.282   0.061   1.444
 5634SOL    HW217802   2.201   0.060   1.303
 5635SOL     OW17803   2.477   0.479   0.418
 5635SOL    HW117804   2.384   0.448   0.401
 5635SOL    HW217805   2.542   0.422   0.368
 5636SOL     OW17806   5.548   1.655   5.368
 5636SOL    HW117807   5.583   1.650   5.462
 5636SOL    HW217808   5.499   1.571   5.347
 5637SOL     OW17809   5.056   6.511   4.337
 5637SOL    HW117810   5.116   6.516   4.417
 5637SOL    HW217811   5.006   6.598   4.328
 5638SOL     OW17812   6.068   5.381   0.785
 5638SOL    HW117813   6.090   5.473   0.752
 5638SOL    HW217814   5.987   5.384   0.843
 5639SOL     OW17815   1.802   0.560   1.204
 5639SOL    HW117816   1.783   0.645   1.156
 5639SOL    HW217817   1.751   0.485   1.162
 5640SOL     OW17818   2.858   5.940   2.716
 5640SOL    HW117819   2.897   5.877   2.648
 5640SOL    HW217820   2.793   6.001   2.671
 5641SOL     OW17821   0.695   4.486   4.097
 5641SOL    HW117822   0.740   4.575   4.089
 5641SOL    HW217823   0.666   4.455   4.006
 5642SOL     OW17824   1.881   4.576   0.154
 5642SOL    HW117825   1.893   4.481   0.184
 5642SOL    HW217826   1.821   4.578   0.074
 5643SOL     OW17827   4.186   2.233   5.308
 5643SOL    HW117828   4.178   2.277   5.218
 5643SOL    HW217829   4.190   2.304   5.379
 5644SOL     OW17830   4.289   1.265   4.748
 5644SOL    HW117831   4.243   1.334   4.804
 5644SOL    HW217832   4.361   1.221   4.801
 5645SOL     OW17833   6.213   5.776   4.037
 5645SOL    HW117834   6.137   5.762   3.973
 5645SOL    HW217835   6.181   5.764   4.130
 5646SOL     OW17836   0.465   5.586   4.220
 5646SOL    HW117837   0.537   5.526   4.185
 5646SOL    HW217838   0.492   5.624   4.308
 5647SOL     OW17839   5.684   5.194   6.273
 5647SOL    HW117840   5.678   5.120   6.340
 5647SOL    HW217841   5.778   5.201   6.240
 5648SOL     OW17842   1.939   1.708   5.147
 5648SOL    HW117843   1.919   1.805   5.159
 5648SOL    HW217844   1.971   1.669   5.234
 5649SOL     OW17845   0.775   0.659   5.622
 5649SOL    HW117846   0.778   0.624   5.716
 5649SOL    HW217847   0.855   0.717   5.605
 5650SOL     OW17848   6.296   4.947   6.862
 5650SOL    HW117849   6.360   5.015   6.898
 5650SOL    HW217850   6.341   4.858   6.860
 5651SOL     OW17851   6.546   0.779   2.847
 5651SOL    HW117852   6.589   0.727   2.774
 5651SOL    HW217853   6.609   0.787   2.924
 5652SOL     OW17854   4.633   4.805   0.169
 5652SOL    HW117855   4.623   4.725   0.228
 5652SOL    HW217856   4.547   4.823   0.122
 5653SOL     OW17857   1.533   6.076   6.248
 5653SOL    HW117858   1.543   5.980   6.271
 5653SOL    HW217859   1.440   6.093   6.214
 5654SOL     OW17860   0.184   6.140   5.520
 5654SOL    HW117861   0.129   6.064   5.486
 5654SOL    HW217862   0.228   6.187   5.443
 5655SOL     OW17863   6.995   3.381   3.773
 5655SOL    HW117864   0.064   3.380   3.728
 5655SOL    HW217865   6.936   3.449   3.729
 5656SOL     OW17866   3.501   4.577   0.221
 5656SOL    HW117867   3.503   4.485   0.181
 5656SOL    HW217868   3.496   4.570   0.321
 5657SOL     OW17869   4.072   6.493   2.140
 5657SOL    HW117870   4.084   6.452   2.230
 5657SOL    HW217871   4.157   6.539   2.113
 5658SOL     OW17872   4.369   0.129   5.551
 5658SOL    HW117873   4.346   0.032   5.562
 5658SOL    HW217874   4.461   0.146   5.588
 5659SOL     OW17875   3.767   3.623   2.946
 5659SOL    HW117876   3.819   3.697   2.903
 5659SOL    HW217877   3.702   3.585   2.880
 5660SOL     OW17878   5.780   6.558   0.565
 5660SOL    HW117879   5.828   6.474   0.590
 5660SOL    HW217880   5.825   6.601   0.488
 5661SOL     OW17881   6.374   5.404   4.360
 5661SOL    HW117882   6.332   5.376   4.273
 5661SOL    HW217883   6.325   5.362   4.436
 5662SOL     OW17884   2.399   4.527   4.583
 5662SOL    HW117885   2.466   4.590   4.545
 5662SOL    HW217886   2.415   4.516   4.681
 5663SOL     OW17887   1.418   4.276   0.030
 5663SOL    HW117888   1.321   4.295   0.020
 5663SOL    HW217889   1.439   4.257   0.126
 5664SOL     OW17890   0.574   4.486   2.947
 5664SOL    HW117891   0.507   4.519   2.880
 5664SOL    HW217892   0.566   4.539   3.031
 5665SOL     OW17893   2.093   2.381   5.853
 5665SOL    HW117894   2.141   2.464   5.881
 5665SOL    HW217895   2.065   2.330   5.934
 5666SOL     OW17896   5.622   5.130   0.779
 5666SOL    HW117897   5.599   5.057   0.842
 5666SOL    HW217898   5.713   5.114   0.740
 5667SOL     OW17899   0.258   5.297   3.279
 5667SOL    HW117900   0.322   5.268   3.349
 5667SOL    HW217901   0.179   5.342   3.322
 5668SOL     OW17902   6.071   2.128   5.878
 5668SOL    HW117903   6.116   2.040   5.894
 5668SOL    HW217904   6.032   2.130   5.786
 5669SOL     OW17905   6.838   3.948   6.335
 5669SOL    HW117906   6.828   3.866   6.390
 5669SOL    HW217907   6.779   4.020   6.372
 5670SOL     OW17908   0.588   4.178   4.063
 5670SOL    HW117909   0.499   4.136   4.084
 5670SOL    HW217910   0.659   4.135   4.119
 5671SOL     OW17911   1.801   1.206   6.052
 5671SOL    HW117912   1.783   1.170   6.143
 5671SOL    HW217913   1.896   1.186   6.026
 5672SOL     OW17914   4.623   5.105   5.896
 5672SOL    HW117915   4.652   5.163   5.973
 5672SOL    HW217916   4.529   5.128   5.872
 5673SOL     OW17917   0.400   0.584   2.249
 5673SOL    HW117918   0.332   0.650   2.215
 5673SOL    HW217919   0.357   0.494   2.257
 5674SOL     OW17920   6.788   3.248   1.879
 5674SOL    HW117921   6.887   3.242   1.868
 5674SOL    HW217922   6.757   3.339   1.852
 5675SOL     OW17923   3.969   2.612   5.763
 5675SOL    HW117924   4.037   2.549   5.799
 5675SOL    HW217925   3.878   2.573   5.774
 5676SOL     OW17926   2.188   0.496   1.759
 5676SOL    HW117927   2.131   0.414   1.751
 5676SOL    HW217928   2.153   0.554   1.833
 5677SOL     OW17929   6.654   0.599   3.953
 5677SOL    HW117930   6.634   0.600   4.051
 5677SOL    HW217931   6.747   0.564   3.938
 5678SOL     OW17932   2.079   5.791   3.086
 5678SOL    HW117933   2.128   5.800   3.173
 5678SOL    HW217934   2.090   5.875   3.033
 5679SOL     OW17935   1.692   6.185   5.122
 5679SOL    HW117936   1.660   6.264   5.175
 5679SOL    HW217937   1.788   6.168   5.143
 5680SOL     OW17938   2.171   6.423   6.410
 5680SOL    HW117939   2.224   6.447   6.491
 5680SOL    HW217940   2.213   6.344   6.365
 5681SOL     OW17941   1.586   2.633   6.869
 5681SOL    HW117942   1.616   2.615   6.963
 5681SOL    HW217943   1.600   2.730   6.848
 5682SOL     OW17944   1.180   3.410   4.605
 5682SOL    HW117945   1.144   3.363   4.686
 5682SOL    HW217946   1.115   3.481   4.577
 5683SOL     OW17947   3.495   2.461   5.620
 5683SOL    HW117948   3.540   2.494   5.537
 5683SOL    HW217949   3.416   2.519   5.641
 5684SOL     OW17950   3.593   4.176   3.842
 5684SOL    HW117951   3.691   4.170   3.819
 5684SOL    HW217952   3.542   4.109   3.788
 5685SOL     OW17953   0.243   5.245   2.117
 5685SOL    HW117954   0.217   5.173   2.053
 5685SOL    HW217955   0.188   5.239   2.200
 5686SOL     OW17956   3.208   6.817   0.506
 5686SOL    HW117957   3.159   6.870   0.436
 5686SOL    HW217958   3.260   6.744   0.462
 5687SOL     OW17959   5.259   5.233   5.566
 5687SOL    HW117960   5.309   5.192   5.490
 5687SOL    HW217961   5.318   5.234   5.648
 5688SOL     OW17962   5.737   1.907   1.031
 5688SOL    HW117963   5.834   1.928   1.021
 5688SOL    HW217964   5.698   1.884   0.942
 5689SOL     OW17965   3.570   2.765   0.803
 5689SOL    HW117966   3.585   2.848   0.858
 5689SOL    HW217967   3.585   2.786   0.707
 5690SOL     OW17968   4.778   6.293   0.916
 5690SOL    HW117969   4.769   6.260   1.010
 5690SOL    HW217970   4.817   6.386   0.917
 5691SOL     OW17971   1.014   0.145   2.015
 5691SOL    HW117972   1.086   0.153   2.084
 5691SOL    HW217973   1.026   0.216   1.946
 5692SOL     OW17974   6.315   2.678   6.466
 5692SOL    HW117975   6.366   2.705   6.385
 5692SOL    HW217976   6.331   2.581   6.485
 5693SOL     OW17977   5.002   2.455   2.919
 5693SOL    HW117978   5.060   2.428   2.842
 5693SOL    HW217979   4.906   2.433   2.897
 5694SOL     OW17980   6.918   1.775   3.721
 5694SOL    HW117981   7.005   1.782   3.768
 5694SOL    HW217982   6.911   1.685   3.676
 5695SOL     OW17983   1.788   3.486   3.302
 5695SOL    HW117984   1.865   3.424   3.298
 5695SOL    HW217985   1.814   3.569   3.351
 5696SOL     OW17986   2.642   0.385   5.213
 5696SOL    HW117987   2.650   0.483   5.193
 5696SOL    HW217988   2.712   0.335   5.162
 5697SOL     OW17989   6.380   3.067   0.406
 5697SOL    HW117990   6.300   3.109   0.449
 5697SOL    HW217991   6.461   3.121   0.427
 5698SOL     OW17992   0.479   3.666   1.902
 5698SOL    HW117993   0.508   3.736   1.837
 5698SOL    HW217994   0.547   3.659   1.975
 5699SOL     OW17995   6.283   0.817   5.113
 5699SOL    HW117996   6.335   0.732   5.106
 5699SOL    HW217997   6.188   0.800   5.085
 5700SOL     OW17998   1.788   5.469   3.764
 5700SOL    HW117999   1.747   5.398   3.708
 5700SOL    HW218000   1.784   5.556   3.715
 5701SOL     OW18001   6.411   5.516   1.216
 5701SOL    HW118002   6.322   5.537   1.176
 5701SOL    HW218003   6.452   5.439   1.166
 5702SOL     OW18004   2.037   0.483   6.590
 5702SOL    HW118005   2.095   0.565   6.596
 5702SOL    HW218006   2.082   0.415   6.533
 5703SOL     OW18007   4.493   4.660   0.819
 5703SOL    HW118008   4.463   4.687   0.911
 5703SOL    HW218009   4.489   4.561   0.811
 5704SOL     OW18010   3.846   5.245   3.407
 5704SOL    HW118011   3.819   5.202   3.321
 5704SOL    HW218012   3.943   5.226   3.425
 5705SOL     OW18013   6.245   0.887   1.495
 5705SOL    HW118014   6.234   0.954   1.422
 5705SOL    HW218015   6.340   0.884   1.525
 5706SOL     OW18016   1.169   1.267   6.763
 5706SOL    HW118017   1.095   1.232   6.821
 5706SOL    HW218018   1.138   1.349   6.715
 5707SOL     OW18019   2.391   2.171   0.256
 5707SOL    HW118020   2.412   2.149   0.352
 5707SOL    HW218021   2.305   2.126   0.231
 5708SOL     OW18022   5.120   6.778   2.017
 5708SOL    HW118023   5.055   6.839   2.063
 5708SOL    HW218024   5.213   6.812   2.032
 5709SOL     OW18025   1.221   0.434   2.710
 5709SOL    HW118026   1.317   0.459   2.720
 5709SOL    HW218027   1.165   0.483   2.777
 5710SOL     OW18028   3.017   3.634   6.136
 5710SOL    HW118029   2.975   3.643   6.226
 5710SOL    HW218030   3.046   3.724   6.104
 5711SOL     OW18031   4.276   1.023   4.048
 5711SOL    HW118032   4.356   1.055   4.098
 5711SOL    HW218033   4.235   1.100   3.998
 5712SOL     OW18034   0.002   6.111   6.145
 5712SOL    HW118035   0.035   6.101   6.239
 5712SOL    HW218036   6.966   6.194   6.138
 5713SOL     OW18037   6.874   2.770   2.372
 5713SOL    HW118038   6.814   2.691   2.357
 5713SOL    HW218039   6.876   2.826   2.289
 5714SOL     OW18040   1.598   0.882   6.295
 5714SOL    HW118041   1.522   0.879   6.360
 5714SOL    HW218042   1.583   0.813   6.223
 5715SOL     OW18043   1.161   6.550   2.912
 5715SOL    HW118044   1.103   6.610   2.967
 5715SOL    HW218045   1.105   6.501   2.845
 5716SOL     OW18046   2.243   3.830   6.069
 5716SOL    HW118047   2.328   3.876   6.042
 5716SOL    HW218048   2.172   3.849   6.001
 5717SOL     OW18049   1.440   3.960   0.349
 5717SOL    HW118050   1.464   3.910   0.432
 5717SOL    HW218051   1.461   3.903   0.269
 5718SOL     OW18052   3.200   4.382   6.202
 5718SOL    HW118053   3.299   4.389   6.213
 5718SOL    HW218054   3.179   4.300   6.148
 5719SOL     OW18055   3.507   0.881   6.534
 5719SOL    HW118056   3.439   0.830   6.587
 5719SOL    HW218057   3.569   0.817   6.489
 5720SOL     OW18058   1.272   4.789   5.138
 5720SOL    HW118059   1.174   4.806   5.127
 5720SOL    HW218060   1.318   4.803   5.051
 5721SOL     OW18061   0.657   4.252   1.377
 5721SOL    HW118062   0.734   4.189   1.369
 5721SOL    HW218063   0.594   4.238   1.301
 5722SOL     OW18064   5.384   6.608   4.287
 5722SOL    HW118065   5.354   6.542   4.356
 5722SOL    HW218066   5.311   6.675   4.272
 5723SOL     OW18067   3.020   5.408   0.797
 5723SOL    HW118068   2.971   5.479   0.848
 5723SOL    HW218069   2.955   5.338   0.766
 5724SOL     OW18070   5.205   1.310   6.713
 5724SOL    HW118071   5.245   1.400   6.694
 5724SOL    HW218072   5.149   1.316   6.796
 5725SOL     OW18073   5.261   5.487   6.255
 5725SOL    HW118074   5.357   5.460   6.259
 5725SOL    HW218075   5.210   5.439   6.326
 5726SOL     OW18076   5.284   3.517   5.839
 5726SOL    HW118077   5.303   3.575   5.760
 5726SOL    HW218078   5.331   3.430   5.829
 5727SOL     OW18079   6.044   1.990   3.467
 5727SOL    HW118080   6.049   2.071   3.525
 5727SOL    HW218081   5.978   1.925   3.506
 5728SOL     OW18082   5.912   0.777   5.614
 5728SOL    HW118083   5.841   0.748   5.678
 5728SOL    HW218084   5.975   0.702   5.597
 5729SOL     OW18085   0.801   1.976   6.483
 5729SOL    HW118086   0.809   2.041   6.559
 5729SOL    HW218087   0.742   1.900   6.510
 5730SOL     OW18088   4.845   4.942   6.196
 5730SOL    HW118089   4.926   4.894   6.161
 5730SOL    HW218090   4.873   5.024   6.245
 5731SOL     OW18091   3.036   0.875   4.196
 5731SOL    HW118092   3.133   0.885   4.172
 5731SOL    HW218093   3.010   0.779   4.191
 5732SOL     OW18094   5.841   5.063   4.873
 5732SOL    HW118095   5.940   5.059   4.887
 5732SOL    HW218096   5.821   5.102   4.783
 5733SOL     OW18097   3.387   1.250   0.197
 5733SOL    HW118098   3.481   1.236   0.165
 5733SOL    HW218099   3.365   1.183   0.267
 5734SOL     OW18100   2.118   6.275   6.035
 5734SOL    HW118101   2.084   6.364   6.004
 5734SOL    HW218102   2.158   6.285   6.126
 5735SOL     OW18103   3.819   0.763   2.173
 5735SOL    HW118104   3.803   0.857   2.143
 5735SOL    HW218105   3.902   0.760   2.230
 5736SOL     OW18106   4.761   4.371   6.670
 5736SOL    HW118107   4.824   4.437   6.629
 5736SOL    HW218108   4.685   4.352   6.607
 5737SOL     OW18109   4.624   5.179   0.943
 5737SOL    HW118110   4.706   5.216   0.899
 5737SOL    HW218111   4.589   5.247   1.008
 5738SOL     OW18112   3.242   1.264   6.429
 5738SOL    HW118113   3.231   1.325   6.350
 5738SOL    HW218114   3.159   1.210   6.441
 5739SOL     OW18115   2.185   0.314   5.790
 5739SOL    HW118116   2.281   0.299   5.763
 5739SOL    HW218117   2.137   0.226   5.791
 5740SOL     OW18118   5.510   3.812   2.349
 5740SOL    HW118119   5.471   3.885   2.405
 5740SOL    HW218120   5.439   3.772   2.291
 5741SOL     OW18121   0.279   3.756   4.062
 5741SOL    HW118122   0.341   3.678   4.066
 5741SOL    HW218123   0.195   3.734   4.113
 5742SOL     OW18124   4.946   0.550   3.638
 5742SOL    HW118125   4.948   0.557   3.538
 5742SOL    HW218126   5.001   0.623   3.678
 5743SOL     OW18127   3.730   3.870   5.459
 5743SOL    HW118128   3.819   3.828   5.442
 5743SOL    HW218129   3.675   3.866   5.376
 5744SOL     OW18130   5.467   6.669   2.640
 5744SOL    HW118131   5.526   6.726   2.584
 5744SOL    HW218132   5.469   6.575   2.606
 5745SOL     OW18133   2.213   2.463   3.218
 5745SOL    HW118134   2.124   2.472   3.175
 5745SOL    HW218135   2.260   2.382   3.183
 5746SOL     OW18136   4.439   0.448   3.225
 5746SOL    HW118137   4.537   0.438   3.245
 5746SOL    HW218138   4.398   0.511   3.290
 5747SOL     OW18139   0.876   6.309   1.589
 5747SOL    HW118140   0.849   6.267   1.502
 5747SOL    HW218141   0.855   6.246   1.664
 5748SOL     OW18142   0.557   5.846   0.490
 5748SOL    HW118143   0.514   5.932   0.519
 5748SOL    HW218144   0.613   5.863   0.409
 5749SOL     OW18145   1.956   6.134   5.153
 5749SOL    HW118146   2.026   6.183   5.102
 5749SOL    HW218147   1.988   6.042   5.175
 5750SOL     OW18148   6.726   4.618   4.143
 5750SOL    HW118149   6.735   4.595   4.239
 5750SOL    HW218150   6.815   4.611   4.098
 5751SOL     OW18151   2.070   3.623   3.964
 5751SOL    HW118152   2.103   3.691   3.899
 5751SOL    HW218153   2.123   3.629   4.048
 5752SOL     OW18154   5.301   0.407   1.121
 5752SOL    HW118155   5.396   0.430   1.098
 5752SOL    HW218156   5.254   0.488   1.156
 5753SOL     OW18157   3.042   3.961   4.570
 5753SOL    HW118158   3.101   4.034   4.605
 5753SOL    HW218159   3.020   3.898   4.644
 5754SOL     OW18160   1.026   5.837   1.519
 5754SOL    HW118161   1.034   5.897   1.439
 5754SOL    HW218162   0.929   5.823   1.540
 5755SOL     OW18163   2.021   2.479   6.921
 5755SOL    HW118164   2.112   2.442   6.903
 5755SOL    HW218165   2.029   2.572   6.957
 5756SOL     OW18166   5.734   6.026   1.478
 5756SOL    HW118167   5.742   6.025   1.578
 5756SOL    HW218168   5.670   5.955   1.449
 5757SOL     OW18169   6.568   0.231   3.871
 5757SOL    HW118170   6.570   0.223   3.970
 5757SOL    HW218171   6.655   0.267   3.838
 5758SOL     OW18172   0.729   0.201   2.911
 5758SOL    HW118173   0.724   0.241   2.820
 5758SOL    HW218174   0.746   0.103   2.904
 5759SOL     OW18175   3.575   6.848   1.045
 5759SOL    HW118176   3.671   6.835   1.068
 5759SOL    HW218177   3.565   6.932   0.990
 5760SOL     OW18178   0.277   3.045   1.476
 5760SOL    HW118179   0.294   3.142   1.494
 5760SOL    HW218180   0.193   3.017   1.522
 5761SOL     OW18181   5.254   5.418   5.261
 5761SOL    HW118182   5.276   5.346   5.326
 5761SOL    HW218183   5.332   5.479   5.250
 5762SOL     OW18184   5.401   4.672   6.985
 5762SOL    HW118185   5.384   4.659   6.888
 5762SOL    HW218186   5.493   4.638   7.008
 5763SOL     OW18187   5.346   0.306   0.278
 5763SOL    HW118188   5.275   0.366   0.316
 5763SOL    HW218189   5.436   0.337   0.309
 5764SOL     OW18190   4.161   5.972   3.669
 5764SOL    HW118191   4.198   6.060   3.699
 5764SOL    HW218192   4.105   5.987   3.587
 5765SOL     OW18193   6.104   5.104   1.627
 5765SOL    HW118194   6.130   5.176   1.562
 5765SOL    HW218195   6.050   5.143   1.701
 5766SOL     OW18196   0.349   1.652   4.227
 5766SOL    HW118197   0.404   1.727   4.189
 5766SOL    HW218198   0.386   1.625   4.316
 5767SOL     OW18199   2.265   0.076   0.921
 5767SOL    HW118200   2.328   7.018   0.910
 5767SOL    HW218201   2.301   0.155   0.871
 5768SOL     OW18202   7.002   6.192   4.743
 5768SOL    HW118203   0.026   6.278   4.769
 5768SOL    HW218204   0.048   6.117   4.749
 5769SOL     OW18205   1.354   4.946   6.441
 5769SOL    HW118206   1.277   4.938   6.378
 5769SOL    HW218207   1.439   4.931   6.391
 5770SOL     OW18208   1.752   5.488   1.376
 5770SOL    HW118209   1.685   5.561   1.361
 5770SOL    HW218210   1.753   5.463   1.473
 5771SOL     OW18211   2.453   5.363   4.235
 5771SOL    HW118212   2.431   5.266   4.235
 5771SOL    HW218213   2.522   5.382   4.304
 5772SOL     OW18214   3.951   0.195   2.124
 5772SOL    HW118215   3.920   0.213   2.217
 5772SOL    HW218216   4.037   0.144   2.127
 5773SOL     OW18217   4.271   2.276   2.333
 5773SOL    HW118218   4.326   2.194   2.348
 5773SOL    HW218219   4.277   2.304   2.237
 5774SOL     OW18220   0.576   6.294   3.379
 5774SOL    HW118221   0.551   6.280   3.283
 5774SOL    HW218222   0.504   6.259   3.438
 5775SOL     OW18223   0.557   5.426   2.494
 5775SOL    HW118224   0.618   5.415   2.572
 5775SOL    HW218225   0.610   5.427   2.409
 5776SOL     OW18226   2.164   0.376   3.158
 5776SOL    HW118227   2.156   0.293   3.102
 5776SOL    HW218228   2.178   0.455   3.099
 5777SOL     OW18229   1.758   6.980   3.290
 5777SOL    HW118230   1.730   6.886   3.307
 5777SOL    HW218231   1.782   0.005   3.376
 5778SOL     OW18232   0.840   1.402   6.655
 5778SOL    HW118233   0.760   1.439   6.703
 5778SOL    HW218234   0.903   1.476   6.632
 5779SOL     OW18235   5.709   2.386   6.346
 5779SOL    HW118236   5.778   2.412   6.279
 5779SOL    HW218237   5.653   2.312   6.309
 5780SOL     OW18238   5.027   4.878   3.549
 5780SOL    HW118239   5.095   4.943   3.585
 5780SOL    HW218240   5.062   4.785   3.562
 5781SOL     OW18241   0.671   3.716   5.396
 5781SOL    HW118242   0.667   3.641   5.461
 5781SOL    HW218243   0.594   3.778   5.411
 5782SOL     OW18244   0.462   1.155   0.545
 5782SOL    HW118245   0.468   1.124   0.450
 5782SOL    HW218246   0.542   1.123   0.595
 5783SOL     OW18247   2.186   1.862   2.283
 5783SOL    HW118248   2.227   1.927   2.347
 5783SOL    HW218249   2.213   1.884   2.190
 5784SOL     OW18250   0.532   6.222   6.682
 5784SOL    HW118251   0.560   6.142   6.630
 5784SOL    HW218252   0.443   6.205   6.725
 5785SOL     OW18253   2.198   1.546   1.261
 5785SOL    HW118254   2.233   1.563   1.353
 5785SOL    HW218255   2.211   1.449   1.238
 5786SOL     OW18256   0.200   3.864   0.429
 5786SOL    HW118257   0.134   3.831   0.362
 5786SOL    HW218258   0.182   3.960   0.451
 5787SOL     OW18259   2.543   1.601   5.578
 5787SOL    HW118260   2.448   1.601   5.546
 5787SOL    HW218261   2.561   1.683   5.632
 5788SOL     OW18262   2.658   0.914   2.961
 5788SOL    HW118263   2.724   0.882   2.893
 5788SOL    HW218264   2.641   0.840   3.027
 5789SOL     OW18265   4.268   5.073   6.423
 5789SOL    HW118266   4.265   4.981   6.383
 5789SOL    HW218267   4.347   5.080   6.484
 5790SOL     OW18268   0.749   3.303   4.077
 5790SOL    HW118269   0.755   3.260   3.987
 5790SOL    HW218270   0.657   3.291   4.114
 5791SOL     OW18271   2.430   0.401   2.879
 5791SOL    HW118272   2.348   0.372   2.829
 5791SOL    HW218273   2.444   0.499   2.868
 5792SOL     OW18274   6.800   1.929   3.019
 5792SOL    HW118275   6.784   1.988   2.940
 5792SOL    HW218276   6.730   1.945   3.089
 5793SOL     OW18277   6.438   0.973   3.758
 5793SOL    HW118278   6.533   1.000   3.749
 5793SOL    HW218279   6.388   1.042   3.810
 5794SOL     OW18280   3.832   3.530   0.127
 5794SOL    HW118281   3.908   3.472   0.156
 5794SOL    HW218282   3.868   3.617   0.094
 5795SOL     OW18283   5.776   4.784   5.933
 5795SOL    HW118284   5.698   4.729   5.901
 5795SOL    HW218285   5.786   4.864   5.874
 5796SOL     OW18286   3.410   1.678   0.027
 5796SOL    HW118287   3.366   1.630   0.103
 5796SOL    HW218288   3.342   1.733   6.999
 5797SOL     OW18289   3.281   2.167   4.549
 5797SOL    HW118290   3.311   2.187   4.642
 5797SOL    HW218291   3.356   2.125   4.498
 5798SOL     OW18292   0.130   4.727   4.898
 5798SOL    HW118293   0.155   4.718   4.801
 5798SOL    HW218294   0.067   4.803   4.909
 5799SOL     OW18295   5.295   6.836   3.100
 5799SOL    HW118296   5.244   6.786   3.029
 5799SOL    HW218297   5.263   6.930   3.103
 5800SOL     OW18298   5.877   4.741   1.411
 5800SOL    HW118299   5.971   4.763   1.439
 5800SOL    HW218300   5.876   4.653   1.363
 5801SOL     OW18301   0.616   0.936   3.265
 5801SOL    HW118302   0.612   1.018   3.322
 5801SOL    HW218303   0.528   0.888   3.270
 5802SOL     OW18304   0.254   3.800   6.336
 5802SOL    HW118305   0.193   3.721   6.349
 5802SOL    HW218306   0.215   3.880   6.382
 5803SOL     OW18307   1.164   4.451   0.992
 5803SOL    HW118308   1.145   4.541   0.953
 5803SOL    HW218309   1.194   4.389   0.919
 5804SOL     OW18310   6.202   3.713   4.676
 5804SOL    HW118311   6.109   3.708   4.638
 5804SOL    HW218312   6.232   3.621   4.701
 5805SOL     OW18313   4.263   3.909   6.305
 5805SOL    HW118314   4.305   3.887   6.217
 5805SOL    HW218315   4.334   3.923   6.374
 5806SOL     OW18316   0.995   6.775   0.053
 5806SOL    HW118317   1.014   6.695   7.015
 5806SOL    HW218318   0.903   6.768   0.090
 5807SOL     OW18319   1.740   3.704   0.804
 5807SOL    HW118320   1.811   3.706   0.873
 5807SOL    HW218321   1.780   3.683   0.715
 5808SOL     OW18322   5.388   4.103   2.525
 5808SOL    HW118323   5.335   4.066   2.449
 5808SOL    HW218324   5.413   4.028   2.587
 5809SOL     OW18325   6.779   3.133   4.753
 5809SOL    HW118326   6.763   3.217   4.805
 5809SOL    HW218327   6.739   3.056   4.802
 5810SOL     OW18328   3.573   1.415   3.704
 5810SOL    HW118329   3.497   1.442   3.645
 5810SOL    HW218330   3.650   1.387   3.647
 5811SOL     OW18331   2.628   0.323   4.759
 5811SOL    HW118332   2.702   0.257   4.752
 5811SOL    HW218333   2.659   0.402   4.813
 5812SOL     OW18334   4.715   0.390   3.237
 5812SOL    HW118335   4.776   0.438   3.300
 5812SOL    HW218336   4.705   0.442   3.152
 5813SOL     OW18337   1.292   1.109   5.605
 5813SOL    HW118338   1.253   1.025   5.641
 5813SOL    HW218339   1.385   1.122   5.640
 5814SOL     OW18340   0.153   4.754   0.643
 5814SOL    HW118341   0.068   4.735   0.691
 5814SOL    HW218342   0.193   4.839   0.678
 5815SOL     OW18343   4.003   2.223   2.730
 5815SOL    HW118344   3.939   2.161   2.777
 5815SOL    HW218345   3.990   2.215   2.631
 5816SOL     OW18346   4.869   0.199   0.040
 5816SOL    HW118347   4.870   0.290   7.018
 5816SOL    HW218348   4.941   0.143   7.020
 5817SOL     OW18349   5.359   3.116   6.121
 5817SOL    HW118350   5.345   3.191   6.186
 5817SOL    HW218351   5.392   3.035   6.169
 5818SOL     OW18352   5.748   6.746   5.772
 5818SOL    HW118353   5.818   6.703   5.715
 5818SOL    HW218354   5.761   6.719   5.867
 5819SOL     OW18355   5.167   0.195   1.120
 5819SOL    HW118356   5.075   0.221   1.147
 5819SOL    HW218357   5.228   0.274   1.124
 5820SOL     OW18358   5.067   0.084   3.421
 5820SOL    HW118359   5.118   0.004   3.455
 5820SOL    HW218360   4.971   0.076   3.447
 5821SOL     OW18361   2.917   0.454   2.048
 5821SOL    HW118362   2.904   0.547   2.081
 5821SOL    HW218363   2.829   0.406   2.046
 5822SOL     OW18364   0.559   2.313   1.725
 5822SOL    HW118365   0.617   2.273   1.796
 5822SOL    HW218366   0.598   2.294   1.635
 5823SOL     OW18367   1.642   1.333   4.874
 5823SOL    HW118368   1.552   1.365   4.903
 5823SOL    HW218369   1.712   1.395   4.910
 5824SOL     OW18370   6.414   6.822   3.360
 5824SOL    HW118371   6.442   6.728   3.375
 5824SOL    HW218372   6.455   6.857   3.276
 5825SOL     OW18373   2.430   1.448   6.466
 5825SOL    HW118374   2.417   1.379   6.395
 5825SOL    HW218375   2.521   1.437   6.507
 5826SOL     OW18376   5.944   6.484   5.186
 5826SOL    HW118377   6.033   6.489   5.140
 5826SOL    HW218378   5.871   6.494   5.120
 5827SOL     OW18379   0.746   5.461   4.741
 5827SOL    HW118380   0.729   5.457   4.643
 5827SOL    HW218381   0.839   5.495   4.757
 5828SOL     OW18382   0.368   3.990   2.255
 5828SOL    HW118383   0.341   3.899   2.225
 5828SOL    HW218384   0.299   4.028   2.316
 5829SOL     OW18385   2.983   1.174   1.803
 5829SOL    HW118386   3.058   1.211   1.747
 5829SOL    HW218387   2.943   1.247   1.858
 5830SOL     OW18388   3.698   0.915   5.586
 5830SOL    HW118389   3.612   0.957   5.557
 5830SOL    HW218390   3.730   0.853   5.514
 5831SOL     OW18391   5.781   6.281   2.926
 5831SOL    HW118392   5.795   6.186   2.897
 5831SOL    HW218393   5.800   6.289   3.024
 5832SOL     OW18394   4.051   4.086   5.288
 5832SOL    HW118395   4.033   4.003   5.235
 5832SOL    HW218396   4.150   4.101   5.293
 5833SOL     OW18397   2.927   3.453   3.888
 5833SOL    HW118398   2.914   3.531   3.949
 5833SOL    HW218399   2.886   3.472   3.799
 5834SOL     OW18400   6.228   1.623   0.213
 5834SOL    HW118401   6.308   1.584   0.168
 5834SOL    HW218402   6.215   1.717   0.184
 5835SOL     OW18403   5.009   2.236   3.295
 5835SOL    HW118404   5.037   2.237   3.391
 5835SOL    HW218405   5.080   2.280   3.239
 5836SOL     OW18406   2.949   6.132   2.369
 5836SOL    HW118407   2.872   6.069   2.368
 5836SOL    HW218408   3.033   6.082   2.390
 5837SOL     OW18409   4.717   4.379   0.165
 5837SOL    HW118410   4.804   4.415   0.132
 5837SOL    HW218411   4.734   4.306   0.232
 5838SOL     OW18412   1.515   1.629   5.981
 5838SOL    HW118413   1.445   1.694   6.010
 5838SOL    HW218414   1.482   1.580   5.900
 5839SOL     OW18415   6.899   3.473   2.663
 5839SOL    HW118416   6.953   3.471   2.579
 5839SOL    HW218417   6.806   3.504   2.642
 5840SOL     OW18418   1.526   5.742   6.535
 5840SOL    HW118419   1.508   5.708   6.443
 5840SOL    HW218420   1.458   5.706   6.599
 5841SOL     OW18421   6.089   3.304   3.371
 5841SOL    HW118422   6.181   3.343   3.371
 5841SOL    HW218423   6.081   3.238   3.296
 5842SOL     OW18424   3.953   3.006   0.696
 5842SOL    HW118425   3.962   3.056   0.782
 5842SOL    HW218426   4.036   3.017   0.642
 5843SOL     OW18427   1.913   3.566   2.602
 5843SOL    HW118428   1.896   3.657   2.641
 5843SOL    HW218429   1.845   3.502   2.638
 5844SOL     OW18430   0.002   5.685   6.239
 5844SOL    HW118431   7.008   5.595   6.198
 5844SOL    HW218432   6.981   5.686   6.330
 5845SOL     OW18433   1.022   2.412   3.342
 5845SOL    HW118434   0.952   2.444   3.406
 5845SOL    HW218435   1.048   2.318   3.365
 5846SOL     OW18436   6.905   2.602   5.215
 5846SOL    HW118437   6.828   2.543   5.195
 5846SOL    HW218438   6.937   2.586   5.309
 5847SOL     OW18439   2.108   2.365   2.593
 5847SOL    HW118440   2.067   2.297   2.532
 5847SOL    HW218441   2.185   2.409   2.547
 5848SOL     OW18442   2.325   4.867   3.626
 5848SOL    HW118443   2.249   4.807   3.600
 5848SOL    HW218444   2.289   4.955   3.656
 5849SOL     OW18445   1.110   0.521   5.885
 5849SOL    HW118446   1.200   0.517   5.929
 5849SOL    HW218447   1.120   0.506   5.787
 5850SOL     OW18448   1.599   4.078   2.257
 5850SOL    HW118449   1.614   4.016   2.335
 5850SOL    HW218450   1.513   4.128   2.271
 5851SOL     OW18451   6.214   3.827   2.380
 5851SOL    HW118452   6.171   3.907   2.421
 5851SOL    HW218453   6.302   3.853   2.340
 5852SOL     OW18454   3.841   6.048   2.737
 5852SOL    HW118455   3.935   6.052   2.702
 5852SOL    HW218456   3.815   5.952   2.750
 5853SOL     OW18457   3.257   5.311   6.312
 5853SOL    HW118458   3.173   5.286   6.361
 5853SOL    HW218459   3.285   5.236   6.252
 5854SOL     OW18460   6.829   1.874   5.414
 5854SOL    HW118461   6.840   1.972   5.398
 5854SOL    HW218462   6.918   1.829   5.408
 5855SOL     OW18463   1.308   0.767   4.331
 5855SOL    HW118464   1.328   0.677   4.294
 5855SOL    HW218465   1.390   0.824   4.328
 5856SOL     OW18466   2.450   4.910   3.111
 5856SOL    HW118467   2.411   4.853   3.183
 5856SOL    HW218468   2.471   5.001   3.148
 5857SOL     OW18469   6.284   2.503   5.076
 5857SOL    HW118470   6.315   2.422   5.027
 5857SOL    HW218471   6.246   2.476   5.165
 5858SOL     OW18472   2.902   1.268   2.373
 5858SOL    HW118473   2.928   1.346   2.316
 5858SOL    HW218474   2.971   1.255   2.445
 5859SOL     OW18475   6.673   6.283   0.476
 5859SOL    HW118476   6.619   6.326   0.548
 5859SOL    HW218477   6.729   6.210   0.515
 5860SOL     OW18478   1.646   4.455   1.745
 5860SOL    HW118479   1.560   4.405   1.754
 5860SOL    HW218480   1.680   4.446   1.651
 5861SOL     OW18481   5.309   2.128   3.723
 5861SOL    HW118482   5.269   2.037   3.733
 5861SOL    HW218483   5.408   2.119   3.708
 5862SOL     OW18484   3.820   5.097   3.160
 5862SOL    HW118485   3.893   5.051   3.109
 5862SOL    HW218486   3.754   5.029   3.193
 5863SOL     OW18487   1.981   0.691   6.237
 5863SOL    HW118488   2.069   0.671   6.281
 5863SOL    HW218489   1.907   0.656   6.294
 5864SOL     OW18490   4.150   4.261   1.404
 5864SOL    HW118491   4.222   4.226   1.344
 5864SOL    HW218492   4.147   4.206   1.488
 5865SOL     OW18493   5.136   0.870   3.260
 5865SOL    HW118494   5.078   0.950   3.274
 5865SOL    HW218495   5.107   0.823   3.177
 5866SOL     OW18496   4.538   6.900   5.407
 5866SOL    HW118497   4.482   6.868   5.330
 5866SOL    HW218498   4.580   6.987   5.383
 5867SOL     OW18499   0.170   2.804   1.336
 5867SOL    HW118500   0.221   2.862   1.400
 5867SOL    HW218501   0.117   2.736   1.386
 5868SOL     OW18502   0.985   0.297   5.738
 5868SOL    HW118503   0.910   0.302   5.672
 5868SOL    HW218504   1.062   0.350   5.704
 5869SOL     OW18505   2.602   4.698   4.514
 5869SOL    HW118506   2.635   4.696   4.608
 5869SOL    HW218507   2.680   4.710   4.452
 5870SOL     OW18508   5.492   5.329   4.546
 5870SOL    HW118509   5.526   5.418   4.517
 5870SOL    HW218510   5.393   5.334   4.559
 5871SOL     OW18511   3.607   3.386   0.074
 5871SOL    HW118512   3.674   3.440   0.124
 5871SOL    HW218513   3.574   3.311   0.131
 5872SOL     OW18514   4.307   5.875   6.283
 5872SOL    HW118515   4.216   5.913   6.302
 5872SOL    HW218516   4.372   5.909   6.350
 5873SOL     OW18517   2.694   2.976   0.288
 5873SOL    HW118518   2.701   2.889   0.241
 5873SOL    HW218519   2.785   3.011   0.309
 5874SOL     OW18520   2.369   3.371   1.608
 5874SOL    HW118521   2.303   3.416   1.548
 5874SOL    HW218522   2.353   3.399   1.702
 5875SOL     OW18523   3.573   2.016   6.965
 5875SOL    HW118524   3.498   2.048   0.002
 5875SOL    HW218525   3.623   2.095   6.928
 5876SOL     OW18526   3.475   3.424   6.647
 5876SOL    HW118527   3.425   3.399   6.564
 5876SOL    HW218528   3.460   3.355   6.718
 5877SOL     OW18529   6.330   0.605   1.345
 5877SOL    HW118530   6.408   0.601   1.408
 5877SOL    HW218531   6.321   0.697   1.309
 5878SOL     OW18532   4.582   5.515   1.894
 5878SOL    HW118533   4.653   5.530   1.826
 5878SOL    HW218534   4.552   5.603   1.931
 5879SOL     OW18535   3.583   3.146   6.387
 5879SOL    HW118536   3.525   3.202   6.328
 5879SOL    HW218537   3.527   3.101   6.456
 5880SOL     OW18538   5.174   3.208   5.654
 5880SOL    HW118539   5.086   3.232   5.695
 5880SOL    HW218540   5.165   3.205   5.554
 5881SOL     OW18541   0.883   6.458   2.436
 5881SOL    HW118542   0.880   6.369   2.480
 5881SOL    HW218543   0.790   6.487   2.414
 5882SOL     OW18544   1.184   6.379   5.786
 5882SOL    HW118545   1.216   6.410   5.697
 5882SOL    HW218546   1.109   6.314   5.774
 5883SOL     OW18547   0.119   3.902   0.897
 5883SOL    HW118548   0.089   3.848   0.818
 5883SOL    HW218549   0.130   3.997   0.870
 5884SOL     OW18550   5.651   1.667   3.687
 5884SOL    HW118551   5.599   1.742   3.727
 5884SOL    HW218552   5.671   1.599   3.758
 5885SOL     OW18553   0.242   5.507   0.067
 5885SOL    HW118554   0.232   5.408   0.075
 5885SOL    HW218555   0.336   5.532   0.089
 5886SOL     OW18556   1.483   3.692   3.324
 5886SOL    HW118557   1.482   3.599   3.361
 5886SOL    HW218558   1.531   3.692   3.237
 5887SOL     OW18559   2.208   2.404   1.263
 5887SOL    HW118560   2.218   2.500   1.290
 5887SOL    HW218561   2.137   2.361   1.318
 5888SOL     OW18562   2.736   6.465   1.864
 5888SOL    HW118563   2.824   6.508   1.884
 5888SOL    HW218564   2.716   6.475   1.767
 5889SOL     OW18565   0.124   0.596   1.249
 5889SOL    HW118566   0.099   0.509   1.206
 5889SOL    HW218567   0.124   0.668   1.180
 5890SOL     OW18568   2.444   6.505   2.386
 5890SOL    HW118569   2.515   6.574   2.373
 5890SOL    HW218570   2.472   6.419   2.343
 5891SOL     OW18571   2.582   3.114   1.148
 5891SOL    HW118572   2.643   3.176   1.196
 5891SOL    HW218573   2.509   3.167   1.103
 5892SOL     OW18574   0.790   3.133   0.848
 5892SOL    HW118575   0.814   3.219   0.893
 5892SOL    HW218576   0.701   3.142   0.803
 5893SOL     OW18577   0.799   5.662   1.796
 5893SOL    HW118578   0.757   5.717   1.724
 5893SOL    HW218579   0.732   5.598   1.832
 5894SOL     OW18580   1.360   5.719   5.712
 5894SOL    HW118581   1.427   5.656   5.671
 5894SOL    HW218582   1.281   5.667   5.743
 5895SOL     OW18583   5.709   3.249   4.620
 5895SOL    HW118584   5.726   3.152   4.637
 5895SOL    HW218585   5.794   3.300   4.626
 5896SOL     OW18586   5.908   2.096   1.469
 5896SOL    HW118587   5.845   2.095   1.546
 5896SOL    HW218588   5.922   2.191   1.439
 5897SOL     OW18589   4.665   1.633   0.844
 5897SOL    HW118590   4.659   1.716   0.899
 5897SOL    HW218591   4.574   1.593   0.834
 5898SOL     OW18592   1.774   1.507   5.805
 5898SOL    HW118593   1.846   1.551   5.859
 5898SOL    HW218594   1.792   1.519   5.708
 5899SOL     OW18595   6.988   5.439   6.137
 5899SOL    HW118596   0.013   5.371   6.080
 5899SOL    HW218597   6.890   5.441   6.117
 5900SOL     OW18598   6.767   6.112   3.091
 5900SOL    HW118599   6.683   6.124   3.038
 5900SOL    HW218600   6.829   6.189   3.071
 5901SOL     OW18601   1.920   7.000   6.475
 5901SOL    HW118602   1.888   0.042   6.547
 5901SOL    HW218603   1.842   6.971   6.420
 5902SOL     OW18604   5.868   4.609   5.009
 5902SOL    HW118605   5.932   4.614   5.087
 5902SOL    HW218606   5.911   4.558   4.935
 5903SOL     OW18607   6.631   2.219   6.397
 5903SOL    HW118608   6.570   2.166   6.456
 5903SOL    HW218609   6.576   2.274   6.335
 5904SOL     OW18610   2.038   4.477   3.268
 5904SOL    HW118611   2.030   4.412   3.343
 5904SOL    HW218612   1.947   4.497   3.231
 5905SOL     OW18613   5.679   0.937   4.232
 5905SOL    HW118614   5.771   0.907   4.208
 5905SOL    HW218615   5.664   1.030   4.197
 5906SOL     OW18616   5.072   0.796   5.237
 5906SOL    HW118617   4.979   0.784   5.270
 5906SOL    HW218618   5.135   0.802   5.315
 5907SOL     OW18619   1.767   1.734   0.059
 5907SOL    HW118620   1.767   1.766   6.984
 5907SOL    HW218621   1.819   1.649   0.065
 5908SOL     OW18622   4.646   3.714   5.914
 5908SOL    HW118623   4.653   3.726   6.013
 5908SOL    HW218624   4.682   3.795   5.868
 5909SOL     OW18625   6.957   4.370   5.256
 5909SOL    HW118626   6.967   4.442   5.188
 5909SOL    HW218627   7.005   4.288   5.226
 5910SOL     OW18628   1.864   3.904   1.522
 5910SOL    HW118629   1.847   3.860   1.434
 5910SOL    HW218630   1.963   3.907   1.539
 5911SOL     OW18631   6.367   5.294   6.235
 5911SOL    HW118632   6.329   5.379   6.274
 5911SOL    HW218633   6.445   5.265   6.290
 5912SOL     OW18634   6.353   3.900   0.010
 5912SOL    HW118635   6.305   3.945   6.955
 5912SOL    HW218636   6.448   3.932   0.012
 5913SOL     OW18637   2.007   1.686   5.771
 5913SOL    HW118638   1.955   1.701   5.687
 5913SOL    HW218639   2.102   1.664   5.748
 5914SOL     OW18640   2.154   5.428   0.634
 5914SOL    HW118641   2.143   5.459   0.728
 5914SOL    HW218642   2.249   5.400   0.618
 5915SOL     OW18643   4.772   2.920   2.487
 5915SOL    HW118644   4.722   2.893   2.569
 5915SOL    HW218645   4.728   2.880   2.406
 5916SOL     OW18646   3.872   0.016   5.659
 5916SOL    HW118647   3.866   6.945   5.617
 5916SOL    HW218648   3.814   0.080   5.608
 5917SOL     OW18649   3.462   3.466   3.013
 5917SOL    HW118650   3.383   3.470   2.952
 5917SOL    HW218651   3.502   3.557   3.021
 5918SOL     OW18652   1.816   3.592   3.785
 5918SOL    HW118653   1.802   3.672   3.844
 5918SOL    HW218654   1.913   3.582   3.764
 5919SOL     OW18655   2.311   2.487   6.749
 5919SOL    HW118656   2.295   2.403   6.801
 5919SOL    HW218657   2.244   2.495   6.676
 5920SOL     OW18658   3.775   0.550   6.563
 5920SOL    HW118659   3.823   0.615   6.622
 5920SOL    HW218660   3.841   0.486   6.523
 5921SOL     OW18661   3.844   4.855   5.486
 5921SOL    HW118662   3.866   4.931   5.425
 5921SOL    HW218663   3.876   4.769   5.445
 5922SOL     OW18664   6.277   4.581   2.957
 5922SOL    HW118665   6.214   4.657   2.969
 5922SOL    HW218666   6.242   4.500   3.003
 5923SOL     OW18667   6.803   0.111   3.371
 5923SOL    HW118668   6.845   0.131   3.283
 5923SOL    HW218669   6.705   0.130   3.366
 5924SOL     OW18670   5.062   2.161   4.503
 5924SOL    HW118671   4.973   2.154   4.549
 5924SOL    HW218672   5.077   2.256   4.474
 5925SOL     OW18673   5.402   5.868   1.182
 5925SOL    HW118674   5.311   5.871   1.225
 5925SOL    HW218675   5.422   5.956   1.140
 5926SOL     OW18676   3.616   4.814   1.463
 5926SOL    HW118677   3.559   4.748   1.512
 5926SOL    HW218678   3.558   4.884   1.422
 5927SOL     OW18679   2.933   5.844   1.824
 5927SOL    HW118680   2.960   5.851   1.728
 5927SOL    HW218681   2.998   5.894   1.881
 5928SOL     OW18682   1.019   6.950   2.732
 5928SOL    HW118683   1.059   0.022   2.732
 5928SOL    HW218684   0.945   6.946   2.799
 5929SOL     OW18685   1.344   6.568   6.348
 5929SOL    HW118686   1.378   6.662   6.347
 5929SOL    HW218687   1.418   6.506   6.372
 5930SOL     OW18688   6.373   1.120   4.843
 5930SOL    HW118689   6.315   1.138   4.923
 5930SOL    HW218690   6.325   1.149   4.760
 5931SOL     OW18691   6.289   5.711   1.416
 5931SOL    HW118692   6.361   5.746   1.476
 5931SOL    HW218693   6.331   5.664   1.338
 5932SOL     OW18694   2.103   6.660   0.971
 5932SOL    HW118695   2.079   6.700   0.882
 5932SOL    HW218696   2.203   6.658   0.981
 5933SOL     OW18697   6.930   4.131   3.180
 5933SOL    HW118698   6.850   4.179   3.216
 5933SOL    HW218699   7.013   4.163   3.227
 5934SOL     OW18700   3.506   3.892   2.774
 5934SOL    HW118701   3.479   3.988   2.783
 5934SOL    HW218702   3.604   3.883   2.793
 5935SOL     OW18703   3.963   3.907   4.394
 5935SOL    HW118704   3.954   3.818   4.439
 5935SOL    HW218705   3.903   3.973   4.440
 5936SOL     OW18706   5.030   5.099   6.781
 5936SOL    HW118707   5.113   5.094   6.837
 5936SOL    HW218708   4.953   5.127   6.838
 5937SOL     OW18709   1.989   3.529   0.924
 5937SOL    HW118710   1.969   3.431   0.933
 5937SOL    HW218711   2.057   3.542   0.852
 5938SOL     OW18712   2.181   3.935   3.144
 5938SOL    HW118713   2.188   3.835   3.144
 5938SOL    HW218714   2.192   3.968   3.050
 5939SOL     OW18715   2.734   0.284   2.862
 5939SOL    HW118716   2.699   0.204   2.813
 5939SOL    HW218717   2.663   0.354   2.867
 5940SOL     OW18718   3.892   7.006   2.854
 5940SOL    HW118719   3.793   6.999   2.841
 5940SOL    HW218720   3.914   6.993   2.950
 5941SOL     OW18721   6.436   5.139   2.428
 5941SOL    HW118722   6.531   5.109   2.428
 5941SOL    HW218723   6.414   5.180   2.339
 5942SOL     OW18724   3.837   3.542   6.185
 5942SOL    HW118725   3.915   3.591   6.223
 5942SOL    HW218726   3.780   3.605   6.132
 5943SOL     OW18727   1.970   6.069   0.365
 5943SOL    HW118728   2.050   6.047   0.421
 5943SOL    HW218729   1.949   6.166   0.374
 5944SOL     OW18730   5.021   1.357   2.242
 5944SOL    HW118731   5.002   1.317   2.152
 5944SOL    HW218732   5.001   1.455   2.240
 5945SOL     OW18733   6.456   4.780   5.848
 5945SOL    HW118734   6.547   4.804   5.816
 5945SOL    HW218735   6.449   4.797   5.947
 5946SOL     OW18736   4.894   2.838   6.215
 5946SOL    HW118737   4.916   2.935   6.206
 5946SOL    HW218738   4.828   2.826   6.289
 5947SOL     OW18739   4.479   3.769   1.643
 5947SOL    HW118740   4.482   3.713   1.560
 5947SOL    HW218741   4.407   3.837   1.634
 5948SOL     OW18742   3.613   4.892   2.901
 5948SOL    HW118743   3.703   4.883   2.859
 5948SOL    HW218744   3.623   4.891   3.001
 5949SOL     OW18745   4.258   4.892   1.394
 5949SOL    HW118746   4.308   4.964   1.347
 5949SOL    HW218747   4.317   4.812   1.405
 5950SOL     OW18748   6.117   1.830   4.513
 5950SOL    HW118749   6.153   1.920   4.490
 5950SOL    HW218750   6.055   1.838   4.591
 5951SOL     OW18751   1.854   5.605   3.993
 5951SOL    HW118752   1.819   5.561   3.910
 5951SOL    HW218753   1.779   5.652   4.040
 5952SOL     OW18754   6.868   6.530   3.710
 5952SOL    HW118755   6.855   6.517   3.808
 5952SOL    HW218756   6.786   6.500   3.661
 5953SOL     OW18757   6.652   2.926   5.800
 5953SOL    HW118758   6.689   2.857   5.862
 5953SOL    HW218759   6.675   3.017   5.834
 5954SOL     OW18760   6.956   4.650   6.578
 5954SOL    HW118761   0.011   4.599   6.622
 5954SOL    HW218762   6.971   4.652   6.479
 5955SOL     OW18763   5.014   5.314   1.891
 5955SOL    HW118764   5.114   5.302   1.889
 5955SOL    HW218765   4.977   5.266   1.970
 5956SOL     OW18766   4.763   2.238   6.802
 5956SOL    HW118767   4.793   2.323   6.845
 5956SOL    HW218768   4.720   2.258   6.714
 5957SOL     OW18769   5.917   5.913   6.337
 5957SOL    HW118770   5.968   5.968   6.403
 5957SOL    HW218771   5.878   5.833   6.383
 5958SOL     OW18772   6.588   5.831   1.848
 5958SOL    HW118773   6.653   5.840   1.772
 5958SOL    HW218774   6.547   5.919   1.869
 5959SOL     OW18775   2.833   1.707   6.077
 5959SOL    HW118776   2.917   1.731   6.030
 5959SOL    HW218777   2.774   1.654   6.017
 5960SOL     OW18778   2.654   6.974   3.498
 5960SOL    HW118779   2.750   6.964   3.523
 5960SOL    HW218780   2.623   6.892   3.451
 5961SOL     OW18781   3.271   0.841   4.872
 5961SOL    HW118782   3.281   0.751   4.828
 5961SOL    HW218783   3.275   0.912   4.803
 5962SOL     OW18784   4.775   5.552   2.179
 5962SOL    HW118785   4.742   5.471   2.227
 5962SOL    HW218786   4.872   5.541   2.158
 5963SOL     OW18787   3.741   3.563   2.485
 5963SOL    HW118788   3.771   3.582   2.578
 5963SOL    HW218789   3.805   3.498   2.443
 5964SOL     OW18790   0.162   5.092   6.139
 5964SOL    HW118791   0.124   5.071   6.229
 5964SOL    HW218792   0.261   5.099   6.145
 5965SOL     OW18793   2.242   2.762   6.154
 5965SOL    HW118794   2.243   2.862   6.160
 5965SOL    HW218795   2.271   2.723   6.242
 5966SOL     OW18796   3.082   5.851   4.888
 5966SOL    HW118797   3.171   5.853   4.844
 5966SOL    HW218798   3.054   5.756   4.902
 5967SOL     OW18799   4.592   0.010   3.244
 5967SOL    HW118800   4.675   0.064   3.225
 5967SOL    HW218801   4.617   6.934   3.255
 5968SOL     OW18802   6.503   2.439   3.352
 5968SOL    HW118803   6.555   2.441   3.266
 5968SOL    HW218804   6.529   2.516   3.409
 5969SOL     OW18805   5.790   3.855   3.695
 5969SOL    HW118806   5.720   3.907   3.645
 5969SOL    HW218807   5.746   3.787   3.753
 5970SOL     OW18808   1.387   3.532   2.442
 5970SOL    HW118809   1.317   3.603   2.439
 5970SOL    HW218810   1.396   3.489   2.352
 5971SOL     OW18811   1.773   6.265   3.017
 5971SOL    HW118812   1.721   6.184   2.990
 5971SOL    HW218813   1.855   6.273   2.961
 5972SOL     OW18814   5.075   6.978   7.012
 5972SOL    HW118815   5.140   6.990   0.067
 5972SOL    HW218816   5.115   6.916   6.944
 5973SOL     OW18817   1.892   4.291   2.888
 5973SOL    HW118818   1.962   4.299   2.816
 5973SOL    HW218819   1.881   4.380   2.933
 5974SOL     OW18820   6.909   3.820   0.377
 5974SOL    HW118821   6.845   3.770   0.434
 5974SOL    HW218822   6.906   3.917   0.401
 5975SOL     OW18823   3.547   2.755   1.205
 5975SOL    HW118824   3.566   2.657   1.201
 5975SOL    HW218825   3.490   2.776   1.284
 5976SOL     OW18826   2.892   3.426   5.081
 5976SOL    HW118827   2.988   3.438   5.103
 5976SOL    HW218828   2.876   3.331   5.051
 5977SOL     OW18829   1.392   4.500   2.068
 5977SOL    HW118830   1.459   4.570   2.043
 5977SOL    HW218831   1.381   4.435   1.993
 5978SOL     OW18832   5.379   4.752   2.556
 5978SOL    HW118833   5.404   4.682   2.490
 5978SOL    HW218834   5.453   4.819   2.564
 5979SOL     OW18835   6.269   0.914   3.562
 5979SOL    HW118836   6.310   0.961   3.484
 5979SOL    HW218837   6.330   0.919   3.641
 5980SOL     OW18838   5.260   4.157   0.813
 5980SOL    HW118839   5.225   4.234   0.760
 5980SOL    HW218840   5.357   4.144   0.795
 5981SOL     OW18841   5.844   1.453   2.784
 5981SOL    HW118842   5.818   1.504   2.866
 5981SOL    HW218843   5.767   1.398   2.752
 5982SOL     OW18844   6.995   2.064   6.816
 5982SOL    HW118845   0.073   2.052   6.833
 5982SOL    HW218846   6.981   2.143   6.756
 5983SOL     OW18847   1.516   1.524   3.988
 5983SOL    HW118848   1.565   1.591   4.044
 5983SOL    HW218849   1.582   1.467   3.939
 5984SOL     OW18850   6.841   6.000   4.551
 5984SOL    HW118851   6.863   6.009   4.454
 5984SOL    HW218852   6.863   6.086   4.598
 5985SOL     OW18853   5.011   1.845   3.970
 5985SOL    HW118854   4.960   1.783   3.910
 5985SOL    HW218855   4.951   1.920   3.999
 5986SOL     OW18856   3.643   3.247   2.626
 5986SOL    HW118857   3.727   3.272   2.674
 5986SOL    HW218858   3.665   3.222   2.532
 5987SOL     OW18859   4.544   6.758   4.975
 5987SOL    HW118860   4.638   6.738   5.004
 5987SOL    HW218861   4.546   6.814   4.892
 5988SOL     OW18862   4.346   7.013   3.968
 5988SOL    HW118863   4.279   0.028   3.902
 5988SOL    HW218864   4.327   0.031   4.058
 5989SOL     OW18865   3.158   0.391   5.941
 5989SOL    HW118866   3.219   0.466   5.966
 5989SOL    HW218867   3.119   0.409   5.850
 5990SOL     OW18868   3.314   5.254   0.523
 5990SOL    HW118869   3.364   5.339   0.508
 5990SOL    HW218870   3.274   5.223   0.436
 5991SOL     OW18871   3.506   5.476   4.477
 5991SOL    HW118872   3.513   5.456   4.575
 5991SOL    HW218873   3.537   5.569   4.460
 5992SOL     OW18874   3.641   0.443   3.698
 5992SOL    HW118875   3.633   0.539   3.671
 5992SOL    HW218876   3.730   0.407   3.669
 5993SOL     OW18877   2.545   6.140   6.217
 5993SOL    HW118878   2.602   6.058   6.227
 5993SOL    HW218879   2.535   6.163   6.120
 5994SOL     OW18880   5.923   2.844   2.444
 5994SOL    HW118881   6.014   2.861   2.407
 5994SOL    HW218882   5.903   2.912   2.515
 5995SOL     OW18883   6.851   5.165   0.815
 5995SOL    HW118884   6.785   5.175   0.741
 5995SOL    HW218885   6.936   5.128   0.779
 5996SOL     OW18886   0.096   5.374   6.359
 5996SOL    HW118887   0.106   5.275   6.364
 5996SOL    HW218888   0.052   5.399   6.273
 5997SOL     OW18889   0.241   6.731   1.620
 5997SOL    HW118890   0.330   6.773   1.601
 5997SOL    HW218891   0.217   6.745   1.716
 5998SOL     OW18892   5.605   1.790   2.448
 5998SOL    HW118893   5.637   1.853   2.377
 5998SOL    HW218894   5.683   1.756   2.500
 5999SOL     OW18895   1.705   2.026   2.924
 5999SOL    HW118896   1.737   2.111   2.967
 5999SOL    HW218897   1.630   2.046   2.861
 6000SOL     OW18898   4.354   5.363   2.228
 6000SOL    HW118899   4.420   5.331   2.160
 6000SOL    HW218900   4.324   5.456   2.204
 6001SOL     OW18901   6.260   2.781   6.768
 6001SOL    HW118902   6.229   2.689   6.792
 6001SOL    HW218903   6.294   2.782   6.674
 6002SOL     OW18904   1.680   0.564   1.812
 6002SOL    HW118905   1.583   0.542   1.801
 6002SOL    HW218906   1.696   0.595   1.906
 6003SOL     OW18907   5.453   4.163   5.039
 6003SOL    HW118908   5.475   4.150   4.942
 6003SOL    HW218909   5.404   4.249   5.050
 6004SOL     OW18910   0.672   3.543   2.605
 6004SOL    HW118911   0.764   3.521   2.571
 6004SOL    HW218912   0.610   3.553   2.527
 6005SOL     OW18913   3.363   5.578   3.687
 6005SOL    HW118914   3.301   5.512   3.645
 6005SOL    HW218915   3.411   5.535   3.764
 6006SOL     OW18916   2.759   6.566   6.516
 6006SOL    HW118917   2.824   6.495   6.546
 6006SOL    HW218918   2.790   6.603   6.428
 6007SOL     OW18919   5.992   2.475   4.120
 6007SOL    HW118920   5.958   2.381   4.132
 6007SOL    HW218921   6.062   2.476   4.049
 6008SOL     OW18922   2.945   4.765   5.967
 6008SOL    HW118923   3.023   4.727   6.017
 6008SOL    HW218924   2.887   4.691   5.935
 6009SOL     OW18925   2.228   1.855   4.370
 6009SOL    HW118926   2.320   1.889   4.355
 6009SOL    HW218927   2.175   1.863   4.286
 6010SOL     OW18928   2.101   4.268   2.685
 6010SOL    HW118929   2.165   4.214   2.630
 6010SOL    HW218930   2.111   4.365   2.663
 6011SOL     OW18931   5.345   2.695   2.301
 6011SOL    HW118932   5.358   2.793   2.314
 6011SOL    HW218933   5.264   2.679   2.245
 6012SOL     OW18934   6.610   2.857   0.677
 6012SOL    HW118935   6.645   2.799   0.604
 6012SOL    HW218936   6.685   2.910   0.716
 6013SOL     OW18937   6.227   1.182   2.401
 6013SOL    HW118938   6.287   1.108   2.372
 6013SOL    HW218939   6.277   1.244   2.461
 6014SOL     OW18940   5.588   0.306   0.396
 6014SOL    HW118941   5.607   0.210   0.377
 6014SOL    HW218942   5.547   0.316   0.486
 6015SOL     OW18943   5.780   2.196   4.674
 6015SOL    HW118944   5.741   2.271   4.727
 6015SOL    HW218945   5.826   2.232   4.593
 6016SOL     OW18946   1.783   0.568   5.114
 6016SOL    HW118947   1.831   0.555   5.201
 6016SOL    HW218948   1.788   0.484   5.061
 6017SOL     OW18949   6.261   4.998   2.895
 6017SOL    HW118950   6.245   5.092   2.923
 6017SOL    HW218951   6.358   4.977   2.900
 6018SOL     OW18952   2.774   3.330   0.958
 6018SOL    HW118953   2.874   3.341   0.958
 6018SOL    HW218954   2.748   3.254   0.899
 6019SOL     OW18955   3.610   1.083   4.147
 6019SOL    HW118956   3.606   0.990   4.109
 6019SOL    HW218957   3.705   1.108   4.164
 6020SOL     OW18958   3.937   0.720   2.610
 6020SOL    HW118959   3.868   0.648   2.616
 6020SOL    HW218960   3.974   0.723   2.517
 6021SOL     OW18961   4.222   1.352   2.443
 6021SOL    HW118962   4.147   1.418   2.436
 6021SOL    HW218963   4.276   1.370   2.525
 6022SOL     OW18964   4.435   1.484   3.283
 6022SOL    HW118965   4.379   1.565   3.270
 6022SOL    HW218966   4.433   1.456   3.379
 6023SOL     OW18967   0.545   1.575   3.227
 6023SOL    HW118968   0.596   1.557   3.143
 6023SOL    HW218969   0.490   1.495   3.250
 6024SOL     OW18970   0.840   5.007   1.584
 6024SOL    HW118971   0.913   4.962   1.635
 6024SOL    HW218972   0.860   5.105   1.576
 6025SOL     OW18973   4.532   1.227   1.617
 6025SOL    HW118974   4.516   1.275   1.703
 6025SOL    HW218975   4.612   1.268   1.571
 6026SOL     OW18976   6.480   4.671   5.350
 6026SOL    HW118977   6.530   4.642   5.269
 6026SOL    HW218978   6.494   4.769   5.364
 6027SOL     OW18979   2.817   2.823   6.520
 6027SOL    HW118980   2.729   2.868   6.507
 6027SOL    HW218981   2.808   2.752   6.590
 6028SOL     OW18982   1.709   4.158   0.093
 6028SOL    HW118983   1.784   4.152   0.158
 6028SOL    HW218984   1.641   4.223   0.127
 6029SOL     OW18985   2.473   6.220   0.935
 6029SOL    HW118986   2.382   6.257   0.914
 6029SOL    HW218987   2.464   6.149   1.005
 6030SOL     OW18988   2.240   0.892   1.593
 6030SOL    HW118989   2.331   0.917   1.563
 6030SOL    HW218990   2.188   0.974   1.616
 6031SOL     OW18991   5.258   6.473   5.594
 6031SOL    HW118992   5.321   6.396   5.595
 6031SOL    HW218993   5.165   6.440   5.575
 6032SOL     OW18994   1.510   3.052   1.868
 6032SOL    HW118995   1.475   3.144   1.853
 6032SOL    HW218996   1.596   3.057   1.920
 6033SOL     OW18997   1.429   2.045   3.679
 6033SOL    HW118998   1.401   1.959   3.637
 6033SOL    HW218999   1.508   2.081   3.631
 6034SOL     OW19000   1.958   4.483   5.273
 6034SOL    HW119001   2.045   4.512   5.314
 6034SOL    HW219002   1.883   4.535   5.314
 6035SOL     OW19003   5.676   0.226   4.171
 6035SOL    HW119004   5.745   0.295   4.149
 6035SOL    HW219005   5.709   0.136   4.143
 6036SOL     OW19006   0.623   6.948   5.173
 6036SOL    HW119007   0.721   6.939   5.194
 6036SOL    HW219008   0.610   7.018   5.104
 6037SOL     OW19009   5.746   5.895   5.025
 6037SOL    HW119010   5.705   5.823   5.081
 6037SOL    HW219011   5.842   5.907   5.050
 6038SOL     OW19012   6.349   4.510   5.905
 6038SOL    HW119013   6.390   4.597   5.875
 6038SOL    HW219014   6.376   4.437   5.843
 6039SOL     OW19015   3.374   3.328   2.315
 6039SOL    HW119016   3.328   3.410   2.281
 6039SOL    HW219017   3.307   3.256   2.329
 6040SOL     OW19018   0.586   2.269   6.789
 6040SOL    HW119019   0.549   2.317   6.711
 6040SOL    HW219020   0.669   2.315   6.820
 6041SOL     OW19021   0.787   1.582   0.072
 6041SOL    HW119022   0.775   1.490   0.111
 6041SOL    HW219023   0.778   1.650   0.145
 6042SOL     OW19024   5.380   4.881   2.889
 6042SOL    HW119025   5.420   4.803   2.937
 6042SOL    HW219026   5.387   4.963   2.946
 6043SOL     OW19027   1.013   4.579   4.964
 6043SOL    HW119028   1.033   4.632   4.881
 6043SOL    HW219029   1.098   4.545   5.003
 6044SOL     OW19030   0.511   0.601   0.981
 6044SOL    HW119031   0.530   0.669   1.052
 6044SOL    HW219032   0.541   0.637   0.893
 6045SOL     OW19033   6.249   4.844   0.931
 6045SOL    HW119034   6.248   4.901   1.013
 6045SOL    HW219035   6.336   4.854   0.884
 6046SOL     OW19036   3.192   2.813   0.260
 6046SOL    HW119037   3.175   2.736   0.321
 6046SOL    HW219038   3.126   2.813   0.186
 6047SOL     OW19039   6.446   0.384   4.325
 6047SOL    HW119040   6.374   0.445   4.294
 6047SOL    HW219041   6.481   0.331   4.248
 6048SOL     OW19042   4.414   0.428   4.160
 6048SOL    HW119043   4.511   0.432   4.185
 6048SOL    HW219044   4.379   0.337   4.180
 6049SOL     OW19045   5.023   4.053   6.735
 6049SOL    HW119046   4.978   3.964   6.725
 6049SOL    HW219047   5.097   4.045   6.801
 6050SOL     OW19048   4.441   4.806   5.241
 6050SOL    HW119049   4.407   4.800   5.334
 6050SOL    HW219050   4.475   4.899   5.224
 6051SOL     OW19051   2.048   2.081   2.730
 6051SOL    HW119052   2.036   2.003   2.791
 6051SOL    HW219053   2.145   2.091   2.707
 6052SOL     OW19054   0.270   1.682   0.988
 6052SOL    HW119055   0.334   1.759   0.980
 6052SOL    HW219056   0.230   1.663   0.898
 6053SOL     OW19057   2.143   6.914   0.165
 6053SOL    HW119058   2.178   6.968   0.088
 6053SOL    HW219059   2.184   6.948   0.250
 6054SOL     OW19060   1.392   5.162   0.395
 6054SOL    HW119061   1.427   5.079   0.440
 6054SOL    HW219062   1.426   5.242   0.444
 6055SOL     OW19063   4.708   1.281   4.644
 6055SOL    HW119064   4.790   1.228   4.621
 6055SOL    HW219065   4.628   1.240   4.600
 6056SOL     OW19066   3.623   1.932   6.510
 6056SOL    HW119067   3.600   1.881   6.593
 6056SOL    HW219068   3.715   1.969   6.517
 6057SOL     OW19069   3.494   1.087   4.873
 6057SOL    HW119070   3.426   1.080   4.800
 6057SOL    HW219071   3.448   1.113   4.958
 6058SOL     OW19072   5.929   2.326   4.483
 6058SOL    HW119073   6.020   2.340   4.522
 6058SOL    HW219074   5.892   2.414   4.452
 6059SOL     OW19075   5.399   4.367   6.538
 6059SOL    HW119076   5.392   4.271   6.515
 6059SOL    HW219077   5.377   4.423   6.458
 6060SOL     OW19078   4.532   5.316   5.344
 6060SOL    HW119079   4.573   5.310   5.435
 6060SOL    HW219080   4.604   5.327   5.275
 6061SOL     OW19081   3.312   2.175   6.727
 6061SOL    HW119082   3.391   2.236   6.737
 6061SOL    HW219083   3.288   2.138   6.817
 6062SOL     OW19084   1.702   1.084   4.680
 6062SOL    HW119085   1.677   1.170   4.723
 6062SOL    HW219086   1.736   1.020   4.750
 6063SOL     OW19087   4.278   0.866   6.971
 6063SOL    HW119088   4.202   0.920   6.935
 6063SOL    HW219089   4.317   0.913   0.031
 6064SOL     OW19090   1.315   5.568   2.721
 6064SOL    HW119091   1.319   5.668   2.718
 6064SOL    HW219092   1.243   5.539   2.784
 6065SOL     OW19093   6.636   6.833   0.668
 6065SOL    HW119094   6.542   6.812   0.640
 6065SOL    HW219095   6.679   6.750   0.704
 6066SOL     OW19096   4.290   2.263   0.881
 6066SOL    HW119097   4.233   2.283   0.960
 6066SOL    HW219098   4.237   2.276   0.797
 6067SOL     OW19099   5.997   1.383   6.193
 6067SOL    HW119100   6.024   1.416   6.284
 6067SOL    HW219101   5.897   1.386   6.185
 6068SOL     OW19102   4.712   2.833   4.832
 6068SOL    HW119103   4.713   2.889   4.914
 6068SOL    HW219104   4.723   2.891   4.751
 6069SOL     OW19105   6.688   3.889   5.286
 6069SOL    HW119106   6.625   3.889   5.209
 6069SOL    HW219107   6.666   3.964   5.348
 6070SOL     OW19108   4.503   2.480   6.727
 6070SOL    HW119109   4.590   2.469   6.776
 6070SOL    HW219110   4.522   2.501   6.631
 6071SOL     OW19111   4.126   6.400   5.329
 6071SOL    HW119112   4.167   6.491   5.325
 6071SOL    HW219113   4.095   6.373   5.237
 6072SOL     OW19114   1.017   1.235   1.739
 6072SOL    HW119115   1.058   1.187   1.662
 6072SOL    HW219116   1.059   1.204   1.824
 6073SOL     OW19117   6.599   2.749   1.125
 6073SOL    HW119118   6.604   2.655   1.156
 6073SOL    HW219119   6.564   2.751   1.031
 6074SOL     OW19120   0.589   6.776   4.867
 6074SOL    HW119121   0.680   6.765   4.907
 6074SOL    HW219122   0.528   6.818   4.933
 6075SOL     OW19123   6.394   3.476   0.439
 6075SOL    HW119124   6.329   3.531   0.387
 6075SOL    HW219125   6.368   3.476   0.536
 6076SOL     OW19126   2.014   6.704   3.445
 6076SOL    HW119127   2.103   6.750   3.442
 6076SOL    HW219128   2.015   6.626   3.382
 6077SOL     OW19129   5.608   5.998   2.127
 6077SOL    HW119130   5.632   6.058   2.051
 6077SOL    HW219131   5.553   6.049   2.194
 6078SOL     OW19132   2.933   4.887   3.889
 6078SOL    HW119133   2.880   4.887   3.805
 6078SOL    HW219134   2.915   4.972   3.939
 6079SOL     OW19135   2.548   2.734   0.050
 6079SOL    HW119136   2.527   2.638   0.067
 6079SOL    HW219137   2.495   2.767   6.991
 6080SOL     OW19138   6.212   2.276   1.360
 6080SOL    HW119139   6.268   2.214   1.305
 6080SOL    HW219140   6.116   2.269   1.330
 6081SOL     OW19141   6.567   3.529   4.053
 6081SOL    HW119142   6.526   3.597   3.992
 6081SOL    HW219143   6.550   3.555   4.148
 6082SOL     OW19144   4.711   1.063   2.898
 6082SOL    HW119145   4.618   1.096   2.886
 6082SOL    HW219146   4.757   1.117   2.969
 6083SOL     OW19147   1.551   6.025   6.527
 6083SOL    HW119148   1.475   6.066   6.478
 6083SOL    HW219149   1.545   5.925   6.521
 6084SOL     OW19150   6.569   5.449   5.001
 6084SOL    HW119151   6.592   5.366   5.051
 6084SOL    HW219152   6.532   5.426   4.911
 6085SOL     OW19153   6.182   3.540   0.129
 6085SOL    HW119154   6.183   3.582   0.220
 6085SOL    HW219155   6.087   3.522   0.101
 6086SOL     OW19156   3.520   1.557   4.372
 6086SOL    HW119157   3.590   1.528   4.437
 6086SOL    HW219158   3.554   1.635   4.319
 6087SOL     OW19159   5.614   6.611   6.655
 6087SOL    HW119160   5.568   6.699   6.667
 6087SOL    HW219161   5.703   6.613   6.700
 6088SOL     OW19162   0.660   0.394   4.750
 6088SOL    HW119163   0.574   0.409   4.797
 6088SOL    HW219164   0.670   0.461   4.677
 6089SOL     OW19165   0.663   3.232   1.244
 6089SOL    HW119166   0.575   3.265   1.210
 6089SOL    HW219167   0.711   3.307   1.291
 6090SOL     OW19168   0.560   5.790   5.366
 6090SOL    HW119169   0.483   5.752   5.315
 6090SOL    HW219170   0.530   5.870   5.417
 6091SOL     OW19171   6.277   1.872   1.867
 6091SOL    HW119172   6.261   1.970   1.871
 6091SOL    HW219173   6.357   1.853   1.810
 6092SOL     OW19174   2.094   1.241   2.502
 6092SOL    HW119175   2.061   1.312   2.564
 6092SOL    HW219176   2.040   1.244   2.417
 6093SOL     OW19177   1.511   2.786   1.401
 6093SOL    HW119178   1.473   2.706   1.448
 6093SOL    HW219179   1.483   2.869   1.449
 6094SOL     OW19180   0.779   1.108   1.658
 6094SOL    HW119181   0.856   1.155   1.701
 6094SOL    HW219182   0.747   1.035   1.718
 6095SOL     OW19183   6.266   3.650   6.545
 6095SOL    HW119184   6.288   3.666   6.448
 6095SOL    HW219185   6.245   3.737   6.589
 6096SOL     OW19186   4.070   1.623   3.866
 6096SOL    HW119187   4.008   1.544   3.868
 6096SOL    HW219188   4.083   1.657   3.959
 6097SOL     OW19189   2.611   0.864   2.346
 6097SOL    HW119190   2.681   0.919   2.391
 6097SOL    HW219191   2.537   0.924   2.314
 6098SOL     OW19192   2.509   2.314   5.678
 6098SOL    HW119193   2.540   2.237   5.622
 6098SOL    HW219194   2.446   2.371   5.625
 6099SOL     OW19195   5.744   6.212   5.018
 6099SOL    HW119196   5.726   6.117   4.993
 6099SOL    HW219197   5.658   6.262   5.024
 6100SOL     OW19198   6.443   2.955   0.123
 6100SOL    HW119199   6.414   3.008   0.203
 6100SOL    HW219200   6.542   2.957   0.115
 6101SOL     OW19201   6.645   1.392   5.927
 6101SOL    HW119202   6.705   1.371   5.849
 6101SOL    HW219203   6.554   1.416   5.894
 6102SOL     OW19204   2.990   0.879   4.814
 6102SOL    HW119205   3.076   0.894   4.862
 6102SOL    HW219206   2.995   0.793   4.763
 6103SOL     OW19207   6.411   6.819   4.854
 6103SOL    HW119208   6.510   6.809   4.865
 6103SOL    HW219209   6.393   6.902   4.801
 6104SOL     OW19210   6.084   1.527   6.998
 6104SOL    HW119211   6.127   1.517   0.067
 6104SOL    HW219212   5.984   1.521   7.008
 6105SOL     OW19213   3.336   5.691   5.800
 6105SOL    HW119214   3.295   5.732   5.719
 6105SOL    HW219215   3.393   5.614   5.772
 6106SOL     OW19216   3.199   4.643   6.101
 6106SOL    HW119217   3.263   4.628   6.025
 6106SOL    HW219218   3.200   4.563   6.161
 6107SOL     OW19219   2.253   4.849   4.730
 6107SOL    HW119220   2.268   4.936   4.777
 6107SOL    HW219221   2.168   4.853   4.678
 6108SOL     OW19222   0.780   1.943   4.214
 6108SOL    HW119223   0.858   1.890   4.181
 6108SOL    HW219224   0.808   1.996   4.294
 6109SOL     OW19225   5.546   3.552   0.757
 6109SOL    HW119226   5.620   3.547   0.824
 6109SOL    HW219227   5.472   3.609   0.792
 6110SOL     OW19228   3.189   1.495   5.041
 6110SOL    HW119229   3.245   1.507   4.959
 6110SOL    HW219230   3.093   1.490   5.015
 6111SOL     OW19231   1.515   4.691   3.088
 6111SOL    HW119232   1.547   4.681   3.182
 6111SOL    HW219233   1.505   4.601   3.046
 6112SOL     OW19234   1.268   1.868   2.762
 6112SOL    HW119235   1.202   1.926   2.714
 6112SOL    HW219236   1.322   1.924   2.825
 6113SOL     OW19237   1.780   0.033   5.585
 6113SOL    HW119238   1.789   7.004   5.498
 6113SOL    HW219239   1.760   6.987   5.658
 6114SOL     OW19240   4.532   6.137   0.582
 6114SOL    HW119241   4.508   6.187   0.499
 6114SOL    HW219242   4.598   6.065   0.560
 6115SOL     OW19243   4.972   5.333   2.527
 6115SOL    HW119244   4.931   5.424   2.522
 6115SOL    HW219245   4.923   5.271   2.466
 6116SOL     OW19246   3.846   1.236   1.878
 6116SOL    HW119247   3.909   1.235   1.800
 6116SOL    HW219248   3.764   1.289   1.854
 6117SOL     OW19249   5.706   6.623   5.024
 6117SOL    HW119250   5.778   6.680   4.985
 6117SOL    HW219251   5.629   6.680   5.053
 6118SOL     OW19252   6.470   0.951   3.268
 6118SOL    HW119253   6.433   0.931   3.177
 6118SOL    HW219254   6.431   1.036   3.301
 6119SOL     OW19255   0.078   5.461   4.257
 6119SOL    HW119256   0.035   5.393   4.198
 6119SOL    HW219257   0.114   5.535   4.201
 6120SOL     OW19258   2.442   6.573   2.655
 6120SOL    HW119259   2.343   6.570   2.667
 6120SOL    HW219260   2.466   6.543   2.563
 6121SOL     OW19261   0.563   2.561   3.715
 6121SOL    HW119262   0.657   2.538   3.741
 6121SOL    HW219263   0.559   2.575   3.616
 6122SOL     OW19264   3.827   6.148   3.088
 6122SOL    HW119265   3.839   6.050   3.104
 6122SOL    HW219266   3.762   6.162   3.014
 6123SOL     OW19267   6.549   1.288   2.250
 6123SOL    HW119268   6.536   1.384   2.225
 6123SOL    HW219269   6.491   1.230   2.193
 6124SOL     OW19270   3.407   0.341   5.723
 6124SOL    HW119271   3.504   0.330   5.744
 6124SOL    HW219272   3.370   0.254   5.690
 6125SOL     OW19273   1.846   6.305   1.581
 6125SOL    HW119274   1.879   6.278   1.672
 6125SOL    HW219275   1.852   6.405   1.572
 6126SOL     OW19276   5.601   4.864   2.702
 6126SOL    HW119277   5.517   4.866   2.757
 6126SOL    HW219278   5.631   4.957   2.684
 6127SOL     OW19279   2.248   6.124   1.610
 6127SOL    HW119280   2.166   6.156   1.656
 6127SOL    HW219281   2.269   6.185   1.533
 6128SOL     OW19282   6.424   2.278   0.187
 6128SOL    HW119283   6.463   2.239   0.271
 6128SOL    HW219284   6.335   2.318   0.207
 6129SOL     OW19285   6.097   4.410   2.205
 6129SOL    HW119286   6.055   4.379   2.291
 6129SOL    HW219287   6.097   4.510   2.204
 6130SOL     OW19288   4.930   3.154   3.481
 6130SOL    HW119289   4.894   3.246   3.468
 6130SOL    HW219290   4.905   3.097   3.403
 6131SOL     OW19291   6.477   1.124   5.441
 6131SOL    HW119292   6.475   1.177   5.526
 6131SOL    HW219293   6.384   1.096   5.417
 6132SOL     OW19294   4.083   2.956   1.035
 6132SOL    HW119295   3.986   2.975   1.050
 6132SOL    HW219296   4.093   2.873   0.980
 6133SOL     OW19297   0.879   4.094   1.397
 6133SOL    HW119298   0.967   4.102   1.349
 6133SOL    HW219299   0.845   4.001   1.389
 6134SOL     OW19300   4.494   3.694   6.705
 6134SOL    HW119301   4.514   3.765   6.771
 6134SOL    HW219302   4.529   3.606   6.738
 6135SOL     OW19303   6.162   6.694   1.296
 6135SOL    HW119304   6.160   6.714   1.199
 6135SOL    HW219305   6.253   6.715   1.333
 6136SOL     OW19306   1.043   1.875   1.771
 6136SOL    HW119307   0.966   1.901   1.712
 6136SOL    HW219308   1.011   1.865   1.865
 6137SOL     OW19309   2.816   6.384   5.985
 6137SOL    HW119310   2.727   6.343   5.964
 6137SOL    HW219311   2.810   6.436   6.070
 6138SOL     OW19312   3.460   6.145   3.123
 6138SOL    HW119313   3.471   6.097   3.037
 6138SOL    HW219314   3.484   6.084   3.199
 6139SOL     OW19315   1.428   4.359   4.500
 6139SOL    HW119316   1.400   4.451   4.476
 6139SOL    HW219317   1.348   4.299   4.504
 6140SOL     OW19318   1.177   0.038   1.763
 6140SOL    HW119319   1.080   0.054   1.745
 6140SOL    HW219320   1.204   6.969   1.726
 6141SOL     OW19321   6.443   5.362   5.603
 6141SOL    HW119322   6.533   5.353   5.559
 6141SOL    HW219323   6.453   5.354   5.702
 6142SOL     OW19324   6.611   3.914   1.167
 6142SOL    HW119325   6.599   4.007   1.132
 6142SOL    HW219326   6.541   3.895   1.235
 6143SOL     OW19327   6.074   5.168   6.667
 6143SOL    HW119328   6.084   5.157   6.766
 6143SOL    HW219329   6.061   5.078   6.625
 6144SOL     OW19330   0.047   3.770   3.675
 6144SOL    HW119331   0.097   3.856   3.668
 6144SOL    HW219332   0.002   3.766   3.764
 6145SOL     OW19333   4.501   5.861   3.046
 6145SOL    HW119334   4.421   5.804   3.026
 6145SOL    HW219335   4.534   5.840   3.138
 6146SOL     OW19336   5.902   1.651   3.421
 6146SOL    HW119337   5.967   1.584   3.456
 6146SOL    HW219338   5.860   1.700   3.497
 6147SOL     OW19339   2.167   3.901   2.433
 6147SOL    HW119340   2.159   3.802   2.433
 6147SOL    HW219341   2.126   3.938   2.350
 6148SOL     OW19342   6.589   6.324   4.152
 6148SOL    HW119343   6.525   6.291   4.222
 6148SOL    HW219344   6.550   6.405   4.108
 6149SOL     OW19345   3.611   5.414   3.139
 6149SOL    HW119346   3.587   5.507   3.114
 6149SOL    HW219347   3.568   5.390   3.226
 6150SOL     OW19348   4.837   6.373   5.989
 6150SOL    HW119349   4.925   6.410   5.959
 6150SOL    HW219350   4.836   6.274   5.976
 6151SOL     OW19351   5.108   2.194   5.096
 6151SOL    HW119352   5.115   2.241   5.008
 6151SOL    HW219353   5.051   2.248   5.158
 6152SOL     OW19354   5.965   4.284   6.481
 6152SOL    HW119355   6.014   4.316   6.400
 6152SOL    HW219356   5.876   4.330   6.487
 6153SOL     OW19357   4.234   3.897   1.616
 6153SOL    HW119358   4.230   3.996   1.633
 6153SOL    HW219359   4.151   3.869   1.568
 6154SOL     OW19360   5.496   2.883   3.237
 6154SOL    HW119361   5.440   2.941   3.297
 6154SOL    HW219362   5.467   2.788   3.247
 6155SOL     OW19363   0.313   3.348   5.215
 6155SOL    HW119364   0.272   3.358   5.125
 6155SOL    HW219365   0.277   3.418   5.277
 6156SOL     OW19366   6.070   6.439   2.935
 6156SOL    HW119367   6.053   6.384   2.854
 6156SOL    HW219368   5.992   6.500   2.951
 6157SOL     OW19369   2.130   1.286   4.509
 6157SOL    HW119370   2.152   1.305   4.413
 6157SOL    HW219371   2.095   1.368   4.553
 6158SOL     OW19372   5.000   1.189   6.368
 6158SOL    HW119373   5.082   1.218   6.319
 6158SOL    HW219374   5.016   1.099   6.409
 6159SOL     OW19375   5.238   2.907   0.465
 6159SOL    HW119376   5.161   2.969   0.481
 6159SOL    HW219377   5.233   2.871   0.372
 6160SOL     OW19378   5.304   5.854   1.780
 6160SOL    HW119379   5.377   5.804   1.825
 6160SOL    HW219380   5.307   5.950   1.807
 6161SOL     OW19381   5.257   0.244   5.957
 6161SOL    HW119382   5.235   0.304   6.034
 6161SOL    HW219383   5.304   0.297   5.886
 6162SOL     OW19384   0.318   5.170   4.552
 6162SOL    HW119385   0.258   5.227   4.608
 6162SOL    HW219386   0.343   5.219   4.468
 6163SOL     OW19387   6.310   4.496   1.285
 6163SOL    HW119388   6.272   4.409   1.318
 6163SOL    HW219389   6.252   4.532   1.213
 6164SOL     OW19390   3.372   1.536   0.775
 6164SOL    HW119391   3.302   1.467   0.760
 6164SOL    HW219392   3.413   1.523   0.865
 6165SOL     OW19393   3.826   6.547   6.726
 6165SOL    HW119394   3.885   6.538   6.807
 6165SOL    HW219395   3.735   6.577   6.754
 6166SOL     OW19396   2.847   1.291   5.941
 6166SOL    HW119397   2.786   1.363   5.908
 6166SOL    HW219398   2.907   1.327   6.012
 6167SOL     OW19399   0.672   3.979   3.322
 6167SOL    HW119400   0.639   3.942   3.409
 6167SOL    HW219401   0.762   4.020   3.335
 6168SOL     OW19402   0.310   4.167   2.831
 6168SOL    HW119403   0.319   4.068   2.843
 6168SOL    HW219404   0.301   4.187   2.733
 6169SOL     OW19405   2.262   4.176   2.488
 6169SOL    HW119406   2.266   4.204   2.392
 6169SOL    HW219407   2.256   4.077   2.495
 6170SOL     OW19408   0.174   2.899   5.362
 6170SOL    HW119409   0.200   2.973   5.301
 6170SOL    HW219410   0.253   2.841   5.379
 6171SOL     OW19411   0.260   0.380   6.673
 6171SOL    HW119412   0.263   0.434   6.589
 6171SOL    HW219413   0.264   0.283   6.651
 6172SOL     OW19414   0.552   3.310   2.700
 6172SOL    HW119415   0.458   3.311   2.733
 6172SOL    HW219416   0.581   3.403   2.677
 6173SOL     OW19417   6.487   6.617   2.868
 6173SOL    HW119418   6.427   6.651   2.795
 6173SOL    HW219419   6.433   6.564   2.933
 6174SOL     OW19420   5.871   4.068   3.101
 6174SOL    HW119421   5.817   3.985   3.086
 6174SOL    HW219422   5.942   4.074   3.031
 6175SOL     OW19423   2.244   1.704   5.300
 6175SOL    HW119424   2.157   1.680   5.343
 6175SOL    HW219425   2.244   1.802   5.278
 6176SOL     OW19426   4.150   4.433   5.394
 6176SOL    HW119427   4.081   4.505   5.394
 6176SOL    HW219428   4.184   4.420   5.301
 6177SOL     OW19429   5.975   1.523   1.840
 6177SOL    HW119430   5.933   1.479   1.920
 6177SOL    HW219431   5.961   1.466   1.759
 6178SOL     OW19432   5.437   4.686   1.923
 6178SOL    HW119433   5.419   4.599   1.969
 6178SOL    HW219434   5.499   4.741   1.979
 6179SOL     OW19435   6.110   4.788   2.949
 6179SOL    HW119436   6.025   4.791   2.897
 6179SOL    HW219437   6.164   4.870   2.929
 6180SOL     OW19438   2.961   4.500   0.129
 6180SOL    HW119439   3.055   4.524   0.153
 6180SOL    HW219440   2.899   4.566   0.169
 6181SOL     OW19441   4.749   5.191   6.356
 6181SOL    HW119442   4.677   5.128   6.388
 6181SOL    HW219443   4.720   5.234   6.271
 6182SOL     OW19444   3.316   3.404   0.184
 6182SOL    HW119445   3.387   3.432   0.250
 6182SOL    HW219446   3.330   3.308   0.159
 6183SOL     OW19447   0.699   1.831   1.528
 6183SOL    HW119448   0.735   1.880   1.607
 6183SOL    HW219449   0.761   1.844   1.450
 6184SOL     OW19450   2.617   0.705   5.969
 6184SOL    HW119451   2.712   0.731   5.982
 6184SOL    HW219452   2.609   0.640   5.893
 6185SOL     OW19453   3.028   2.618   5.601
 6185SOL    HW119454   3.008   2.662   5.513
 6185SOL    HW219455   2.944   2.617   5.656
 6186SOL     OW19456   6.518   1.470   1.952
 6186SOL    HW119457   6.450   1.425   1.894
 6186SOL    HW219458   6.476   1.492   2.040
 6187SOL     OW19459   5.179   1.643   5.444
 6187SOL    HW119460   5.127   1.585   5.382
 6187SOL    HW219461   5.209   1.725   5.396
 6188SOL     OW19462   1.501   2.205   5.232
 6188SOL    HW119463   1.509   2.119   5.282
 6188SOL    HW219464   1.590   2.227   5.191
 6189SOL     OW19465   5.341   6.430   2.611
 6189SOL    HW119466   5.261   6.372   2.597
 6189SOL    HW219467   5.325   6.489   2.690
 6190SOL     OW19468   0.162   2.127   5.544
 6190SOL    HW119469   0.075   2.116   5.592
 6190SOL    HW219470   0.235   2.145   5.610
 6191SOL     OW19471   3.520   3.800   6.710
 6191SOL    HW119472   3.573   3.861   6.769
 6191SOL    HW219473   3.510   3.841   6.619
 6192SOL     OW19474   2.850   1.721   0.548
 6192SOL    HW119475   2.935   1.669   0.549
 6192SOL    HW219476   2.784   1.678   0.609
 6193SOL     OW19477   4.959   5.585   6.707
 6193SOL    HW119478   4.993   5.633   6.626
 6193SOL    HW219479   5.010   5.500   6.720
 6194SOL     OW19480   6.479   7.019   6.167
 6194SOL    HW119481   6.407   6.950   6.158
 6194SOL    HW219482   6.547   7.005   6.095
 6195SOL     OW19483   6.509   6.546   5.559
 6195SOL    HW119484   6.571   6.537   5.482
 6195SOL    HW219485   6.535   6.480   5.630
 6196SOL     OW19486   5.742   3.759   3.410
 6196SOL    HW119487   5.786   3.682   3.456
 6196SOL    HW219488   5.662   3.788   3.463
 6197SOL     OW19489   3.073   5.319   1.563
 6197SOL    HW119490   2.976   5.297   1.568
 6197SOL    HW219491   3.085   5.419   1.567
 6198SOL     OW19492   6.135   6.477   6.293
 6198SOL    HW119493   6.183   6.478   6.205
 6198SOL    HW219494   6.037   6.470   6.278
 6199SOL     OW19495   1.069   0.431   0.781
 6199SOL    HW119496   1.067   0.437   0.681
 6199SOL    HW219497   1.061   0.336   0.809
 6200SOL     OW19498   1.813   2.229   2.756
 6200SOL    HW119499   1.902   2.184   2.754
 6200SOL    HW219500   1.742   2.165   2.727
 6201SOL     OW19501   6.794   3.403   4.135
 6201SOL    HW119502   6.871   3.465   4.127
 6201SOL    HW219503   6.715   3.441   4.088
 6202SOL     OW19504   6.221   1.747   2.830
 6202SOL    HW119505   6.216   1.847   2.839
 6202SOL    HW219506   6.252   1.724   2.738
 6203SOL     OW19507   6.195   6.057   1.997
 6203SOL    HW119508   6.185   6.153   1.970
 6203SOL    HW219509   6.223   6.003   1.917
 6204SOL     OW19510   2.241   0.079   5.158
 6204SOL    HW119511   2.231   0.086   5.058
 6204SOL    HW219512   2.295   0.157   5.191
 6205SOL     OW19513   5.340   4.003   3.351
 6205SOL    HW119514   5.415   4.068   3.360
 6205SOL    HW219515   5.321   3.987   3.254
 6206SOL     OW19516   4.953   2.089   3.775
 6206SOL    HW119517   4.986   2.002   3.811
 6206SOL    HW219518   4.934   2.152   3.850
 6207SOL     OW19519   2.176   5.768   4.304
 6207SOL    HW119520   2.128   5.680   4.295
 6207SOL    HW219521   2.249   5.774   4.236
 6208SOL     OW19522   3.757   2.926   5.845
 6208SOL    HW119523   3.774   2.829   5.862
 6208SOL    HW219524   3.805   2.954   5.762
 6209SOL     OW19525   3.478   3.376   1.182
 6209SOL    HW119526   3.555   3.439   1.192
 6209SOL    HW219527   3.500   3.289   1.226
 6210SOL     OW19528   4.675   1.956   3.692
 6210SOL    HW119529   4.758   1.992   3.649
 6210SOL    HW219530   4.619   2.031   3.726
 6211SOL     OW19531   5.490   5.127   4.890
 6211SOL    HW119532   5.407   5.164   4.847
 6211SOL    HW219533   5.493   5.028   4.876
 6212SOL     OW19534   4.085   4.254   5.860
 6212SOL    HW119535   4.098   4.266   5.762
 6212SOL    HW219536   4.162   4.203   5.899
 6213SOL     OW19537   4.474   5.759   0.045
 6213SOL    HW119538   4.545   5.773   6.996
 6213SOL    HW219539   4.414   5.685   0.015
 6214SOL     OW19540   6.139   5.660   6.173
 6214SOL    HW119541   6.067   5.646   6.241
 6214SOL    HW219542   6.228   5.653   6.216
 6215SOL     OW19543   6.015   2.416   5.605
 6215SOL    HW119544   5.994   2.512   5.586
 6215SOL    HW219545   6.058   2.408   5.695
 6216SOL     OW19546   4.728   2.338   2.891
 6216SOL    HW119547   4.659   2.293   2.835
 6216SOL    HW219548   4.686   2.409   2.947
 6217SOL     OW19549   0.881   4.576   2.495
 6217SOL    HW119550   0.862   4.581   2.397
 6217SOL    HW219551   0.903   4.482   2.521
 6218SOL     OW19552   4.391   6.731   6.658
 6218SOL    HW119553   4.387   6.631   6.653
 6218SOL    HW219554   4.480   6.759   6.694
 6219SOL     OW19555   0.990   0.930   6.174
 6219SOL    HW119556   0.919   0.908   6.241
 6219SOL    HW219557   1.007   1.028   6.175
 6220SOL     OW19558   4.219   0.824   1.172
 6220SOL    HW119559   4.218   0.793   1.076
 6220SOL    HW219560   4.183   0.917   1.177
 6221SOL     OW19561   6.263   5.797   6.560
 6221SOL    HW119562   6.349   5.749   6.541
 6221SOL    HW219563   6.193   5.730   6.587
 6222SOL     OW19564   6.834   1.157   2.686
 6222SOL    HW119565   6.737   1.132   2.680
 6222SOL    HW219566   6.849   1.243   2.637
 6223SOL     OW19567   0.373   4.742   3.732
 6223SOL    HW119568   0.429   4.807   3.681
 6223SOL    HW219569   0.405   4.737   3.827
 6224SOL     OW19570   4.088   1.515   6.505
 6224SOL    HW119571   4.010   1.576   6.488
 6224SOL    HW219572   4.061   1.421   6.484
 6225SOL     OW19573   4.288   6.828   6.425
 6225SOL    HW119574   4.324   6.787   6.509
 6225SOL    HW219575   4.364   6.864   6.370
 6226SOL     OW19576   1.172   1.237   4.497
 6226SOL    HW119577   1.140   1.330   4.512
 6226SOL    HW219578   1.261   1.225   4.540
 6227SOL     OW19579   2.901   3.688   4.973
 6227SOL    HW119580   2.828   3.692   4.904
 6227SOL    HW219581   2.897   3.600   5.020
 6228SOL     OW19582   2.165   2.616   3.509
 6228SOL    HW119583   2.187   2.528   3.551
 6228SOL    HW219584   2.149   2.602   3.411
 6229SOL     OW19585   0.385   3.835   3.798
 6229SOL    HW119586   0.353   3.811   3.890
 6229SOL    HW219587   0.358   3.930   3.777
 6230SOL     OW19588   0.218   1.117   1.949
 6230SOL    HW119589   0.308   1.134   1.987
 6230SOL    HW219590   0.157   1.082   2.021
 6231SOL     OW19591   1.127   5.820   0.045
 6231SOL    HW119592   1.077   5.734   0.041
 6231SOL    HW219593   1.163   5.833   0.138
 6232SOL     OW19594   4.366   1.394   6.523
 6232SOL    HW119595   4.435   1.424   6.457
 6232SOL    HW219596   4.275   1.419   6.490
 6233SOL     OW19597   0.171   3.361   1.751
 6233SOL    HW119598   0.238   3.336   1.681
 6233SOL    HW219599   0.217   3.405   1.828
 6234SOL     OW19600   5.213   6.821   4.211
 6234SOL    HW119601   5.115   6.836   4.208
 6234SOL    HW219602   5.258   6.901   4.252
 6235SOL     OW19603   6.952   0.612   2.859
 6235SOL    HW119604   7.014   0.640   2.933
 6235SOL    HW219605   6.915   0.522   2.878
 6236SOL     OW19606   0.751   4.888   1.032
 6236SOL    HW119607   0.731   4.795   1.063
 6236SOL    HW219608   0.847   4.909   1.047
 6237SOL     OW19609   3.890   1.250   1.147
 6237SOL    HW119610   3.921   1.336   1.106
 6237SOL    HW219611   3.837   1.270   1.229
 6238SOL     OW19612   1.919   6.881   4.623
 6238SOL    HW119613   2.009   6.842   4.641
 6238SOL    HW219614   1.871   6.825   4.555
 6239SOL     OW19615   5.013   1.621   3.094
 6239SOL    HW119616   5.008   1.579   3.185
 6239SOL    HW219617   5.054   1.556   3.030
 6240SOL     OW19618   4.131   3.415   4.121
 6240SOL    HW119619   4.036   3.445   4.111
 6240SOL    HW219620   4.164   3.439   4.213
 6241SOL     OW19621   3.053   6.805   3.049
 6241SOL    HW119622   3.043   6.731   3.114
 6241SOL    HW219623   3.141   6.851   3.064
 6242SOL     OW19624   2.478   1.947   4.265
 6242SOL    HW119625   2.567   1.994   4.267
 6242SOL    HW219626   2.441   1.951   4.173
 6243SOL     OW19627   5.246   1.229   5.781
 6243SOL    HW119628   5.269   1.280   5.864
 6243SOL    HW219629   5.162   1.176   5.797
 6244SOL     OW19630   4.228   4.680   2.903
 6244SOL    HW119631   4.282   4.615   2.956
 6244SOL    HW219632   4.237   4.658   2.806
 6245SOL     OW19633   0.880   4.293   2.518
 6245SOL    HW119634   0.904   4.201   2.550
 6245SOL    HW219635   0.780   4.304   2.521
 6246SOL     OW19636   6.720   6.260   4.354
 6246SOL    HW119637   6.776   6.177   4.354
 6246SOL    HW219638   6.694   6.283   4.261
 6247SOL     OW19639   6.879   6.145   2.362
 6247SOL    HW119640   6.826   6.116   2.282
 6247SOL    HW219641   6.977   6.135   2.341
 6248SOL     OW19642   3.486   3.374   6.240
 6248SOL    HW119643   3.455   3.433   6.314
 6248SOL    HW219644   3.465   3.416   6.152
 6249SOL     OW19645   6.011   3.384   1.602
 6249SOL    HW119646   5.988   3.287   1.603
 6249SOL    HW219647   6.063   3.406   1.684
 6250SOL     OW19648   6.905   0.275   0.511
 6250SOL    HW119649   6.986   0.262   0.453
 6250SOL    HW219650   6.877   0.371   0.508
 6251SOL     OW19651   2.821   6.636   3.970
 6251SOL    HW119652   2.807   6.537   3.968
 6251SOL    HW219653   2.779   6.677   3.889
 6252SOL     OW19654   2.678   5.455   0.116
 6252SOL    HW119655   2.770   5.454   0.078
 6252SOL    HW219656   2.623   5.523   0.069
 6253SOL     OW19657   3.725   5.025   4.931
 6253SOL    HW119658   3.659   5.000   4.860
 6253SOL    HW219659   3.818   5.021   4.894
 6254SOL     OW19660   0.389   6.199   1.235
 6254SOL    HW119661   0.445   6.210   1.153
 6254SOL    HW219662   0.292   6.204   1.209
 6255SOL     OW19663   0.061   1.071   1.714
 6255SOL    HW119664   0.137   1.036   1.660
 6255SOL    HW219665   0.095   1.108   1.801
 6256SOL     OW19666   5.054   5.747   2.312
 6256SOL    HW119667   5.108   5.757   2.228
 6256SOL    HW219668   5.069   5.826   2.371
 6257SOL     OW19669   3.740   4.193   1.479
 6257SOL    HW119670   3.703   4.111   1.524
 6257SOL    HW219671   3.664   4.246   1.440
 6258SOL     OW19672   4.356   6.044   5.579
 6258SOL    HW119673   4.430   6.107   5.604
 6258SOL    HW219674   4.366   5.959   5.631
 6259SOL     OW19675   2.696   0.906   5.031
 6259SOL    HW119676   2.634   0.960   5.088
 6259SOL    HW219677   2.665   0.908   4.936
 6260SOL     OW19678   1.882   1.789   0.358
 6260SOL    HW119679   1.974   1.751   0.360
 6260SOL    HW219680   1.881   1.870   0.298
 6261SOL     OW19681   3.826   6.736   1.083
 6261SOL    HW119682   3.920   6.718   1.113
 6261SOL    HW219683   3.782   6.650   1.057
 6262SOL     OW19684   6.265   0.412   1.874
 6262SOL    HW119685   6.245   0.330   1.822
 6262SOL    HW219686   6.180   0.450   1.910
 6263SOL     OW19687   6.252   6.205   6.089
 6263SOL    HW119688   6.217   6.260   6.165
 6263SOL    HW219689   6.215   6.112   6.097
 6264SOL     OW19690   1.602   7.005   0.784
 6264SOL    HW119691   1.560   6.914   0.788
 6264SOL    HW219692   1.530   0.054   0.772
 6265SOL     OW19693   4.988   1.268   0.263
 6265SOL    HW119694   5.020   1.251   0.357
 6265SOL    HW219695   5.033   1.348   0.226
 6266SOL     OW19696   2.764   5.001   3.073
 6266SOL    HW119697   2.723   4.952   3.150
 6266SOL    HW219698   2.793   4.936   3.003
 6267SOL     OW19699   1.253   6.462   4.774
 6267SOL    HW119700   1.343   6.422   4.762
 6267SOL    HW219701   1.190   6.393   4.810
 6268SOL     OW19702   3.919   0.803   1.239
 6268SOL    HW119703   3.970   0.735   1.291
 6268SOL    HW219704   3.929   0.893   1.281
 6269SOL     OW19705   6.047   5.438   0.308
 6269SOL    HW119706   5.983   5.386   0.250
 6269SOL    HW219707   6.125   5.379   0.331
 6270SOL     OW19708   2.178   6.228   0.170
 6270SOL    HW119709   2.144   6.318   0.141
 6270SOL    HW219710   2.105   6.179   0.217
 6271SOL     OW19711   5.804   2.970   6.252
 6271SOL    HW119712   5.788   3.068   6.265
 6271SOL    HW219713   5.799   2.923   6.340
 6272SOL     OW19714   0.064   6.740   0.748
 6272SOL    HW119715   0.144   6.749   0.807
 6272SOL    HW219716   7.011   6.800   0.782
 6273SOL     OW19717   6.926   6.856   1.381
 6273SOL    HW119718   6.881   6.886   1.297
 6273SOL    HW219719   6.961   6.935   1.431
 6274SOL     OW19720   3.634   5.718   4.382
 6274SOL    HW119721   3.708   5.785   4.381
 6274SOL    HW219722   3.650   5.650   4.311
 6275SOL     OW19723   2.066   5.164   6.664
 6275SOL    HW119724   1.983   5.157   6.608
 6275SOL    HW219725   2.048   5.226   6.741
 6276SOL     OW19726   1.419   5.839   2.752
 6276SOL    HW119727   1.427   5.884   2.663
 6276SOL    HW219728   1.511   5.816   2.785
 6277SOL     OW19729   4.886   3.724   1.478
 6277SOL    HW119730   4.969   3.678   1.511
 6277SOL    HW219731   4.847   3.672   1.402
 6278SOL     OW19732   2.696   0.757   6.321
 6278SOL    HW119733   2.751   0.719   6.395
 6278SOL    HW219734   2.660   0.846   6.348
 6279SOL     OW19735   2.631   0.367   1.674
 6279SOL    HW119736   2.598   0.432   1.606
 6279SOL    HW219737   2.554   0.332   1.727
 6280SOL     OW19738   6.607   1.806   0.136
 6280SOL    HW119739   6.537   1.778   0.201
 6280SOL    HW219740   6.593   1.902   0.113
 6281SOL     OW19741   5.819   4.061   5.648
 6281SOL    HW119742   5.764   4.082   5.567
 6281SOL    HW219743   5.766   4.003   5.709
 6282SOL     OW19744   6.998   3.328   5.614
 6282SOL    HW119745   6.906   3.337   5.575
 6282SOL    HW219746   0.016   3.239   5.588
 6283SOL     OW19747   1.407   5.701   4.514
 6283SOL    HW119748   1.379   5.605   4.511
 6283SOL    HW219749   1.481   5.712   4.580
 6284SOL     OW19750   2.218   4.234   6.545
 6284SOL    HW119751   2.257   4.318   6.506
 6284SOL    HW219752   2.245   4.226   6.641
 6285SOL     OW19753   0.985   4.038   3.350
 6285SOL    HW119754   1.070   4.087   3.369
 6285SOL    HW219755   0.980   4.016   3.253
 6286SOL     OW19756   0.966   2.556   6.024
 6286SOL    HW119757   0.978   2.470   6.073
 6286SOL    HW219758   1.054   2.586   5.987
 6287SOL     OW19759   4.694   4.641   4.867
 6287SOL    HW119760   4.676   4.734   4.902
 6287SOL    HW219761   4.615   4.609   4.816
 6288SOL     OW19762   3.755   3.390   6.773
 6288SOL    HW119763   3.744   3.313   6.837
 6288SOL    HW219764   3.739   3.358   6.680
 6289SOL     OW19765   2.534   4.562   5.768
 6289SOL    HW119766   2.561   4.563   5.672
 6289SOL    HW219767   2.443   4.521   5.776
 6290SOL     OW19768   5.239   6.059   4.625
 6290SOL    HW119769   5.213   5.968   4.654
 6290SOL    HW219770   5.157   6.117   4.617
 6291SOL     OW19771   3.779   3.587   3.390
 6291SOL    HW119772   3.801   3.492   3.371
 6291SOL    HW219773   3.686   3.594   3.427
 6292SOL     OW19774   1.790   3.306   4.615
 6292SOL    HW119775   1.863   3.362   4.654
 6292SOL    HW219776   1.727   3.365   4.565
 6293SOL     OW19777   4.284   1.165   6.610
 6293SOL    HW119778   4.349   1.230   6.569
 6293SOL    HW219779   4.200   1.164   6.556
 6294SOL     OW19780   1.766   1.503   3.021
 6294SOL    HW119781   1.800   1.597   3.019
 6294SOL    HW219782   1.842   1.439   3.011
 6295SOL     OW19783   5.324   3.747   5.637
 6295SOL    HW119784   5.238   3.779   5.596
 6295SOL    HW219785   5.401   3.776   5.579
 6296SOL     OW19786   0.661   2.585   6.747
 6296SOL    HW119787   0.750   2.553   6.715
 6296SOL    HW219788   0.673   2.661   6.810
 6297SOL     OW19789   5.698   0.986   3.887
 6297SOL    HW119790   5.750   0.904   3.863
 6297SOL    HW219791   5.718   1.059   3.822
 6298SOL     OW19792   6.311   5.262   0.903
 6298SOL    HW119793   6.307   5.198   0.980
 6298SOL    HW219794   6.223   5.307   0.892
 6299SOL     OW19795   4.819   1.965   2.503
 6299SOL    HW119796   4.822   1.905   2.424
 6299SOL    HW219797   4.727   2.005   2.512
 6300SOL     OW19798   2.933   0.644   6.433
 6300SOL    HW119799   2.953   0.578   6.360
 6300SOL    HW219800   2.994   0.627   6.511
 6301SOL     OW19801   3.840   6.550   6.996
 6301SOL    HW119802   3.926   6.591   0.004
 6301SOL    HW219803   3.777   6.547   0.054
 6302SOL     OW19804   2.983   1.216   6.535
 6302SOL    HW119805   2.934   1.223   6.448
 6302SOL    HW219806   2.918   1.188   6.607
 6303SOL     OW19807   0.953   5.738   5.326
 6303SOL    HW119808   0.877   5.717   5.387
 6303SOL    HW219809   1.034   5.687   5.355
 6304SOL     OW19810   4.399   0.889   3.213
 6304SOL    HW119811   4.386   0.806   3.159
 6304SOL    HW219812   4.311   0.934   3.228
 6305SOL     OW19813   0.806   6.248   6.215
 6305SOL    HW119814   0.784   6.251   6.118
 6305SOL    HW219815   0.722   6.239   6.268
 6306SOL     OW19816   0.408   4.552   4.110
 6306SOL    HW119817   0.497   4.506   4.123
 6306SOL    HW219818   0.351   4.498   4.049
 6307SOL     OW19819   3.808   3.361   3.035
 6307SOL    HW119820   3.877   3.327   3.099
 6307SOL    HW219821   3.810   3.461   3.033
 6308SOL     OW19822   0.161   2.298   0.618
 6308SOL    HW119823   0.152   2.342   0.528
 6308SOL    HW219824   0.073   2.300   0.665
 6309SOL     OW19825   2.047   6.127   4.603
 6309SOL    HW119826   1.995   6.079   4.673
 6309SOL    HW219827   2.118   6.182   4.647
 6310SOL     OW19828   1.057   6.300   3.316
 6310SOL    HW119829   0.985   6.307   3.385
 6310SOL    HW219830   1.015   6.303   3.225
 6311SOL     OW19831   5.032   0.834   5.582
 6311SOL    HW119832   5.075   0.919   5.552
 6311SOL    HW219833   4.933   0.848   5.590
 6312SOL     OW19834   3.924   6.193   6.630
 6312SOL    HW119835   3.926   6.286   6.595
 6312SOL    HW219836   4.016   6.165   6.656
 6313SOL     OW19837   5.881   6.136   4.340
 6313SOL    HW119838   5.878   6.096   4.432
 6313SOL    HW219839   5.939   6.218   4.341
 6314SOL     OW19840   1.672   6.675   2.496
 6314SOL    HW119841   1.645   6.584   2.528
 6314SOL    HW219842   1.629   6.744   2.555
 6315SOL     OW19843   1.961   2.663   4.288
 6315SOL    HW119844   1.954   2.735   4.357
 6315SOL    HW219845   1.894   2.591   4.308
 6316SOL     OW19846   5.201   0.582   4.566
 6316SOL    HW119847   5.279   0.634   4.532
 6316SOL    HW219848   5.197   0.590   4.665
 6317SOL     OW19849   5.010   4.899   1.799
 6317SOL    HW119850   4.978   4.838   1.871
 6317SOL    HW219851   5.081   4.960   1.836
 6318SOL     OW19852   6.437   6.720   6.339
 6318SOL    HW119853   6.354   6.714   6.283
 6318SOL    HW219854   6.515   6.740   6.280
 6319SOL     OW19855   5.550   1.351   4.931
 6319SOL    HW119856   5.464   1.396   4.908
 6319SOL    HW219857   5.531   1.266   4.981
 6320SOL     OW19858   6.088   0.395   5.396
 6320SOL    HW119859   6.095   0.485   5.353
 6320SOL    HW219860   6.041   0.332   5.334
 6321SOL     OW19861   5.852   2.050   6.824
 6321SOL    HW119862   5.918   1.975   6.832
 6321SOL    HW219863   5.894   2.135   6.857
 6322SOL     OW19864   1.358   0.966   2.004
 6322SOL    HW119865   1.436   1.024   1.980
 6322SOL    HW219866   1.358   0.885   1.946
 6323SOL     OW19867   2.738   3.674   1.147
 6323SOL    HW119868   2.687   3.634   1.070
 6323SOL    HW219869   2.683   3.747   1.189
 6324SOL     OW19870   4.894   1.474   0.840
 6324SOL    HW119871   4.801   1.509   0.844
 6324SOL    HW219872   4.953   1.540   0.794
 6325SOL     OW19873   1.624   2.473   3.676
 6325SOL    HW119874   1.686   2.481   3.598
 6325SOL    HW219875   1.655   2.400   3.737
 6326SOL     OW19876   5.633   4.997   5.541
 6326SOL    HW119877   5.657   4.900   5.538
 6326SOL    HW219878   5.698   5.049   5.486
 6327SOL     OW19879   0.278   0.536   3.434
 6327SOL    HW119880   0.363   0.537   3.382
 6327SOL    HW219881   0.274   0.616   3.493
 6328SOL     OW19882   4.433   3.577   5.317
 6328SOL    HW119883   4.521   3.577   5.268
 6328SOL    HW219884   4.395   3.670   5.317
 6329SOL     OW19885   1.267   2.255   5.669
 6329SOL    HW119886   1.338   2.290   5.608
 6329SOL    HW219887   1.218   2.331   5.712
 6330SOL     OW19888   5.358   1.522   3.364
 6330SOL    HW119889   5.429   1.461   3.398
 6330SOL    HW219890   5.371   1.538   3.266
 6331SOL     OW19891   0.192   3.427   3.180
 6331SOL    HW119892   0.142   3.373   3.112
 6331SOL    HW219893   0.276   3.379   3.206
 6332SOL     OW19894   3.119   1.697   0.747
 6332SOL    HW119895   3.120   1.776   0.686
 6332SOL    HW219896   3.213   1.673   0.771
 6333SOL     OW19897   5.234   1.470   0.929
 6333SOL    HW119898   5.163   1.535   0.901
 6333SOL    HW219899   5.261   1.415   0.851
 6334SOL     OW19900   1.517   1.197   1.947
 6334SOL    HW119901   1.439   1.214   1.887
 6334SOL    HW219902   1.579   1.131   1.904
 6335SOL     OW19903   6.576   1.578   0.719
 6335SOL    HW119904   6.541   1.508   0.656
 6335SOL    HW219905   6.502   1.607   0.780
 6336SOL     OW19906   0.380   2.729   5.436
 6336SOL    HW119907   0.383   2.631   5.457
 6336SOL    HW219908   0.441   2.777   5.498
 6337SOL     OW19909   4.694   5.420   4.666
 6337SOL    HW119910   4.736   5.453   4.750
 6337SOL    HW219911   4.762   5.370   4.612
 6338SOL     OW19912   3.108   1.650   3.621
 6338SOL    HW119913   3.053   1.585   3.675
 6338SOL    HW219914   3.047   1.712   3.572
 6339SOL     OW19915   0.756   4.567   3.182
 6339SOL    HW119916   0.841   4.527   3.216
 6339SOL    HW219917   0.755   4.665   3.202
 6340SOL     OW19918   2.298   4.042   1.316
 6340SOL    HW119919   2.322   4.122   1.371
 6340SOL    HW219920   2.366   4.028   1.245
 6341SOL     OW19921   0.680   5.040   3.607
 6341SOL    HW119922   0.586   5.060   3.579
 6341SOL    HW219923   0.708   4.951   3.572
 6342SOL     OW19924   2.020   1.725   1.539
 6342SOL    HW119925   1.929   1.699   1.572
 6342SOL    HW219926   2.082   1.647   1.547
 6343SOL     OW19927   1.597   5.611   0.753
 6343SOL    HW119928   1.690   5.644   0.733
 6343SOL    HW219929   1.531   5.671   0.708
 6344SOL     OW19930   6.747   1.239   3.941
 6344SOL    HW119931   6.760   1.338   3.933
 6344SOL    HW219932   6.694   1.220   4.024
 6345SOL     OW19933   5.578   3.850   1.881
 6345SOL    HW119934   5.501   3.794   1.911
 6345SOL    HW219935   5.633   3.876   1.960
 6346SOL     OW19936   6.409   4.032   5.560
 6346SOL    HW119937   6.500   4.059   5.592
 6346SOL    HW219938   6.376   3.954   5.614
 6347SOL     OW19939   1.918   1.882   2.926
 6347SOL    HW119940   1.826   1.920   2.934
 6347SOL    HW219941   1.970   1.900   3.009
 6348SOL     OW19942   6.954   1.969   5.732
 6348SOL    HW119943   7.020   1.907   5.776
 6348SOL    HW219944   6.941   2.050   5.789
 6349SOL     OW19945   6.554   0.985   6.666
 6349SOL    HW119946   6.629   0.918   6.664
 6349SOL    HW219947   6.581   1.062   6.724
 6350SOL     OW19948   1.088   4.982   1.745
 6350SOL    HW119949   1.112   5.055   1.810
 6350SOL    HW219950   1.067   4.898   1.795
 6351SOL     OW19951   5.710   3.069   2.404
 6351SOL    HW119952   5.629   3.013   2.384
 6351SOL    HW219953   5.697   3.160   2.365
 6352SOL     OW19954   2.708   0.682   4.648
 6352SOL    HW119955   2.641   0.732   4.704
 6352SOL    HW219956   2.759   0.619   4.706
 6353SOL     OW19957   4.146   5.938   5.866
 6353SOL    HW119958   4.062   5.929   5.919
 6353SOL    HW219959   4.123   5.949   5.769
 6354SOL     OW19960   4.455   5.303   1.723
 6354SOL    HW119961   4.513   5.241   1.670
 6354SOL    HW219962   4.512   5.376   1.761
 6355SOL     OW19963   2.273   4.774   0.593
 6355SOL    HW119964   2.258   4.766   0.692
 6355SOL    HW219965   2.201   4.725   0.544
 6356SOL     OW19966   6.260   4.091   6.867
 6356SOL    HW119967   6.338   4.146   6.838
 6356SOL    HW219968   6.179   4.118   6.815
 6357SOL     OW19969   5.966   1.386   1.587
 6357SOL    HW119970   5.875   1.344   1.587
 6357SOL    HW219971   5.965   1.466   1.527
 6358SOL     OW19972   1.426   2.073   6.674
 6358SOL    HW119973   1.360   2.131   6.721
 6358SOL    HW219974   1.434   1.986   6.723
 6359SOL     OW19975   5.362   6.266   0.588
 6359SOL    HW119976   5.411   6.192   0.543
 6359SOL    HW219977   5.424   6.342   0.605
 6360SOL     OW19978   1.266   2.292   2.105
 6360SOL    HW119979   1.329   2.285   2.182
 6360SOL    HW219980   1.271   2.208   2.050
 6361SOL     OW19981   0.532   0.233   0.065
 6361SOL    HW119982   0.543   0.323   0.023
 6361SOL    HW219983   0.448   0.231   0.118
 6362SOL     OW19984   1.403   5.834   0.003
 6362SOL    HW119985   1.429   5.885   0.085
 6362SOL    HW219986   1.303   5.836   7.013
 6363SOL     OW19987   2.476   4.782   3.385
 6363SOL    HW119988   2.458   4.688   3.414
 6363SOL    HW219989   2.435   4.845   3.451
 6364SOL     OW19990   2.196   2.971   4.510
 6364SOL    HW119991   2.225   3.000   4.601
 6364SOL    HW219992   2.116   3.024   4.482
 6365SOL     OW19993   5.195   5.363   3.304
 6365SOL    HW119994   5.147   5.374   3.391
 6365SOL    HW219995   5.173   5.274   3.264
 6366SOL     OW19996   5.686   6.949   4.729
 6366SOL    HW119997   5.723   7.004   4.803
 6366SOL    HW219998   5.594   6.919   4.752
 6367SOL     OW19999   2.099   2.226   2.252
 6367SOL    HW120000   2.198   2.213   2.256
 6367SOL    HW220001   2.056   2.177   2.328
 6368SOL     OW20002   4.801   3.006   4.618
 6368SOL    HW120003   4.842   2.985   4.530
 6368SOL    HW220004   4.819   3.101   4.642
 6369SOL     OW20005   3.820   5.837   6.548
 6369SOL    HW120006   3.766   5.756   6.525
 6369SOL    HW220007   3.825   5.846   6.647
 6370SOL     OW20008   5.355   3.522   4.438
 6370SOL    HW120009   5.350   3.473   4.525
 6370SOL    HW220010   5.328   3.617   4.452
 6371SOL     OW20011   4.621   4.631   1.835
 6371SOL    HW120012   4.711   4.644   1.795
 6371SOL    HW220013   4.584   4.719   1.863
 6372SOL     OW20014   6.313   1.706   2.571
 6372SOL    HW120015   6.347   1.799   2.557
 6372SOL    HW220016   6.387   1.641   2.552
 6373SOL     OW20017   4.746   4.266   1.121
 6373SOL    HW120018   4.650   4.240   1.115
 6373SOL    HW220019   4.754   4.366   1.115
 6374SOL     OW20020   4.536   3.624   0.069
 6374SOL    HW120021   4.544   3.684   0.148
 6374SOL    HW220022   4.441   3.591   0.061
 6375SOL     OW20023   6.053   2.464   1.749
 6375SOL    HW120024   6.027   2.369   1.731
 6375SOL    HW220025   6.065   2.478   1.847
 6376SOL     OW20026   3.496   1.233   6.701
 6376SOL    HW120027   3.448   1.253   6.786
 6376SOL    HW220028   3.592   1.260   6.709
 6377SOL     OW20029   6.864   0.551   0.428
 6377SOL    HW120030   6.928   0.628   0.432
 6377SOL    HW220031   6.776   0.578   0.468
 6378SOL     OW20032   5.469   5.628   2.409
 6378SOL    HW120033   5.529   5.704   2.387
 6378SOL    HW220034   5.479   5.556   2.340
 6379SOL     OW20035   2.318   6.135   6.977
 6379SOL    HW120036   2.307   6.039   6.950
 6379SOL    HW220037   2.258   6.156   0.034
 6380SOL     OW20038   1.301   3.580   5.177
 6380SOL    HW120039   1.349   3.668   5.173
 6380SOL    HW220040   1.298   3.539   5.086
 6381SOL     OW20041   4.770   2.551   0.347
 6381SOL    HW120042   4.865   2.577   0.364
 6381SOL    HW220043   4.710   2.627   0.370
 6382SOL     OW20044   1.432   1.754   1.425
 6382SOL    HW120045   1.532   1.748   1.421
 6382SOL    HW220046   1.394   1.752   1.332
 6383SOL     OW20047   2.482   2.617   2.158
 6383SOL    HW120048   2.548   2.681   2.197
 6383SOL    HW220049   2.389   2.648   2.180
 6384SOL     OW20050   5.890   2.536   2.773
 6384SOL    HW120051   5.937   2.624   2.772
 6384SOL    HW220052   5.859   2.516   2.866
 6385SOL     OW20053   6.722   3.206   1.500
 6385SOL    HW120054   6.646   3.150   1.533
 6385SOL    HW220055   6.800   3.148   1.479
 6386SOL     OW20056   2.758   3.772   0.578
 6386SOL    HW120057   2.724   3.679   0.587
 6386SOL    HW220058   2.849   3.771   0.536
 6387SOL     OW20059   0.044   0.234   6.352
 6387SOL    HW120060   7.004   0.314   6.349
 6387SOL    HW220061   0.001   0.158   6.304
 6388SOL     OW20062   6.719   5.421   2.437
 6388SOL    HW120063   6.714   5.359   2.359
 6388SOL    HW220064   6.755   5.371   2.516
 6389SOL     OW20065   0.899   0.487   6.969
 6389SOL    HW120066   0.921   0.541   6.889
 6389SOL    HW220067   0.802   0.501   6.993
 6390SOL     OW20068   6.430   1.176   6.259
 6390SOL    HW120069   6.438   1.091   6.311
 6390SOL    HW220070   6.379   1.160   6.175
 6391SOL     OW20071   0.865   1.600   5.068
 6391SOL    HW120072   0.936   1.567   5.006
 6391SOL    HW220073   0.831   1.689   5.036
 6392SOL     OW20074   4.066   6.690   3.739
 6392SOL    HW120075   4.149   6.637   3.756
 6392SOL    HW220076   3.986   6.632   3.755
 6393SOL     OW20077   0.033   5.417   0.279
 6393SOL    HW120078   6.997   5.350   0.230
 6393SOL    HW220079   0.064   5.488   0.215
 6394SOL     OW20080   1.371   5.540   1.096
 6394SOL    HW120081   1.428   5.464   1.127
 6394SOL    HW220082   1.380   5.617   1.159
 6395SOL     OW20083   2.254   4.304   3.435
 6395SOL    HW120084   2.172   4.335   3.482
 6395SOL    HW220085   2.229   4.250   3.355
 6396SOL     OW20086   0.854   3.377   6.550
 6396SOL    HW120087   0.836   3.453   6.612
 6396SOL    HW220088   0.940   3.393   6.501
 6397SOL     OW20089   5.739   3.309   3.932
 6397SOL    HW120090   5.758   3.395   3.979
 6397SOL    HW220091   5.661   3.264   3.975
 6398SOL     OW20092   1.569   0.485   1.015
 6398SOL    HW120093   1.636   0.436   0.958
 6398SOL    HW220094   1.478   0.473   0.975
 6399SOL     OW20095   3.114   1.469   5.959
 6399SOL    HW120096   3.058   1.501   6.035
 6399SOL    HW220097   3.198   1.523   5.953
 6400SOL     OW20098   1.025   6.733   3.065
 6400SOL    HW120099   0.952   6.795   3.093
 6400SOL    HW220100   1.047   6.672   3.141
 6401SOL     OW20101   3.831   6.124   3.748
 6401SOL    HW120102   3.754   6.131   3.684
 6401SOL    HW220103   3.834   6.032   3.787
 6402SOL     OW20104   1.771   4.852   4.808
 6402SOL    HW120105   1.842   4.813   4.866
 6402SOL    HW220106   1.761   4.949   4.828
 6403SOL     OW20107   4.879   5.650   4.774
 6403SOL    HW120108   4.791   5.676   4.734
 6403SOL    HW220109   4.946   5.637   4.701
 6404SOL     OW20110   4.201   0.082   2.159
 6404SOL    HW120111   4.291   0.071   2.202
 6404SOL    HW220112   4.192   0.017   2.084
 6405SOL     OW20113   5.361   1.564   2.416
 6405SOL    HW120114   5.385   1.651   2.372
 6405SOL    HW220115   5.345   1.495   2.345
 6406SOL     OW20116   0.556   2.949   3.227
 6406SOL    HW120117   0.614   3.014   3.178
 6406SOL    HW220118   0.505   2.997   3.298
 6407SOL     OW20119   1.687   6.164   2.329
 6407SOL    HW120120   1.618   6.168   2.257
 6407SOL    HW220121   1.711   6.068   2.347
 6408SOL     OW20122   6.300   0.348   1.150
 6408SOL    HW120123   6.273   0.414   1.220
 6408SOL    HW220124   6.399   0.346   1.142
 6409SOL     OW20125   5.283   5.031   3.232
 6409SOL    HW120126   5.350   5.072   3.170
 6409SOL    HW220127   5.331   4.973   3.298
 6410SOL     OW20128   2.275   1.318   5.688
 6410SOL    HW120129   2.312   1.265   5.764
 6410SOL    HW220130   2.271   1.260   5.606
 6411SOL     OW20131   0.174   2.497   2.220
 6411SOL    HW120132   0.129   2.534   2.301
 6411SOL    HW220133   0.243   2.430   2.247
 6412SOL     OW20134   3.501   0.399   0.227
 6412SOL    HW120135   3.456   0.324   0.179
 6412SOL    HW220136   3.480   0.486   0.181
 6413SOL     OW20137   5.483   6.391   3.625
 6413SOL    HW120138   5.566   6.432   3.663
 6413SOL    HW220139   5.467   6.426   3.533
 6414SOL     OW20140   1.723   0.230   0.213
 6414SOL    HW120141   1.735   0.322   0.175
 6414SOL    HW220142   1.675   0.173   0.147
 6415SOL     OW20143   0.571   2.523   3.433
 6415SOL    HW120144   0.472   2.519   3.443
 6415SOL    HW220145   0.601   2.454   3.368
 6416SOL     OW20146   3.004   6.827   0.235
 6416SOL    HW120147   2.957   6.774   0.164
 6416SOL    HW220148   3.102   6.804   0.234
 6417SOL     OW20149   3.875   1.705   0.273
 6417SOL    HW120150   3.775   1.702   0.271
 6417SOL    HW220151   3.906   1.782   0.328
 6418SOL     OW20152   4.537   5.081   0.710
 6418SOL    HW120153   4.564   5.115   0.800
 6418SOL    HW220154   4.608   5.019   0.676
 6419SOL     OW20155   1.152   6.339   6.351
 6419SOL    HW120156   1.214   6.411   6.320
 6419SOL    HW220157   1.060   6.375   6.360
 6420SOL     OW20158   2.222   4.006   4.479
 6420SOL    HW120159   2.260   4.097   4.495
 6420SOL    HW220160   2.177   4.004   4.390
 6421SOL     OW20161   4.367   0.375   2.051
 6421SOL    HW120162   4.313   0.456   2.075
 6421SOL    HW220163   4.317   0.293   2.079
 6422SOL     OW20164   5.945   1.869   4.710
 6422SOL    HW120165   5.896   1.786   4.682
 6422SOL    HW220166   5.912   1.898   4.800
 6423SOL     OW20167   2.334   4.455   4.292
 6423SOL    HW120168   2.371   4.453   4.385
 6423SOL    HW220169   2.407   4.481   4.228
 6424SOL     OW20170   6.330   4.819   4.872
 6424SOL    HW120171   6.300   4.726   4.890
 6424SOL    HW220172   6.339   4.833   4.773
 6425SOL     OW20173   0.232   5.463   3.616
 6425SOL    HW120174   0.301   5.504   3.555
 6425SOL    HW220175   0.159   5.423   3.560
 6426SOL     OW20176   4.784   4.281   5.222
 6426SOL    HW120177   4.752   4.376   5.218
 6426SOL    HW220178   4.884   4.279   5.224
 6427SOL     OW20179   3.740   2.843   3.166
 6427SOL    HW120180   3.698   2.860   3.255
 6427SOL    HW220181   3.707   2.757   3.128
 6428SOL     OW20182   5.276   3.163   0.697
 6428SOL    HW120183   5.376   3.164   0.692
 6428SOL    HW220184   5.237   3.171   0.606
 6429SOL     OW20185   2.165   0.936   5.420
 6429SOL    HW120186   2.078   0.967   5.459
 6429SOL    HW220187   2.202   1.008   5.361
 6430SOL     OW20188   7.003   0.024   5.511
 6430SOL    HW120189   7.004   0.078   5.595
 6430SOL    HW220190   0.077   0.005   5.482
 6431SOL     OW20191   3.808   4.797   1.673
 6431SOL    HW120192   3.783   4.808   1.577
 6431SOL    HW220193   3.746   4.731   1.716
 6432SOL     OW20194   4.464   4.638   6.145
 6432SOL    HW120195   4.483   4.695   6.065
 6432SOL    HW220196   4.384   4.580   6.127
 6433SOL     OW20197   2.538   5.631   6.936
 6433SOL    HW120198   2.623   5.649   6.886
 6433SOL    HW220199   2.477   5.575   6.880
 6434SOL     OW20200   3.879   4.986   5.898
 6434SOL    HW120201   3.840   4.951   5.983
 6434SOL    HW220202   3.833   4.941   5.820
 6435SOL     OW20203   4.860   1.209   0.916
 6435SOL    HW120204   4.892   1.289   0.866
 6435SOL    HW220205   4.926   1.186   0.987
 6436SOL     OW20206   6.833   4.050   4.388
 6436SOL    HW120207   6.883   4.137   4.383
 6436SOL    HW220208   6.831   4.018   4.483
 6437SOL     OW20209   0.712   2.065   5.289
 6437SOL    HW120210   0.740   2.115   5.207
 6437SOL    HW220211   0.781   1.997   5.312
 6438SOL     OW20212   0.503   5.488   0.193
 6438SOL    HW120213   0.429   5.453   0.249
 6438SOL    HW220214   0.588   5.490   0.246
 6439SOL     OW20215   5.948   0.056   2.939
 6439SOL    HW120216   5.991   0.013   3.019
 6439SOL    HW220217   5.848   0.050   2.948
 6440SOL     OW20218   2.715   2.010   6.776
 6440SOL    HW120219   2.704   2.109   6.767
 6440SOL    HW220220   2.669   1.964   6.700
 6441SOL     OW20221   0.954   1.766   2.737
 6441SOL    HW120222   1.006   1.809   2.811
 6441SOL    HW220223   1.012   1.700   2.690
 6442SOL     OW20224   2.995   2.767   5.331
 6442SOL    HW120225   2.999   2.867   5.325
 6442SOL    HW220226   2.902   2.739   5.353
 6443SOL     OW20227   5.051   2.627   0.347
 6443SOL    HW120228   5.064   2.583   0.258
 6443SOL    HW220229   5.085   2.722   0.342
 6444SOL     OW20230   6.507   3.195   5.229
 6444SOL    HW120231   6.561   3.112   5.237
 6444SOL    HW220232   6.558   3.272   5.268
 6445SOL     OW20233   3.317   3.142   3.155
 6445SOL    HW120234   3.377   3.155   3.076
 6445SOL    HW220235   3.241   3.206   3.151
 6446SOL     OW20236   2.376   0.858   6.264
 6446SOL    HW120237   2.451   0.869   6.329
 6446SOL    HW220238   2.406   0.890   6.174
 6447SOL     OW20239   6.377   3.693   1.769
 6447SOL    HW120240   6.285   3.705   1.731
 6447SOL    HW220241   6.413   3.604   1.742
 6448SOL     OW20242   3.757   5.502   1.092
 6448SOL    HW120243   3.720   5.420   1.136
 6448SOL    HW220244   3.755   5.490   0.993
 6449SOL     OW20245   2.074   4.920   1.052
 6449SOL    HW120246   2.128   4.994   1.013
 6449SOL    HW220247   2.017   4.956   1.126
 6450SOL     OW20248   0.283   4.604   1.317
 6450SOL    HW120249   0.360   4.610   1.381
 6450SOL    HW220250   0.271   4.508   1.289
 6451SOL     OW20251   3.819   2.038   1.143
 6451SOL    HW120252   3.880   2.022   1.065
 6451SOL    HW220253   3.738   1.981   1.133
 6452SOL     OW20254   4.777   2.371   3.688
 6452SOL    HW120255   4.858   2.428   3.691
 6452SOL    HW220256   4.791   2.296   3.623
 6453SOL     OW20257   3.029   1.104   1.133
 6453SOL    HW120258   3.112   1.062   1.097
 6453SOL    HW220259   3.047   1.200   1.155
 6454SOL     OW20260   5.636   2.579   3.667
 6454SOL    HW120261   5.701   2.617   3.602
 6454SOL    HW220262   5.570   2.650   3.693
 6455SOL     OW20263   6.620   3.516   3.300
 6455SOL    HW120264   6.701   3.457   3.292
 6455SOL    HW220265   6.541   3.460   3.328
 6456SOL     OW20266   6.218   1.633   3.067
 6456SOL    HW120267   6.211   1.538   3.039
 6456SOL    HW220268   6.218   1.692   2.986
 6457SOL     OW20269   3.723   0.516   2.369
 6457SOL    HW120270   3.748   0.603   2.327
 6457SOL    HW220271   3.626   0.498   2.354
 6458SOL     OW20272   0.434   4.906   3.516
 6458SOL    HW120273   0.393   4.849   3.445
 6458SOL    HW220274   0.407   5.001   3.503
 6459SOL     OW20275   6.404   3.458   2.135
 6459SOL    HW120276   6.452   3.544   2.115
 6459SOL    HW220277   6.309   3.466   2.106
 6460SOL     OW20278   0.559   5.892   5.875
 6460SOL    HW120279   0.637   5.907   5.814
 6460SOL    HW220280   0.480   5.862   5.822
 6461SOL     OW20281   2.382   5.341   1.389
 6461SOL    HW120282   2.437   5.423   1.404
 6461SOL    HW220283   2.289   5.358   1.420
 6462SOL     OW20284   1.556   3.795   5.226
 6462SOL    HW120285   1.631   3.744   5.269
 6462SOL    HW220286   1.511   3.853   5.294
 6463SOL     OW20287   4.765   2.021   1.590
 6463SOL    HW120288   4.708   2.008   1.671
 6463SOL    HW220289   4.799   2.115   1.589
 6464SOL     OW20290   1.011   5.010   4.366
 6464SOL    HW120291   1.100   4.992   4.324
 6464SOL    HW220292   1.000   4.954   4.448
 6465SOL     OW20293   3.915   1.035   3.188
 6465SOL    HW120294   3.882   1.020   3.095
 6465SOL    HW220295   3.901   0.951   3.242
 6466SOL     OW20296   0.662   2.953   0.340
 6466SOL    HW120297   0.619   2.966   0.430
 6466SOL    HW220298   0.715   3.035   0.316
 6467SOL     OW20299   3.070   1.956   1.065
 6467SOL    HW120300   3.053   1.857   1.061
 6467SOL    HW220301   3.023   2.001   0.990
 6468SOL     OW20302   2.595   0.977   0.902
 6468SOL    HW120303   2.523   0.957   0.969
 6468SOL    HW220304   2.647   1.056   0.933
 6469SOL     OW20305   3.340   1.692   3.031
 6469SOL    HW120306   3.355   1.601   3.070
 6469SOL    HW220307   3.262   1.734   3.077
 6470SOL     OW20308   6.832   1.805   6.897
 6470SOL    HW120309   6.869   1.896   6.916
 6470SOL    HW220310   6.906   1.738   6.904
 6471SOL     OW20311   0.574   6.167   5.763
 6471SOL    HW120312   0.571   6.238   5.693
 6471SOL    HW220313   0.481   6.147   5.794
 6472SOL     OW20314   6.562   6.113   2.894
 6472SOL    HW120315   6.523   6.202   2.869
 6472SOL    HW220316   6.565   6.054   2.814
 6473SOL     OW20317   2.539   1.731   4.011
 6473SOL    HW120318   2.529   1.649   4.068
 6473SOL    HW220319   2.552   1.703   3.916
 6474SOL     OW20320   3.839   5.206   5.553
 6474SOL    HW120321   3.914   5.143   5.532
 6474SOL    HW220322   3.857   5.252   5.640
 6475SOL     OW20323   5.699   5.118   2.703
 6475SOL    HW120324   5.708   5.121   2.803
 6475SOL    HW220325   5.640   5.193   2.672
 6476SOL     OW20326   3.433   1.596   6.688
 6476SOL    HW120327   3.466   1.507   6.718
 6476SOL    HW220328   3.483   1.668   6.736
 6477SOL     OW20329   6.447   6.173   1.513
 6477SOL    HW120330   6.460   6.271   1.523
 6477SOL    HW220331   6.516   6.124   1.567
 6478SOL     OW20332   3.388   5.572   1.562
 6478SOL    HW120333   3.442   5.495   1.528
 6478SOL    HW220334   3.308   5.538   1.611
 6479SOL     OW20335   3.124   6.032   4.215
 6479SOL    HW120336   3.027   6.053   4.202
 6479SOL    HW220337   3.178   6.116   4.206
 6480SOL     OW20338   3.251   1.488   6.882
 6480SOL    HW120339   3.173   1.544   6.911
 6480SOL    HW220340   3.320   1.547   6.840
 6481SOL     OW20341   3.476   2.800   1.963
 6481SOL    HW120342   3.439   2.840   2.047
 6481SOL    HW220343   3.411   2.735   1.926
 6482SOL     OW20344   5.625   4.143   5.452
 6482SOL    HW120345   5.529   4.172   5.453
 6482SOL    HW220346   5.648   4.106   5.362
 6483SOL     OW20347   1.210   5.950   5.075
 6483SOL    HW120348   1.198   5.908   4.985
 6483SOL    HW220349   1.219   5.879   5.145
 6484SOL     OW20350   2.293   0.934   4.204
 6484SOL    HW120351   2.211   0.973   4.162
 6484SOL    HW220352   2.297   0.961   4.300
 6485SOL     OW20353   2.097   6.991   4.158
 6485SOL    HW120354   2.038   6.911   4.162
 6485SOL    HW220355   2.139   6.997   4.067
 6486SOL     OW20356   1.431   4.527   3.463
 6486SOL    HW120357   1.472   4.458   3.403
 6486SOL    HW220358   1.404   4.485   3.549
 6487SOL     OW20359   5.816   4.723   3.740
 6487SOL    HW120360   5.760   4.647   3.708
 6487SOL    HW220361   5.912   4.694   3.743
 6488SOL     OW20362   4.470   5.447   4.222
 6488SOL    HW120363   4.403   5.464   4.150
 6488SOL    HW220364   4.469   5.522   4.288
 6489SOL     OW20365   4.342   3.210   5.757
 6489SOL    HW120366   4.357   3.203   5.855
 6489SOL    HW220367   4.343   3.306   5.729
 6490SOL     OW20368   1.822   2.360   0.032
 6490SOL    HW120369   1.769   2.292   7.002
 6490SOL    HW220370   1.887   2.404   6.990
 6491SOL     OW20371   2.903   0.174   1.370
 6491SOL    HW120372   2.962   0.094   1.363
 6491SOL    HW220373   2.809   0.144   1.387
 6492SOL     OW20374   3.427   3.495   4.519
 6492SOL    HW120375   3.466   3.577   4.477
 6492SOL    HW220376   3.495   3.421   4.517
 6493SOL     OW20377   0.854   3.931   5.411
 6493SOL    HW120378   0.808   3.889   5.333
 6493SOL    HW220379   0.794   4.001   5.451
 6494SOL     OW20380   5.806   0.332   1.812
 6494SOL    HW120381   5.860   0.305   1.732
 6494SOL    HW220382   5.786   0.430   1.808
 6495SOL     OW20383   6.199   6.976   3.444
 6495SOL    HW120384   6.235   0.031   3.499
 6495SOL    HW220385   6.269   6.906   3.432
 6496SOL     OW20386   3.807   1.311   1.411
 6496SOL    HW120387   3.875   1.383   1.427
 6496SOL    HW220388   3.718   1.343   1.443
 6497SOL     OW20389   0.094   1.334   0.836
 6497SOL    HW120390   0.156   1.290   0.772
 6497SOL    HW220391   0.094   1.284   0.923
 6498SOL     OW20392   1.026   4.444   4.581
 6498SOL    HW120393   1.027   4.394   4.668
 6498SOL    HW220394   1.023   4.379   4.505
 6499SOL     OW20395   4.838   3.823   3.346
 6499SOL    HW120396   4.817   3.754   3.415
 6499SOL    HW220397   4.923   3.798   3.299
 6500SOL     OW20398   1.657   4.195   3.009
 6500SOL    HW120399   1.740   4.212   2.955
 6500SOL    HW220400   1.682   4.179   3.104
 6501SOL     OW20401   6.084   2.073   0.842
 6501SOL    HW120402   6.131   2.162   0.837
 6501SOL    HW220403   6.137   2.005   0.791
 6502SOL     OW20404   6.755   3.942   1.712
 6502SOL    HW120405   6.696   3.990   1.777
 6502SOL    HW220406   6.757   3.992   1.626
 6503SOL     OW20407   6.481   3.282   5.648
 6503SOL    HW120408   6.455   3.225   5.570
 6503SOL    HW220409   6.401   3.330   5.682
 6504SOL     OW20410   4.714   6.024   6.510
 6504SOL    HW120411   4.638   5.964   6.538
 6504SOL    HW220412   4.690   6.119   6.529
 6505SOL     OW20413   6.793   5.839   0.922
 6505SOL    HW120414   6.787   5.925   0.972
 6505SOL    HW220415   6.840   5.854   0.834
 6506SOL     OW20416   0.171   4.188   2.161
 6506SOL    HW120417   0.211   4.229   2.079
 6506SOL    HW220418   0.154   4.091   2.145
 6507SOL     OW20419   3.790   4.458   6.866
 6507SOL    HW120420   3.846   4.447   6.783
 6507SOL    HW220421   3.793   4.374   6.920
 6508SOL     OW20422   0.541   6.838   2.128
 6508SOL    HW120423   0.616   6.849   2.194
 6508SOL    HW220424   0.572   6.780   2.053
 6509SOL     OW20425   2.942   1.549   6.384
 6509SOL    HW120426   2.896   1.638   6.385
 6509SOL    HW220427   3.027   1.555   6.437
 6510SOL     OW20428   4.238   5.610   5.751
 6510SOL    HW120429   4.213   5.612   5.848
 6510SOL    HW220430   4.156   5.595   5.696
 6511SOL     OW20431   3.174   0.926   0.158
 6511SOL    HW120432   3.183   0.863   0.235
 6511SOL    HW220433   3.132   1.012   0.191
 6512SOL     OW20434   4.074   1.461   0.665
 6512SOL    HW120435   4.100   1.389   0.730
 6512SOL    HW220436   4.021   1.421   0.590
 6513SOL     OW20437   2.238   5.130   3.633
 6513SOL    HW120438   2.173   5.181   3.578
 6513SOL    HW220439   2.301   5.193   3.679
 6514SOL     OW20440   5.576   6.972   5.876
 6514SOL    HW120441   5.644   6.902   5.853
 6514SOL    HW220442   5.568   6.979   5.976
 6515SOL     OW20443   2.114   5.173   2.232
 6515SOL    HW120444   2.122   5.132   2.142
 6515SOL    HW220445   2.119   5.273   2.224
 6516SOL     OW20446   6.835   3.955   1.392
 6516SOL    HW120447   6.851   3.864   1.430
 6516SOL    HW220448   6.784   3.946   1.306
 6517SOL     OW20449   6.905   2.995   0.559
 6517SOL    HW120450   6.968   3.045   0.498
 6517SOL    HW220451   6.899   3.042   0.647
 6518SOL     OW20452   1.191   1.864   3.227
 6518SOL    HW120453   1.280   1.907   3.213
 6518SOL    HW220454   1.131   1.928   3.277
 6519SOL     OW20455   1.325   1.190   2.836
 6519SOL    HW120456   1.272   1.254   2.890
 6519SOL    HW220457   1.298   1.197   2.740
 6520SOL     OW20458   0.588   5.356   6.979
 6520SOL    HW120459   0.565   5.422   6.908
 6520SOL    HW220460   0.568   5.397   0.049
 6521SOL     OW20461   1.210   3.862   4.189
 6521SOL    HW120462   1.213   3.820   4.099
 6521SOL    HW220463   1.218   3.791   4.259
 6522SOL     OW20464   2.773   3.365   5.351
 6522SOL    HW120465   2.799   3.416   5.269
 6522SOL    HW220466   2.771   3.267   5.330
 6523SOL     OW20467   5.737   6.934   0.073
 6523SOL    HW120468   5.804   6.924   7.020
 6523SOL    HW220469   5.653   6.974   0.037
 6524SOL     OW20470   2.459   2.306   1.764
 6524SOL    HW120471   2.411   2.241   1.823
 6524SOL    HW220472   2.394   2.369   1.723
 6525SOL     OW20473   1.150   4.864   3.572
 6525SOL    HW120474   1.218   4.889   3.640
 6525SOL    HW220475   1.068   4.829   3.617
 6526SOL     OW20476   0.746   6.827   0.146
 6526SOL    HW120477   0.717   6.905   0.091
 6526SOL    HW220478   0.666   6.772   0.171
 6527SOL     OW20479   0.412   2.461   0.499
 6527SOL    HW120480   0.351   2.448   0.421
 6527SOL    HW220481   0.409   2.380   0.558
 6528SOL     OW20482   5.288   0.742   6.576
 6528SOL    HW120483   5.378   0.747   6.619
 6528SOL    HW220484   5.269   0.648   6.548
 6529SOL     OW20485   6.782   0.956   2.404
 6529SOL    HW120486   6.784   0.935   2.306
 6529SOL    HW220487   6.835   0.887   2.454
 6530SOL     OW20488   1.410   3.006   2.255
 6530SOL    HW120489   1.386   2.945   2.330
 6530SOL    HW220490   1.327   3.030   2.204
 6531SOL     OW20491   4.009   3.866   5.093
 6531SOL    HW120492   4.075   3.792   5.077
 6531SOL    HW220493   3.994   3.917   5.009
 6532SOL     OW20494   1.295   0.786   0.741
 6532SOL    HW120495   1.322   0.854   0.673
 6532SOL    HW220496   1.346   0.701   0.725
 6533SOL     OW20497   4.907   3.641   0.910
 6533SOL    HW120498   4.879   3.591   0.992
 6533SOL    HW220499   4.886   3.738   0.921
 6534SOL     OW20500   6.784   4.388   3.266
 6534SOL    HW120501   6.722   4.396   3.188
 6534SOL    HW220502   6.877   4.409   3.236
 6535SOL     OW20503   6.057   3.238   5.284
 6535SOL    HW120504   6.044   3.268   5.378
 6535SOL    HW220505   6.052   3.138   5.280
 6536SOL     OW20506   0.785   3.659   5.167
 6536SOL    HW120507   0.740   3.688   5.252
 6536SOL    HW220508   0.856   3.592   5.188
 6537SOL     OW20509   6.076   5.379   4.132
 6537SOL    HW120510   6.053   5.357   4.227
 6537SOL    HW220511   5.993   5.410   4.084
 6538SOL     OW20512   2.601   3.130   5.597
 6538SOL    HW120513   2.519   3.175   5.633
 6538SOL    HW220514   2.673   3.130   5.666
 6539SOL     OW20515   5.607   1.017   5.338
 6539SOL    HW120516   5.619   1.108   5.376
 6539SOL    HW220517   5.696   0.975   5.323
 6540SOL     OW20518   5.631   2.691   5.473
 6540SOL    HW120519   5.696   2.766   5.459
 6540SOL    HW220520   5.638   2.658   5.567
 6541SOL     OW20521   5.726   0.867   4.494
 6541SOL    HW120522   5.771   0.778   4.488
 6541SOL    HW220523   5.703   0.898   4.402
 6542SOL     OW20524   1.402   4.378   3.677
 6542SOL    HW120525   1.372   4.283   3.689
 6542SOL    HW220526   1.333   4.439   3.715
 6543SOL     OW20527   3.915   1.999   5.255
 6543SOL    HW120528   3.972   2.060   5.199
 6543SOL    HW220529   3.954   1.907   5.254
 6544SOL     OW20530   1.180   6.603   1.555
 6544SOL    HW120531   1.190   6.570   1.649
 6544SOL    HW220532   1.229   6.689   1.544
 6545SOL     OW20533   4.606   0.216   0.470
 6545SOL    HW120534   4.618   0.257   0.379
 6545SOL    HW220535   4.508   0.206   0.489
 6546SOL     OW20536   4.651   3.374   6.501
 6546SOL    HW120537   4.714   3.312   6.547
 6546SOL    HW220538   4.631   3.339   6.409
 6547SOL     OW20539   6.519   5.447   0.037
 6547SOL    HW120540   6.492   5.432   0.132
 6547SOL    HW220541   6.460   5.515   7.015
 6548SOL     OW20542   0.133   1.676   5.499
 6548SOL    HW120543   0.211   1.614   5.500
 6548SOL    HW220544   0.126   1.719   5.409
 6549SOL     OW20545   4.699   0.073   1.588
 6549SOL    HW120546   4.731   0.165   1.613
 6549SOL    HW220547   4.758   0.005   1.632
 6550SOL     OW20548   6.514   0.099   3.065
 6550SOL    HW120549   6.418   0.092   3.040
 6550SOL    HW220550   6.570   0.100   2.982
 6551SOL     OW20551   2.862   3.949   0.766
 6551SOL    HW120552   2.805   4.013   0.818
 6551SOL    HW220553   2.804   3.883   0.718
 6552SOL     OW20554   2.651   6.285   0.713
 6552SOL    HW120555   2.585   6.252   0.780
 6552SOL    HW220556   2.618   6.266   0.621
 6553SOL     OW20557   0.336   1.444   3.635
 6553SOL    HW120558   0.377   1.507   3.700
 6553SOL    HW220559   0.261   1.395   3.678
 6554SOL     OW20560   2.458   1.178   4.782
 6554SOL    HW120561   2.466   1.234   4.700
 6554SOL    HW220562   2.520   1.212   4.853
 6555SOL     OW20563   6.973   3.764   3.950
 6555SOL    HW120564   7.018   3.800   4.032
 6555SOL    HW220565   6.950   3.668   3.965
 6556SOL     OW20566   4.828   2.977   3.300
 6556SOL    HW120567   4.781   2.933   3.224
 6556SOL    HW220568   4.841   2.910   3.374
 6557SOL     OW20569   1.869   0.326   2.100
 6557SOL    HW120570   1.966   0.340   2.117
 6557SOL    HW220571   1.856   0.293   2.006
 6558SOL     OW20572   5.427   5.362   0.230
 6558SOL    HW120573   5.436   5.266   0.254
 6558SOL    HW220574   5.339   5.397   0.263
 6559SOL     OW20575   0.356   2.421   6.240
 6559SOL    HW120576   0.351   2.521   6.249
 6559SOL    HW220577   0.379   2.381   6.328
 6560SOL     OW20578   5.735   4.992   0.512
 6560SOL    HW120579   5.704   5.046   0.433
 6560SOL    HW220580   5.822   5.029   0.546
 6561SOL     OW20581   3.668   4.255   0.555
 6561SOL    HW120582   3.731   4.282   0.628
 6561SOL    HW220583   3.629   4.165   0.575
 6562SOL     OW20584   5.704   3.271   1.106
 6562SOL    HW120585   5.616   3.263   1.060
 6562SOL    HW220586   5.762   3.193   1.082
 6563SOL     OW20587   5.017   6.057   5.263
 6563SOL    HW120588   5.055   6.072   5.354
 6563SOL    HW220589   4.975   5.966   5.259
 6564SOL     OW20590   6.726   3.971   3.220
 6564SOL    HW120591   6.658   3.952   3.150
 6564SOL    HW220592   6.808   4.009   3.177
 6565SOL     OW20593   5.642   0.269   3.418
 6565SOL    HW120594   5.738   0.258   3.392
 6565SOL    HW220595   5.619   0.207   3.493
 6566SOL     OW20596   4.409   6.040   2.689
 6566SOL    HW120597   4.466   6.122   2.695
 6566SOL    HW220598   4.344   6.040   2.765
 6567SOL     OW20599   4.328   0.771   0.878
 6567SOL    HW120600   4.421   0.770   0.916
 6567SOL    HW220601   4.323   0.837   0.803
 6568SOL     OW20602   4.104   1.065   1.228
 6568SOL    HW120603   4.169   1.119   1.174
 6568SOL    HW220604   4.011   1.098   1.209
 6569SOL     OW20605   0.177   4.309   5.798
 6569SOL    HW120606   0.194   4.302   5.700
 6569SOL    HW220607   0.251   4.265   5.849
 6570SOL     OW20608   4.099   6.598   1.674
 6570SOL    HW120609   4.030   6.571   1.607
 6570SOL    HW220610   4.123   6.519   1.730
 6571SOL     OW20611   3.207   5.987   2.439
 6571SOL    HW120612   3.286   5.984   2.377
 6571SOL    HW220613   3.221   5.923   2.514
 6572SOL     OW20614   1.428   5.381   3.610
 6572SOL    HW120615   1.361   5.440   3.654
 6572SOL    HW220616   1.512   5.431   3.593
 6573SOL     OW20617   1.752   1.506   3.455
 6573SOL    HW120618   1.841   1.461   3.447
 6573SOL    HW220619   1.681   1.438   3.471
 6574SOL     OW20620   1.630   6.201   1.962
 6574SOL    HW120621   1.651   6.125   2.024
 6574SOL    HW220622   1.572   6.267   2.009
 6575SOL     OW20623   0.019   0.486   2.646
 6575SOL    HW120624   0.098   0.426   2.663
 6575SOL    HW220625   0.002   0.543   2.726
 6576SOL     OW20626   4.289   6.350   1.007
 6576SOL    HW120627   4.358   6.342   0.935
 6576SOL    HW220628   4.259   6.446   1.014
 6577SOL     OW20629   2.422   1.304   3.636
 6577SOL    HW120630   2.344   1.242   3.646
 6577SOL    HW220631   2.500   1.268   3.688
 6578SOL     OW20632   1.387   4.633   1.697
 6578SOL    HW120633   1.352   4.544   1.726
 6578SOL    HW220634   1.396   4.693   1.776
 6579SOL     OW20635   6.580   1.128   4.148
 6579SOL    HW120636   6.626   1.068   4.213
 6579SOL    HW220637   6.494   1.086   4.119
 6580SOL     OW20638   1.305   0.568   6.922
 6580SOL    HW120639   1.266   0.615   6.843
 6580SOL    HW220640   1.346   0.482   6.892
 6581SOL     OW20641   1.672   2.160   6.895
 6581SOL    HW120642   1.628   2.071   6.907
 6581SOL    HW220643   1.685   2.178   6.797
 6582SOL     OW20644   6.918   1.371   3.347
 6582SOL    HW120645   7.009   1.344   3.315
 6582SOL    HW220646   6.854   1.297   3.330
 6583SOL     OW20647   4.246   6.201   6.507
 6583SOL    HW120648   4.201   6.256   6.577
 6583SOL    HW220649   4.189   6.198   6.425
 6584SOL     OW20650   3.554   2.503   0.904
 6584SOL    HW120651   3.625   2.494   0.974
 6584SOL    HW220652   3.571   2.585   0.849
 6585SOL     OW20653   6.155   6.746   0.982
 6585SOL    HW120654   6.193   6.835   1.006
 6585SOL    HW220655   6.055   6.750   0.986
 6586SOL     OW20656   6.344   2.392   6.554
 6586SOL    HW120657   6.415   2.325   6.533
 6586SOL    HW220658   6.257   2.346   6.570
 6587SOL     OW20659   1.584   4.622   5.667
 6587SOL    HW120660   1.509   4.679   5.633
 6587SOL    HW220661   1.547   4.545   5.718
 6588SOL     OW20662   6.781   3.375   0.604
 6588SOL    HW120663   6.756   3.469   0.580
 6588SOL    HW220664   6.700   3.326   0.635
 6589SOL     OW20665   0.037   0.831   1.914
 6589SOL    HW120666   0.046   0.886   1.831
 6589SOL    HW220667   0.079   0.742   1.900
 6590SOL     OW20668   1.225   0.096   3.765
 6590SOL    HW120669   1.233   0.064   3.860
 6590SOL    HW220670   1.165   0.176   3.762
 6591SOL     OW20671   5.565   4.290   4.307
 6591SOL    HW120672   5.491   4.354   4.331
 6591SOL    HW220673   5.633   4.338   4.251
 6592SOL     OW20674   5.743   6.350   2.576
 6592SOL    HW120675   5.839   6.374   2.562
 6592SOL    HW220676   5.736   6.274   2.640
 6593SOL     OW20677   2.879   1.856   2.310
 6593SOL    HW120678   2.911   1.895   2.224
 6593SOL    HW220679   2.792   1.899   2.336
 6594SOL     OW20680   4.580   1.587   6.310
 6594SOL    HW120681   4.566   1.577   6.212
 6594SOL    HW220682   4.669   1.629   6.328
 6595SOL     OW20683   1.420   2.637   5.446
 6595SOL    HW120684   1.483   2.708   5.414
 6595SOL    HW220685   1.338   2.680   5.483
 6596SOL     OW20686   5.553   6.199   2.411
 6596SOL    HW120687   5.562   6.124   2.476
 6596SOL    HW220688   5.624   6.267   2.428
 6597SOL     OW20689   1.519   4.697   1.964
 6597SOL    HW120690   1.604   4.722   1.917
 6597SOL    HW220691   1.488   4.773   2.021
 6598SOL     OW20692   2.123   4.601   4.577
 6598SOL    HW120693   2.097   4.655   4.496
 6598SOL    HW220694   2.221   4.583   4.574
 6599SOL     OW20695   6.499   5.632   6.513
 6599SOL    HW120696   6.570   5.668   6.572
 6599SOL    HW220697   6.539   5.603   6.426
 6600SOL     OW20698   4.748   6.993   5.026
 6600SOL    HW120699   4.782   6.900   5.013
 6600SOL    HW220700   4.690   7.019   4.948
 6601SOL     OW20701   1.684   1.888   1.460
 6601SOL    HW120702   1.607   1.927   1.512
 6601SOL    HW220703   1.709   1.950   1.386
 6602SOL     OW20704   2.221   6.490   1.581
 6602SOL    HW120705   2.312   6.450   1.589
 6602SOL    HW220706   2.163   6.430   1.525
 6603SOL     OW20707   0.020   3.353   2.978
 6603SOL    HW120708   6.977   3.309   2.914
 6603SOL    HW220709   6.988   3.404   3.047
 6604SOL     OW20710   1.973   6.115   2.441
 6604SOL    HW120711   1.964   6.108   2.341
 6604SOL    HW220712   2.054   6.170   2.462
 6605SOL     OW20713   0.073   5.438   1.522
 6605SOL    HW120714   0.007   5.385   1.467
 6605SOL    HW220715   0.150   5.465   1.464
 6606SOL     OW20716   1.644   3.869   3.424
 6606SOL    HW120717   1.563   3.819   3.392
 6606SOL    HW220718   1.719   3.805   3.439
 6607SOL     OW20719   6.049   4.118   3.643
 6607SOL    HW120720   6.045   4.184   3.568
 6607SOL    HW220721   6.077   4.165   3.727
 6608SOL     OW20722   0.546   5.987   5.536
 6608SOL    HW120723   0.608   6.021   5.607
 6608SOL    HW220724   0.452   5.997   5.567
 6609SOL     OW20725   4.432   1.857   6.201
 6609SOL    HW120726   4.443   1.789   6.129
 6609SOL    HW220727   4.345   1.844   6.247
 6610SOL     OW20728   2.868   5.361   1.254
 6610SOL    HW120729   2.817   5.328   1.333
 6610SOL    HW220730   2.966   5.356   1.273
 6611SOL     OW20731   4.580   1.851   4.197
 6611SOL    HW120732   4.606   1.818   4.288
 6611SOL    HW220733   4.574   1.774   4.134
 6612SOL     OW20734   6.242   1.740   5.843
 6612SOL    HW120735   6.221   1.705   5.751
 6612SOL    HW220736   6.158   1.773   5.886
 6613SOL     OW20737   4.720   6.490   6.941
 6613SOL    HW120738   4.748   6.394   6.940
 6613SOL    HW220739   4.788   6.545   6.893
 6614SOL     OW20740   4.394   5.607   1.232
 6614SOL    HW120741   4.434   5.687   1.275
 6614SOL    HW220742   4.307   5.631   1.189
 6615SOL     OW20743   2.999   4.799   6.773
 6615SOL    HW120744   2.921   4.753   6.815
 6615SOL    HW220745   3.078   4.738   6.774
 6616SOL     OW20746   4.136   1.275   5.462
 6616SOL    HW120747   4.038   1.259   5.469
 6616SOL    HW220748   4.155   1.372   5.477
 6617SOL     OW20749   3.521   0.298   3.910
 6617SOL    HW120750   3.583   0.349   3.851
 6617SOL    HW220751   3.558   0.207   3.928
 6618SOL     OW20752   6.727   2.535   2.367
 6618SOL    HW120753   6.757   2.475   2.293
 6618SOL    HW220754   6.630   2.556   2.355
 6619SOL     OW20755   4.963   6.517   3.709
 6619SOL    HW120756   4.955   6.593   3.645
 6619SOL    HW220757   4.873   6.494   3.745
 6620SOL     OW20758   0.681   3.306   3.570
 6620SOL    HW120759   0.720   3.391   3.606
 6620SOL    HW220760   0.695   3.301   3.472
 6621SOL     OW20761   3.648   3.321   4.851
 6621SOL    HW120762   3.553   3.316   4.821
 6621SOL    HW220763   3.701   3.376   4.785
 6622SOL     OW20764   0.709   5.388   0.594
 6622SOL    HW120765   0.692   5.469   0.651
 6622SOL    HW220766   0.623   5.360   0.551
 6623SOL     OW20767   3.442   4.057   5.997
 6623SOL    HW120768   3.437   3.972   5.946
 6623SOL    HW220769   3.422   4.134   5.936
 6624SOL     OW20770   1.426   2.340   3.982
 6624SOL    HW120771   1.334   2.322   3.948
 6624SOL    HW220772   1.456   2.431   3.952
 6625SOL     OW20773   5.697   3.219   5.872
 6625SOL    HW120774   5.625   3.161   5.834
 6625SOL    HW220775   5.769   3.231   5.804
 6626SOL     OW20776   2.400   6.388   4.926
 6626SOL    HW120777   2.486   6.435   4.946
 6626SOL    HW220778   2.408   6.339   4.839
 6627SOL     OW20779   1.763   6.225   4.440
 6627SOL    HW120780   1.832   6.278   4.489
 6627SOL    HW220781   1.808   6.154   4.385
 6628SOL     OW20782   4.357   6.278   3.973
 6628SOL    HW120783   4.310   6.256   3.888
 6628SOL    HW220784   4.354   6.377   3.988
 6629SOL     OW20785   5.270   6.017   6.654
 6629SOL    HW120786   5.348   5.964   6.621
 6629SOL    HW220787   5.218   6.053   6.576
 6630SOL     OW20788   2.506   1.521   1.387
 6630SOL    HW120789   2.590   1.467   1.378
 6630SOL    HW220790   2.451   1.484   1.462
 6631SOL     OW20791   2.394   4.627   6.619
 6631SOL    HW120792   2.387   4.710   6.564
 6631SOL    HW220793   2.368   4.548   6.563
 6632SOL     OW20794   1.683   0.930   0.857
 6632SOL    HW120795   1.588   0.960   0.867
 6632SOL    HW220796   1.740   1.007   0.830
 6633SOL     OW20797   3.667   5.412   6.159
 6633SOL    HW120798   3.596   5.410   6.090
 6633SOL    HW220799   3.747   5.361   6.127
 6634SOL     OW20800   4.364   2.228   4.491
 6634SOL    HW120801   4.403   2.319   4.503
 6634SOL    HW220802   4.275   2.224   4.536
 6635SOL     OW20803   5.105   4.930   2.769
 6635SOL    HW120804   5.087   4.938   2.671
 6635SOL    HW220805   5.203   4.932   2.786
 6636SOL     OW20806   3.718   0.244   0.681
 6636SOL    HW120807   3.706   0.177   0.608
 6636SOL    HW220808   3.718   0.197   0.770
 6637SOL     OW20809   1.449   1.077   0.860
 6637SOL    HW120810   1.509   1.121   0.793
 6637SOL    HW220811   1.355   1.109   0.847
 6638SOL     OW20812   2.872   3.563   3.653
 6638SOL    HW120813   2.866   3.532   3.559
 6638SOL    HW220814   2.924   3.649   3.657
 6639SOL     OW20815   5.029   2.889   1.394
 6639SOL    HW120816   4.986   2.979   1.389
 6639SOL    HW220817   5.008   2.847   1.483
 6640SOL     OW20818   0.844   2.880   5.016
 6640SOL    HW120819   0.810   2.799   4.969
 6640SOL    HW220820   0.934   2.862   5.055
 6641SOL     OW20821   4.422   2.021   0.942
 6641SOL    HW120822   4.386   2.104   0.984
 6641SOL    HW220823   4.372   2.002   0.858
 6642SOL     OW20824   1.217   5.891   0.610
 6642SOL    HW120825   1.286   5.865   0.542
 6642SOL    HW220826   1.253   5.875   0.702
 6643SOL     OW20827   4.547   6.659   0.081
 6643SOL    HW120828   4.520   6.751   0.053
 6643SOL    HW220829   4.575   6.606   0.001
 6644SOL     OW20830   1.661   6.383   3.250
 6644SOL    HW120831   1.708   6.335   3.176
 6644SOL    HW220832   1.562   6.377   3.235
 6645SOL     OW20833   6.150   3.211   0.522
 6645SOL    HW120834   6.123   3.163   0.606
 6645SOL    HW220835   6.070   3.221   0.462
 6646SOL     OW20836   4.603   6.987   6.498
 6646SOL    HW120837   4.533   0.034   6.475
 6646SOL    HW220838   4.598   6.910   6.434
 6647SOL     OW20839   4.673   4.961   1.106
 6647SOL    HW120840   4.748   4.930   1.047
 6647SOL    HW220841   4.625   5.037   1.062
 6648SOL     OW20842   2.476   6.399   5.638
 6648SOL    HW120843   2.377   6.409   5.629
 6648SOL    HW220844   2.499   6.302   5.650
 6649SOL     OW20845   5.967   2.933   0.090
 6649SOL    HW120846   6.043   2.871   0.068
 6649SOL    HW220847   5.941   2.920   0.186
 6650SOL     OW20848   2.585   1.292   5.314
 6650SOL    HW120849   2.499   1.342   5.304
 6650SOL    HW220850   2.653   1.332   5.253
 6651SOL     OW20851   7.008   2.029   6.463
 6651SOL    HW120852   0.026   2.116   6.495
 6651SOL    HW220853   6.913   2.021   6.494
 6652SOL     OW20854   0.639   4.353   0.382
 6652SOL    HW120855   0.571   4.294   0.339
 6652SOL    HW220856   0.601   4.392   0.466
 6653SOL     OW20857   5.131   3.777   0.740
 6653SOL    HW120858   5.090   3.825   0.818
 6653SOL    HW220859   5.066   3.708   0.706
 6654SOL     OW20860   0.251   4.549   3.100
 6654SOL    HW120861   0.343   4.531   3.136
 6654SOL    HW220862   0.243   4.646   3.075
 6655SOL     OW20863   6.743   5.447   1.710
 6655SOL    HW120864   6.694   5.491   1.784
 6655SOL    HW220865   6.730   5.348   1.714
 6656SOL     OW20866   4.089   1.675   2.971
 6656SOL    HW120867   4.007   1.726   2.944
 6656SOL    HW220868   4.083   1.581   2.936
 6657SOL     OW20869   5.477   1.852   3.843
 6657SOL    HW120870   5.512   1.938   3.880
 6657SOL    HW220871   5.391   1.869   3.794
 6658SOL     OW20872   6.013   6.292   4.932
 6658SOL    HW120873   6.065   6.265   5.013
 6658SOL    HW220874   5.923   6.247   4.934
 6659SOL     OW20875   1.138   5.257   2.283
 6659SOL    HW120876   1.190   5.264   2.198
 6659SOL    HW220877   1.173   5.324   2.349
 6660SOL     OW20878   0.103   6.183   3.342
 6660SOL    HW120879   0.075   6.087   3.339
 6660SOL    HW220880   0.022   6.241   3.351
 6661SOL     OW20881   3.845   0.020   4.328
 6661SOL    HW120882   3.756   0.026   4.374
 6661SOL    HW220883   3.868   6.944   4.312
 6662SOL     OW20884   3.003   6.568   2.354
 6662SOL    HW120885   3.017   6.649   2.298
 6662SOL    HW220886   3.081   6.555   2.414
 6663SOL     OW20887   1.139   4.343   5.863
 6663SOL    HW120888   1.164   4.352   5.766
 6663SOL    HW220889   1.134   4.433   5.905
 6664SOL     OW20890   2.893   0.793   1.521
 6664SOL    HW120891   2.887   0.713   1.462
 6664SOL    HW220892   2.952   0.773   1.599
 6665SOL     OW20893   2.147   0.551   5.629
 6665SOL    HW120894   2.207   0.620   5.669
 6665SOL    HW220895   2.150   0.469   5.685
 6666SOL     OW20896   4.935   6.702   5.192
 6666SOL    HW120897   4.921   6.787   5.243
 6666SOL    HW220898   4.881   6.629   5.234
 6667SOL     OW20899   0.304   6.105   6.310
 6667SOL    HW120900   0.373   6.100   6.237
 6667SOL    HW220901   0.303   6.019   6.361
 6668SOL     OW20902   0.188   5.800   0.741
 6668SOL    HW120903   0.228   5.835   0.826
 6668SOL    HW220904   0.118   5.863   0.709
 6669SOL     OW20905   1.408   1.082   3.072
 6669SOL    HW120906   1.371   1.114   2.985
 6669SOL    HW220907   1.371   0.992   3.094
 6670SOL     OW20908   3.891   2.571   0.861
 6670SOL    HW120909   3.877   2.579   0.762
 6670SOL    HW220910   3.869   2.479   0.891
 6671SOL     OW20911   5.056   5.784   0.185
 6671SOL    HW120912   5.155   5.792   0.202
 6671SOL    HW220913   5.037   5.693   0.148
 6672SOL     OW20914   1.691   2.100   0.777
 6672SOL    HW120915   1.717   2.036   0.850
 6672SOL    HW220916   1.699   2.194   0.811
 6673SOL     OW20917   5.622   4.026   4.315
 6673SOL    HW120918   5.591   4.121   4.323
 6673SOL    HW220919   5.714   4.025   4.277
 6674SOL     OW20920   0.077   2.876   0.173
 6674SOL    HW120921   0.143   2.910   0.106
 6674SOL    HW220922   7.010   2.858   0.127
 6675SOL     OW20923   5.141   2.272   6.773
 6675SOL    HW120924   5.158   2.177   6.799
 6675SOL    HW220925   5.063   2.276   6.710
 6676SOL     OW20926   1.369   3.758   3.817
 6676SOL    HW120927   1.399   3.703   3.739
 6676SOL    HW220928   1.436   3.830   3.835
 6677SOL     OW20929   0.336   2.138   0.376
 6677SOL    HW120930   0.263   2.205   0.365
 6677SOL    HW220931   0.380   2.122   0.288
 6678SOL     OW20932   2.098   4.731   0.280
 6678SOL    HW120933   2.015   4.699   0.233
 6678SOL    HW220934   2.130   4.659   0.342
 6679SOL     OW20935   2.080   1.303   3.896
 6679SOL    HW120936   2.012   1.371   3.868
 6679SOL    HW220937   2.160   1.350   3.934
 6680SOL     OW20938   5.998   6.525   0.766
 6680SOL    HW120939   6.090   6.537   0.729
 6680SOL    HW220940   5.986   6.584   0.845
 6681SOL     OW20941   3.758   5.690   1.447
 6681SOL    HW120942   3.797   5.653   1.362
 6681SOL    HW220943   3.800   5.779   1.466
 6682SOL     OW20944   3.383   5.227   6.830
 6682SOL    HW120945   3.445   5.220   6.752
 6682SOL    HW220946   3.325   5.145   6.833
 6683SOL     OW20947   6.283   3.486   6.203
 6683SOL    HW120948   6.243   3.402   6.167
 6683SOL    HW220949   6.211   3.551   6.227
 6684SOL     OW20950   3.004   6.580   1.390
 6684SOL    HW120951   3.040   6.599   1.481
 6684SOL    HW220952   3.052   6.637   1.323
 6685SOL     OW20953   4.546   3.426   6.757
 6685SOL    HW120954   4.605   3.416   6.676
 6685SOL    HW220955   4.468   3.364   6.749
 6686SOL     OW20956   5.192   5.570   3.638
 6686SOL    HW120957   5.209   5.661   3.601
 6686SOL    HW220958   5.232   5.564   3.730
 6687SOL     OW20959   6.634   2.305   1.461
 6687SOL    HW120960   6.711   2.260   1.506
 6687SOL    HW220961   6.549   2.282   1.508
 6688SOL     OW20962   3.693   5.825   0.380
 6688SOL    HW120963   3.675   5.864   0.290
 6688SOL    HW220964   3.727   5.896   0.442
 6689SOL     OW20965   2.435   4.662   6.176
 6689SOL    HW120966   2.498   4.694   6.247
 6689SOL    HW220967   2.379   4.738   6.144
 6690SOL     OW20968   1.191   6.941   6.115
 6690SOL    HW120969   1.126   6.896   6.177
 6690SOL    HW220970   1.170   6.916   6.021
 6691SOL     OW20971   2.592   2.499   2.866
 6691SOL    HW120972   2.584   2.470   2.771
 6691SOL    HW220973   2.511   2.550   2.893
 6692SOL     OW20974   5.074   5.042   1.513
 6692SOL    HW120975   5.166   5.007   1.534
 6692SOL    HW220976   5.013   5.023   1.590
 6693SOL     OW20977   4.117   1.879   4.603
 6693SOL    HW120978   4.163   1.865   4.515
 6693SOL    HW220979   4.059   1.800   4.623
 6694SOL     OW20980   3.633   5.139   0.752
 6694SOL    HW120981   3.614   5.115   0.657
 6694SOL    HW220982   3.721   5.101   0.780
 6695SOL     OW20983   2.940   2.129   6.512
 6695SOL    HW120984   3.026   2.080   6.528
 6695SOL    HW220985   2.936   2.208   6.573
 6696SOL     OW20986   4.107   3.706   4.278
 6696SOL    HW120987   4.108   3.704   4.178
 6696SOL    HW220988   4.097   3.800   4.310
 6697SOL     OW20989   4.626   2.635   2.488
 6697SOL    HW120990   4.535   2.599   2.467
 6697SOL    HW220991   4.656   2.696   2.415
 6698SOL     OW20992   3.614   3.999   1.654
 6698SOL    HW120993   3.631   3.914   1.702
 6698SOL    HW220994   3.600   4.073   1.720
 6699SOL     OW20995   1.562   4.445   5.418
 6699SOL    HW120996   1.519   4.534   5.405
 6699SOL    HW220997   1.621   4.424   5.340
 6700SOL     OW20998   5.729   0.231   0.134
 6700SOL    HW120999   5.683   0.170   0.198
 6700SOL    HW221000   5.720   0.195   0.041
 6701SOL     OW21001   5.999   0.101   1.462
 6701SOL    HW121002   5.968   0.176   1.519
 6701SOL    HW221003   6.044   0.137   1.380
 6702SOL     OW21004   3.186   2.451   0.896
 6702SOL    HW121005   3.214   2.544   0.917
 6702SOL    HW221006   3.175   2.400   0.982
 6703SOL     OW21007   1.130   1.512   6.613
 6703SOL    HW121008   1.228   1.530   6.622
 6703SOL    HW221009   1.089   1.583   6.556
 6704SOL     OW21010   3.404   1.132   5.132
 6704SOL    HW121011   3.465   1.079   5.192
 6704SOL    HW221012   3.333   1.175   5.187
 6705SOL     OW21013   6.504   3.685   2.016
 6705SOL    HW121014   6.476   3.682   1.920
 6705SOL    HW221015   6.567   3.762   2.029
 6706SOL     OW21016   0.166   6.740   1.900
 6706SOL    HW121017   0.174   6.840   1.890
 6706SOL    HW221018   0.079   6.719   1.944
 6707SOL     OW21019   5.708   0.503   2.473
 6707SOL    HW121020   5.657   0.482   2.389
 6707SOL    HW221021   5.743   0.597   2.468
 6708SOL     OW21022   0.466   3.922   1.765
 6708SOL    HW121023   0.530   3.905   1.690
 6708SOL    HW221024   0.373   3.903   1.735
 6709SOL     OW21025   1.434   4.738   2.508
 6709SOL    HW121026   1.522   4.741   2.461
 6709SOL    HW221027   1.379   4.662   2.472
 6710SOL     OW21028   4.831   1.454   1.753
 6710SOL    HW121029   4.753   1.426   1.810
 6710SOL    HW221030   4.887   1.375   1.732
 6711SOL     OW21031   4.378   6.202   6.159
 6711SOL    HW121032   4.429   6.116   6.158
 6711SOL    HW221033   4.305   6.198   6.090
 6712SOL     OW21034   6.066   3.621   1.277
 6712SOL    HW121035   6.133   3.557   1.314
 6712SOL    HW221036   5.979   3.574   1.265
 6713SOL     OW21037   1.487   6.794   4.567
 6713SOL    HW121038   1.403   6.767   4.613
 6713SOL    HW221039   1.501   6.892   4.578
 6714SOL     OW21040   5.604   0.768   0.264
 6714SOL    HW121041   5.610   0.686   0.207
 6714SOL    HW221042   5.693   0.786   0.306
 6715SOL     OW21043   1.141   0.401   0.121
 6715SOL    HW121044   1.237   0.392   0.146
 6715SOL    HW221045   1.133   0.455   0.037
 6716SOL     OW21046   6.721   5.046   2.444
 6716SOL    HW121047   6.765   5.097   2.371
 6716SOL    HW221048   6.729   5.098   2.530
 6717SOL     OW21049   3.826   2.998   6.544
 6717SOL    HW121050   3.857   3.064   6.612
 6717SOL    HW221051   3.732   3.021   6.516
 6718SOL     OW21052   3.285   0.088   2.024
 6718SOL    HW121053   3.240   0.143   1.953
 6718SOL    HW221054   3.273   0.131   2.113
 6719SOL     OW21055   2.367   0.800   0.142
 6719SOL    HW121056   2.268   0.788   0.151
 6719SOL    HW221057   2.413   0.751   0.215
 6720SOL     OW21058   2.154   0.344   6.040
 6720SOL    HW121059   2.164   0.321   5.943
 6720SOL    HW221060   2.078   0.409   6.051
 6721SOL     OW21061   0.374   1.510   0.721
 6721SOL    HW121062   0.365   1.582   0.653
 6721SOL    HW221063   0.321   1.430   0.691
 6722SOL     OW21064   6.284   3.428   0.673
 6722SOL    HW121065   6.235   3.377   0.603
 6722SOL    HW221066   6.261   3.392   0.763
 6723SOL     OW21067   2.035   2.131   6.824
 6723SOL    HW121068   1.968   2.204   6.833
 6723SOL    HW221069   1.993   2.054   6.775
 6724SOL     OW21070   2.126   3.778   5.831
 6724SOL    HW121071   2.061   3.740   5.766
 6724SOL    HW221072   2.214   3.732   5.821
 6725SOL     OW21073   5.720   2.963   3.493
 6725SOL    HW121074   5.761   3.027   3.558
 6725SOL    HW221075   5.622   2.981   3.487
 6726SOL     OW21076   6.845   1.072   5.355
 6726SOL    HW121077   6.781   1.125   5.300
 6726SOL    HW221078   6.904   1.018   5.294
 6727SOL     OW21079   1.012   4.690   5.848
 6727SOL    HW121080   1.008   4.685   5.948
 6727SOL    HW221081   1.099   4.653   5.816
 6728SOL     OW21082   3.809   1.864   4.015
 6728SOL    HW121083   3.751   1.846   3.936
 6728SOL    HW221084   3.822   1.963   4.024
 6729SOL     OW21085   4.987   1.574   1.114
 6729SOL    HW121086   4.972   1.564   1.015
 6729SOL    HW221087   5.071   1.627   1.129
 6730SOL     OW21088   0.967   0.872   1.547
 6730SOL    HW121089   0.932   0.880   1.640
 6730SOL    HW221090   1.024   0.952   1.526
 6731SOL     OW21091   3.593   6.553   0.135
 6731SOL    HW121092   3.547   6.634   0.172
 6731SOL    HW221093   3.539   6.517   0.059
 6732SOL     OW21094   5.905   5.361   4.563
 6732SOL    HW121095   5.978   5.315   4.512
 6732SOL    HW221096   5.841   5.293   4.599
 6733SOL     OW21097   4.068   5.081   6.612
 6733SOL    HW121098   4.150   5.079   6.556
 6733SOL    HW221099   4.091   5.111   6.705
 6734SOL     OW21100   5.184   1.258   5.035
 6734SOL    HW121101   5.179   1.247   4.936
 6734SOL    HW221102   5.215   1.173   5.077
 6735SOL     OW21103   6.180   2.939   3.498
 6735SOL    HW121104   6.131   2.927   3.412
 6735SOL    HW221105   6.147   2.873   3.565
 6736SOL     OW21106   3.159   4.203   0.965
 6736SOL    HW121107   3.175   4.202   1.063
 6736SOL    HW221108   3.158   4.110   0.930
 6737SOL     OW21109   0.946   2.884   1.073
 6737SOL    HW121110   0.944   2.981   1.096
 6737SOL    HW221111   0.972   2.831   1.155
 6738SOL     OW21112   2.393   5.647   3.047
 6738SOL    HW121113   2.430   5.726   2.998
 6738SOL    HW221114   2.371   5.574   2.982
 6739SOL     OW21115   6.717   0.329   4.544
 6739SOL    HW121116   6.746   0.278   4.624
 6739SOL    HW221117   6.618   0.323   4.534
 6740SOL     OW21118   6.726   6.574   4.399
 6740SOL    HW121119   6.756   6.653   4.347
 6740SOL    HW221120   6.712   6.496   4.337
 6741SOL     OW21121   4.470   2.251   5.707
 6741SOL    HW121122   4.467   2.209   5.616
 6741SOL    HW221123   4.565   2.270   5.732
 6742SOL     OW21124   5.374   4.760   3.681
 6742SOL    HW121125   5.424   4.682   3.719
 6742SOL    HW221126   5.287   4.729   3.643
 6743SOL     OW21127   4.012   4.150   0.739
 6743SOL    HW121128   3.943   4.223   0.740
 6743SOL    HW221129   4.081   4.169   0.809
 6744SOL     OW21130   6.791   5.391   5.842
 6744SOL    HW121131   6.693   5.405   5.853
 6744SOL    HW221132   6.816   5.299   5.872
 6745SOL     OW21133   0.019   6.591   4.259
 6745SOL    HW121134   6.983   6.591   4.342
 6745SOL    HW221135   0.014   6.500   4.216
 6746SOL     OW21136   1.630   1.055   2.909
 6746SOL    HW121137   1.607   1.090   2.818
 6746SOL    HW221138   1.546   1.048   2.964
 6747SOL     OW21139   1.401   6.353   6.632
 6747SOL    HW121140   1.478   6.393   6.683
 6747SOL    HW221141   1.323   6.340   6.694
 6748SOL     OW21142   2.128   1.974   4.148
 6748SOL    HW121143   2.042   1.925   4.130
 6748SOL    HW221144   2.131   2.057   4.093
 6749SOL     OW21145   3.550   4.649   0.936
 6749SOL    HW121146   3.544   4.630   1.034
 6749SOL    HW221147   3.513   4.740   0.917
 6750SOL     OW21148   2.960   2.262   4.561
 6750SOL    HW121149   2.981   2.318   4.482
 6750SOL    HW221150   3.045   2.242   4.611
 6751SOL     OW21151   4.035   6.903   3.545
 6751SOL    HW121152   4.035   6.820   3.601
 6751SOL    HW221153   4.125   6.915   3.503
 6752SOL     OW21154   1.634   6.073   2.879
 6752SOL    HW121155   1.555   6.135   2.875
 6752SOL    HW221156   1.668   6.056   2.786
 6753SOL     OW21157   3.853   2.901   5.076
 6753SOL    HW121158   3.830   2.948   4.991
 6753SOL    HW221159   3.888   2.809   5.055
 6754SOL     OW21160   6.243   1.519   1.116
 6754SOL    HW121161   6.315   1.513   1.185
 6754SOL    HW221162   6.172   1.581   1.148
 6755SOL     OW21163   2.740   5.046   0.268
 6755SOL    HW121164   2.762   5.081   0.177
 6755SOL    HW221165   2.800   5.089   0.336
 6756SOL     OW21166   2.499   2.068   5.552
 6756SOL    HW121167   2.499   2.051   5.454
 6756SOL    HW221168   2.428   2.013   5.596
 6757SOL     OW21169   3.594   0.736   0.442
 6757SOL    HW121170   3.503   0.777   0.454
 6757SOL    HW221171   3.591   0.641   0.471
 6758SOL     OW21172   5.856   2.793   1.233
 6758SOL    HW121173   5.851   2.722   1.162
 6758SOL    HW221174   5.782   2.780   1.299
 6759SOL     OW21175   0.422   3.305   3.309
 6759SOL    HW121176   0.519   3.312   3.287
 6759SOL    HW221177   0.405   3.345   3.399
 6760SOL     OW21178   5.206   3.007   2.898
 6760SOL    HW121179   5.190   3.045   2.807
 6760SOL    HW221180   5.211   3.082   2.964
 6761SOL     OW21181   4.726   2.145   4.514
 6761SOL    HW121182   4.745   2.161   4.611
 6761SOL    HW221183   4.655   2.075   4.505
 6762SOL     OW21184   6.419   5.541   3.635
 6762SOL    HW121185   6.437   5.455   3.587
 6762SOL    HW221186   6.326   5.539   3.672
 6763SOL     OW21187   4.678   4.904   4.922
 6763SOL    HW121188   4.759   4.930   4.976
 6763SOL    HW221189   4.685   4.945   4.832
 6764SOL     OW21190   1.440   5.810   1.854
 6764SOL    HW121191   1.399   5.766   1.934
 6764SOL    HW221192   1.535   5.779   1.844
 6765SOL     OW21193   6.330   4.668   3.295
 6765SOL    HW121194   6.420   4.691   3.257
 6765SOL    HW221195   6.341   4.605   3.371
 6766SOL     OW21196   5.217   6.401   0.836
 6766SOL    HW121197   5.239   6.480   0.779
 6766SOL    HW221198   5.142   6.350   0.794
 6767SOL     OW21199   2.848   0.859   0.425
 6767SOL    HW121200   2.775   0.924   0.445
 6767SOL    HW221201   2.824   0.770   0.462
 6768SOL     OW21202   2.075   0.891   0.606
 6768SOL    HW121203   2.081   0.971   0.547
 6768SOL    HW221204   2.120   0.813   0.563
 6769SOL     OW21205   4.001   2.566   1.140
 6769SOL    HW121206   3.947   2.563   1.056
 6769SOL    HW221207   3.945   2.602   1.215
 6770SOL     OW21208   6.754   0.552   1.816
 6770SOL    HW121209   6.849   0.537   1.841
 6770SOL    HW221210   6.694   0.503   1.880
 6771SOL     OW21211   4.317   1.981   2.616
 6771SOL    HW121212   4.304   2.028   2.703
 6771SOL    HW221213   4.235   1.928   2.594
 6772SOL     OW21214   3.051   1.515   2.600
 6772SOL    HW121215   2.968   1.509   2.656
 6772SOL    HW221216   3.067   1.428   2.554
 6773SOL     OW21217   6.873   3.723   1.532
 6773SOL    HW121218   6.841   3.736   1.626
 6773SOL    HW221219   6.923   3.637   1.525
 6774SOL     OW21220   0.582   2.862   6.453
 6774SOL    HW121221   0.507   2.925   6.474
 6774SOL    HW221222   0.584   2.789   6.521
 6775SOL     OW21223   2.851   3.987   1.121
 6775SOL    HW121224   2.798   3.994   1.036
 6775SOL    HW221225   2.922   3.918   1.110
 6776SOL     OW21226   5.326   4.850   0.174
 6776SOL    HW121227   5.280   4.822   0.258
 6776SOL    HW221228   5.360   4.769   0.126
 6777SOL     OW21229   4.371   4.929   5.969
 6777SOL    HW121230   4.390   4.973   6.058
 6777SOL    HW221231   4.456   4.918   5.918
 6778SOL     OW21232   0.606   4.108   2.598
 6778SOL    HW121233   0.646   4.074   2.683
 6778SOL    HW221234   0.613   4.208   2.596
 6779SOL     OW21235   6.882   4.330   0.258
 6779SOL    HW121236   6.964   4.388   0.259
 6779SOL    HW221237   6.809   4.375   0.309
 6780SOL     OW21238   0.243   2.162   2.994
 6780SOL    HW121239   0.158   2.142   3.042
 6780SOL    HW221240   0.283   2.076   2.961
 6781SOL     OW21241   5.407   6.561   5.843
 6781SOL    HW121242   5.396   6.521   5.752
 6781SOL    HW221243   5.503   6.559   5.870
 6782SOL     OW21244   0.414   1.266   2.240
 6782SOL    HW121245   0.388   1.170   2.239
 6782SOL    HW221246   0.513   1.273   2.252
 6783SOL     OW21247   0.016   6.416   5.844
 6783SOL    HW121248   6.948   6.381   5.876
 6783SOL    HW221249   0.086   6.345   5.856
 6784SOL     OW21250   3.804   4.236   0.004
 6784SOL    HW121251   3.823   4.231   0.102
 6784SOL    HW221252   3.848   4.159   6.978
 6785SOL     OW21253   6.084   5.490   1.759
 6785SOL    HW121254   6.052   5.513   1.667
 6785SOL    HW221255   6.030   5.540   1.826
 6786SOL     OW21256   1.766   2.315   6.673
 6786SOL    HW121257   1.752   2.298   6.576
 6786SOL    HW221258   1.787   2.412   6.687
 6787SOL     OW21259   1.489   3.586   0.891
 6787SOL    HW121260   1.487   3.491   0.861
 6787SOL    HW221261   1.574   3.629   0.859
 6788SOL     OW21262   2.728   3.896   1.688
 6788SOL    HW121263   2.776   3.850   1.762
 6788SOL    HW221264   2.630   3.878   1.696
 6789SOL     OW21265   0.252   6.836   2.614
 6789SOL    HW121266   0.199   6.783   2.547
 6789SOL    HW221267   0.341   6.859   2.574
 6790SOL     OW21268   2.277   3.177   0.107
 6790SOL    HW121269   2.235   3.101   0.057
 6790SOL    HW221270   2.326   3.236   0.043
 6791SOL     OW21271   4.655   2.482   0.107
 6791SOL    HW121272   4.567   2.529   0.113
 6791SOL    HW221273   4.699   2.484   0.197
 6792SOL     OW21274   6.728   5.981   6.551
 6792SOL    HW121275   6.731   6.062   6.609
 6792SOL    HW221276   6.669   5.999   6.472
 6793SOL     OW21277   0.970   2.212   0.130
 6793SOL    HW121278   1.065   2.192   0.154
 6793SOL    HW221279   0.966   2.300   0.082
 6794SOL     OW21280   5.192   0.959   4.183
 6794SOL    HW121281   5.147   0.872   4.204
 6794SOL    HW221282   5.141   1.007   4.111
 6795SOL     OW21283   2.821   5.583   0.846
 6795SOL    HW121284   2.747   5.635   0.804
 6795SOL    HW221285   2.793   5.555   0.938
 6796SOL     OW21286   5.711   1.246   2.266
 6796SOL    HW121287   5.678   1.340   2.266
 6796SOL    HW221288   5.803   1.243   2.305
 6797SOL     OW21289   5.385   3.483   1.869
 6797SOL    HW121290   5.483   3.483   1.852
 6797SOL    HW221291   5.344   3.403   1.825
 6798SOL     OW21292   5.678   5.199   3.333
 6798SOL    HW121293   5.721   5.113   3.305
 6798SOL    HW221294   5.584   5.182   3.361
 6799SOL     OW21295   5.208   5.525   0.284
 6799SOL    HW121296   5.192   5.581   0.365
 6799SOL    HW221297   5.256   5.580   0.215
 6800SOL     OW21298   1.579   4.176   0.982
 6800SOL    HW121299   1.583   4.101   1.049
 6800SOL    HW221300   1.637   4.251   1.012
 6801SOL     OW21301   1.205   1.956   2.083
 6801SOL    HW121302   1.198   1.942   2.182
 6801SOL    HW221303   1.131   1.908   2.037
 6802SOL     OW21304   2.137   5.761   0.899
 6802SOL    HW121305   2.183   5.751   0.987
 6802SOL    HW221306   2.081   5.679   0.882
 6803SOL     OW21307   5.040   2.011   6.399
 6803SOL    HW121308   4.956   1.959   6.416
 6803SOL    HW221309   5.103   1.999   6.476
 6804SOL     OW21310   1.970   6.016   3.264
 6804SOL    HW121311   1.894   6.011   3.200
 6804SOL    HW221312   2.047   6.065   3.222
 6805SOL     OW21313   5.404   6.916   4.840
 6805SOL    HW121314   5.339   6.980   4.799
 6805SOL    HW221315   5.383   6.823   4.809
 6806SOL     OW21316   4.875   1.309   4.325
 6806SOL    HW121317   4.880   1.215   4.359
 6806SOL    HW221318   4.809   1.361   4.379
 6807SOL     OW21319   2.751   3.232   0.088
 6807SOL    HW121320   2.780   3.326   0.071
 6807SOL    HW221321   2.825   3.182   0.133
 6808SOL     OW21322   0.567   2.812   4.739
 6808SOL    HW121323   0.521   2.724   4.749
 6808SOL    HW221324   0.571   2.858   4.828
 6809SOL     OW21325   1.210   4.791   6.951
 6809SOL    HW121326   1.284   4.787   6.883
 6809SOL    HW221327   1.225   4.722   0.001
 6810SOL     OW21328   0.877   0.875   2.236
 6810SOL    HW121329   0.818   0.826   2.301
 6810SOL    HW221330   0.967   0.833   2.235
 6811SOL     OW21331   6.153   4.441   0.830
 6811SOL    HW121332   6.170   4.354   0.876
 6811SOL    HW221333   6.059   4.442   0.795
 6812SOL     OW21334   4.049   3.817   3.064
 6812SOL    HW121335   4.014   3.807   3.157
 6812SOL    HW221336   4.004   3.894   3.019
 6813SOL     OW21337   4.962   1.829   1.504
 6813SOL    HW121338   4.907   1.762   1.455
 6813SOL    HW221339   4.903   1.905   1.532
 6814SOL     OW21340   3.227   2.756   1.197
 6814SOL    HW121341   3.286   2.777   1.275
 6814SOL    HW221342   3.284   2.737   1.117
 6815SOL     OW21343   3.033   6.959   1.798
 6815SOL    HW121344   2.935   6.940   1.798
 6815SOL    HW221345   3.048   0.035   1.774
 6816SOL     OW21346   6.515   5.170   6.906
 6816SOL    HW121347   6.455   5.249   6.918
 6816SOL    HW221348   6.578   5.187   6.830
 6817SOL     OW21349   6.254   1.435   5.227
 6817SOL    HW121350   6.349   1.405   5.215
 6817SOL    HW221351   6.239   1.519   5.175
 6818SOL     OW21352   3.265   6.564   2.004
 6818SOL    HW121353   3.283   6.655   1.967
 6818SOL    HW221354   3.168   6.541   1.991
 6819SOL     OW21355   3.054   0.614   3.572
 6819SOL    HW121356   3.127   0.664   3.619
 6819SOL    HW221357   3.061   0.629   3.473
 6820SOL     OW21358   0.976   4.732   3.760
 6820SOL    HW121359   0.898   4.671   3.757
 6820SOL    HW221360   0.983   4.773   3.851
 6821SOL     OW21361   2.349   2.331   5.133
 6821SOL    HW121362   2.426   2.292   5.184
 6821SOL    HW221363   2.382   2.401   5.070
 6822SOL     OW21364   5.724   1.400   6.054
 6822SOL    HW121365   5.708   1.454   6.136
 6822SOL    HW221366   5.669   1.436   5.979
 6823SOL     OW21367   3.523   3.509   3.496
 6823SOL    HW121368   3.556   3.486   3.588
 6823SOL    HW221369   3.449   3.447   3.471
 6824SOL     OW21370   0.374   3.492   6.438
 6824SOL    HW121371   0.445   3.429   6.469
 6824SOL    HW221372   0.348   3.469   6.344
 6825SOL     OW21373   5.150   0.257   2.418
 6825SOL    HW121374   5.221   0.266   2.487
 6825SOL    HW221375   5.096   0.341   2.414
 6826SOL     OW21376   2.117   3.638   2.437
 6826SOL    HW121377   2.063   3.609   2.515
 6826SOL    HW221378   2.114   3.566   2.367
 6827SOL     OW21379   4.666   5.846   6.911
 6827SOL    HW121380   4.656   5.940   6.944
 6827SOL    HW221381   4.702   5.848   6.817
 6828SOL     OW21382   1.540   1.946   1.681
 6828SOL    HW121383   1.551   1.962   1.779
 6828SOL    HW221384   1.442   1.945   1.658
 6829SOL     OW21385   5.248   6.570   3.639
 6829SOL    HW121386   5.186   6.543   3.713
 6829SOL    HW221387   5.303   6.491   3.611
 6830SOL     OW21388   5.686   1.251   3.210
 6830SOL    HW121389   5.629   1.216   3.135
 6830SOL    HW221390   5.633   1.249   3.295
 6831SOL     OW21391   0.703   0.939   6.264
 6831SOL    HW121392   0.672   0.988   6.182
 6831SOL    HW221393   0.681   0.993   6.345
 6832SOL     OW21394   2.981   4.545   1.580
 6832SOL    HW121395   2.963   4.516   1.674
 6832SOL    HW221396   2.927   4.489   1.517
 6833SOL     OW21397   3.863   5.287   6.997
 6833SOL    HW121398   3.778   5.235   6.986
 6833SOL    HW221399   3.940   5.225   7.010
 6834SOL     OW21400   4.896   6.857   1.550
 6834SOL    HW121401   4.802   6.848   1.516
 6834SOL    HW221402   4.958   6.869   1.472
 6835SOL     OW21403   3.914   0.415   4.654
 6835SOL    HW121404   3.872   0.352   4.719
 6835SOL    HW221405   3.939   0.500   4.701
 6836SOL     OW21406   2.957   6.555   0.636
 6836SOL    HW121407   2.906   6.547   0.550
 6836SOL    HW221408   2.985   6.650   0.650
 6837SOL     OW21409   1.715   3.369   1.860
 6837SOL    HW121410   1.774   3.426   1.803
 6837SOL    HW221411   1.766   3.289   1.891
 6838SOL     OW21412   2.611   0.987   0.464
 6838SOL    HW121413   2.552   1.039   0.525
 6838SOL    HW221414   2.572   0.897   0.447
 6839SOL     OW21415   4.551   0.898   0.972
 6839SOL    HW121416   4.623   0.849   0.924
 6839SOL    HW221417   4.540   0.989   0.932
 6840SOL     OW21418   2.647   1.420   6.210
 6840SOL    HW121419   2.744   1.427   6.189
 6840SOL    HW221420   2.612   1.510   6.239
 6841SOL     OW21421   6.108   3.464   5.921
 6841SOL    HW121422   6.132   3.382   5.973
 6841SOL    HW221423   6.009   3.476   5.920
 6842SOL     OW21424   1.633   5.332   1.587
 6842SOL    HW121425   1.689   5.249   1.585
 6842SOL    HW221426   1.539   5.310   1.560
 6843SOL     OW21427   5.289   6.789   6.592
 6843SOL    HW121428   5.289   6.718   6.522
 6843SOL    HW221429   5.206   6.845   6.583
 6844SOL     OW21430   5.029   0.800   3.713
 6844SOL    HW121431   5.126   0.796   3.736
 6844SOL    HW221432   4.974   0.792   3.796
 6845SOL     OW21433   4.714   2.827   3.100
 6845SOL    HW121434   4.773   2.773   3.040
 6845SOL    HW221435   4.662   2.766   3.160
 6846SOL     OW21436   2.889   4.483   0.457
 6846SOL    HW121437   2.892   4.404   0.519
 6846SOL    HW221438   2.976   4.493   0.410
 6847SOL     OW21439   6.038   4.053   4.722
 6847SOL    HW121440   6.023   4.096   4.811
 6847SOL    HW221441   6.135   4.057   4.699
 6848SOL     OW21442   5.216   4.217   4.169
 6848SOL    HW121443   5.140   4.223   4.233
 6848SOL    HW221444   5.279   4.145   4.198
 6849SOL     OW21445   3.754   3.972   6.254
 6849SOL    HW121446   3.799   3.968   6.165
 6849SOL    HW221447   3.821   3.996   6.325
 6850SOL     OW21448   4.465   2.383   3.363
 6850SOL    HW121449   4.490   2.292   3.397
 6850SOL    HW221450   4.386   2.418   3.414
 6851SOL     OW21451   1.875   2.777   2.400
 6851SOL    HW121452   1.868   2.877   2.405
 6851SOL    HW221453   1.971   2.751   2.407
 6852SOL     OW21454   2.286   5.464   0.964
 6852SOL    HW121455   2.334   5.396   0.908
 6852SOL    HW221456   2.346   5.541   0.981
 6853SOL     OW21457   5.499   3.518   6.498
 6853SOL    HW121458   5.511   3.425   6.531
 6853SOL    HW221459   5.527   3.582   6.570
 6854SOL     OW21460   5.075   6.499   5.944
 6854SOL    HW121461   5.076   6.565   5.869
 6854SOL    HW221462   5.148   6.521   6.008
 6855SOL     OW21463   3.672   5.348   3.576
 6855SOL    HW121464   3.724   5.363   3.660
 6855SOL    HW221465   3.732   5.309   3.506
 6856SOL     OW21466   0.789   2.619   6.263
 6856SOL    HW121467   0.825   2.527   6.248
 6856SOL    HW221468   0.735   2.647   6.184
 6857SOL     OW21469   1.427   3.410   6.644
 6857SOL    HW121470   1.339   3.362   6.639
 6857SOL    HW221471   1.452   3.445   6.554
 6858SOL     OW21472   3.284   4.127   1.668
 6858SOL    HW121473   3.185   4.118   1.680
 6858SOL    HW221474   3.306   4.219   1.637
 6859SOL     OW21475   0.716   1.307   2.024
 6859SOL    HW121476   0.781   1.232   2.034
 6859SOL    HW221477   0.664   1.295   1.939
 6860SOL     OW21478   6.957   5.383   1.872
 6860SOL    HW121479   6.878   5.412   1.817
 6860SOL    HW221480   0.008   5.348   1.811
 6861SOL     OW21481   5.104   3.176   5.359
 6861SOL    HW121482   5.021   3.232   5.353
 6861SOL    HW221483   5.080   3.080   5.349
 6862SOL     OW21484   0.379   4.404   6.395
 6862SOL    HW121485   0.371   4.308   6.422
 6862SOL    HW221486   0.424   4.409   6.306
 6863SOL     OW21487   6.868   6.473   4.928
 6863SOL    HW121488   6.958   6.483   4.886
 6863SOL    HW221489   6.877   6.475   5.028
 6864SOL     OW21490   1.637   3.923   5.638
 6864SOL    HW121491   1.688   3.988   5.581
 6864SOL    HW221492   1.558   3.890   5.586
 6865SOL     OW21493   1.285   0.089   4.424
 6865SOL    HW121494   1.191   0.057   4.431
 6865SOL    HW221495   1.288   0.189   4.425
 6866SOL     OW21496   6.823   4.427   2.080
 6866SOL    HW121497   6.726   4.432   2.103
 6866SOL    HW221498   6.866   4.352   2.130
 6867SOL     OW21499   2.163   3.359   0.703
 6867SOL    HW121500   2.176   3.263   0.679
 6867SOL    HW221501   2.119   3.407   0.627
 6868SOL     OW21502   2.120   5.383   4.862
 6868SOL    HW121503   2.202   5.389   4.804
 6868SOL    HW221504   2.145   5.345   4.951
 6869SOL     OW21505   3.505   6.918   5.762
 6869SOL    HW121506   3.564   6.969   5.699
 6869SOL    HW221507   3.480   6.830   5.721
 6870SOL     OW21508   0.006   2.760   0.658
 6870SOL    HW121509   0.099   2.725   0.650
 6870SOL    HW221510   7.018   2.845   0.608
 6871SOL     OW21511   6.844   3.827   2.500
 6871SOL    HW121512   6.782   3.818   2.578
 6871SOL    HW221513   6.862   3.736   2.461
 6872SOL     OW21514   1.174   2.676   1.902
 6872SOL    HW121515   1.164   2.658   1.804
 6872SOL    HW221516   1.219   2.764   1.916
 6873SOL     OW21517   1.147   4.236   4.772
 6873SOL    HW121518   1.223   4.301   4.779
 6873SOL    HW221519   1.145   4.196   4.680
 6874SOL     OW21520   5.816   5.674   2.987
 6874SOL    HW121521   5.785   5.765   3.014
 6874SOL    HW221522   5.758   5.640   2.913
 6875SOL     OW21523   1.649   2.532   0.926
 6875SOL    HW121524   1.589   2.517   0.848
 6875SOL    HW221525   1.730   2.581   0.897
 6876SOL     OW21526   3.878   6.456   3.120
 6876SOL    HW121527   3.856   6.360   3.103
 6876SOL    HW221528   3.847   6.482   3.212
 6877SOL     OW21529   2.335   4.235   2.002
 6877SOL    HW121530   2.374   4.301   2.067
 6877SOL    HW221531   2.252   4.195   2.041
 6878SOL     OW21532   2.140   0.836   3.825
 6878SOL    HW121533   2.055   0.804   3.784
 6878SOL    HW221534   2.161   0.928   3.791
 6879SOL     OW21535   2.005   2.280   0.803
 6879SOL    HW121536   2.050   2.359   0.759
 6879SOL    HW221537   1.981   2.213   0.733
 6880SOL     OW21538   1.914   5.665   6.431
 6880SOL    HW121539   1.954   5.667   6.340
 6880SOL    HW221540   1.866   5.752   6.448
 6881SOL     OW21541   1.909   3.615   0.032
 6881SOL    HW121542   1.886   3.709   0.011
 6881SOL    HW221543   1.955   3.573   6.973
 6882SOL     OW21544   3.028   6.823   0.726
 6882SOL    HW121545   3.060   6.840   0.820
 6882SOL    HW221546   3.101   6.846   0.662
 6883SOL     OW21547   5.028   0.417   6.285
 6883SOL    HW121548   5.030   0.345   6.353
 6883SOL    HW221549   4.942   0.412   6.233
 6884SOL     OW21550   2.067   3.733   2.967
 6884SOL    HW121551   1.981   3.683   2.958
 6884SOL    HW221552   2.069   3.808   2.900
 6885SOL     OW21553   4.788   5.384   3.462
 6885SOL    HW121554   4.724   5.313   3.489
 6885SOL    HW221555   4.786   5.395   3.362
 6886SOL     OW21556   5.046   1.075   5.879
 6886SOL    HW121557   5.063   1.123   5.965
 6886SOL    HW221558   4.957   1.103   5.843
 6887SOL     OW21559   5.086   6.497   6.626
 6887SOL    HW121560   5.042   6.468   6.540
 6887SOL    HW221561   5.185   6.490   6.616
 6888SOL     OW21562   5.652   4.735   6.644
 6888SOL    HW121563   5.552   4.737   6.640
 6888SOL    HW221564   5.689   4.721   6.552
 6889SOL     OW21565   0.966   2.681   5.683
 6889SOL    HW121566   0.924   2.736   5.611
 6889SOL    HW221567   1.000   2.742   5.755
 6890SOL     OW21568   3.544   5.232   2.713
 6890SOL    HW121569   3.459   5.186   2.737
 6890SOL    HW221570   3.595   5.254   2.796
 6891SOL     OW21571   2.211   2.673   0.839
 6891SOL    HW121572   2.150   2.610   0.887
 6891SOL    HW221573   2.279   2.709   0.903
 6892SOL     OW21574   3.363   1.229   4.093
 6892SOL    HW121575   3.326   1.282   4.170
 6892SOL    HW221576   3.456   1.199   4.115
 6893SOL     OW21577   6.177   3.097   6.798
 6893SOL    HW121578   6.169   2.998   6.791
 6893SOL    HW221579   6.149   3.126   6.890
 6894SOL     OW21580   5.655   4.810   1.223
 6894SOL    HW121581   5.567   4.838   1.261
 6894SOL    HW221582   5.711   4.771   1.295
 6895SOL     OW21583   1.487   6.075   1.132
 6895SOL    HW121584   1.579   6.046   1.157
 6895SOL    HW221585   1.435   6.095   1.214
 6896SOL     OW21586   3.726   2.085   4.363
 6896SOL    HW121587   3.677   2.034   4.433
 6896SOL    HW221588   3.807   2.128   4.403
 6897SOL     OW21589   4.712   3.802   5.296
 6897SOL    HW121590   4.720   3.706   5.269
 6897SOL    HW221591   4.753   3.859   5.226
 6898SOL     OW21592   2.764   1.391   1.419
 6898SOL    HW121593   2.818   1.445   1.483
 6898SOL    HW221594   2.773   1.294   1.442
 6899SOL     OW21595   6.427   5.835   2.502
 6899SOL    HW121596   6.427   5.736   2.511
 6899SOL    HW221597   6.436   5.859   2.405
 6900SOL     OW21598   6.635   4.314   6.274
 6900SOL    HW121599   6.540   4.321   6.303
 6900SOL    HW221600   6.695   4.339   6.350
 6901SOL     OW21601   4.658   4.943   6.672
 6901SOL    HW121602   4.721   4.880   6.717
 6901SOL    HW221603   4.707   5.028   6.650
 6902SOL     OW21604   0.193   5.959   6.002
 6902SOL    HW121605   0.120   5.992   6.060
 6902SOL    HW221606   0.154   5.909   5.924
 6903SOL     OW21607   3.117   5.185   5.112
 6903SOL    HW121608   3.051   5.110   5.113
 6903SOL    HW221609   3.089   5.255   5.046
 6904SOL     OW21610   0.369   5.703   4.834
 6904SOL    HW121611   0.360   5.636   4.760
 6904SOL    HW221612   0.292   5.694   4.897
 6905SOL     OW21613   5.459   5.494   6.037
 6905SOL    HW121614   5.394   5.425   6.068
 6905SOL    HW221615   5.413   5.582   6.029
 6906SOL     OW21616   3.903   1.098   3.590
 6906SOL    HW121617   4.001   1.101   3.570
 6906SOL    HW221618   3.889   1.102   3.689
 6907SOL     OW21619   6.399   1.798   1.283
 6907SOL    HW121620   6.327   1.846   1.335
 6907SOL    HW221621   6.455   1.745   1.346
 6908SOL     OW21622   2.554   4.358   6.870
 6908SOL    HW121623   2.584   4.284   6.809
 6908SOL    HW221624   2.631   4.391   6.924
 6909SOL     OW21625   5.608   5.177   1.874
 6909SOL    HW121626   5.512   5.202   1.861
 6909SOL    HW221627   5.667   5.252   1.844
 6910SOL     OW21628   1.616   2.781   2.606
 6910SOL    HW121629   1.523   2.755   2.582
 6910SOL    HW221630   1.679   2.747   2.535
 6911SOL     OW21631   3.341   0.133   5.563
 6911SOL    HW121632   3.296   0.059   5.613
 6911SOL    HW221633   3.402   0.093   5.493
 6912SOL     OW21634   1.980   3.459   6.835
 6912SOL    HW121635   2.059   3.452   6.774
 6912SOL    HW221636   1.934   3.371   6.840
 6913SOL     OW21637   4.658   5.867   5.840
 6913SOL    HW121638   4.572   5.863   5.790
 6913SOL    HW221639   4.639   5.873   5.938
 6914SOL     OW21640   6.213   3.379   1.826
 6914SOL    HW121641   6.306   3.371   1.790
 6914SOL    HW221642   6.180   3.288   1.854
 6915SOL     OW21643   0.926   3.624   2.240
 6915SOL    HW121644   0.956   3.640   2.146
 6915SOL    HW221645   0.842   3.675   2.257
 6916SOL     OW21646   4.663   0.038   6.045
 6916SOL    HW121647   4.643   0.004   5.953
 6916SOL    HW221648   4.761   0.035   6.061
 6917SOL     OW21649   5.212   5.467   1.509
 6917SOL    HW121650   5.124   5.420   1.501
 6917SOL    HW221651   5.259   5.465   1.421
 6918SOL     OW21652   0.950   3.199   1.709
 6918SOL    HW121653   0.928   3.132   1.637
 6918SOL    HW221654   0.902   3.174   1.793
 6919SOL     OW21655   6.211   6.653   2.678
 6919SOL    HW121656   6.176   6.744   2.701
 6919SOL    HW221657   6.137   6.586   2.682
 6920SOL     OW21658   4.508   0.497   5.386
 6920SOL    HW121659   4.464   0.583   5.410
 6920SOL    HW221660   4.439   0.429   5.363
 6921SOL     OW21661   3.312   0.515   4.557
 6921SOL    HW121662   3.406   0.498   4.586
 6921SOL    HW221663   3.298   0.476   4.466
 6922SOL     OW21664   1.589   5.987   4.963
 6922SOL    HW121665   1.623   6.053   5.029
 6922SOL    HW221666   1.574   6.032   4.875
 6923SOL     OW21667   6.381   6.894   2.222
 6923SOL    HW121668   6.345   6.870   2.312
 6923SOL    HW221669   6.467   6.944   2.233
 6924SOL     OW21670   3.735   6.529   0.577
 6924SOL    HW121671   3.738   6.456   0.509
 6924SOL    HW221672   3.828   6.563   0.594
 6925SOL     OW21673   5.488   6.243   6.751
 6925SOL    HW121674   5.409   6.191   6.785
 6925SOL    HW221675   5.572   6.190   6.766
 6926SOL     OW21676   2.871   1.584   0.808
 6926SOL    HW121677   2.850   1.493   0.773
 6926SOL    HW221678   2.968   1.604   0.793
 6927SOL     OW21679   3.861   0.719   0.383
 6927SOL    HW121680   3.919   0.800   0.378
 6927SOL    HW221681   3.766   0.746   0.392
 6928SOL     OW21682   5.034   5.291   0.641
 6928SOL    HW121683   4.968   5.288   0.716
 6928SOL    HW221684   5.117   5.338   0.671
 6929SOL     OW21685   5.338   5.016   1.567
 6929SOL    HW121686   5.381   5.105   1.585
 6929SOL    HW221687   5.376   4.948   1.630
 6930SOL     OW21688   0.466   1.201   0.252
 6930SOL    HW121689   0.555   1.163   0.276
 6930SOL    HW221690   0.453   1.196   0.153
 6931SOL     OW21691   2.399   2.434   1.501
 6931SOL    HW121692   2.346   2.443   1.417
 6931SOL    HW221693   2.448   2.519   1.520
 6932SOL     OW21694   5.056   5.539   0.047
 6932SOL    HW121695   4.965   5.499   0.041
 6932SOL    HW221696   5.100   5.512   0.133
 6933SOL     OW21697   3.201   5.653   6.443
 6933SOL    HW121698   3.228   5.565   6.482
 6933SOL    HW221699   3.186   5.719   6.516
 6934SOL     OW21700   5.117   4.131   6.478
 6934SOL    HW121701   5.216   4.118   6.484
 6934SOL    HW221702   5.076   4.116   6.568
 6935SOL     OW21703   5.800   5.444   2.088
 6935SOL    HW121704   5.745   5.528   2.085
 6935SOL    HW221705   5.771   5.388   2.165
 6936SOL     OW21706   1.073   1.514   4.840
 6936SOL    HW121707   1.032   1.426   4.866
 6936SOL    HW221708   1.070   1.524   4.741
 6937SOL     OW21709   5.574   5.674   0.243
 6937SOL    HW121710   5.600   5.769   0.227
 6937SOL    HW221711   5.548   5.662   0.339
 6938SOL     OW21712   0.346   0.881   4.641
 6938SOL    HW121713   0.395   0.867   4.727
 6938SOL    HW221714   0.265   0.937   4.657
 6939SOL     OW21715   6.345   4.498   3.587
 6939SOL    HW121716   6.418   4.434   3.566
 6939SOL    HW221717   6.384   4.580   3.628
 6940SOL     OW21718   4.582   6.765   0.741
 6940SOL    HW121719   4.620   6.770   0.649
 6940SOL    HW221720   4.537   6.852   0.763
 6941SOL     OW21721   2.866   3.499   3.075
 6941SOL    HW121722   2.922   3.572   3.037
 6941SOL    HW221723   2.900   3.411   3.044
 6942SOL     OW21724   6.530   6.106   1.918
 6942SOL    HW121725   6.543   6.159   1.834
 6942SOL    HW221726   6.432   6.105   1.942
 6943SOL     OW21727   4.070   4.607   0.078
 6943SOL    HW121728   4.021   4.634   0.161
 6943SOL    HW221729   4.074   4.684   0.015
 6944SOL     OW21730   1.175   3.850   5.651
 6944SOL    HW121731   1.222   3.778   5.600
 6944SOL    HW221732   1.078   3.829   5.658
 6945SOL     OW21733   5.703   2.989   0.538
 6945SOL    HW121734   5.618   2.951   0.574
 6945SOL    HW221735   5.725   2.946   0.451
 6946SOL     OW21736   3.957   6.072   1.953
 6946SOL    HW121737   4.016   6.118   2.019
 6946SOL    HW221738   3.973   5.973   1.957
 6947SOL     OW21739   5.053   4.907   5.801
 6947SOL    HW121740   5.003   4.919   5.715
 6947SOL    HW221741   5.132   4.847   5.785
 6948SOL     OW21742   0.281   5.591   0.887
 6948SOL    HW121743   0.249   5.606   0.981
 6948SOL    HW221744   0.235   5.656   0.826
 6949SOL     OW21745   2.869   2.328   3.585
 6949SOL    HW121746   2.880   2.330   3.684
 6949SOL    HW221747   2.898   2.239   3.550
 6950SOL     OW21748   0.822   6.661   4.560
 6950SOL    HW121749   0.793   6.684   4.467
 6950SOL    HW221750   0.754   6.696   4.625
 6951SOL     OW21751   6.907   5.072   6.851
 6951SOL    HW121752   6.934   4.977   6.864
 6951SOL    HW221753   6.981   5.122   6.807
 6952SOL     OW21754   3.301   4.902   2.640
 6952SOL    HW121755   3.308   4.963   2.719
 6952SOL    HW221756   3.392   4.870   2.613
 6953SOL     OW21757   5.688   0.536   0.864
 6953SOL    HW121758   5.643   0.580   0.786
 6953SOL    HW221759   5.622   0.526   0.939
 6954SOL     OW21760   0.099   3.734   0.688
 6954SOL    HW121761   0.138   3.790   0.616
 6954SOL    HW221762   7.019   3.734   0.680
 6955SOL     OW21763   4.952   0.063   2.553
 6955SOL    HW121764   5.017   0.064   2.629
 6955SOL    HW221765   4.967   0.143   2.495
 6956SOL     OW21766   5.735   5.729   2.111
 6956SOL    HW121767   5.689   5.818   2.107
 6956SOL    HW221768   5.800   5.728   2.186
 6957SOL     OW21769   5.490   5.378   6.333
 6957SOL    HW121770   5.466   5.332   6.418
 6957SOL    HW221771   5.560   5.325   6.285
 6958SOL     OW21772   3.552   2.858   3.705
 6958SOL    HW121773   3.607   2.808   3.637
 6958SOL    HW221774   3.596   2.850   3.794
 6959SOL     OW21775   1.506   4.426   3.001
 6959SOL    HW121776   1.427   4.405   3.059
 6959SOL    HW221777   1.565   4.345   2.994
 6960SOL     OW21778   2.148   4.535   0.461
 6960SOL    HW121779   2.191   4.513   0.549
 6960SOL    HW221780   2.109   4.453   0.421
 6961SOL     OW21781   4.036   1.772   5.101
 6961SOL    HW121782   4.128   1.799   5.072
 6961SOL    HW221783   4.042   1.699   5.170
 6962SOL     OW21784   3.527   6.742   6.291
 6962SOL    HW121785   3.617   6.698   6.294
 6962SOL    HW221786   3.456   6.673   6.299
 6963SOL     OW21787   5.047   6.465   1.202
 6963SOL    HW121788   4.988   6.511   1.269
 6963SOL    HW221789   5.057   6.523   1.122
 6964SOL     OW21790   2.363   0.025   6.166
 6964SOL    HW121791   2.406   6.998   6.243
 6964SOL    HW221792   2.360   0.123   6.185
 6965SOL     OW21793   0.701   2.236   0.355
 6965SOL    HW121794   0.614   2.219   0.310
 6965SOL    HW221795   0.776   2.220   0.290
 6966SOL     OW21796   0.805   0.435   1.958
 6966SOL    HW121797   0.799   0.532   1.934
 6966SOL    HW221798   0.881   0.421   2.021
 6967SOL     OW21799   4.085   2.088   6.309
 6967SOL    HW121800   4.058   2.140   6.229
 6967SOL    HW221801   4.127   2.001   6.280
 6968SOL     OW21802   3.617   6.947   2.746
 6968SOL    HW121803   3.552   6.888   2.794
 6968SOL    HW221804   3.628   0.013   2.797
 6969SOL     OW21805   2.272   1.924   2.043
 6969SOL    HW121806   2.255   1.887   1.952
 6969SOL    HW221807   2.369   1.947   2.053
 6970SOL     OW21808   3.499   4.467   6.067
 6970SOL    HW121809   3.561   4.519   6.009
 6970SOL    HW221810   3.450   4.399   6.012
 6971SOL     OW21811   6.349   4.562   0.657
 6971SOL    HW121812   6.439   4.528   0.682
 6971SOL    HW221813   6.283   4.537   0.728
 6972SOL     OW21814   5.201   3.496   2.678
 6972SOL    HW121815   5.246   3.574   2.635
 6972SOL    HW221816   5.102   3.504   2.666
 6973SOL     OW21817   1.144   2.005   2.574
 6973SOL    HW121818   1.067   2.010   2.510
 6973SOL    HW221819   1.223   2.050   2.533
 6974SOL     OW21820   3.218   3.869   2.760
 6974SOL    HW121821   3.311   3.894   2.732
 6974SOL    HW221822   3.174   3.816   2.688
 6975SOL     OW21823   3.175   5.533   5.010
 6975SOL    HW121824   3.258   5.577   4.975
 6975SOL    HW221825   3.178   5.531   5.110
 6976SOL     OW21826   4.723   4.497   5.540
 6976SOL    HW121827   4.715   4.402   5.572
 6976SOL    HW221828   4.818   4.527   5.549
 6977SOL     OW21829   4.190   4.671   1.954
 6977SOL    HW121830   4.250   4.602   1.913
 6977SOL    HW221831   4.115   4.692   1.890
 6978SOL     OW21832   5.616   3.202   1.725
 6978SOL    HW121833   5.639   3.212   1.628
 6978SOL    HW221834   5.647   3.282   1.775
 6979SOL     OW21835   1.563   4.123   1.432
 6979SOL    HW121836   1.512   4.205   1.459
 6979SOL    HW221837   1.624   4.097   1.507
 6980SOL     OW21838   1.333   6.915   3.202
 6980SOL    HW121839   1.415   6.894   3.149
 6980SOL    HW221840   1.253   6.905   3.144
 6981SOL     OW21841   3.609   3.648   6.933
 6981SOL    HW121842   3.651   3.580   6.993
 6981SOL    HW221843   3.604   3.736   6.981
 6982SOL     OW21844   0.805   1.478   4.197
 6982SOL    HW121845   0.718   1.502   4.154
 6982SOL    HW221846   0.837   1.553   4.254
 6983SOL     OW21847   5.166   0.650   4.098
 6983SOL    HW121848   5.176   0.551   4.098
 6983SOL    HW221849   5.113   0.679   4.018
 6984SOL     OW21850   0.803   2.609   3.087
 6984SOL    HW121851   0.718   2.559   3.069
 6984SOL    HW221852   0.800   2.646   3.179
 6985SOL     OW21853   6.646   3.929   0.017
 6985SOL    HW121854   6.715   3.862   0.045
 6985SOL    HW221855   6.629   3.921   6.939
 6986SOL     OW21856   3.970   5.218   5.809
 6986SOL    HW121857   3.922   5.136   5.839
 6986SOL    HW221858   4.062   5.219   5.847
 6987SOL     OW21859   0.401   1.812   6.438
 6987SOL    HW121860   0.360   1.723   6.420
 6987SOL    HW221861   0.441   1.847   6.353
 6988SOL     OW21862   2.851   1.139   6.292
 6988SOL    HW121863   2.751   1.139   6.298
 6988SOL    HW221864   2.883   1.049   6.261
 6989SOL     OW21865   0.247   4.565   2.359
 6989SOL    HW121866   0.301   4.481   2.348
 6989SOL    HW221867   0.279   4.616   2.438
 6990SOL     OW21868   3.694   2.896   1.851
 6990SOL    HW121869   3.616   2.847   1.891
 6990SOL    HW221870   3.753   2.930   1.924
 6991SOL     OW21871   5.874   3.892   2.630
 6991SOL    HW121872   5.859   3.839   2.547
 6991SOL    HW221873   5.786   3.917   2.670
 6992SOL     OW21874   1.386   0.446   6.660
 6992SOL    HW121875   1.448   0.522   6.642
 6992SOL    HW221876   1.330   0.428   6.579
 6993SOL     OW21877   5.443   1.158   1.830
 6993SOL    HW121878   5.371   1.220   1.802
 6993SOL    HW221879   5.428   1.129   1.924
 6994SOL     OW21880   2.002   0.216   3.835
 6994SOL    HW121881   2.074   0.168   3.785
 6994SOL    HW221882   2.040   0.253   3.920
 6995SOL     OW21883   0.462   3.344   0.539
 6995SOL    HW121884   0.413   3.395   0.468
 6995SOL    HW221885   0.553   3.382   0.550
 6996SOL     OW21886   1.608   0.845   0.484
 6996SOL    HW121887   1.624   0.937   0.449
 6996SOL    HW221888   1.679   0.823   0.551
 6997SOL     OW21889   0.030   5.056   5.226
 6997SOL    HW121890   0.109   5.116   5.237
 6997SOL    HW221891   7.018   5.026   5.316
 6998SOL     OW21892   0.377   1.293   1.373
 6998SOL    HW121893   0.390   1.351   1.293
 6998SOL    HW221894   0.443   1.320   1.444
 6999SOL     OW21895   1.086   2.820   6.838
 6999SOL    HW121896   1.151   2.896   6.842
 6999SOL    HW221897   1.078   2.788   6.744
 7000SOL     OW21898   6.545   6.953   2.658
 7000SOL    HW121899   6.553   0.026   2.621
 7000SOL    HW221900   6.636   6.919   2.681
 7001SOL     OW21901   1.158   1.736   4.429
 7001SOL    HW121902   1.139   1.772   4.338
 7001SOL    HW221903   1.230   1.790   4.472
 7002SOL     OW21904   0.811   5.600   3.564
 7002SOL    HW121905   0.715   5.629   3.555
 7002SOL    HW221906   0.869   5.664   3.515
 7003SOL     OW21907   6.026   4.106   1.471
 7003SOL    HW121908   6.063   4.083   1.561
 7003SOL    HW221909   6.007   4.022   1.420
 7004SOL     OW21910   1.661   5.746   0.171
 7004SOL    HW121911   1.707   5.676   0.117
 7004SOL    HW221912   1.569   5.715   0.196
 7005SOL     OW21913   1.685   0.584   6.908
 7005SOL    HW121914   1.623   0.657   6.881
 7005SOL    HW221915   1.675   0.507   6.844
 7006SOL     OW21916   0.171   0.217   3.794
 7006SOL    HW121917   0.226   0.155   3.739
 7006SOL    HW221918   0.123   0.281   3.734
 7007SOL     OW21919   3.801   0.820   5.994
 7007SOL    HW121920   3.763   0.749   5.935
 7007SOL    HW221921   3.805   0.906   5.944
 7008SOL     OW21922   6.532   4.359   3.422
 7008SOL    HW121923   6.626   4.371   3.391
 7008SOL    HW221924   6.514   4.262   3.437
 7009SOL     OW21925   4.681   5.945   1.886
 7009SOL    HW121926   4.585   5.944   1.859
 7009SOL    HW221927   4.690   5.913   1.980
 7010SOL     OW21928   5.215   3.987   1.802
 7010SOL    HW121929   5.233   3.918   1.871
 7010SOL    HW221930   5.206   3.943   1.712
 7011SOL     OW21931   3.965   6.754   0.270
 7011SOL    HW121932   3.919   6.808   0.199
 7011SOL    HW221933   3.965   6.805   0.356
 7012SOL     OW21934   0.853   2.357   0.950
 7012SOL    HW121935   0.824   2.394   0.862
 7012SOL    HW221936   0.790   2.388   1.022
 7013SOL     OW21937   2.758   1.906   0.010
 7013SOL    HW121938   2.757   1.946   6.938
 7013SOL    HW221939   2.725   1.973   0.076
 7014SOL     OW21940   6.443   4.011   1.624
 7014SOL    HW121941   6.416   3.924   1.666
 7014SOL    HW221942   6.410   4.087   1.680
 7015SOL     OW21943   5.277   4.943   1.899
 7015SOL    HW121944   5.351   4.972   1.838
 7015SOL    HW221945   5.274   4.843   1.903
 7016SOL     OW21946   3.320   4.849   0.783
 7016SOL    HW121947   3.315   4.948   0.775
 7016SOL    HW221948   3.282   4.820   0.870
 7017SOL     OW21949   4.386   5.170   3.890
 7017SOL    HW121950   4.359   5.240   3.824
 7017SOL    HW221951   4.305   5.116   3.917
 7018SOL     OW21952   4.696   2.811   4.345
 7018SOL    HW121953   4.639   2.875   4.396
 7018SOL    HW221954   4.703   2.725   4.395
 7019SOL     OW21955   4.970   5.265   2.240
 7019SOL    HW121956   4.987   5.167   2.255
 7019SOL    HW221957   4.872   5.281   2.231
 7020SOL     OW21958   0.813   3.373   6.946
 7020SOL    HW121959   0.901   3.327   6.946
 7020SOL    HW221960   0.741   3.306   6.965
 7021SOL     OW21961   1.289   2.540   4.501
 7021SOL    HW121962   1.309   2.613   4.567
 7021SOL    HW221963   1.200   2.557   4.459
 7022SOL     OW21964   4.132   0.886   0.714
 7022SOL    HW121965   4.070   0.960   0.688
 7022SOL    HW221966   4.091   0.831   0.786
 7023SOL     OW21967   0.556   1.790   1.875
 7023SOL    HW121968   0.514   1.725   1.812
 7023SOL    HW221969   0.586   1.743   1.957
 7024SOL     OW21970   3.822   3.529   3.657
 7024SOL    HW121971   3.775   3.443   3.677
 7024SOL    HW221972   3.833   3.539   3.558
 7025SOL     OW21973   3.219   0.127   0.422
 7025SOL    HW121974   3.155   0.119   0.498
 7025SOL    HW221975   3.280   0.205   0.438
 7026SOL     OW21976   3.158   2.283   1.443
 7026SOL    HW121977   3.115   2.212   1.388
 7026SOL    HW221978   3.186   2.358   1.384
 7027SOL     OW21979   2.476   5.359   1.711
 7027SOL    HW121980   2.447   5.273   1.669
 7027SOL    HW221981   2.453   5.359   1.808
 7028SOL     OW21982   3.068   0.488   3.817
 7028SOL    HW121983   3.010   0.522   3.742
 7028SOL    HW221984   3.136   0.557   3.840
 7029SOL     OW21985   3.133   3.628   5.299
 7029SOL    HW121986   3.202   3.626   5.372
 7029SOL    HW221987   3.155   3.560   5.230
 7030SOL     OW21988   6.678   1.589   4.728
 7030SOL    HW121989   6.776   1.576   4.747
 7030SOL    HW221990   6.667   1.623   4.635
 7031SOL     OW21991   4.309   6.085   0.772
 7031SOL    HW121992   4.389   6.096   0.714
 7031SOL    HW221993   4.284   6.174   0.812
 7032SOL     OW21994   3.604   0.022   4.452
 7032SOL    HW121995   3.558   6.957   4.479
 7032SOL    HW221996   3.579   0.094   4.516
 7033SOL     OW21997   1.378   2.355   5.439
 7033SOL    HW121998   1.412   2.299   5.364
 7033SOL    HW221999   1.396   2.452   5.419
 7034SOL     OW22000   6.687   1.772   3.255
 7034SOL    HW122001   6.778   1.731   3.252
 7034SOL    HW222002   6.629   1.732   3.184
 7035SOL     OW22003   2.062   0.307   1.234
 7035SOL    HW122004   2.107   0.251   1.303
 7035SOL    HW222005   1.981   0.260   1.199
 7036SOL     OW22006   0.139   1.284   2.205
 7036SOL    HW122007   0.237   1.283   2.189
 7036SOL    HW222008   0.097   1.355   2.149
 7037SOL     OW22009   0.668   0.108   5.782
 7037SOL    HW122010   0.746   0.126   5.841
 7037SOL    HW222011   0.684   0.023   5.731
 7038SOL     OW22012   2.214   3.802   6.355
 7038SOL    HW122013   2.206   3.823   6.258
 7038SOL    HW222014   2.155   3.863   6.407
 7039SOL     OW22015   0.820   5.695   2.909
 7039SOL    HW122016   0.752   5.675   2.839
 7039SOL    HW222017   0.908   5.656   2.883
 7040SOL     OW22018   4.216   2.095   5.587
 7040SOL    HW122019   4.184   2.144   5.506
 7040SOL    HW222020   4.314   2.079   5.580
 7041SOL     OW22021   1.306   0.912   4.047
 7041SOL    HW122022   1.317   0.970   4.128
 7041SOL    HW222023   1.218   0.931   4.004
 7042SOL     OW22024   4.601   6.094   5.198
 7042SOL    HW122025   4.562   6.070   5.110
 7042SOL    HW222026   4.695   6.126   5.186
 7043SOL     OW22027   2.652   4.630   3.041
 7043SOL    HW122028   2.587   4.681   2.984
 7043SOL    HW222029   2.745   4.646   3.008
 7044SOL     OW22030   5.378   6.203   4.211
 7044SOL    HW122031   5.463   6.205   4.263
 7044SOL    HW222032   5.378   6.276   4.144
 7045SOL     OW22033   6.359   5.712   2.205
 7045SOL    HW122034   6.319   5.628   2.241
 7045SOL    HW222035   6.378   5.701   2.107
 7046SOL     OW22036   2.902   2.300   4.296
 7046SOL    HW122037   2.815   2.258   4.324
 7046SOL    HW222038   2.890   2.344   4.207
 7047SOL     OW22039   0.591   6.868   0.499
 7047SOL    HW122040   0.580   6.854   0.598
 7047SOL    HW222041   0.569   6.962   0.476
 7048SOL     OW22042   6.754   5.210   4.796
 7048SOL    HW122043   6.759   5.225   4.895
 7048SOL    HW222044   6.772   5.297   4.749
 7049SOL     OW22045   3.618   1.367   2.007
 7049SOL    HW122046   3.556   1.400   2.078
 7049SOL    HW222047   3.705   1.416   2.013
 7050SOL     OW22048   4.063   4.608   1.181
 7050SOL    HW122049   4.141   4.562   1.139
 7050SOL    HW222050   3.989   4.616   1.115
 7051SOL     OW22051   0.411   6.441   1.039
 7051SOL    HW122052   0.443   6.483   1.124
 7051SOL    HW222053   0.488   6.425   0.978
 7052SOL     OW22054   6.054   6.954   2.690
 7052SOL    HW122055   6.049   7.013   2.610
 7052SOL    HW222056   6.022   7.004   2.770
 7053SOL     OW22057   1.516   2.834   3.258
 7053SOL    HW122058   1.586   2.777   3.215
 7053SOL    HW222059   1.478   2.786   3.337
 7054SOL     OW22060   6.496   0.238   0.627
 7054SOL    HW122061   6.564   0.169   0.602
 7054SOL    HW222062   6.444   0.264   0.545
 7055SOL     OW22063   2.420   0.987   6.948
 7055SOL    HW122064   2.411   1.081   6.917
 7055SOL    HW222065   2.422   0.984   0.028
 7056SOL     OW22066   6.899   5.418   1.332
 7056SOL    HW122067   6.922   5.358   1.256
 7056SOL    HW222068   6.799   5.431   1.335
 7057SOL     OW22069   3.217   4.997   4.748
 7057SOL    HW122070   3.314   5.007   4.724
 7057SOL    HW222071   3.210   4.958   4.840
 7058SOL     OW22072   5.357   2.284   6.246
 7058SOL    HW122073   5.438   2.226   6.247
 7058SOL    HW222074   5.376   2.370   6.293
 7059SOL     OW22075   1.866   0.951   4.450
 7059SOL    HW122076   1.816   1.022   4.401
 7059SOL    HW222077   1.837   0.948   4.545
 7060SOL     OW22078   3.143   6.934   2.367
 7060SOL    HW122079   3.234   6.926   2.325
 7060SOL    HW222080   3.152   6.978   2.456
 7061SOL     OW22081   0.408   2.001   3.239
 7061SOL    HW122082   0.313   1.980   3.217
 7061SOL    HW222083   0.462   2.005   3.155
 7062SOL     OW22084   4.327   2.059   3.447
 7062SOL    HW122085   4.420   2.082   3.476
 7062SOL    HW222086   4.331   2.022   3.354
 7063SOL     OW22087   0.388   0.363   1.978
 7063SOL    HW122088   0.469   0.307   1.963
 7063SOL    HW222089   0.402   0.454   1.938
 7064SOL     OW22090   4.715   2.001   5.470
 7064SOL    HW122091   4.782   1.934   5.500
 7064SOL    HW222092   4.734   2.029   5.376
 7065SOL     OW22093   3.462   4.236   5.402
 7065SOL    HW122094   3.373   4.268   5.369
 7065SOL    HW222095   3.516   4.202   5.325
 7066SOL     OW22096   3.801   0.707   0.075
 7066SOL    HW122097   3.768   0.720   0.169
 7066SOL    HW222098   3.723   0.701   0.013
 7067SOL     OW22099   1.980   2.984   0.004
 7067SOL    HW122100   1.938   2.947   0.087
 7067SOL    HW222101   1.945   3.076   7.007
 7068SOL     OW22102   5.009   4.226   4.357
 7068SOL    HW122103   5.003   4.308   4.414
 7068SOL    HW222104   4.955   4.153   4.399
 7069SOL     OW22105   6.134   0.261   6.040
 7069SOL    HW122106   6.091   0.198   5.975
 7069SOL    HW222107   6.073   0.338   6.057
 7070SOL     OW22108   0.325   6.722   4.723
 7070SOL    HW122109   0.308   6.771   4.637
 7070SOL    HW222110   0.414   6.749   4.759
 7071SOL     OW22111   5.181   6.451   6.895
 7071SOL    HW122112   5.147   6.425   6.805
 7071SOL    HW222113   5.145   6.542   6.920
 7072SOL     OW22114   0.698   3.797   6.397
 7072SOL    HW122115   0.631   3.757   6.460
 7072SOL    HW222116   0.656   3.808   6.307
 7073SOL     OW22117   5.124   0.967   2.844
 7073SOL    HW122118   5.109   1.055   2.888
 7073SOL    HW222119   5.180   0.980   2.762
 7074SOL     OW22120   5.892   4.346   2.886
 7074SOL    HW122121   5.908   4.289   2.805
 7074SOL    HW222122   5.810   4.315   2.933
 7075SOL     OW22123   3.367   5.106   4.511
 7075SOL    HW122124   3.412   5.188   4.477
 7075SOL    HW222125   3.346   5.045   4.435
 7076SOL     OW22126   5.797   3.604   2.969
 7076SOL    HW122127   5.720   3.541   2.961
 7076SOL    HW222128   5.777   3.672   3.039
 7077SOL     OW22129   2.408   4.952   1.263
 7077SOL    HW122130   2.456   4.949   1.351
 7077SOL    HW222131   2.414   5.044   1.225
 7078SOL     OW22132   5.284   6.720   0.780
 7078SOL    HW122133   5.264   6.710   0.683
 7078SOL    HW222134   5.204   6.694   0.834
 7079SOL     OW22135   0.833   6.868   4.227
 7079SOL    HW122136   0.869   6.819   4.147
 7079SOL    HW222137   0.751   6.918   4.201
 7080SOL     OW22138   3.714   2.031   5.450
 7080SOL    HW122139   3.801   2.033   5.402
 7080SOL    HW222140   3.641   2.004   5.387
 7081SOL     OW22141   1.542   0.838   6.865
 7081SOL    HW122142   1.625   0.861   6.916
 7081SOL    HW222143   1.489   0.921   6.846
 7082SOL     OW22144   6.635   4.194   2.628
 7082SOL    HW122145   6.694   4.241   2.563
 7082SOL    HW222146   6.691   4.145   2.695
 7083SOL     OW22147   6.680   3.347   2.384
 7083SOL    HW122148   6.641   3.406   2.455
 7083SOL    HW222149   6.695   3.400   2.301
 7084SOL     OW22150   0.965   5.922   0.310
 7084SOL    HW122151   0.990   5.997   0.249
 7084SOL    HW222152   0.866   5.912   0.313
 7085SOL     OW22153   0.569   3.108   2.506
 7085SOL    HW122154   0.546   3.013   2.528
 7085SOL    HW222155   0.555   3.165   2.587
 7086SOL     OW22156   5.520   0.750   5.405
 7086SOL    HW122157   5.554   0.843   5.389
 7086SOL    HW222158   5.597   0.687   5.407
 7087SOL     OW22159   5.296   3.238   3.711
 7087SOL    HW122160   5.243   3.211   3.791
 7087SOL    HW222161   5.238   3.291   3.649
 7088SOL     OW22162   5.686   1.951   5.181
 7088SOL    HW122163   5.612   1.931   5.245
 7088SOL    HW222164   5.726   1.866   5.148
 7089SOL     OW22165   3.716   5.385   1.798
 7089SOL    HW122166   3.688   5.303   1.848
 7089SOL    HW222167   3.654   5.460   1.821
 7090SOL     OW22168   3.914   1.919   1.383
 7090SOL    HW122169   4.010   1.913   1.408
 7090SOL    HW222170   3.903   1.980   1.305
 7091SOL     OW22171   0.301   6.864   6.817
 7091SOL    HW122172   0.396   6.863   6.786
 7091SOL    HW222173   0.298   6.877   6.916
 7092SOL     OW22174   4.722   2.330   6.550
 7092SOL    HW122175   4.631   2.301   6.523
 7092SOL    HW222176   4.736   2.426   6.524
 7093SOL     OW22177   3.135   4.365   0.728
 7093SOL    HW122178   3.082   4.301   0.673
 7093SOL    HW222179   3.177   4.317   0.805
 7094SOL     OW22180   2.125   6.592   5.784
 7094SOL    HW122181   2.084   6.556   5.868
 7094SOL    HW222182   2.053   6.623   5.722
 7095SOL     OW22183   2.870   4.358   5.646
 7095SOL    HW122184   2.827   4.443   5.676
 7095SOL    HW222185   2.923   4.375   5.563
 7096SOL     OW22186   0.175   0.818   1.025
 7096SOL    HW122187   0.191   0.822   0.927
 7096SOL    HW222188   0.257   0.850   1.073
 7097SOL     OW22189   5.007   0.664   1.539
 7097SOL    HW122190   5.010   0.715   1.625
 7097SOL    HW222191   5.018   0.727   1.462
 7098SOL     OW22192   0.552   6.944   4.641
 7098SOL    HW122193   0.629   7.005   4.654
 7098SOL    HW222194   0.547   6.879   4.716
 7099SOL     OW22195   2.808   2.316   4.049
 7099SOL    HW122196   2.728   2.376   4.049
 7099SOL    HW222197   2.836   2.299   3.954
 7100SOL     OW22198   6.523   3.518   0.847
 7100SOL    HW122199   6.589   3.592   0.858
 7100SOL    HW222200   6.432   3.551   0.871
 7101SOL     OW22201   2.255   6.454   5.333
 7101SOL    HW122202   2.277   6.374   5.277
 7101SOL    HW222203   2.254   6.428   5.430
 7102SOL     OW22204   5.530   0.541   1.086
 7102SOL    HW122205   5.580   0.477   1.144
 7102SOL    HW222206   5.525   0.630   1.132
 7103SOL     OW22207   4.843   4.659   2.923
 7103SOL    HW122208   4.887   4.618   3.003
 7103SOL    HW222209   4.765   4.603   2.896
 7104SOL     OW22210   4.940   3.741   3.591
 7104SOL    HW122211   4.989   3.804   3.532
 7104SOL    HW222212   4.954   3.767   3.687
 7105SOL     OW22213   3.171   4.068   3.723
 7105SOL    HW122214   3.137   4.100   3.812
 7105SOL    HW222215   3.250   4.009   3.737
 7106SOL     OW22216   3.229   3.085   1.315
 7106SOL    HW122217   3.156   3.022   1.287
 7106SOL    HW222218   3.226   3.096   1.414
 7107SOL     OW22219   4.130   0.608   6.958
 7107SOL    HW122220   4.134   0.536   0.008
 7107SOL    HW222221   4.191   0.683   6.983
 7108SOL     OW22222   3.035   7.007   2.664
 7108SOL    HW122223   3.078   0.009   2.751
 7108SOL    HW222224   3.063   6.915   2.635
 7109SOL     OW22225   1.762   6.835   5.805
 7109SOL    HW122226   1.803   6.861   5.893
 7109SOL    HW222227   1.762   6.736   5.796
 7110SOL     OW22228   3.500   5.939   5.053
 7110SOL    HW122229   3.505   5.966   5.149
 7110SOL    HW222230   3.497   5.839   5.048
 7111SOL     OW22231   0.246   0.659   3.795
 7111SOL    HW122232   0.295   0.576   3.768
 7111SOL    HW222233   0.308   0.719   3.846
 7112SOL     OW22234   1.890   5.190   4.486
 7112SOL    HW122235   1.942   5.240   4.416
 7112SOL    HW222236   1.834   5.120   4.443
 7113SOL     OW22237   3.293   4.860   5.219
 7113SOL    HW122238   3.345   4.936   5.181
 7113SOL    HW222239   3.204   4.855   5.175
 7114SOL     OW22240   4.488   5.182   7.009
 7114SOL    HW122241   4.451   5.272   0.013
 7114SOL    HW222242   4.578   5.193   6.967
 7115SOL     OW22243   6.316   4.529   0.238
 7115SOL    HW122244   6.222   4.540   0.270
 7115SOL    HW222245   6.377   4.585   0.294
 7116SOL     OW22246   6.659   3.405   4.469
 7116SOL    HW122247   6.714   3.409   4.552
 7116SOL    HW222248   6.677   3.319   4.421
 7117SOL     OW22249   6.063   6.867   3.235
 7117SOL    HW122250   6.103   6.932   3.299
 7117SOL    HW222251   6.087   6.774   3.262
 7118SOL     OW22252   4.088   4.270   5.602
 7118SOL    HW122253   4.114   4.328   5.524
 7118SOL    HW222254   4.007   4.218   5.578
 7119SOL     OW22255   4.271   0.053   4.824
 7119SOL    HW122256   4.252   0.123   4.892
 7119SOL    HW222257   4.369   0.031   4.825
 7120SOL     OW22258   5.057   1.215   1.119
 7120SOL    HW122259   5.155   1.208   1.135
 7120SOL    HW222260   5.021   1.294   1.169
 7121SOL     OW22261   0.898   6.010   3.098
 7121SOL    HW122262   0.818   5.978   3.048
 7121SOL    HW222263   0.888   5.987   3.195
 7122SOL     OW22264   2.753   0.367   6.284
 7122SOL    HW122265   2.809   0.358   6.201
 7122SOL    HW222266   2.684   0.437   6.269
 7123SOL     OW22267   5.357   5.261   5.834
 7123SOL    HW122268   5.371   5.358   5.813
 7123SOL    HW222269   5.432   5.229   5.893
 7124SOL     OW22270   0.802   1.983   1.707
 7124SOL    HW122271   0.866   2.046   1.663
 7124SOL    HW222272   0.763   2.027   1.788
 7125SOL     OW22273   0.962   0.327   1.134
 7125SOL    HW122274   0.993   0.421   1.117
 7125SOL    HW222275   1.041   0.266   1.138
 7126SOL     OW22276   4.335   5.861   1.443
 7126SOL    HW122277   4.313   5.934   1.379
 7126SOL    HW222278   4.428   5.874   1.478
 7127SOL     OW22279   3.092   6.448   5.473
 7127SOL    HW122280   3.178   6.497   5.490
 7127SOL    HW222281   3.091   6.414   5.379
 7128SOL     OW22282   3.910   4.276   6.352
 7128SOL    HW122283   3.940   4.181   6.359
 7128SOL    HW222284   3.856   4.288   6.268
 7129SOL     OW22285   0.384   0.035   0.807
 7129SOL    HW122286   0.312   0.049   0.739
 7129SOL    HW222287   0.432   0.121   0.823
 7130SOL     OW22288   3.522   6.461   4.224
 7130SOL    HW122289   3.513   6.395   4.149
 7130SOL    HW222290   3.447   6.527   4.220
 7131SOL     OW22291   4.009   1.182   2.293
 7131SOL    HW122292   4.059   1.229   2.221
 7131SOL    HW222293   4.073   1.142   2.359
 7132SOL     OW22294   5.271   4.113   0.326
 7132SOL    HW122295   5.218   4.050   0.383
 7132SOL    HW222296   5.353   4.067   0.293
 7133SOL     OW22297   3.539   5.854   3.474
 7133SOL    HW122298   3.453   5.814   3.441
 7133SOL    HW222299   3.589   5.785   3.527
 7134SOL     OW22300   5.662   5.332   1.295
 7134SOL    HW122301   5.698   5.376   1.212
 7134SOL    HW222302   5.712   5.247   1.311
 7135SOL     OW22303   2.241   2.988   1.717
 7135SOL    HW122304   2.230   3.080   1.755
 7135SOL    HW222305   2.179   2.978   1.639
 7136SOL     OW22306   2.828   1.380   1.904
 7136SOL    HW122307   2.762   1.412   1.835
 7136SOL    HW222308   2.779   1.347   1.984
 7137SOL     OW22309   2.760   1.908   1.606
 7137SOL    HW122310   2.730   1.999   1.633
 7137SOL    HW222311   2.713   1.881   1.521
 7138SOL     OW22312   1.441   2.332   0.579
 7138SOL    HW122313   1.442   2.431   0.588
 7138SOL    HW222314   1.363   2.294   0.630
 7139SOL     OW22315   6.113   5.915   1.336
 7139SOL    HW122316   6.159   5.848   1.395
 7139SOL    HW222317   6.165   5.927   1.252
 7140SOL     OW22318   6.588   3.259   0.798
 7140SOL    HW122319   6.555   3.351   0.817
 7140SOL    HW222320   6.511   3.197   0.786
 7141SOL     OW22321   3.909   7.012   1.527
 7141SOL    HW122322   3.883   0.062   1.593
 7141SOL    HW222323   3.874   0.017   1.437
 7142SOL     OW22324   2.906   0.417   5.005
 7142SOL    HW122325   2.881   0.323   5.029
 7142SOL    HW222326   2.989   0.443   5.054
 7143SOL     OW22327   2.309   4.623   6.880
 7143SOL    HW122328   2.339   4.619   6.785
 7143SOL    HW222329   2.333   4.537   6.926
 7144SOL     OW22330   6.417   0.349   5.023
 7144SOL    HW122331   6.422   0.436   5.072
 7144SOL    HW222332   6.471   0.355   4.939
 7145SOL     OW22333   5.005   2.269   6.487
 7145SOL    HW122334   5.023   2.172   6.502
 7145SOL    HW222335   4.910   2.289   6.509
 7146SOL     OW22336   1.775   1.184   5.327
 7146SOL    HW122337   1.717   1.217   5.252
 7146SOL    HW222338   1.735   1.101   5.366
 7147SOL     OW22339   5.733   5.404   1.823
 7147SOL    HW122340   5.770   5.427   1.913
 7147SOL    HW222341   5.742   5.484   1.763
 7148SOL     OW22342   0.124   6.293   1.181
 7148SOL    HW122343   0.040   6.312   1.232
 7148SOL    HW222344   0.180   6.375   1.178
 7149SOL     OW22345   6.397   5.031   4.129
 7149SOL    HW122346   6.439   5.035   4.219
 7149SOL    HW222347   6.371   5.123   4.099
 7150SOL     OW22348   4.262   3.575   6.896
 7150SOL    HW122349   4.242   3.629   6.979
 7150SOL    HW222350   4.330   3.623   6.841
 7151SOL     OW22351   4.002   0.832   0.969
 7151SOL    HW122352   3.959   0.833   1.059
 7151SOL    HW222353   3.993   0.921   0.926
 7152SOL     OW22354   6.888   1.599   6.508
 7152SOL    HW122355   6.791   1.575   6.512
 7152SOL    HW222356   6.932   1.549   6.434
 7153SOL     OW22357   3.858   6.307   1.202
 7153SOL    HW122358   3.936   6.338   1.256
 7153SOL    HW222359   3.789   6.267   1.262
 7154SOL     OW22360   4.182   1.651   1.772
 7154SOL    HW122361   4.191   1.630   1.675
 7154SOL    HW222362   4.102   1.709   1.786
 7155SOL     OW22363   2.390   1.276   2.423
 7155SOL    HW122364   2.477   1.315   2.393
 7155SOL    HW222365   2.317   1.343   2.410
 7156SOL     OW22366   6.165   4.192   0.113
 7156SOL    HW122367   6.258   4.224   0.132
 7156SOL    HW222368   6.161   4.153   0.021
 7157SOL     OW22369   6.090   4.569   6.786
 7157SOL    HW122370   6.102   4.661   6.748
 7157SOL    HW222371   6.153   4.556   6.863
 7158SOL     OW22372   4.893   6.821   3.875
 7158SOL    HW122373   4.917   6.825   3.972
 7158SOL    HW222374   4.794   6.832   3.865
 7159SOL     OW22375   0.612   5.940   3.458
 7159SOL    HW122376   0.663   6.005   3.514
 7159SOL    HW222377   0.611   5.851   3.503
 7160SOL     OW22378   6.307   6.504   3.052
 7160SOL    HW122379   6.219   6.496   3.006
 7160SOL    HW222380   6.310   6.441   3.130
 7161SOL     OW22381   4.077   3.453   3.716
 7161SOL    HW122382   3.986   3.474   3.681
 7161SOL    HW222383   4.143   3.519   3.680
 7162SOL     OW22384   6.832   5.170   2.238
 7162SOL    HW122385   6.842   5.263   2.204
 7162SOL    HW222386   6.851   5.105   2.165
 7163SOL     OW22387   1.166   1.291   2.174
 7163SOL    HW122388   1.253   1.332   2.201
 7163SOL    HW222389   1.125   1.244   2.252
 7164SOL     OW22390   2.031   0.831   6.542
 7164SOL    HW122391   2.080   0.793   6.463
 7164SOL    HW222392   2.051   0.929   6.549
 7165SOL     OW22393   6.090   0.777   0.384
 7165SOL    HW122394   6.101   0.746   0.290
 7165SOL    HW222395   6.151   0.726   0.444
 7166SOL     OW22396   5.908   5.954   6.075
 7166SOL    HW122397   5.912   5.960   6.175
 7166SOL    HW222398   6.000   5.944   6.038
 7167SOL     OW22399   5.659   2.385   4.818
 7167SOL    HW122400   5.587   2.317   4.829
 7167SOL    HW222401   5.627   2.473   4.854
 7168SOL     OW22402   2.746   0.742   2.111
 7168SOL    HW122403   2.820   0.778   2.054
 7168SOL    HW222404   2.714   0.814   2.173
 7169SOL     OW22405   1.507   4.420   6.359
 7169SOL    HW122406   1.586   4.462   6.314
 7169SOL    HW222407   1.487   4.470   6.443
 7170SOL     OW22408   4.043   1.261   1.674
 7170SOL    HW122409   4.139   1.248   1.697
 7170SOL    HW222410   4.033   1.340   1.613
 7171SOL     OW22411   6.685   4.437   0.398
 7171SOL    HW122412   6.589   4.422   0.423
 7171SOL    HW222413   6.734   4.475   0.476
 7172SOL     OW22414   1.117   1.387   4.188
 7172SOL    HW122415   1.020   1.373   4.169
 7172SOL    HW222416   1.133   1.484   4.210
 7173SOL     OW22417   4.777   6.049   6.033
 7173SOL    HW122418   4.702   6.064   5.969
 7173SOL    HW222419   4.858   6.017   5.984
 7174SOL     OW22420   6.114   4.882   2.015
 7174SOL    HW122421   6.172   4.964   2.020
 7174SOL    HW222422   6.065   4.881   1.928
 7175SOL     OW22423   5.456   3.786   5.955
 7175SOL    HW122424   5.372   3.839   5.970
 7175SOL    HW222425   5.438   3.715   5.887
 7176SOL     OW22426   0.504   0.729   5.542
 7176SOL    HW122427   0.595   0.692   5.561
 7176SOL    HW222428   0.440   0.655   5.523
 7177SOL     OW22429   1.618   4.773   4.163
 7177SOL    HW122430   1.653   4.721   4.241
 7177SOL    HW222431   1.693   4.797   4.102
 7178SOL     OW22432   1.617   1.024   5.468
 7178SOL    HW122433   1.603   1.069   5.556
 7178SOL    HW222434   1.631   0.926   5.482
 7179SOL     OW22435   3.676   6.100   6.536
 7179SOL    HW122436   3.667   6.031   6.464
 7179SOL    HW222437   3.771   6.102   6.568
 7180SOL     OW22438   1.341   4.100   0.894
 7180SOL    HW122439   1.431   4.123   0.929
 7180SOL    HW222440   1.292   4.183   0.869
 7181SOL     OW22441   2.233   1.365   6.091
 7181SOL    HW122442   2.142   1.334   6.067
 7181SOL    HW222443   2.251   1.453   6.047
 7182SOL     OW22444   1.284   2.839   4.274
 7182SOL    HW122445   1.210   2.867   4.213
 7182SOL    HW222446   1.331   2.760   4.235
 7183SOL     OW22447   0.417   6.391   1.746
 7183SOL    HW122448   0.433   6.449   1.825
 7183SOL    HW222449   0.476   6.418   1.671
 7184SOL     OW22450   6.507   0.185   3.336
 7184SOL    HW122451   6.534   0.179   3.240
 7184SOL    HW222452   6.409   0.205   3.343
 7185SOL     OW22453   4.973   0.771   4.817
 7185SOL    HW122454   4.988   0.867   4.841
 7185SOL    HW222455   4.922   0.765   4.731
 7186SOL     OW22456   0.191   0.029   6.474
 7186SOL    HW122457   0.151   0.107   6.426
 7186SOL    HW222458   0.248   0.062   6.549
 7187SOL     OW22459   3.117   3.050   4.339
 7187SOL    HW122460   3.127   2.976   4.406
 7187SOL    HW222461   3.035   3.034   4.284
 7188SOL     OW22462   4.102   4.328   0.134
 7188SOL    HW122463   4.105   4.285   0.044
 7188SOL    HW222464   4.098   4.427   0.124
 7189SOL     OW22465   6.195   2.486   5.813
 7189SOL    HW122466   6.171   2.573   5.857
 7189SOL    HW222467   6.190   2.412   5.881
 7190SOL     OW22468   5.704   5.505   1.061
 7190SOL    HW122469   5.674   5.460   0.977
 7190SOL    HW222470   5.680   5.602   1.057
 7191SOL     OW22471   0.410   4.293   3.567
 7191SOL    HW122472   0.317   4.270   3.538
 7191SOL    HW222473   0.461   4.209   3.584
 7192SOL     OW22474   1.495   4.558   6.664
 7192SOL    HW122475   1.559   4.507   6.721
 7192SOL    HW222476   1.468   4.642   6.712
 7193SOL     OW22477   2.272   2.541   2.434
 7193SOL    HW122478   2.219   2.581   2.359
 7193SOL    HW222479   2.286   2.610   2.505
 7194SOL     OW22480   2.828   2.539   5.778
 7194SOL    HW122481   2.839   2.507   5.873
 7194SOL    HW222482   2.750   2.601   5.773
 7195SOL     OW22483   0.067   3.603   6.309
 7195SOL    HW122484   0.128   3.529   6.279
 7195SOL    HW222485   6.994   3.584   6.278
 7196SOL     OW22486   3.002   3.627   2.099
 7196SOL    HW122487   2.951   3.684   2.035
 7196SOL    HW222488   3.098   3.621   2.069
 7197SOL     OW22489   2.375   3.674   5.826
 7197SOL    HW122490   2.393   3.576   5.838
 7197SOL    HW222491   2.456   3.718   5.786
 7198SOL     OW22492   7.000   0.886   1.523
 7198SOL    HW122493   6.985   0.929   1.434
 7198SOL    HW222494   6.988   0.954   1.595
 7199SOL     OW22495   0.875   1.093   2.070
 7199SOL    HW122496   0.868   1.009   2.123
 7199SOL    HW222497   0.970   1.107   2.042
 7200SOL     OW22498   0.996   2.386   0.416
 7200SOL    HW122499   0.999   2.288   0.433
 7200SOL    HW222500   0.975   2.434   0.501
 7201SOL     OW22501   5.889   5.696   4.096
 7201SOL    HW122502   5.958   5.726   4.163
 7201SOL    HW222503   5.804   5.675   4.143
 7202SOL     OW22504   4.684   0.497   5.670
 7202SOL    HW122505   4.734   0.576   5.706
 7202SOL    HW222506   4.633   0.524   5.588
 7203SOL     OW22507   0.302   1.642   2.023
 7203SOL    HW122508   0.299   1.741   2.006
 7203SOL    HW222509   0.398   1.611   2.023
 7204SOL     OW22510   6.824   0.683   1.323
 7204SOL    HW122511   6.822   0.759   1.389
 7204SOL    HW222512   6.856   0.601   1.368
 7205SOL     OW22513   2.225   2.207   4.927
 7205SOL    HW122514   2.156   2.136   4.937
 7205SOL    HW222515   2.263   2.230   5.016
 7206SOL     OW22516   2.020   2.530   0.972
 7206SOL    HW122517   2.013   2.441   0.925
 7206SOL    HW222518   2.003   2.517   1.070
 7207SOL     OW22519   1.576   1.744   3.750
 7207SOL    HW122520   1.548   1.649   3.763
 7207SOL    HW222521   1.625   1.753   3.663
 7208SOL     OW22522   2.714   0.492   4.178
 7208SOL    HW122523   2.672   0.517   4.265
 7208SOL    HW222524   2.712   0.570   4.116
 7209SOL     OW22525   3.098   1.451   2.245
 7209SOL    HW122526   3.157   1.370   2.239
 7209SOL    HW222527   3.081   1.486   2.153
 7210SOL     OW22528   2.553   1.308   3.132
 7210SOL    HW122529   2.541   1.246   3.055
 7210SOL    HW222530   2.611   1.264   3.201
 7211SOL     OW22531   3.370   5.513   5.352
 7211SOL    HW122532   3.434   5.586   5.374
 7211SOL    HW222533   3.400   5.465   5.269
 7212SOL     OW22534   5.925   4.607   6.083
 7212SOL    HW122535   5.876   4.681   6.036
 7212SOL    HW222536   5.970   4.549   6.015
 7213SOL     OW22537   3.803   1.108   0.922
 7213SOL    HW122538   3.833   1.155   1.005
 7213SOL    HW222539   3.733   1.163   0.877
 7214SOL     OW22540   6.917   1.471   6.992
 7214SOL    HW122541   6.853   1.491   6.918
 7214SOL    HW222542   7.004   1.517   6.975
 7215SOL     OW22543   6.471   2.750   2.768
 7215SOL    HW122544   6.435   2.732   2.859
 7215SOL    HW222545   6.530   2.675   2.739
 7216SOL     OW22546   3.027   6.011   2.913
 7216SOL    HW122547   3.094   5.937   2.908
 7216SOL    HW222548   2.964   6.004   2.836
 7217SOL     OW22549   1.224   4.156   3.350
 7217SOL    HW122550   1.249   4.213   3.272
 7217SOL    HW222551   1.269   4.067   3.341
 7218SOL     OW22552   6.071   3.851   4.384
 7218SOL    HW122553   6.157   3.841   4.333
 7218SOL    HW222554   6.061   3.946   4.415
 7219SOL     OW22555   3.717   5.996   1.775
 7219SOL    HW122556   3.786   6.056   1.816
 7219SOL    HW222557   3.660   6.049   1.712
 7220SOL     OW22558   6.174   4.837   4.168
 7220SOL    HW122559   6.170   4.743   4.202
 7220SOL    HW222560   6.265   4.874   4.181
 7221SOL     OW22561   3.506   5.741   5.394
 7221SOL    HW122562   3.504   5.841   5.387
 7221SOL    HW222563   3.598   5.712   5.419
 7222SOL     OW22564   6.667   6.920   4.202
 7222SOL    HW122565   6.747   6.887   4.151
 7222SOL    HW222566   6.594   6.944   4.138
 7223SOL     OW22567   1.222   2.227   0.680
 7223SOL    HW122568   1.157   2.185   0.617
 7223SOL    HW222569   1.177   2.303   0.728
 7224SOL     OW22570   4.245   2.295   3.547
 7224SOL    HW122571   4.265   2.206   3.507
 7224SOL    HW222572   4.151   2.295   3.582
 7225SOL     OW22573   1.506   0.076   1.070
 7225SOL    HW122574   1.464   0.002   1.123
 7225SOL    HW222575   1.452   0.094   0.988
 7226SOL     OW22576   6.084   0.004   7.012
 7226SOL    HW122577   6.164   6.994   6.961
 7226SOL    HW222578   6.001   7.001   6.960
 7227SOL     OW22579   3.164   1.083   1.975
 7227SOL    HW122580   3.253   1.126   1.961
 7227SOL    HW222581   3.100   1.114   1.904
 7228SOL     OW22582   0.777   3.031   2.353
 7228SOL    HW122583   0.714   3.079   2.413
 7228SOL    HW222584   0.727   2.991   2.276
 7229SOL     OW22585   0.017   0.231   4.807
 7229SOL    HW122586   6.944   0.241   4.773
 7229SOL    HW222587   0.072   0.180   4.740
 7230SOL     OW22588   2.248   5.141   4.187
 7230SOL    HW122589   2.169   5.203   4.191
 7230SOL    HW222590   2.279   5.122   4.280
 7231SOL     OW22591   4.772   1.482   6.814
 7231SOL    HW122592   4.720   1.547   6.869
 7231SOL    HW222593   4.720   1.459   6.732
 7232SOL     OW22594   5.865   6.592   3.089
 7232SOL    HW122595   5.810   6.642   3.023
 7232SOL    HW222596   5.853   6.631   3.180
 7233SOL     OW22597   6.276   1.043   5.273
 7233SOL    HW122598   6.285   0.949   5.241
 7233SOL    HW222599   6.250   1.102   5.196
 7234SOL     OW22600   5.195   3.797   2.673
 7234SOL    HW122601   5.193   3.887   2.629
 7234SOL    HW222602   5.104   3.777   2.709
 7235SOL     OW22603   6.866   5.700   1.324
 7235SOL    HW122604   6.808   5.705   1.243
 7235SOL    HW222605   6.882   5.604   1.348
 7236SOL     OW22606   2.675   2.431   3.399
 7236SOL    HW122607   2.747   2.418   3.468
 7236SOL    HW222608   2.714   2.415   3.308
 7237SOL     OW22609   5.225   0.306   6.940
 7237SOL    HW122610   5.285   0.380   6.968
 7237SOL    HW222611   5.226   0.234   7.010
 7238SOL     OW22612   4.567   3.318   7.013
 7238SOL    HW122613   4.656   3.275   6.997
 7238SOL    HW222614   4.557   3.397   6.953
 7239SOL     OW22615   0.599   3.612   2.147
 7239SOL    HW122616   0.621   3.517   2.128
 7239SOL    HW222617   0.530   3.617   2.219
 7240SOL     OW22618   6.423   1.544   5.792
 7240SOL    HW122619   6.383   1.464   5.837
 7240SOL    HW222620   6.378   1.627   5.826
 7241SOL     OW22621   2.783   1.110   1.473
 7241SOL    HW122622   2.785   1.065   1.562
 7241SOL    HW222623   2.752   1.045   1.404
 7242SOL     OW22624   0.402   5.179   3.849
 7242SOL    HW122625   0.432   5.264   3.804
 7242SOL    HW222626   0.479   5.140   3.901
 7243SOL     OW22627   6.258   3.953   6.203
 7243SOL    HW122628   6.204   4.036   6.214
 7243SOL    HW222629   6.355   3.975   6.213
 7244SOL     OW22630   0.409   6.262   0.021
 7244SOL    HW122631   0.487   6.323   0.008
 7244SOL    HW222632   0.367   6.242   6.953
 7245SOL     OW22633   1.747   2.547   6.370
 7245SOL    HW122634   1.734   2.524   6.466
 7245SOL    HW222635   1.708   2.637   6.351
 7246SOL     OW22636   2.512   0.023   4.105
 7246SOL    HW122637   2.589   0.087   4.098
 7246SOL    HW222638   2.448   0.056   4.174
 7247SOL     OW22639   2.755   2.658   5.396
 7247SOL    HW122640   2.672   2.698   5.436
 7247SOL    HW222641   2.771   2.568   5.436
 7248SOL     OW22642   3.122   0.692   4.654
 7248SOL    HW122643   3.185   0.614   4.643
 7248SOL    HW222644   3.067   0.703   4.572
 7249SOL     OW22645   3.920   5.233   1.728
 7249SOL    HW122646   3.850   5.301   1.748
 7249SOL    HW222647   3.924   5.167   1.804
 7250SOL     OW22648   5.333   5.828   5.563
 7250SOL    HW122649   5.383   5.878   5.633
 7250SOL    HW222650   5.378   5.740   5.547
 7251SOL     OW22651   0.521   5.983   5.089
 7251SOL    HW122652   0.595   5.927   5.127
 7251SOL    HW222653   0.543   6.079   5.102
 7252SOL     OW22654   3.052   3.962   2.215
 7252SOL    HW122655   3.032   3.981   2.311
 7252SOL    HW222656   3.071   3.864   2.204
 7253SOL     OW22657   1.198   5.657   5.422
 7253SOL    HW122658   1.253   5.720   5.477
 7253SOL    HW222659   1.244   5.639   5.335
 7254SOL     OW22660   5.351   4.624   3.982
 7254SOL    HW122661   5.277   4.601   4.045
 7254SOL    HW222662   5.403   4.541   3.960
 7255SOL     OW22663   5.439   2.809   6.641
 7255SOL    HW122664   5.364   2.757   6.682
 7255SOL    HW222665   5.404   2.899   6.612
 7256SOL     OW22666   3.596   6.984   6.154
 7256SOL    HW122667   3.520   0.016   6.116
 7256SOL    HW222668   3.564   6.929   6.230
 7257SOL     OW22669   0.205   1.747   4.604
 7257SOL    HW122670   0.238   1.830   4.647
 7257SOL    HW222671   0.282   1.694   4.568
 7258SOL     OW22672   6.009   2.169   2.677
 7258SOL    HW122673   6.068   2.250   2.678
 7258SOL    HW222674   5.956   2.166   2.762
 7259SOL     OW22675   1.127   3.535   3.374
 7259SOL    HW122676   1.071   3.469   3.424
 7259SOL    HW222677   1.097   3.628   3.397
 7260SOL     OW22678   5.468   2.644   0.720
 7260SOL    HW122679   5.386   2.588   0.707
 7260SOL    HW222680   5.484   2.656   0.818
 7261SOL     OW22681   0.201   4.111   0.602
 7261SOL    HW122682   0.300   4.096   0.613
 7261SOL    HW222683   0.163   4.144   0.689
 7262SOL     OW22684   5.507   1.822   5.896
 7262SOL    HW122685   5.593   1.820   5.844
 7262SOL    HW222686   5.460   1.908   5.878
 7263SOL     OW22687   0.196   6.483   0.444
 7263SOL    HW122688   0.221   6.560   0.502
 7263SOL    HW222689   0.156   6.411   0.501
 7264SOL     OW22690   5.583   1.463   0.229
 7264SOL    HW122691   5.656   1.531   0.241
 7264SOL    HW222692   5.585   1.399   0.306
 7265SOL     OW22693   4.993   6.164   4.662
 7265SOL    HW122694   4.948   6.184   4.575
 7265SOL    HW222695   4.923   6.147   4.732
 7266SOL     OW22696   0.096   0.865   3.969
 7266SOL    HW122697   0.085   0.790   3.904
 7266SOL    HW222698   0.064   0.836   4.059
 7267SOL     OW22699   6.678   6.153   5.150
 7267SOL    HW122700   6.579   6.169   5.144
 7267SOL    HW222701   6.715   6.141   5.058
 7268SOL     OW22702   6.275   6.003   4.493
 7268SOL    HW122703   6.243   6.047   4.577
 7268SOL    HW222704   6.375   5.995   4.496
 7269SOL     OW22705   2.052   5.005   5.667
 7269SOL    HW122706   2.052   4.911   5.701
 7269SOL    HW222707   2.146   5.037   5.657
 7270SOL     OW22708   0.378   1.529   4.487
 7270SOL    HW122709   0.382   1.443   4.436
 7270SOL    HW222710   0.436   1.523   4.568
 7271SOL     OW22711   0.767   5.139   4.433
 7271SOL    HW122712   0.712   5.060   4.458
 7271SOL    HW222713   0.862   5.112   4.421
 7272SOL     OW22714   5.922   6.315   2.042
 7272SOL    HW122715   5.855   6.371   2.092
 7272SOL    HW222716   6.013   6.332   2.078
 7273SOL     OW22717   6.261   3.007   5.744
 7273SOL    HW122718   6.194   3.058   5.690
 7273SOL    HW222719   6.351   3.017   5.702
 7274SOL     OW22720   0.713   4.229   0.039
 7274SOL    HW122721   0.771   4.263   0.113
 7274SOL    HW222722   0.658   4.304   0.002
 7275SOL     OW22723   6.885   6.980   3.000
 7275SOL    HW122724   6.874   7.016   3.093
 7275SOL    HW222725   6.827   0.012   2.937
 7276SOL     OW22726   5.452   6.878   3.460
 7276SOL    HW122727   5.464   6.840   3.368
 7276SOL    HW222728   5.362   6.854   3.495
 7277SOL     OW22729   4.028   0.951   5.481
 7277SOL    HW122730   4.052   0.887   5.553
 7277SOL    HW222731   3.984   1.032   5.522
 7278SOL     OW22732   2.994   3.979   1.935
 7278SOL    HW122733   2.990   4.061   1.877
 7278SOL    HW222734   2.981   4.006   2.031
 7279SOL     OW22735   4.051   6.096   0.319
 7279SOL    HW122736   4.016   6.169   0.377
 7279SOL    HW222737   4.102   6.030   0.374
 7280SOL     OW22738   4.957   6.526   4.817
 7280SOL    HW122739   5.053   6.501   4.832
 7280SOL    HW222740   4.933   6.506   4.722
 7281SOL     OW22741   3.748   2.312   6.526
 7281SOL    HW122742   3.676   2.370   6.488
 7281SOL    HW222743   3.737   2.219   6.491
 7282SOL     OW22744   5.515   5.324   2.644
 7282SOL    HW122745   5.455   5.381   2.588
 7282SOL    HW222746   5.510   5.353   2.740
 7283SOL     OW22747   2.666   1.225   2.760
 7283SOL    HW122748   2.582   1.181   2.788
 7283SOL    HW222749   2.741   1.159   2.760
 7284SOL     OW22750   6.691   3.784   5.570
 7284SOL    HW122751   6.708   3.805   5.474
 7284SOL    HW222752   6.610   3.725   5.576
 7285SOL     OW22753   4.533   5.122   2.396
 7285SOL    HW122754   4.435   5.134   2.379
 7285SOL    HW222755   4.553   5.140   2.492
 7286SOL     OW22756   2.402   2.306   1.100
 7286SOL    HW122757   2.370   2.230   1.043
 7286SOL    HW222758   2.326   2.342   1.153
 7287SOL     OW22759   6.729   1.144   6.811
 7287SOL    HW122760   6.808   1.086   6.832
 7287SOL    HW222761   6.685   1.173   6.896
 7288SOL     OW22762   3.927   0.749   6.218
 7288SOL    HW122763   3.873   0.775   6.298
 7288SOL    HW222764   3.870   0.752   6.136
 7289SOL     OW22765   6.188   1.344   3.237
 7289SOL    HW122766   6.260   1.398   3.194
 7289SOL    HW222767   6.153   1.277   3.172
 7290SOL     OW22768   2.618   5.604   5.704
 7290SOL    HW122769   2.651   5.632   5.615
 7290SOL    HW222770   2.520   5.582   5.698
 7291SOL     OW22771   2.062   6.954   1.592
 7291SOL    HW122772   2.006   0.017   1.587
 7291SOL    HW222773   2.061   6.908   1.504
 7292SOL     OW22774   3.004   6.624   3.241
 7292SOL    HW122775   3.040   6.600   3.331
 7292SOL    HW222776   2.971   6.541   3.196
 7293SOL     OW22777   1.919   1.455   5.012
 7293SOL    HW122778   1.927   1.544   5.056
 7293SOL    HW222779   1.901   1.467   4.915
 7294SOL     OW22780   2.625   5.406   0.422
 7294SOL    HW122781   2.714   5.402   0.466
 7294SOL    HW222782   2.635   5.389   0.324
 7295SOL     OW22783   0.502   1.963   0.487
 7295SOL    HW122784   0.454   1.936   0.570
 7295SOL    HW222785   0.459   2.045   0.448
 7296SOL     OW22786   3.135   5.117   1.141
 7296SOL    HW122787   3.148   5.214   1.123
 7296SOL    HW222788   3.147   5.098   1.238
 7297SOL     OW22789   3.911   5.865   0.648
 7297SOL    HW122790   3.815   5.868   0.674
 7297SOL    HW222791   3.957   5.947   0.681
 7298SOL     OW22792   5.572   4.589   5.051
 7298SOL    HW122793   5.659   4.584   5.099
 7298SOL    HW222794   5.586   4.571   4.954
 7299SOL     OW22795   0.238   2.235   6.958
 7299SOL    HW122796   0.311   2.304   6.963
 7299SOL    HW222797   0.185   2.236   0.023
 7300SOL     OW22798   5.159   5.620   1.002
 7300SOL    HW122799   5.240   5.609   1.059
 7300SOL    HW222800   5.080   5.641   1.059
 7301SOL     OW22801   6.740   0.578   5.301
 7301SOL    HW122802   6.727   0.640   5.378
 7301SOL    HW222803   6.669   0.594   5.232
 7302SOL     OW22804   0.165   1.569   6.910
 7302SOL    HW122805   0.229   1.559   6.986
 7302SOL    HW222806   0.177   1.494   6.845
 7303SOL     OW22807   4.870   0.441   6.954
 7303SOL    HW122808   4.936   0.466   6.884
 7303SOL    HW222809   4.781   0.479   6.931
 7304SOL     OW22810   3.968   4.085   6.809
 7304SOL    HW122811   3.974   4.182   6.788
 7304SOL    HW222812   3.918   4.038   6.736
 7305SOL     OW22813   5.221   1.736   0.297
 7305SOL    HW122814   5.218   1.636   0.294
 7305SOL    HW222815   5.314   1.765   0.320
 7306SOL     OW22816   5.074   3.596   1.650
 7306SOL    HW122817   5.063   3.563   1.744
 7306SOL    HW222818   5.156   3.653   1.644
 7307SOL     OW22819   2.832   6.669   1.696
 7307SOL    HW122820   2.930   6.676   1.682
 7307SOL    HW222821   2.797   6.755   1.735
 7308SOL     OW22822   6.913   3.478   5.230
 7308SOL    HW122823   6.960   3.545   5.172
 7308SOL    HW222824   6.969   3.395   5.237
 7309SOL     OW22825   4.914   5.777   0.409
 7309SOL    HW122826   4.955   5.805   0.322
 7309SOL    HW222827   4.861   5.693   0.396
 7310SOL     OW22828   1.902   4.808   0.844
 7310SOL    HW122829   1.967   4.843   0.911
 7310SOL    HW222830   1.937   4.723   0.805
 7311SOL     OW22831   3.122   1.748   2.340
 7311SOL    HW122832   3.109   1.649   2.329
 7311SOL    HW222833   3.033   1.791   2.353
 7312SOL     OW22834   6.859   2.142   5.354
 7312SOL    HW122835   6.772   2.161   5.309
 7312SOL    HW222836   6.876   2.212   5.423
 7313SOL     OW22837   4.495   2.697   6.031
 7313SOL    HW122838   4.438   2.707   5.949
 7313SOL    HW222839   4.578   2.751   6.020
 7314SOL     OW22840   6.398   3.587   5.000
 7314SOL    HW122841   6.341   3.510   5.027
 7314SOL    HW222842   6.341   3.659   4.961
 7315SOL     OW22843   6.186   0.108   3.890
 7315SOL    HW122844   6.248   0.186   3.888
 7315SOL    HW222845   6.176   0.076   3.984
 7316SOL     OW22846   3.268   3.283   5.427
 7316SOL    HW122847   3.181   3.305   5.472
 7316SOL    HW222848   3.342   3.336   5.469
 7317SOL     OW22849   4.014   0.485   2.068
 7317SOL    HW122850   4.015   0.389   2.095
 7317SOL    HW222851   3.923   0.524   2.084
 7318SOL     OW22852   1.219   1.415   1.273
 7318SOL    HW122853   1.235   1.457   1.363
 7318SOL    HW222854   1.209   1.316   1.283
 7319SOL     OW22855   6.991   4.525   6.948
 7319SOL    HW122856   6.982   4.435   6.905
 7319SOL    HW222857   6.908   4.545   7.001
 7320SOL     OW22858   6.736   3.505   2.174
 7320SOL    HW122859   6.792   3.585   2.194
 7320SOL    HW222860   6.680   3.522   2.093
 7321SOL     OW22861   2.613   0.671   5.174
 7321SOL    HW122862   2.658   0.757   5.148
 7321SOL    HW222863   2.570   0.682   5.263
 7322SOL     OW22864   1.205   3.337   2.394
 7322SOL    HW122865   1.191   3.257   2.451
 7322SOL    HW222866   1.285   3.387   2.426
 7323SOL     OW22867   1.897   1.736   2.633
 7323SOL    HW122868   1.946   1.811   2.678
 7323SOL    HW222869   1.801   1.763   2.619
 7324SOL     OW22870   5.676   7.001   3.067
 7324SOL    HW122871   5.605   0.003   3.000
 7324SOL    HW222872   5.642   6.929   3.128
 7325SOL     OW22873   3.921   0.381   6.062
 7325SOL    HW122874   3.891   0.286   6.068
 7325SOL    HW222875   3.984   0.392   5.985
 7326SOL     OW22876   2.412   6.006   5.265
 7326SOL    HW122877   2.492   6.066   5.254
 7326SOL    HW222878   2.440   5.911   5.255
 7327SOL     OW22879   6.859   2.643   5.547
 7327SOL    HW122880   6.787   2.709   5.526
 7327SOL    HW222881   6.924   2.640   5.470
 7328SOL     OW22882   3.674   0.249   6.888
 7328SOL    HW122883   3.746   0.308   6.925
 7328SOL    HW222884   3.613   0.304   6.830
 7329SOL     OW22885   4.363   4.149   1.284
 7329SOL    HW122886   4.428   4.168   1.358
 7329SOL    HW222887   4.380   4.057   1.247
 7330SOL     OW22888   3.172   1.793   0.397
 7330SOL    HW122889   3.150   1.696   0.408
 7330SOL    HW222890   3.261   1.802   0.351
 7331SOL     OW22891   5.739   0.978   2.153
 7331SOL    HW122892   5.826   0.974   2.204
 7331SOL    HW222893   5.703   1.071   2.156
 7332SOL     OW22894   2.752   5.827   0.084
 7332SOL    HW122895   2.662   5.813   0.045
 7332SOL    HW222896   2.751   5.804   0.181
 7333SOL     OW22897   0.558   3.588   3.777
 7333SOL    HW122898   0.658   3.587   3.789
 7333SOL    HW222899   0.530   3.678   3.742
 7334SOL     OW22900   4.402   5.834   5.751
 7334SOL    HW122901   4.372   5.870   5.839
 7334SOL    HW222902   4.338   5.763   5.721
 7335SOL     OW22903   1.742   2.834   2.138
 7335SOL    HW122904   1.764   2.931   2.150
 7335SOL    HW222905   1.772   2.783   2.218
 7336SOL     OW22906   1.303   6.658   3.301
 7336SOL    HW122907   1.295   6.756   3.283
 7336SOL    HW222908   1.366   6.643   3.378
 7337SOL     OW22909   1.292   2.903   1.948
 7337SOL    HW122910   1.232   2.942   2.018
 7337SOL    HW222911   1.364   2.968   1.925
 7338SOL     OW22912   6.358   2.776   1.237
 7338SOL    HW122913   6.449   2.770   1.197
 7338SOL    HW222914   6.330   2.685   1.270
 7339SOL     OW22915   5.965   6.364   3.874
 7339SOL    HW122916   6.035   6.328   3.936
 7339SOL    HW222917   5.883   6.308   3.880
 7340SOL     OW22918   2.070   0.390   0.571
 7340SOL    HW122919   2.079   0.418   0.667
 7340SOL    HW222920   1.991   0.435   0.530
 7341SOL     OW22921   6.812   2.164   0.173
 7341SOL    HW122922   6.767   2.125   0.093
 7341SOL    HW222923   6.796   2.263   0.175
 7342SOL     OW22924   6.599   0.006   2.299
 7342SOL    HW122925   6.630   0.069   2.370
 7342SOL    HW222926   6.679   6.982   2.256
 7343SOL     OW22927   4.577   2.823   0.182
 7343SOL    HW122928   4.507   2.838   0.113
 7343SOL    HW222929   4.540   2.768   0.256
 7344SOL     OW22930   1.336   6.884   5.633
 7344SOL    HW122931   1.380   6.797   5.613
 7344SOL    HW222932   1.383   6.958   5.584
 7345SOL     OW22933   3.555   3.439   5.378
 7345SOL    HW122934   3.654   3.426   5.375
 7345SOL    HW222935   3.518   3.425   5.286
 7346SOL     OW22936   3.612   6.429   2.628
 7346SOL    HW122937   3.515   6.435   2.653
 7346SOL    HW222938   3.660   6.508   2.666
 7347SOL     OW22939   0.151   2.374   0.350
 7347SOL    HW122940   0.124   2.321   0.270
 7347SOL    HW222941   0.152   2.471   0.327
 7348SOL     OW22942   1.482   3.620   3.615
 7348SOL    HW122943   1.567   3.577   3.645
 7348SOL    HW222944   1.468   3.602   3.517
 7349SOL     OW22945   4.125   0.215   1.068
 7349SOL    HW122946   4.129   0.117   1.089
 7349SOL    HW222947   4.214   0.246   1.035
 7350SOL     OW22948   2.589   0.496   5.776
 7350SOL    HW122949   2.544   0.413   5.744
 7350SOL    HW222950   2.653   0.529   5.706
 7351SOL     OW22951   4.934   4.854   4.131
 7351SOL    HW122952   4.839   4.848   4.100
 7351SOL    HW222953   4.995   4.825   4.057
 7352SOL     OW22954   0.455   1.766   3.388
 7352SOL    HW122955   0.485   1.706   3.314
 7352SOL    HW222956   0.424   1.853   3.349
 7353SOL     OW22957   6.342   0.553   6.562
 7353SOL    HW122958   6.305   0.475   6.612
 7353SOL    HW222959   6.441   0.541   6.551
 7354SOL     OW22960   1.782   0.558   3.821
 7354SOL    HW122961   1.683   0.550   3.830
 7354SOL    HW222962   1.819   0.476   3.777
 7355SOL     OW22963   0.192   2.035   6.081
 7355SOL    HW122964   0.227   1.965   6.143
 7355SOL    HW222965   0.095   2.049   6.098
 7356SOL     OW22966   3.596   3.651   6.101
 7356SOL    HW122967   3.529   3.593   6.056
 7356SOL    HW222968   3.549   3.725   6.150
 7357SOL     OW22969   4.253   6.058   1.236
 7357SOL    HW122970   4.174   6.102   1.195
 7357SOL    HW222971   4.295   5.995   1.170
 7358SOL     OW22972   6.268   2.637   2.114
 7358SOL    HW122973   6.274   2.691   2.030
 7358SOL    HW222974   6.206   2.559   2.098
 7359SOL     OW22975   4.141   1.579   6.080
 7359SOL    HW122976   4.121   1.507   6.014
 7359SOL    HW222977   4.239   1.582   6.099
 7360SOL     OW22978   2.530   3.421   5.815
 7360SOL    HW122979   2.471   3.349   5.780
 7360SOL    HW222980   2.595   3.449   5.743
 7361SOL     OW22981   5.420   0.557   2.269
 7361SOL    HW122982   5.447   0.466   2.236
 7361SOL    HW222983   5.343   0.548   2.331
 7362SOL     OW22984   4.248   4.921   5.693
 7362SOL    HW122985   4.216   4.993   5.631
 7362SOL    HW222986   4.286   4.962   5.776
 7363SOL     OW22987   4.299   1.152   1.704
 7363SOL    HW122988   4.396   1.155   1.680
 7363SOL    HW222989   4.289   1.127   1.800
 7364SOL     OW22990   4.455   6.931   1.806
 7364SOL    HW122991   4.397   6.927   1.725
 7364SOL    HW222992   4.474   6.838   1.837
 7365SOL     OW22993   6.525   5.576   3.107
 7365SOL    HW122994   6.461   5.500   3.096
 7365SOL    HW222995   6.488   5.658   3.062
 7366SOL     OW22996   2.440   0.335   4.461
 7366SOL    HW122997   2.536   0.311   4.444
 7366SOL    HW222998   2.411   0.294   4.548
 7367SOL     OW22999   4.733   1.532   0.352
 7367SOL    HW123000   4.796   1.586   0.295
 7367SOL    HW223001   4.706   1.449   0.302
 7368SOL     OW23002   3.617   3.533   2.740
 7368SOL    HW123003   3.526   3.536   2.782
 7368SOL    HW223004   3.608   3.509   2.643
 7369SOL     OW23005   4.147   2.699   0.898
 7369SOL    HW123006   4.220   2.631   0.900
 7369SOL    HW223007   4.059   2.652   0.890
 7370SOL     OW23008   2.404   1.852   5.017
 7370SOL    HW123009   2.319   1.805   4.995
 7370SOL    HW223010   2.429   1.832   5.112
 7371SOL     OW23011   3.351   6.888   3.665
 7371SOL    HW123012   3.365   6.913   3.761
 7371SOL    HW223013   3.423   6.825   3.636
 7372SOL     OW23014   3.393   6.832   4.526
 7372SOL    HW123015   3.357   6.883   4.604
 7372SOL    HW223016   3.403   6.735   4.552
 7373SOL     OW23017   4.455   2.130   4.823
 7373SOL    HW123018   4.518   2.087   4.888
 7373SOL    HW223019   4.428   2.219   4.857
 7374SOL     OW23020   1.450   1.798   5.129
 7374SOL    HW123021   1.355   1.769   5.121
 7374SOL    HW223022   1.458   1.870   5.198
 7375SOL     OW23023   2.125   3.181   2.327
 7375SOL    HW123024   2.130   3.145   2.234
 7375SOL    HW223025   2.131   3.281   2.324
 7376SOL     OW23026   0.957   3.641   0.848
 7376SOL    HW123027   0.968   3.740   0.860
 7376SOL    HW223028   1.045   3.601   0.823
 7377SOL     OW23029   3.587   5.039   0.175
 7377SOL    HW123030   3.518   4.969   0.153
 7377SOL    HW223031   3.647   5.004   0.246
 7378SOL     OW23032   1.896   6.767   4.155
 7378SOL    HW123033   1.873   6.685   4.206
 7378SOL    HW223034   1.812   6.813   4.126
 7379SOL     OW23035   3.528   0.453   1.301
 7379SOL    HW123036   3.564   0.498   1.220
 7379SOL    HW223037   3.586   0.474   1.380
 7380SOL     OW23038   6.157   4.194   3.258
 7380SOL    HW123039   6.124   4.221   3.349
 7380SOL    HW223040   6.144   4.096   3.246
 7381SOL     OW23041   4.386   1.636   0.756
 7381SOL    HW123042   4.371   1.735   0.759
 7381SOL    HW223043   4.422   1.610   0.666
 7382SOL     OW23044   6.589   1.679   5.629
 7382SOL    HW123045   6.597   1.658   5.532
 7382SOL    HW223046   6.513   1.628   5.669
 7383SOL     OW23047   1.742   6.631   1.496
 7383SOL    HW123048   1.734   6.602   1.401
 7383SOL    HW223049   1.745   6.731   1.500
 7384SOL     OW23050   0.523   6.581   1.247
 7384SOL    HW123051   0.498   6.673   1.278
 7384SOL    HW223052   0.623   6.571   1.247
 7385SOL     OW23053   3.592   5.316   2.368
 7385SOL    HW123054   3.652   5.332   2.446
 7385SOL    HW223055   3.563   5.221   2.367
 7386SOL     OW23056   6.779   3.486   7.008
 7386SOL    HW123057   6.728   3.407   0.023
 7386SOL    HW223058   6.869   3.456   6.976
 7387SOL     OW23059   6.264   4.825   5.563
 7387SOL    HW123060   6.248   4.752   5.497
 7387SOL    HW223061   6.289   4.785   5.651
 7388SOL     OW23062   1.542   6.400   2.137
 7388SOL    HW123063   1.639   6.427   2.142
 7388SOL    HW223064   1.485   6.481   2.136
 7389SOL     OW23065   7.016   3.313   0.769
 7389SOL    HW123066   6.930   3.319   0.718
 7389SOL    HW223067   0.012   3.400   0.816
 7390SOL     OW23068   2.673   1.965   2.870
 7390SOL    HW123069   2.648   1.954   2.966
 7390SOL    HW223070   2.733   1.890   2.842
 7391SOL     OW23071   4.095   3.216   2.457
 7391SOL    HW123072   4.125   3.139   2.402
 7391SOL    HW223073   4.020   3.188   2.517
 7392SOL     OW23074   4.030   5.878   6.346
 7392SOL    HW123075   4.030   5.970   6.307
 7392SOL    HW223076   3.977   5.878   6.432
 7393SOL     OW23077   6.424   4.744   3.689
 7393SOL    HW123078   6.486   4.787   3.623
 7393SOL    HW223079   6.404   4.808   3.763
 7394SOL     OW23080   2.100   2.475   6.165
 7394SOL    HW123081   2.111   2.416   6.244
 7394SOL    HW223082   2.189   2.494   6.125
 7395SOL     OW23083   2.071   3.507   1.404
 7395SOL    HW123084   2.100   3.559   1.484
 7395SOL    HW223085   1.973   3.522   1.388
 7396SOL     OW23086   2.796   5.192   1.467
 7396SOL    HW123087   2.756   5.110   1.424
 7396SOL    HW223088   2.783   5.187   1.566
 7397SOL     OW23089   5.204   4.337   4.657
 7397SOL    HW123090   5.215   4.249   4.705
 7397SOL    HW223091   5.286   4.355   4.603
 7398SOL     OW23092   1.638   4.411   3.330
 7398SOL    HW123093   1.653   4.316   3.302
 7398SOL    HW223094   1.671   4.424   3.424
 7399SOL     OW23095   5.881   2.744   4.743
 7399SOL    HW123096   5.916   2.653   4.766
 7399SOL    HW223097   5.919   2.811   4.807
 7400SOL     OW23098   5.479   2.345   5.144
 7400SOL    HW123099   5.460   2.312   5.052
 7400SOL    HW223100   5.404   2.403   5.176
 7401SOL     OW23101   1.564   3.176   2.964
 7401SOL    HW123102   1.646   3.134   3.003
 7401SOL    HW223103   1.510   3.106   2.917
 7402SOL     OW23104   2.972   5.352   4.957
 7402SOL    HW123105   2.919   5.343   4.873
 7402SOL    HW223106   3.029   5.434   4.951
 7403SOL     OW23107   1.774   2.879   3.516
 7403SOL    HW123108   1.687   2.902   3.472
 7403SOL    HW223109   1.757   2.825   3.599
 7404SOL     OW23110   2.927   3.897   1.505
 7404SOL    HW123111   2.847   3.899   1.565
 7404SOL    HW223112   2.939   3.987   1.462
 7405SOL     OW23113   3.110   5.578   5.296
 7405SOL    HW123114   3.057   5.504   5.336
 7405SOL    HW223115   3.208   5.563   5.314
 7406SOL     OW23116   0.547   1.249   5.159
 7406SOL    HW123117   0.526   1.347   5.151
 7406SOL    HW223118   0.550   1.223   5.255
 7407SOL     OW23119   0.565   5.891   6.835
 7407SOL    HW123120   0.615   5.877   6.750
 7407SOL    HW223121   0.626   5.877   6.912
 7408SOL     OW23122   3.390   4.186   5.102
 7408SOL    HW123123   3.322   4.182   5.175
 7408SOL    HW223124   3.366   4.119   5.031
 7409SOL     OW23125   5.871   4.098   0.561
 7409SOL    HW123126   5.815   4.168   0.605
 7409SOL    HW223127   5.934   4.141   0.496
 7410SOL     OW23128   0.005   0.292   1.079
 7410SOL    HW123129   0.097   0.272   1.114
 7410SOL    HW223130   6.959   0.285   1.154
 7411SOL     OW23131   1.083   1.792   5.654
 7411SOL    HW123132   1.118   1.883   5.632
 7411SOL    HW223133   0.986   1.787   5.630
 7412SOL     OW23134   3.680   0.080   0.137
 7412SOL    HW123135   3.683   0.140   0.057
 7412SOL    HW223136   3.599   0.100   0.192
 7413SOL     OW23137   4.090   5.211   3.507
 7413SOL    HW123138   4.173   5.159   3.485
 7413SOL    HW223139   4.087   5.229   3.605
 7414SOL     OW23140   2.166   1.945   4.629
 7414SOL    HW123141   2.243   1.916   4.686
 7414SOL    HW223142   2.174   1.904   4.538
 7415SOL     OW23143   3.542   0.170   6.509
 7415SOL    HW123144   3.548   0.104   6.584
 7415SOL    HW223145   3.633   0.207   6.490
 7416SOL     OW23146   0.783   1.814   2.506
 7416SOL    HW123147   0.827   1.886   2.453
 7416SOL    HW223148   0.842   1.787   2.582
 7417SOL     OW23149   0.937   2.358   2.995
 7417SOL    HW123150   0.858   2.343   2.936
 7417SOL    HW223151   0.920   2.435   3.055
 7418SOL     OW23152   2.063   4.501   6.514
 7418SOL    HW123153   2.068   4.450   6.600
 7418SOL    HW223154   2.030   4.594   6.532
 7419SOL     OW23155   6.321   4.027   3.604
 7419SOL    HW123156   6.279   4.064   3.687
 7419SOL    HW223157   6.292   4.081   3.525
 7420SOL     OW23158   0.041   6.459   1.933
 7420SOL    HW123159   0.074   6.365   1.942
 7420SOL    HW223160   0.017   6.478   1.838
 7421SOL     OW23161   4.682   3.418   1.753
 7421SOL    HW123162   4.625   3.342   1.723
 7421SOL    HW223163   4.650   3.502   1.709
 7422SOL     OW23164   5.912   2.833   2.165
 7422SOL    HW123165   5.890   2.821   2.262
 7422SOL    HW223166   5.870   2.917   2.131
 7423SOL     OW23167   5.784   1.945   5.451
 7423SOL    HW123168   5.862   1.923   5.393
 7423SOL    HW223169   5.699   1.936   5.399
 7424SOL     OW23170   0.096   0.987   5.242
 7424SOL    HW123171   0.139   0.963   5.155
 7424SOL    HW223172   0.135   0.931   5.315
 7425SOL     OW23173   5.476   6.926   0.552
 7425SOL    HW123174   5.407   6.911   0.623
 7425SOL    HW223175   5.479   6.847   0.491
 7426SOL     OW23176   3.597   2.712   6.092
 7426SOL    HW123177   3.692   2.716   6.123
 7426SOL    HW223178   3.550   2.797   6.117
 7427SOL     OW23179   3.669   1.224   3.890
 7427SOL    HW123180   3.615   1.278   3.825
 7427SOL    HW223181   3.608   1.190   3.962
 7428SOL     OW23182   4.152   6.691   5.769
 7428SOL    HW123183   4.064   6.651   5.744
 7428SOL    HW223184   4.162   6.691   5.869
 7429SOL     OW23185   1.219   0.044   2.506
 7429SOL    HW123186   1.216   0.058   2.605
 7429SOL    HW223187   1.222   6.965   2.487
 7430SOL     OW23188   0.065   4.798   3.344
 7430SOL    HW123189   0.164   4.792   3.330
 7430SOL    HW223190   0.046   4.806   3.442
 7431SOL     OW23191   1.949   2.377   4.509
 7431SOL    HW123192   1.994   2.300   4.464
 7431SOL    HW223193   2.009   2.457   4.507
 7432SOL     OW23194   2.088   0.203   3.377
 7432SOL    HW123195   2.106   0.230   3.283
 7432SOL    HW223196   2.145   0.257   3.439
 7433SOL     OW23197   3.230   6.366   6.234
 7433SOL    HW123198   3.275   6.285   6.198
 7433SOL    HW223199   3.159   6.338   6.299
 7434SOL     OW23200   4.560   6.168   5.918
 7434SOL    HW123201   4.550   6.255   5.965
 7434SOL    HW223202   4.538   6.180   5.821
 7435SOL     OW23203   4.584   6.461   2.151
 7435SOL    HW123204   4.538   6.546   2.177
 7435SOL    HW223205   4.673   6.483   2.110
 7436SOL     OW23206   5.026   3.463   6.520
 7436SOL    HW123207   4.953   3.460   6.588
 7436SOL    HW223208   5.049   3.559   6.500
 7437SOL     OW23209   3.417   6.043   1.285
 7437SOL    HW123210   3.323   6.065   1.259
 7437SOL    HW223211   3.428   5.943   1.288
 7438SOL     OW23212   2.432   1.047   0.684
 7438SOL    HW123213   2.348   1.088   0.721
 7438SOL    HW223214   2.488   1.012   0.759
 7439SOL     OW23215   1.867   5.070   6.340
 7439SOL    HW123216   1.858   5.016   6.424
 7439SOL    HW223217   1.785   5.059   6.284
 7440SOL     OW23218   4.889   3.029   3.980
 7440SOL    HW123219   4.893   3.085   4.063
 7440SOL    HW223220   4.904   3.088   3.900
 7441SOL     OW23221   5.703   6.148   1.938
 7441SOL    HW123222   5.779   6.207   1.966
 7441SOL    HW223223   5.628   6.204   1.905
 7442SOL     OW23224   5.492   0.603   5.656
 7442SOL    HW123225   5.439   0.536   5.707
 7442SOL    HW223226   5.473   0.595   5.558
 7443SOL     OW23227   0.372   6.149   2.191
 7443SOL    HW123228   0.423   6.085   2.134
 7443SOL    HW223229   0.411   6.149   2.284
 7444SOL     OW23230   0.649   0.407   5.993
 7444SOL    HW123231   0.582   0.391   5.922
 7444SOL    HW223232   0.689   0.320   6.023
 7445SOL     OW23233   4.363   6.124   2.241
 7445SOL    HW123234   4.438   6.189   2.251
 7445SOL    HW223235   4.396   6.042   2.193
 7446SOL     OW23236   4.795   3.400   0.488
 7446SOL    HW123237   4.808   3.404   0.389
 7446SOL    HW223238   4.816   3.308   0.521
 7447SOL     OW23239   0.874   3.989   0.631
 7447SOL    HW123240   0.949   3.955   0.575
 7447SOL    HW223241   0.865   3.931   0.713
 7448SOL     OW23242   5.090   5.654   6.103
 7448SOL    HW123243   5.137   5.687   6.021
 7448SOL    HW223244   5.150   5.592   6.153
 7449SOL     OW23245   0.411   4.240   0.193
 7449SOL    HW123246   0.359   4.323   0.173
 7449SOL    HW223247   0.415   4.184   0.110
 7450SOL     OW23248   5.369   1.555   5.639
 7450SOL    HW123249   5.420   1.629   5.683
 7450SOL    HW223250   5.292   1.594   5.588
 7451SOL     OW23251   5.868   5.324   2.372
 7451SOL    HW123252   5.944   5.365   2.320
 7451SOL    HW223253   5.888   5.228   2.389
 7452SOL     OW23254   5.215   6.350   5.260
 7452SOL    HW123255   5.250   6.438   5.228
 7452SOL    HW223256   5.128   6.363   5.306
 7453SOL     OW23257   4.461   5.482   6.465
 7453SOL    HW123258   4.479   5.426   6.545
 7453SOL    HW223259   4.492   5.434   6.383
 7454SOL     OW23260   3.739   2.124   0.743
 7454SOL    HW123261   3.692   2.047   0.699
 7454SOL    HW223262   3.686   2.154   0.823
 7455SOL     OW23263   5.831   2.952   2.919
 7455SOL    HW123264   5.847   2.982   3.013
 7455SOL    HW223265   5.758   2.884   2.917
 7456SOL     OW23266   2.628   2.312   5.257
 7456SOL    HW123267   2.694   2.311   5.183
 7456SOL    HW223268   2.655   2.381   5.325
 7457SOL     OW23269   2.708   0.169   3.203
 7457SOL    HW123270   2.711   0.131   3.296
 7457SOL    HW223271   2.773   0.121   3.145
 7458SOL     OW23272   0.600   6.500   5.025
 7458SOL    HW123273   0.663   6.540   4.958
 7458SOL    HW223274   0.591   6.562   5.103
 7459SOL     OW23275   6.431   0.953   2.643
 7459SOL    HW123276   6.484   0.917   2.720
 7459SOL    HW223277   6.483   1.026   2.599
 7460SOL     OW23278   1.014   6.915   0.838
 7460SOL    HW123279   0.946   6.841   0.831
 7460SOL    HW223280   1.104   6.875   0.857
 7461SOL     OW23281   0.918   5.895   5.974
 7461SOL    HW123282   0.935   5.796   5.979
 7461SOL    HW223283   0.870   5.916   5.889
 7462SOL     OW23284   1.028   5.438   1.216
 7462SOL    HW123285   0.951   5.494   1.247
 7462SOL    HW223286   0.996   5.375   1.145
 7463SOL     OW23287   4.377   4.566   0.066
 7463SOL    HW123288   4.283   4.534   0.074
 7463SOL    HW223289   4.400   4.578   6.990
 7464SOL     OW23290   6.487   5.133   4.864
 7464SOL    HW123291   6.510   5.068   4.937
 7464SOL    HW223292   6.571   5.164   4.820
 7465SOL     OW23293   2.452   5.101   0.231
 7465SOL    HW123294   2.549   5.074   0.233
 7465SOL    HW223295   2.443   5.189   0.184
 7466SOL     OW23296   1.056   0.094   5.015
 7466SOL    HW123297   1.107   0.145   4.945
 7466SOL    HW223298   0.964   0.074   4.981
 7467SOL     OW23299   0.331   3.055   6.255
 7467SOL    HW123300   0.383   2.973   6.231
 7467SOL    HW223301   0.235   3.043   6.231
 7468SOL     OW23302   5.519   2.761   5.096
 7468SOL    HW123303   5.430   2.744   5.139
 7468SOL    HW223304   5.531   2.699   5.018
 7469SOL     OW23305   6.770   2.420   0.280
 7469SOL    HW123306   6.779   2.373   0.368
 7469SOL    HW223307   6.698   2.489   0.286
 7470SOL     OW23308   5.861   3.988   4.172
 7470SOL    HW123309   5.878   3.892   4.193
 7470SOL    HW223310   5.946   4.040   4.181
 7471SOL     OW23311   5.569   5.635   6.505
 7471SOL    HW123312   5.576   5.577   6.424
 7471SOL    HW223313   5.654   5.628   6.558
 7472SOL     OW23314   6.222   0.056   5.200
 7472SOL    HW123315   6.314   0.072   5.164
 7472SOL    HW223316   6.228   0.033   5.297
 7473SOL     OW23317   4.054   0.306   3.819
 7473SOL    HW123318   4.036   0.340   3.726
 7473SOL    HW223319   4.104   0.375   3.870
 7474SOL     OW23320   5.862   2.071   6.133
 7474SOL    HW123321   5.935   2.094   6.197
 7474SOL    HW223322   5.784   2.132   6.149
 7475SOL     OW23323   4.622   1.928   1.365
 7475SOL    HW123324   4.690   1.935   1.438
 7475SOL    HW223325   4.605   1.832   1.345
 7476SOL     OW23326   1.962   1.310   2.953
 7476SOL    HW123327   1.984   1.232   2.895
 7476SOL    HW223328   2.046   1.360   2.975
 7477SOL     OW23329   0.131   3.974   5.286
 7477SOL    HW123330   0.218   3.989   5.332
 7477SOL    HW223331   0.137   4.004   5.191
 7478SOL     OW23332   6.775   2.084   4.879
 7478SOL    HW123333   6.827   2.154   4.830
 7478SOL    HW223334   6.724   2.028   4.814
 7479SOL     OW23335   5.878   3.453   6.851
 7479SOL    HW123336   5.861   3.511   6.931
 7479SOL    HW223337   5.837   3.363   6.867
 7480SOL     OW23338   3.240   5.037   2.301
 7480SOL    HW123339   3.268   4.977   2.227
 7480SOL    HW223340   3.168   4.992   2.355
 7481SOL     OW23341   6.465   4.314   6.945
 7481SOL    HW123342   6.435   4.409   6.955
 7481SOL    HW223343   6.457   4.267   0.013
 7482SOL     OW23344   3.728   2.102   2.353
 7482SOL    HW123345   3.817   2.145   2.371
 7482SOL    HW223346   3.691   2.137   2.268
 7483SOL     OW23347   4.205   2.392   5.553
 7483SOL    HW123348   4.255   2.345   5.626
 7483SOL    HW223349   4.202   2.490   5.573
 7484SOL     OW23350   2.716   6.508   4.602
 7484SOL    HW123351   2.633   6.498   4.548
 7484SOL    HW223352   2.742   6.604   4.607
 7485SOL     OW23353   2.828   7.016   3.780
 7485SOL    HW123354   2.882   0.076   3.806
 7485SOL    HW223355   2.749   7.008   3.841
 7486SOL     OW23356   1.162   6.258   6.861
 7486SOL    HW123357   1.234   6.191   6.875
 7486SOL    HW223358   1.074   6.219   6.888
 7487SOL     OW23359   4.429   0.183   3.375
 7487SOL    HW123360   4.477   0.126   3.309
 7487SOL    HW223361   4.428   0.278   3.342
 7488SOL     OW23362   0.879   5.950   3.929
 7488SOL    HW123363   0.937   5.993   3.860
 7488SOL    HW223364   0.893   5.851   3.926
 7489SOL     OW23365   6.128   4.294   6.719
 7489SOL    HW123366   6.071   4.277   6.638
 7489SOL    HW223367   6.115   4.388   6.750
 7490SOL     OW23368   0.591   2.017   3.019
 7490SOL    HW123369   0.581   2.110   2.982
 7490SOL    HW223370   0.629   1.958   2.949
 7491SOL     OW23371   4.225   3.040   0.202
 7491SOL    HW123372   4.280   3.090   0.270
 7491SOL    HW223373   4.134   3.082   0.197
 7492SOL     OW23374   1.357   0.545   4.027
 7492SOL    HW123375   1.329   0.641   4.031
 7492SOL    HW223376   1.387   0.523   3.935
 7493SOL     OW23377   5.942   3.616   5.690
 7493SOL    HW123378   6.014   3.641   5.625
 7493SOL    HW223379   5.853   3.621   5.645
 7494SOL     OW23380   6.228   1.394   2.956
 7494SOL    HW123381   6.224   1.295   2.971
 7494SOL    HW223382   6.185   1.416   2.868
 7495SOL     OW23383   2.204   3.166   4.793
 7495SOL    HW123384   2.205   3.213   4.881
 7495SOL    HW223385   2.206   3.067   4.808
 7496SOL     OW23386   6.273   3.606   2.952
 7496SOL    HW123387   6.216   3.632   3.030
 7496SOL    HW223388   6.224   3.540   2.895
 7497SOL     OW23389   0.647   6.350   0.584
 7497SOL    HW123390   0.693   6.265   0.559
 7497SOL    HW223391   0.644   6.412   0.505
 7498SOL     OW23392   3.192   0.529   3.015
 7498SOL    HW123393   3.131   0.486   2.948
 7498SOL    HW223394   3.283   0.488   3.008
 7499SOL     OW23395   3.864   2.166   3.944
 7499SOL    HW123396   3.777   2.163   3.994
 7499SOL    HW223397   3.920   2.242   3.978
 7500SOL     OW23398   3.880   0.363   3.586
 7500SOL    HW123399   3.913   0.394   3.497
 7500SOL    HW223400   3.881   0.263   3.589
 7501SOL     OW23401   6.169   2.761   4.501
 7501SOL    HW123402   6.144   2.812   4.583
 7501SOL    HW223403   6.267   2.738   4.505
 7502SOL     OW23404   3.247   6.926   4.300
 7502SOL    HW123405   3.147   6.923   4.294
 7502SOL    HW223406   3.274   6.920   4.396
 7503SOL     OW23407   2.154   6.113   1.197
 7503SOL    HW123408   2.092   6.035   1.198
 7503SOL    HW223409   2.105   6.195   1.166
 7504SOL     OW23410   6.964   6.484   3.392
 7504SOL    HW123411   6.938   6.396   3.352
 7504SOL    HW223412   6.926   6.491   3.484
 7505SOL     OW23413   0.127   0.528   4.893
 7505SOL    HW123414   0.045   0.470   4.890
 7505SOL    HW223415   0.136   0.578   4.807
 7506SOL     OW23416   3.514   1.792   3.576
 7506SOL    HW123417   3.484   1.888   3.574
 7506SOL    HW223418   3.443   1.735   3.534
 7507SOL     OW23419   6.275   3.425   4.325
 7507SOL    HW123420   6.219   3.500   4.359
 7507SOL    HW223421   6.370   3.456   4.317
 7508SOL     OW23422   1.986   6.337   0.430
 7508SOL    HW123423   1.893   6.339   0.394
 7508SOL    HW223424   2.038   6.414   0.392
 7509SOL     OW23425   5.162   3.910   0.485
 7509SOL    HW123426   5.170   3.889   0.583
 7509SOL    HW223427   5.067   3.903   0.457
 7510SOL     OW23428   3.613   3.787   4.055
 7510SOL    HW123429   3.671   3.867   4.075
 7510SOL    HW223430   3.518   3.816   4.049
 7511SOL     OW23431   3.257   5.836   2.660
 7511SOL    HW123432   3.234   5.860   2.754
 7511SOL    HW223433   3.290   5.741   2.657
 7512SOL     OW23434   3.374   6.526   6.406
 7512SOL    HW123435   3.334   6.448   6.357
 7512SOL    HW223436   3.466   6.502   6.437
 7513SOL     OW23437   1.701   2.060   3.608
 7513SOL    HW123438   1.727   1.973   3.566
 7513SOL    HW223439   1.753   2.134   3.565
 7514SOL     OW23440   2.410   4.545   3.189
 7514SOL    HW123441   2.432   4.525   3.285
 7514SOL    HW223442   2.494   4.561   3.138
 7515SOL     OW23443   6.907   3.840   5.059
 7515SOL    HW123444   6.840   3.835   5.133
 7515SOL    HW223445   6.975   3.768   5.071
 7516SOL     OW23446   1.035   5.001   5.407
 7516SOL    HW123447   1.006   4.934   5.339
 7516SOL    HW223448   0.963   5.009   5.477
 7517SOL     OW23449   0.856   1.893   6.902
 7517SOL    HW123450   0.925   1.886   6.974
 7517SOL    HW223451   0.772   1.931   6.940
 7518SOL     OW23452   4.785   2.803   4.083
 7518SOL    HW123453   4.750   2.813   4.176
 7518SOL    HW223454   4.811   2.893   4.047
 7519SOL     OW23455   4.071   6.664   5.011
 7519SOL    HW123456   4.060   6.759   4.980
 7519SOL    HW223457   4.036   6.602   4.942
 7520SOL     OW23458   2.009   2.079   2.031
 7520SOL    HW123459   2.075   2.009   2.004
 7520SOL    HW223460   2.048   2.137   2.102
 7521SOL     OW23461   4.933   1.109   4.533
 7521SOL    HW123462   5.026   1.123   4.497
 7521SOL    HW223463   4.908   1.013   4.521
 7522SOL     OW23464   1.063   6.165   2.890
 7522SOL    HW123465   1.151   6.132   2.857
 7522SOL    HW223466   1.024   6.098   2.954
 7523SOL     OW23467   5.546   1.453   6.558
 7523SOL    HW123468   5.579   1.361   6.540
 7523SOL    HW223469   5.624   1.514   6.572
 7524SOL     OW23470   0.134   2.466   4.484
 7524SOL    HW123471   0.076   2.401   4.434
 7524SOL    HW223472   0.145   2.549   4.429
 7525SOL     OW23473   4.530   6.432   6.317
 7525SOL    HW123474   4.469   6.353   6.317
 7525SOL    HW223475   4.563   6.449   6.224
 7526SOL     OW23476   2.052   3.631   1.878
 7526SOL    HW123477   1.960   3.622   1.915
 7526SOL    HW223478   2.116   3.578   1.934
 7527SOL     OW23479   4.010   6.016   3.461
 7527SOL    HW123480   3.944   6.089   3.445
 7527SOL    HW223481   3.964   5.927   3.454
 7528SOL     OW23482   6.344   2.812   6.178
 7528SOL    HW123483   6.251   2.847   6.189
 7528SOL    HW223484   6.408   2.872   6.226
 7529SOL     OW23485   5.804   2.007   4.012
 7529SOL    HW123486   5.861   1.929   4.040
 7529SOL    HW223487   5.834   2.089   4.061
 7530SOL     OW23488   6.773   1.523   1.963
 7530SOL    HW123489   6.679   1.491   1.971
 7530SOL    HW223490   6.833   1.465   2.019
 7531SOL     OW23491   4.526   2.138   3.804
 7531SOL    HW123492   4.448   2.196   3.780
 7531SOL    HW223493   4.525   2.120   3.903
 7532SOL     OW23494   4.368   5.918   6.841
 7532SOL    HW123495   4.352   5.956   6.932
 7532SOL    HW223496   4.295   5.853   6.819
 7533SOL     OW23497   4.526   3.190   1.692
 7533SOL    HW123498   4.581   3.147   1.764
 7533SOL    HW223499   4.433   3.154   1.695
 7534SOL     OW23500   4.870   0.236   4.036
 7534SOL    HW123501   4.960   0.195   4.021
 7534SOL    HW223502   4.814   0.224   3.954
 7535SOL     OW23503   0.925   6.055   4.172
 7535SOL    HW123504   1.019   6.088   4.166
 7535SOL    HW223505   0.899   6.015   4.084
 7536SOL     OW23506   4.672   5.838   4.033
 7536SOL    HW123507   4.659   5.767   3.965
 7536SOL    HW223508   4.618   5.918   4.009
 7537SOL     OW23509   2.726   6.081   2.147
 7537SOL    HW123510   2.770   6.102   2.060
 7537SOL    HW223511   2.746   5.986   2.172
 7538SOL     OW23512   0.559   3.452   1.628
 7538SOL    HW123513   0.629   3.440   1.557
 7538SOL    HW223514   0.596   3.509   1.702
 7539SOL     OW23515   0.453   5.539   3.424
 7539SOL    HW123516   0.412   5.579   3.342
 7539SOL    HW223517   0.524   5.474   3.397
 7540SOL     OW23518   5.640   5.773   4.259
 7540SOL    HW123519   5.586   5.697   4.294
 7540SOL    HW223520   5.584   5.829   4.199
 7541SOL     OW23521   1.010   3.728   6.339
 7541SOL    HW123522   1.073   3.795   6.378
 7541SOL    HW223523   0.922   3.734   6.386
 7542SOL     OW23524   6.154   5.903   6.010
 7542SOL    HW123525   6.241   5.903   5.962
 7542SOL    HW223526   6.133   5.811   6.042
 7543SOL     OW23527   2.751   0.321   5.545
 7543SOL    HW123528   2.718   0.298   5.453
 7543SOL    HW223529   2.716   0.411   5.571
 7544SOL     OW23530   6.896   3.205   3.966
 7544SOL    HW123531   6.860   3.282   4.018
 7544SOL    HW223532   6.935   3.239   3.880
 7545SOL     OW23533   0.820   5.622   0.081
 7545SOL    HW123534   0.905   5.571   0.091
 7545SOL    HW223535   0.760   5.603   0.158
 7546SOL     OW23536   3.264   2.993   1.829
 7546SOL    HW123537   3.345   2.956   1.784
 7546SOL    HW223538   3.259   2.958   1.922
 7547SOL     OW23539   4.553   0.463   1.524
 7547SOL    HW123540   4.630   0.488   1.467
 7547SOL    HW223541   4.494   0.399   1.474
 7548SOL     OW23542   4.631   2.434   6.121
 7548SOL    HW123543   4.586   2.346   6.134
 7548SOL    HW223544   4.573   2.494   6.066
 7549SOL     OW23545   4.274   2.667   5.575
 7549SOL    HW123546   4.369   2.656   5.547
 7549SOL    HW223547   4.229   2.733   5.515
 7550SOL     OW23548   1.675   4.030   3.659
 7550SOL    HW123549   1.645   3.966   3.588
 7550SOL    HW223550   1.762   3.998   3.698
 7551SOL     OW23551   5.492   1.918   5.354
 7551SOL    HW123552   5.509   1.820   5.358
 7551SOL    HW223553   5.398   1.934   5.324
 7552SOL     OW23554   2.047   6.359   4.790
 7552SOL    HW123555   2.099   6.415   4.853
 7552SOL    HW223556   1.955   6.344   4.827
 7553SOL     OW23557   5.363   6.466   6.642
 7553SOL    HW123558   5.408   6.550   6.670
 7553SOL    HW223559   5.405   6.388   6.690
 7554SOL     OW23560   5.262   1.480   0.392
 7554SOL    HW123561   5.355   1.454   0.416
 7554SOL    HW223562   5.197   1.427   0.447
 7555SOL     OW23563   3.206   5.842   6.667
 7555SOL    HW123564   3.207   5.839   6.766
 7555SOL    HW223565   3.280   5.902   6.635
 7556SOL     OW23566   0.589   0.710   0.740
 7556SOL    HW123567   0.533   0.682   0.663
 7556SOL    HW223568   0.685   0.719   0.711
 7557SOL     OW23569   5.024   0.370   0.426
 7557SOL    HW123570   4.972   0.399   0.346
 7557SOL    HW223571   5.101   0.433   0.441
 7558SOL     OW23572   1.450   2.641   4.155
 7558SOL    HW123573   1.469   2.639   4.057
 7558SOL    HW223574   1.471   2.551   4.195
 7559SOL     OW23575   3.627   1.988   4.940
 7559SOL    HW123576   3.642   2.044   5.021
 7559SOL    HW223577   3.713   1.947   4.911
 7560SOL     OW23578   6.975   0.524   6.479
 7560SOL    HW123579   7.003   0.606   6.431
 7560SOL    HW223580   6.938   0.549   6.569
 7561SOL     OW23581   5.135   1.967   5.506
 7561SOL    HW123582   5.060   2.020   5.545
 7561SOL    HW223583   5.195   1.934   5.579
 7562SOL     OW23584   1.225   5.096   4.817
 7562SOL    HW123585   1.157   5.102   4.745
 7562SOL    HW223586   1.187   5.130   4.903
 7563SOL     OW23587   3.668   6.277   1.762
 7563SOL    HW123588   3.634   6.370   1.752
 7563SOL    HW223589   3.720   6.270   1.848
 7564SOL     OW23590   4.657   1.437   3.926
 7564SOL    HW123591   4.689   1.442   3.832
 7564SOL    HW223592   4.723   1.386   3.981
 7565SOL     OW23593   5.199   3.597   6.107
 7565SOL    HW123594   5.245   3.675   6.148
 7565SOL    HW223595   5.223   3.591   6.010
 7566SOL     OW23596   4.826   4.725   1.543
 7566SOL    HW123597   4.770   4.661   1.491
 7566SOL    HW223598   4.838   4.691   1.636
 7567SOL     OW23599   0.574   0.875   4.482
 7567SOL    HW123600   0.487   0.873   4.531
 7567SOL    HW223601   0.557   0.892   4.385
 7568SOL     OW23602   6.175   5.619   1.018
 7568SOL    HW123603   6.093   5.591   1.069
 7568SOL    HW223604   6.152   5.627   0.920
 7569SOL     OW23605   4.294   3.952   6.581
 7569SOL    HW123606   4.225   3.879   6.580
 7569SOL    HW223607   4.385   3.911   6.586
 7570SOL     OW23608   6.527   2.839   3.224
 7570SOL    HW123609   6.487   2.782   3.152
 7570SOL    HW223610   6.520   2.935   3.197
 7571SOL     OW23611   5.386   3.589   2.457
 7571SOL    HW123612   5.437   3.505   2.477
 7571SOL    HW223613   5.450   3.666   2.452
 7572SOL     OW23614   5.125   6.452   2.866
 7572SOL    HW123615   5.102   6.434   2.771
 7572SOL    HW223616   5.120   6.550   2.884
 7573SOL     OW23617   5.697   6.464   5.898
 7573SOL    HW123618   5.701   6.463   5.798
 7573SOL    HW223619   5.700   6.370   5.932
 7574SOL     OW23620   6.491   1.121   4.483
 7574SOL    HW123621   6.550   1.113   4.403
 7574SOL    HW223622   6.463   1.030   4.513
 7575SOL     OW23623   6.676   6.387   1.064
 7575SOL    HW123624   6.760   6.408   1.114
 7575SOL    HW223625   6.681   6.294   1.029
 7576SOL     OW23626   5.464   2.917   0.642
 7576SOL    HW123627   5.369   2.921   0.609
 7576SOL    HW223628   5.491   2.822   0.655
 7577SOL     OW23629   0.594   6.896   6.775
 7577SOL    HW123630   0.574   6.994   6.765
 7577SOL    HW223631   0.665   6.884   6.845
 7578SOL     OW23632   0.075   5.897   3.462
 7578SOL    HW123633   0.172   5.890   3.485
 7578SOL    HW223634   0.029   5.810   3.480
 7579SOL     OW23635   6.631   1.360   0.521
 7579SOL    HW123636   6.639   1.260   0.518
 7579SOL    HW223637   6.721   1.401   0.509
 7580SOL     OW23638   1.915   4.518   3.743
 7580SOL    HW123639   1.822   4.546   3.767
 7580SOL    HW223640   1.952   4.459   3.815
 7581SOL     OW23641   0.273   0.943   1.591
 7581SOL    HW123642   0.308   0.850   1.581
 7581SOL    HW223643   0.262   0.985   1.501
 7582SOL     OW23644   3.395   1.831   4.196
 7582SOL    HW123645   3.475   1.836   4.256
 7582SOL    HW223646   3.345   1.747   4.215
 7583SOL     OW23647   4.932   3.499   3.752
 7583SOL    HW123648   4.877   3.547   3.683
 7583SOL    HW223649   4.931   3.551   3.837
 7584SOL     OW23650   0.773   1.259   3.192
 7584SOL    HW123651   0.809   1.173   3.158
 7584SOL    HW223652   0.748   1.318   3.115
 7585SOL     OW23653   1.241   2.247   6.792
 7585SOL    HW123654   1.163   2.200   6.834
 7585SOL    HW223655   1.271   2.321   6.851
 7586SOL     OW23656   1.335   0.996   2.269
 7586SOL    HW123657   1.334   0.945   2.183
 7586SOL    HW223658   1.393   1.077   2.259
 7587SOL     OW23659   3.490   0.659   0.755
 7587SOL    HW123660   3.409   0.677   0.810
 7587SOL    HW223661   3.567   0.712   0.790
 7588SOL     OW23662   1.452   2.426   4.308
 7588SOL    HW123663   1.405   2.471   4.384
 7588SOL    HW223664   1.386   2.370   4.257
 7589SOL     OW23665   0.489   1.292   3.052
 7589SOL    HW123666   0.457   1.203   3.086
 7589SOL    HW223667   0.412   1.354   3.044
 7590SOL     OW23668   0.040   1.684   0.231
 7590SOL    HW123669   6.970   1.679   0.187
 7590SOL    HW223670   0.032   1.656   0.327
 7591SOL     OW23671   4.136   3.215   6.459
 7591SOL    HW123672   4.158   3.266   6.376
 7591SOL    HW223673   4.208   3.147   6.476
 7592SOL     OW23674   6.793   6.169   4.913
 7592SOL    HW123675   6.711   6.226   4.925
 7592SOL    HW223676   6.854   6.212   4.846
 7593SOL     OW23677   0.296   1.315   5.919
 7593SOL    HW123678   0.381   1.367   5.912
 7593SOL    HW223679   0.267   1.286   5.828
 7594SOL     OW23680   0.291   4.335   1.303
 7594SOL    HW123681   0.278   4.316   1.400
 7594SOL    HW223682   0.365   4.278   1.268
 7595SOL     OW23683   6.068   2.911   6.147
 7595SOL    HW123684   6.004   2.936   6.219
 7595SOL    HW223685   6.049   2.964   6.064
 7596SOL     OW23686   3.195   0.845   5.127
 7596SOL    HW123687   3.251   0.848   5.044
 7596SOL    HW223688   3.123   0.914   5.121
 7597SOL     OW23689   1.713   4.968   1.976
 7597SOL    HW123690   1.772   4.950   2.055
 7597SOL    HW223691   1.740   4.907   1.901
 7598SOL     OW23692   6.185   0.675   3.054
 7598SOL    HW123693   6.087   0.659   3.064
 7598SOL    HW223694   6.231   0.590   3.029
 7599SOL     OW23695   4.237   3.572   0.777
 7599SOL    HW123696   4.167   3.500   0.776
 7599SOL    HW223697   4.290   3.566   0.861
 7600SOL     OW23698   1.073   1.684   4.017
 7600SOL    HW123699   0.998   1.681   3.951
 7600SOL    HW223700   1.152   1.637   3.979
 7601SOL     OW23701   3.971   5.779   1.907
 7601SOL    HW123702   3.961   5.680   1.904
 7601SOL    HW223703   4.006   5.812   1.820
 7602SOL     OW23704   0.229   1.697   0.588
 7602SOL    HW123705   0.232   1.777   0.528
 7602SOL    HW223706   0.143   1.698   0.640
 7603SOL     OW23707   2.380   0.341   6.198
 7603SOL    HW123708   2.281   0.354   6.193
 7603SOL    HW223709   2.426   0.423   6.163
 7604SOL     OW23710   1.227   2.330   4.798
 7604SOL    HW123711   1.226   2.288   4.888
 7604SOL    HW223712   1.133   2.339   4.764
 7605SOL     OW23713   3.123   0.080   6.962
 7605SOL    HW123714   3.050   0.138   6.924
 7605SOL    HW223715   3.105   0.064   0.039
 7606SOL     OW23716   6.296   1.174   3.844
 7606SOL    HW123717   6.344   1.261   3.862
 7606SOL    HW223718   6.211   1.172   3.896
 7607SOL     OW23719   3.276   6.129   5.904
 7607SOL    HW123720   3.249   6.210   5.852
 7607SOL    HW223721   3.328   6.156   5.985
 7608SOL     OW23722   5.896   2.730   5.848
 7608SOL    HW123723   5.976   2.744   5.906
 7608SOL    HW223724   5.827   2.798   5.870
 7609SOL     OW23725   0.579   2.520   4.564
 7609SOL    HW123726   0.592   2.517   4.663
 7609SOL    HW223727   0.522   2.443   4.535
 7610SOL     OW23728   3.492   4.720   6.259
 7610SOL    HW123729   3.550   4.689   6.184
 7610SOL    HW223730   3.396   4.712   6.234
 7611SOL     OW23731   4.689   3.186   1.459
 7611SOL    HW123732   4.622   3.183   1.534
 7611SOL    HW223733   4.688   3.099   1.410
 7612SOL     OW23734   3.169   1.856   3.147
 7612SOL    HW123735   3.148   1.921   3.220
 7612SOL    HW223736   3.105   1.868   3.071
 7613SOL     OW23737   1.221   1.795   2.329
 7613SOL    HW123738   1.243   1.885   2.367
 7613SOL    HW223739   1.214   1.729   2.404
 7614SOL     OW23740   4.891   3.184   0.628
 7614SOL    HW123741   4.903   3.091   0.593
 7614SOL    HW223742   4.966   3.207   0.689
 7615SOL     OW23743   5.258   3.147   4.723
 7615SOL    HW123744   5.338   3.107   4.767
 7615SOL    HW223745   5.185   3.157   4.791
 7616SOL     OW23746   6.172   6.626   3.660
 7616SOL    HW123747   6.114   6.707   3.669
 7616SOL    HW223748   6.118   6.543   3.676
 7617SOL     OW23749   4.859   5.373   3.186
 7617SOL    HW123750   4.901   5.458   3.156
 7617SOL    HW223751   4.928   5.301   3.187
 7618SOL     OW23752   3.031   2.716   0.082
 7618SOL    HW123753   2.934   2.693   0.086
 7618SOL    HW223754   3.085   2.633   0.095
 7619SOL     OW23755   0.736   2.427   4.112
 7619SOL    HW123756   0.743   2.453   4.208
 7619SOL    HW223757   0.645   2.452   4.078
 7620SOL     OW23758   3.818   4.253   1.215
 7620SOL    HW123759   3.823   4.267   1.314
 7620SOL    HW223760   3.807   4.156   1.195
 7621SOL     OW23761   0.573   5.663   0.982
 7621SOL    HW123762   0.487   5.659   0.932
 7621SOL    HW223763   0.606   5.570   0.999
 7622SOL     OW23764   3.916   4.648   0.677
 7622SOL    HW123765   3.997   4.696   0.710
 7622SOL    HW223766   3.879   4.695   0.597
 7623SOL     OW23767   4.797   5.110   1.336
 7623SOL    HW123768   4.863   5.045   1.371
 7623SOL    HW223769   4.739   5.066   1.267
 7624SOL     OW23770   0.512   2.841   2.212
 7624SOL    HW123771   0.519   2.753   2.260
 7624SOL    HW223772   0.420   2.853   2.176
 7625SOL     OW23773   5.231   2.297   0.173
 7625SOL    HW123774   5.293   2.241   0.118
 7625SOL    HW223775   5.282   2.339   0.248
 7626SOL     OW23776   5.333   0.220   5.120
 7626SOL    HW123777   5.319   0.265   5.032
 7626SOL    HW223778   5.244   0.204   5.163
 7627SOL     OW23779   2.891   1.781   0.232
 7627SOL    HW123780   2.847   1.789   0.321
 7627SOL    HW223781   2.831   1.817   0.161
 7628SOL     OW23782   3.633   2.693   0.483
 7628SOL    HW123783   3.621   2.656   0.390
 7628SOL    HW223784   3.714   2.652   0.524
 7629SOL     OW23785   6.015   3.212   4.063
 7629SOL    HW123786   5.977   3.223   4.155
 7629SOL    HW223787   5.986   3.289   4.006
 7630SOL     OW23788   1.845   0.331   5.007
 7630SOL    HW123789   1.790   0.285   5.077
 7630SOL    HW223790   1.835   0.284   4.920
 7631SOL     OW23791   1.982   6.987   5.223
 7631SOL    HW123792   2.074   0.000   5.206
 7631SOL    HW223793   1.930   0.035   5.276
 7632SOL     OW23794   4.791   5.606   0.834
 7632SOL    HW123795   4.839   5.605   0.921
 7632SOL    HW223796   4.843   5.660   0.768
 7633SOL     OW23797   6.295   0.858   1.181
 7633SOL    HW123798   6.239   0.821   1.107
 7633SOL    HW223799   6.268   0.953   1.199
 7634SOL     OW23800   1.034   2.122   0.509
 7634SOL    HW123801   1.084   2.089   0.428
 7634SOL    HW223802   0.961   2.058   0.532
 7635SOL     OW23803   2.853   5.244   5.968
 7635SOL    HW123804   2.803   5.158   5.975
 7635SOL    HW223805   2.835   5.287   5.880
 7636SOL     OW23806   0.621   4.023   5.016
 7636SOL    HW123807   0.560   3.980   5.083
 7636SOL    HW223808   0.715   3.993   5.033
 7637SOL     OW23809   0.327   6.250   4.516
 7637SOL    HW123810   0.417   6.265   4.555
 7637SOL    HW223811   0.280   6.177   4.565
 7638SOL     OW23812   1.024   5.480   1.833
 7638SOL    HW123813   0.944   5.530   1.800
 7638SOL    HW223814   1.106   5.514   1.786
 7639SOL     OW23815   1.188   1.357   0.374
 7639SOL    HW123816   1.111   1.351   0.310
 7639SOL    HW223817   1.274   1.363   0.323
 7640SOL     OW23818   3.183   1.047   6.620
 7640SOL    HW123819   3.146   0.956   6.637
 7640SOL    HW223820   3.115   1.103   6.573
 7641SOL     OW23821   6.988   4.054   2.921
 7641SOL    HW123822   6.970   4.109   3.002
 7641SOL    HW223823   0.058   4.012   2.928
 7642SOL     OW23824   6.105   1.476   3.501
 7642SOL    HW123825   6.085   1.415   3.578
 7642SOL    HW223826   6.160   1.428   3.433
 7643SOL     OW23827   4.975   2.968   3.030
 7643SOL    HW123828   5.053   2.978   2.969
 7643SOL    HW223829   4.965   2.872   3.056
 7644SOL     OW23830   5.012   3.373   1.506
 7644SOL    HW123831   5.023   3.436   1.583
 7644SOL    HW223832   5.050   3.414   1.423
 7645SOL     OW23833   3.351   3.759   6.240
 7645SOL    HW123834   3.317   3.749   6.146
 7645SOL    HW223835   3.282   3.803   6.296
 7646SOL     OW23836   0.682   2.294   2.903
 7646SOL    HW123837   0.727   2.248   2.827
 7646SOL    HW223838   0.604   2.345   2.870
 7647SOL     OW23839   6.807   2.785   5.032
 7647SOL    HW123840   6.764   2.864   5.076
 7647SOL    HW223841   6.870   2.742   5.096
 7648SOL     OW23842   2.366   2.208   2.719
 7648SOL    HW123843   2.452   2.259   2.711
 7648SOL    HW223844   2.294   2.257   2.670
 7649SOL     OW23845   6.417   0.569   5.208
 7649SOL    HW123846   6.327   0.531   5.225
 7649SOL    HW223847   6.440   0.635   5.279
 7650SOL     OW23848   4.068   0.942   1.548
 7650SOL    HW123849   4.152   0.921   1.497
 7650SOL    HW223850   4.080   1.027   1.600
 7651SOL     OW23851   2.587   5.090   4.907
 7651SOL    HW123852   2.588   5.083   5.007
 7651SOL    HW223853   2.502   5.052   4.872
 7652SOL     OW23854   5.834   1.399   4.863
 7652SOL    HW123855   5.735   1.406   4.854
 7652SOL    HW223856   5.874   1.490   4.858
 7653SOL     OW23857   0.613   2.024   6.923
 7653SOL    HW123858   0.551   1.959   6.879
 7653SOL    HW223859   0.616   2.109   6.869
 7654SOL     OW23860   5.881   3.133   5.637
 7654SOL    HW123861   5.836   3.055   5.594
 7654SOL    HW223862   5.976   3.139   5.605
 7655SOL     OW23863   2.748   0.515   3.421
 7655SOL    HW123864   2.754   0.422   3.384
 7655SOL    HW223865   2.825   0.569   3.386
 7656SOL     OW23866   6.847   3.773   0.091
 7656SOL    HW123867   6.846   3.679   0.055
 7656SOL    HW223868   6.861   3.771   0.190
 7657SOL     OW23869   1.980   3.496   4.663
 7657SOL    HW123870   1.972   3.491   4.763
 7657SOL    HW223871   1.974   3.591   4.634
 7658SOL     OW23872   2.442   0.553   0.743
 7658SOL    HW123873   2.524   0.601   0.774
 7658SOL    HW223874   2.375   0.619   0.708
 7659SOL     OW23875   4.312   3.825   5.359
 7659SOL    HW123876   4.280   3.830   5.453
 7659SOL    HW223877   4.350   3.914   5.332
 7660SOL     OW23878   6.831   4.513   4.391
 7660SOL    HW123879   6.883   4.439   4.433
 7660SOL    HW223880   6.882   4.599   4.402
 7661SOL     OW23881   4.698   2.782   5.482
 7661SOL    HW123882   4.641   2.709   5.521
 7661SOL    HW223883   4.691   2.864   5.539
 7662SOL     OW23884   0.893   2.038   2.392
 7662SOL    HW123885   0.809   2.026   2.340
 7662SOL    HW223886   0.932   2.128   2.374
 7663SOL     OW23887   6.219   5.157   5.742
 7663SOL    HW123888   6.238   5.116   5.653
 7663SOL    HW223889   6.175   5.246   5.729
 7664SOL     OW23890   3.987   1.916   3.156
 7664SOL    HW123891   3.917   1.937   3.223
 7664SOL    HW223892   4.037   1.834   3.184
 7665SOL     OW23893   4.186   1.854   4.353
 7665SOL    HW123894   4.132   1.927   4.313
 7665SOL    HW223895   4.248   1.816   4.284
 7666SOL     OW23896   6.032   5.687   3.475
 7666SOL    HW123897   5.974   5.767   3.459
 7666SOL    HW223898   6.036   5.668   3.573
 7667SOL     OW23899   4.939   6.147   2.365
 7667SOL    HW123900   4.961   6.080   2.293
 7667SOL    HW223901   4.923   6.099   2.451
 7668SOL     OW23902   1.965   5.341   1.357
 7668SOL    HW123903   1.891   5.408   1.361
 7668SOL    HW223904   2.047   5.379   1.400
 7669SOL     OW23905   2.602   6.845   6.302
 7669SOL    HW123906   2.701   6.863   6.304
 7669SOL    HW223907   2.582   6.775   6.234
 7670SOL     OW23908   0.343   6.953   0.076
 7670SOL    HW123909   0.271   0.003   0.067
 7670SOL    HW223910   0.393   6.968   0.161
 7671SOL     OW23911   5.064   0.913   1.375
 7671SOL    HW123912   4.970   0.922   1.407
 7671SOL    HW223913   5.118   0.991   1.406
 7672SOL     OW23914   5.259   4.590   2.768
 7672SOL    HW123915   5.204   4.527   2.713
 7672SOL    HW223916   5.286   4.669   2.712
 7673SOL     OW23917   1.048   5.193   3.936
 7673SOL    HW123918   1.097   5.207   3.851
 7673SOL    HW223919   0.966   5.138   3.919
 7674SOL     OW23920   4.293   0.046   4.438
 7674SOL    HW123921   4.262   6.980   4.479
 7674SOL    HW223922   4.292   0.118   4.508
 7675SOL     OW23923   3.339   6.398   2.644
 7675SOL    HW123924   3.293   6.343   2.574
 7675SOL    HW223925   3.271   6.445   2.700
 7676SOL     OW23926   2.983   3.016   5.575
 7676SOL    HW123927   3.078   3.030   5.603
 7676SOL    HW223928   2.926   3.002   5.657
 7677SOL     OW23929   5.969   4.829   1.793
 7677SOL    HW123930   5.938   4.748   1.744
 7677SOL    HW223931   5.925   4.910   1.755
 7678SOL     OW23932   1.370   1.369   5.505
 7678SOL    HW123933   1.295   1.432   5.527
 7678SOL    HW223934   1.334   1.276   5.501
 7679SOL     OW23935   1.773   5.289   5.144
 7679SOL    HW123936   1.747   5.369   5.089
 7679SOL    HW223937   1.839   5.317   5.214
 7680SOL     OW23938   1.646   0.831   5.170
 7680SOL    HW123939   1.564   0.798   5.216
 7680SOL    HW223940   1.711   0.756   5.159
 7681SOL     OW23941   2.677   3.281   6.534
 7681SOL    HW123942   2.609   3.298   6.606
 7681SOL    HW223943   2.654   3.337   6.454
 7682SOL     OW23944   2.770   1.954   3.319
 7682SOL    HW123945   2.828   2.028   3.285
 7682SOL    HW223946   2.694   1.940   3.255
 7683SOL     OW23947   0.749   1.172   4.579
 7683SOL    HW123948   0.705   1.255   4.613
 7683SOL    HW223949   0.757   1.178   4.479
 7684SOL     OW23950   4.107   2.185   1.499
 7684SOL    HW123951   4.013   2.219   1.509
 7684SOL    HW223952   4.129   2.124   1.575
 7685SOL     OW23953   2.956   1.190   0.338
 7685SOL    HW123954   2.961   1.164   0.434
 7685SOL    HW223955   2.872   1.155   0.298
 7686SOL     OW23956   5.415   0.846   4.112
 7686SOL    HW123957   5.322   0.879   4.127
 7686SOL    HW223958   5.478   0.892   4.175
 7687SOL     OW23959   5.882   5.537   4.886
 7687SOL    HW123960   5.930   5.555   4.801
 7687SOL    HW223961   5.818   5.461   4.873
 7688SOL     OW23962   0.901   5.096   6.639
 7688SOL    HW123963   0.872   5.162   6.708
 7688SOL    HW223964   1.001   5.094   6.635
 7689SOL     OW23965   4.635   0.312   2.019
 7689SOL    HW123966   4.642   0.220   1.979
 7689SOL    HW223967   4.540   0.341   2.017
 7690SOL     OW23968   6.562   4.853   0.876
 7690SOL    HW123969   6.534   4.916   0.804
 7690SOL    HW223970   6.594   4.905   0.955
 7691SOL     OW23971   4.560   4.697   3.347
 7691SOL    HW123972   4.492   4.768   3.324
 7691SOL    HW223973   4.533   4.611   3.303
 7692SOL     OW23974   1.318   6.616   2.231
 7692SOL    HW123975   1.263   6.690   2.193
 7692SOL    HW223976   1.410   6.649   2.251
 7693SOL     OW23977   2.824   1.177   0.960
 7693SOL    HW123978   2.888   1.113   1.003
 7693SOL    HW223979   2.805   1.252   1.022
 7694SOL     OW23980   6.110   2.282   4.916
 7694SOL    HW123981   6.110   2.197   4.968
 7694SOL    HW223982   6.085   2.358   4.975
 7695SOL     OW23983   6.231   0.502   2.432
 7695SOL    HW123984   6.220   0.447   2.515
 7695SOL    HW223985   6.274   0.589   2.456
 7696SOL     OW23986   0.385   2.896   6.686
 7696SOL    HW123987   0.397   2.847   6.772
 7696SOL    HW223988   0.391   2.995   6.703
 7697SOL     OW23989   4.084   0.266   2.739
 7697SOL    HW123990   4.104   0.362   2.758
 7697SOL    HW223991   3.993   0.243   2.775
 7698SOL     OW23992   6.425   1.576   0.038
 7698SOL    HW123993   6.357   1.642   0.006
 7698SOL    HW223994   6.509   1.586   7.004
 7699SOL     OW23995   3.509   5.200   5.841
 7699SOL    HW123996   3.533   5.153   5.926
 7699SOL    HW223997   3.508   5.134   5.766
 7700SOL     OW23998   4.980   5.798   2.741
 7700SOL    HW123999   5.036   5.798   2.658
 7700SOL    HW224000   4.894   5.751   2.723
 7701SOL     OW24001   0.063   2.300   5.849
 7701SOL    HW124002   0.160   2.292   5.873
 7701SOL    HW224003   0.044   2.393   5.817
 7702SOL     OW24004   4.544   0.022   4.260
 7702SOL    HW124005   4.484   0.080   4.316
 7702SOL    HW224006   4.565   6.958   4.311
 7703SOL     OW24007   6.534   6.329   4.598
 7703SOL    HW124008   6.490   6.412   4.564
 7703SOL    HW224009   6.584   6.285   4.524
 7704SOL     OW24010   5.987   1.174   4.304
 7704SOL    HW124011   6.083   1.191   4.279
 7704SOL    HW224012   5.981   1.160   4.402
 7705SOL     OW24013   2.062   5.018   0.283
 7705SOL    HW124014   2.055   5.085   0.357
 7705SOL    HW224015   1.996   4.944   0.298
 7706SOL     OW24016   3.637   3.188   2.315
 7706SOL    HW124017   3.572   3.259   2.288
 7706SOL    HW224018   3.605   3.099   2.281
 7707SOL     OW24019   6.655   5.763   6.713
 7707SOL    HW124020   6.702   5.839   6.668
 7707SOL    HW224021   6.702   5.741   6.799
 7708SOL     OW24022   2.181   6.843   4.872
 7708SOL    HW124023   2.172   6.806   4.780
 7708SOL    HW224024   2.090   6.858   4.911
 7709SOL     OW24025   0.281   4.914   1.239
 7709SOL    HW124026   0.252   4.870   1.325
 7709SOL    HW224027   0.251   5.009   1.240
 7710SOL     OW24028   1.729   3.262   0.720
 7710SOL    HW124029   1.732   3.340   0.657
 7710SOL    HW224030   1.790   3.191   0.687
 7711SOL     OW24031   6.235   4.553   5.376
 7711SOL    HW124032   6.226   4.471   5.433
 7711SOL    HW224033   6.329   4.585   5.378
 7712SOL     OW24034   6.355   4.603   6.167
 7712SOL    HW124035   6.363   4.555   6.080
 7712SOL    HW224036   6.402   4.691   6.162
 7713SOL     OW24037   1.733   4.832   0.324
 7713SOL    HW124038   1.688   4.759   0.272
 7713SOL    HW224039   1.670   4.867   0.393
 7714SOL     OW24040   6.727   0.595   4.820
 7714SOL    HW124041   6.791   0.575   4.746
 7714SOL    HW224042   6.773   0.648   4.891
 7715SOL     OW24043   2.163   2.636   5.896
 7715SOL    HW124044   2.096   2.706   5.871
 7715SOL    HW224045   2.192   2.650   5.990
 7716SOL     OW24046   0.829   5.501   5.729
 7716SOL    HW124047   0.920   5.471   5.700
 7716SOL    HW224048   0.837   5.575   5.796
 7717SOL     OW24049   1.728   1.809   6.785
 7717SOL    HW124050   1.793   1.839   6.715
 7717SOL    HW224051   1.637   1.801   6.744
 7718SOL     OW24052   1.521   4.393   2.737
 7718SOL    HW124053   1.498   4.431   2.826
 7718SOL    HW224054   1.438   4.380   2.683
 7719SOL     OW24055   1.866   3.712   4.891
 7719SOL    HW124056   1.937   3.774   4.925
 7719SOL    HW224057   1.779   3.736   4.933
 7720SOL     OW24058   6.193   1.489   6.747
 7720SOL    HW124059   6.196   1.393   6.718
 7720SOL    HW224060   6.138   1.497   6.830
 7721SOL     OW24061   0.817   0.916   2.636
 7721SOL    HW124062   0.737   0.855   2.637
 7721SOL    HW224063   0.823   0.961   2.547
 7722SOL     OW24064   2.072   5.747   3.906
 7722SOL    HW124065   2.057   5.837   3.867
 7722SOL    HW224066   1.984   5.709   3.936
 7723SOL     OW24067   4.886   3.924   0.384
 7723SOL    HW124068   4.811   3.906   0.448
 7723SOL    HW224069   4.895   3.847   0.321
 7724SOL     OW24070   2.764   4.147   1.588
 7724SOL    HW124071   2.711   4.170   1.506
 7724SOL    HW224072   2.755   4.049   1.606
 7725SOL     OW24073   5.500   3.264   3.282
 7725SOL    HW124074   5.412   3.311   3.285
 7725SOL    HW224075   5.524   3.243   3.188
 7726SOL     OW24076   0.210   3.384   6.217
 7726SOL    HW124077   0.223   3.296   6.263
 7726SOL    HW224078   0.230   3.374   6.120
 7727SOL     OW24079   4.862   2.448   2.346
 7727SOL    HW124080   4.791   2.455   2.416
 7727SOL    HW224081   4.900   2.356   2.347
 7728SOL     OW24082   2.204   3.227   5.045
 7728SOL    HW124083   2.279   3.166   5.069
 7728SOL    HW224084   2.117   3.185   5.070
 7729SOL     OW24085   5.570   2.130   3.608
 7729SOL    HW124086   5.643   2.138   3.676
 7729SOL    HW224087   5.587   2.050   3.550
 7730SOL     OW24088   6.439   4.329   5.075
 7730SOL    HW124089   6.407   4.326   5.170
 7730SOL    HW224090   6.511   4.399   5.066
 7731SOL     OW24091   5.688   6.755   0.747
 7731SOL    HW124092   5.735   6.707   0.673
 7731SOL    HW224093   5.627   6.824   0.708
 7732SOL     OW24094   4.443   0.197   6.448
 7732SOL    HW124095   4.384   0.193   6.529
 7732SOL    HW224096   4.388   0.182   6.366
 7733SOL     OW24097   6.526   6.375   2.147
 7733SOL    HW124098   6.486   6.459   2.183
 7733SOL    HW224099   6.588   6.397   2.071
 7734SOL     OW24100   3.246   3.966   5.274
 7734SOL    HW124101   3.178   3.914   5.222
 7734SOL    HW224102   3.220   4.062   5.276
 7735SOL     OW24103   6.869   6.073   0.449
 7735SOL    HW124104   6.903   6.000   0.389
 7735SOL    HW224105   6.868   6.159   0.399
 7736SOL     OW24106   3.154   3.055   0.633
 7736SOL    HW124107   3.170   3.073   0.730
 7736SOL    HW224108   3.113   2.965   0.622
 7737SOL     OW24109   4.076   4.668   1.703
 7737SOL    HW124110   3.988   4.712   1.685
 7737SOL    HW224111   4.085   4.586   1.645
 7738SOL     OW24112   2.722   6.425   6.807
 7738SOL    HW124113   2.734   6.514   6.763
 7738SOL    HW224114   2.637   6.382   6.775
 7739SOL     OW24115   1.302   2.162   1.015
 7739SOL    HW124116   1.280   2.233   0.948
 7739SOL    HW224117   1.235   2.087   1.008
 7740SOL     OW24118   1.266   1.132   4.257
 7740SOL    HW124119   1.252   1.203   4.188
 7740SOL    HW224120   1.206   1.149   4.335
 7741SOL     OW24121   1.781   4.457   6.246
 7741SOL    HW124122   1.877   4.458   6.274
 7741SOL    HW224123   1.761   4.370   6.200
 7742SOL     OW24124   3.624   1.412   4.158
 7742SOL    HW124125   3.604   1.475   4.083
 7742SOL    HW224126   3.564   1.432   4.236
 7743SOL     OW24127   5.156   1.204   6.091
 7743SOL    HW124128   5.231   1.265   6.066
 7743SOL    HW224129   5.180   1.154   6.174
 7744SOL     OW24130   0.537   6.024   4.462
 7744SOL    HW124131   0.518   6.054   4.368
 7744SOL    HW224132   0.583   6.097   4.512
 7745SOL     OW24133   1.714   6.505   0.121
 7745SOL    HW124134   1.770   6.583   0.094
 7745SOL    HW224135   1.626   6.537   0.155
 7746SOL     OW24136   1.397   6.357   0.857
 7746SOL    HW124137   1.474   6.305   0.819
 7746SOL    HW224138   1.311   6.310   0.835
 7747SOL     OW24139   0.782   5.948   0.831
 7747SOL    HW124140   0.704   6.010   0.826
 7747SOL    HW224141   0.755   5.858   0.798
 7748SOL     OW24142   4.215   2.938   5.419
 7748SOL    HW124143   4.190   2.956   5.514
 7748SOL    HW224144   4.151   2.872   5.379
 7749SOL     OW24145   3.577   3.172   4.199
 7749SOL    HW124146   3.487   3.150   4.162
 7749SOL    HW224147   3.639   3.197   4.124
 7750SOL     OW24148   5.782   5.123   5.343
 7750SOL    HW124149   5.748   5.078   5.260
 7750SOL    HW224150   5.881   5.110   5.350
 7751SOL     OW24151   0.159   0.869   5.021
 7751SOL    HW124152   0.237   0.882   4.960
 7751SOL    HW224153   0.153   0.772   5.047
 7752SOL     OW24154   5.898   5.559   5.431
 7752SOL    HW124155   5.940   5.573   5.341
 7752SOL    HW224156   5.905   5.643   5.485
 7753SOL     OW24157   1.848   0.881   4.186
 7753SOL    HW124158   1.850   0.892   4.285
 7753SOL    HW224159   1.753   0.881   4.154
 7754SOL     OW24160   5.765   0.272   0.667
 7754SOL    HW124161   5.792   0.177   0.684
 7754SOL    HW224162   5.666   0.277   0.652
 7755SOL     OW24163   0.333   5.802   5.190
 7755SOL    HW124164   0.282   5.744   5.127
 7755SOL    HW224165   0.390   5.865   5.137
 7756SOL     OW24166   2.916   5.096   2.113
 7756SOL    HW124167   2.838   5.037   2.096
 7756SOL    HW224168   2.995   5.041   2.142
 7757SOL     OW24169   4.535   6.303   5.579
 7757SOL    HW124170   4.613   6.355   5.615
 7757SOL    HW224171   4.546   6.290   5.481
 7758SOL     OW24172   2.460   2.229   5.967
 7758SOL    HW124173   2.407   2.149   5.995
 7758SOL    HW224174   2.464   2.234   5.867
 7759SOL     OW24175   2.201   0.401   4.279
 7759SOL    HW124176   2.178   0.490   4.318
 7759SOL    HW224177   2.297   0.380   4.297
 7760SOL     OW24178   5.190   2.902   1.970
 7760SOL    HW124179   5.104   2.948   1.950
 7760SOL    HW224180   5.235   2.876   1.885
 7761SOL     OW24181   2.868   0.085   6.837
 7761SOL    HW124182   2.834   0.031   6.760
 7761SOL    HW224183   2.797   0.093   6.906
 7762SOL     OW24184   4.247   1.703   0.216
 7762SOL    HW124185   4.299   1.651   0.148
 7762SOL    HW224186   4.220   1.791   0.176
 7763SOL     OW24187   1.913   2.068   0.624
 7763SOL    HW124188   1.824   2.071   0.670
 7763SOL    HW224189   1.942   1.973   0.615
 7764SOL     OW24190   3.852   2.952   2.085
 7764SOL    HW124191   3.882   3.047   2.079
 7764SOL    HW224192   3.924   2.892   2.050
 7765SOL     OW24193   6.200   3.186   2.883
 7765SOL    HW124194   6.270   3.210   2.815
 7765SOL    HW224195   6.130   3.257   2.885
 7766SOL     OW24196   6.031   1.823   6.900
 7766SOL    HW124197   6.005   1.727   6.888
 7766SOL    HW224198   6.121   1.828   6.942
 7767SOL     OW24199   3.864   6.240   4.000
 7767SOL    HW124200   3.786   6.208   4.054
 7767SOL    HW224201   3.851   6.217   3.904
 7768SOL     OW24202   3.679   4.947   2.091
 7768SOL    HW124203   3.638   4.869   2.043
 7768SOL    HW224204   3.613   4.986   2.155
 7769SOL     OW24205   5.346   2.033   0.611
 7769SOL    HW124206   5.264   1.976   0.617
 7769SOL    HW224207   5.419   1.983   0.566
 7770SOL     OW24208   3.094   4.784   1.471
 7770SOL    HW124209   3.040   4.705   1.499
 7770SOL    HW224210   3.155   4.811   1.546
 7771SOL     OW24211   2.903   2.023   5.312
 7771SOL    HW124212   2.903   2.076   5.396
 7771SOL    HW224213   2.905   2.085   5.233
 7772SOL     OW24214   4.927   0.780   3.964
 7772SOL    HW124215   4.863   0.854   3.944
 7772SOL    HW224216   4.889   0.722   4.036
 7773SOL     OW24217   4.200   3.944   5.608
 7773SOL    HW124218   4.114   3.975   5.648
 7773SOL    HW224219   4.274   3.953   5.675
 7774SOL     OW24220   5.273   1.414   6.382
 7774SOL    HW124221   5.203   1.475   6.419
 7774SOL    HW224222   5.353   1.414   6.442
 7775SOL     OW24223   3.425   6.828   2.605
 7775SOL    HW124224   3.466   6.768   2.535
 7775SOL    HW224225   3.495   6.887   2.643
 7776SOL     OW24226   3.771   3.285   6.176
 7776SOL    HW124227   3.674   3.274   6.197
 7776SOL    HW224228   3.792   3.381   6.162
 7777SOL     OW24229   2.431   1.256   6.878
 7777SOL    HW124230   2.374   1.225   6.802
 7777SOL    HW224231   2.451   1.353   6.866
 7778SOL     OW24232   5.676   0.099   6.618
 7778SOL    HW124233   5.743   0.066   6.553
 7778SOL    HW224234   5.611   0.160   6.572
 7779SOL     OW24235   3.507   2.354   0.662
 7779SOL    HW124236   3.488   2.404   0.747
 7779SOL    HW224237   3.606   2.342   0.652
 7780SOL     OW24238   1.559   6.393   4.418
 7780SOL    HW124239   1.491   6.353   4.357
 7780SOL    HW224240   1.637   6.331   4.426
 7781SOL     OW24241   1.486   3.617   5.788
 7781SOL    HW124242   1.468   3.530   5.835
 7781SOL    HW224243   1.555   3.668   5.839
 7782SOL     OW24244   2.481   3.907   6.660
 7782SOL    HW124245   2.489   3.814   6.695
 7782SOL    HW224246   2.426   3.907   6.576
 7783SOL     OW24247   2.453   6.283   6.754
 7783SOL    HW124248   2.403   6.237   6.828
 7783SOL    HW224249   2.393   6.349   6.709
 7784SOL     OW24250   0.817   2.807   6.887
 7784SOL    HW124251   0.763   2.873   6.835
 7784SOL    HW224252   0.914   2.821   6.868
 7785SOL     OW24253   2.327   6.457   4.330
 7785SOL    HW124254   2.300   6.362   4.318
 7785SOL    HW224255   2.345   6.498   4.240
 7786SOL     OW24256   3.017   4.757   5.240
 7786SOL    HW124257   3.088   4.745   5.309
 7786SOL    HW224258   2.965   4.673   5.230
 7787SOL     OW24259   2.196   2.866   4.812
 7787SOL    HW124260   2.296   2.854   4.816
 7787SOL    HW224261   2.152   2.796   4.868
 7788SOL     OW24262   1.062   1.609   1.714
 7788SOL    HW124263   1.068   1.704   1.747
 7788SOL    HW224264   0.968   1.577   1.724
 7789SOL     OW24265   2.617   0.215   1.361
 7789SOL    HW124266   2.627   0.275   1.281
 7789SOL    HW224267   2.598   0.271   1.442
 7790SOL     OW24268   6.573   3.932   3.002
 7790SOL    HW124269   6.574   3.832   3.006
 7790SOL    HW224270   6.478   3.964   2.991
 7791SOL     OW24271   2.812   5.218   4.607
 7791SOL    HW124272   2.801   5.128   4.651
 7791SOL    HW224273   2.755   5.285   4.654
 7792SOL     OW24274   2.248   6.201   6.303
 7792SOL    HW124275   2.348   6.207   6.309
 7792SOL    HW224276   2.220   6.105   6.311
 7793SOL     OW24277   1.329   1.070   6.039
 7793SOL    HW124278   1.316   1.029   5.949
 7793SOL    HW224279   1.243   1.110   6.071
 7794SOL     OW24280   5.190   5.394   4.557
 7794SOL    HW124281   5.128   5.468   4.583
 7794SOL    HW224282   5.173   5.367   4.462
 7795SOL     OW24283   2.171   4.038   5.841
 7795SOL    HW124284   2.184   4.065   5.746
 7795SOL    HW224285   2.139   3.944   5.845
 7796SOL     OW24286   3.736   3.961   3.501
 7796SOL    HW124287   3.689   3.875   3.520
 7796SOL    HW224288   3.825   3.962   3.547
 7797SOL     OW24289   0.267   6.251   2.788
 7797SOL    HW124290   0.312   6.334   2.822
 7797SOL    HW224291   0.212   6.211   2.861
 7798SOL     OW24292   3.650   5.419   0.089
 7798SOL    HW124293   3.715   5.356   0.046
 7798SOL    HW224294   3.671   5.512   0.061
 7799SOL     OW24295   0.161   5.765   1.240
 7799SOL    HW124296   0.203   5.838   1.294
 7799SOL    HW224297   0.152   5.795   1.145
 7800SOL     OW24298   0.361   4.939   1.772
 7800SOL    HW124299   0.350   4.844   1.742
 7800SOL    HW224300   0.458   4.958   1.789
 7801SOL     OW24301   2.469   1.480   0.192
 7801SOL    HW124302   2.431   1.564   0.231
 7801SOL    HW224303   2.567   1.491   0.177
 7802SOL     OW24304   5.786   2.528   1.689
 7802SOL    HW124305   5.758   2.623   1.704
 7802SOL    HW224306   5.886   2.522   1.688
 7803SOL     OW24307   3.808   3.906   5.980
 7803SOL    HW124308   3.736   3.841   6.003
 7803SOL    HW224309   3.777   3.964   5.904
 7804SOL     OW24310   5.184   1.511   4.962
 7804SOL    HW124311   5.242   1.581   5.004
 7804SOL    HW224312   5.210   1.421   4.996
 7805SOL     OW24313   5.377   2.564   1.983
 7805SOL    HW124314   5.431   2.515   1.914
 7805SOL    HW224315   5.421   2.556   2.072
 7806SOL     OW24316   5.418   2.900   6.254
 7806SOL    HW124317   5.486   2.832   6.281
 7806SOL    HW224318   5.353   2.859   6.190
 7807SOL     OW24319   6.893   4.148   6.541
 7807SOL    HW124320   6.962   4.094   6.589
 7807SOL    HW224321   6.932   4.186   6.458
 7808SOL     OW24322   0.296   1.354   4.771
 7808SOL    HW124323   0.362   1.398   4.710
 7808SOL    HW224324   0.330   1.264   4.797
 7809SOL     OW24325   2.147   5.380   4.397
 7809SOL    HW124326   2.157   5.429   4.310
 7809SOL    HW224327   2.104   5.441   4.464
 7810SOL     OW24328   3.130   0.596   5.421
 7810SOL    HW124329   3.046   0.622   5.373
 7810SOL    HW224330   3.112   0.591   5.519
 7811SOL     OW24331   5.164   4.638   3.565
 7811SOL    HW124332   5.161   4.549   3.612
 7811SOL    HW224333   5.163   4.623   3.466
 7812SOL     OW24334   1.989   1.514   4.485
 7812SOL    HW124335   2.015   1.513   4.389
 7812SOL    HW224336   1.955   1.604   4.510
 7813SOL     OW24337   6.058   3.028   6.498
 7813SOL    HW124338   6.059   3.127   6.485
 7813SOL    HW224339   6.142   2.988   6.461
 7814SOL     OW24340   6.621   3.060   3.621
 7814SOL    HW124341   6.627   3.028   3.715
 7814SOL    HW224342   6.564   2.998   3.567
 7815SOL     OW24343   6.051   1.662   6.580
 7815SOL    HW124344   6.105   1.740   6.551
 7815SOL    HW224345   6.102   1.609   6.647
 7816SOL     OW24346   0.287   3.592   5.734
 7816SOL    HW124347   0.261   3.534   5.657
 7816SOL    HW224348   0.378   3.566   5.766
 7817SOL     OW24349   5.654   4.346   4.576
 7817SOL    HW124350   5.626   4.334   4.481
 7817SOL    HW224351   5.754   4.348   4.581
 7818SOL     OW24352   6.482   6.496   1.574
 7818SOL    HW124353   6.526   6.545   1.498
 7818SOL    HW224354   6.384   6.516   1.575
 7819SOL     OW24355   6.578   2.505   1.232
 7819SOL    HW124356   6.564   2.558   1.315
 7819SOL    HW224357   6.538   2.414   1.243
 7820SOL     OW24358   1.760   1.744   6.103
 7820SOL    HW124359   1.720   1.664   6.058
 7820SOL    HW224360   1.814   1.796   6.038
 7821SOL     OW24361   3.915   5.701   1.184
 7821SOL    HW124362   3.876   5.631   1.124
 7821SOL    HW224363   4.013   5.708   1.169
 7822SOL     OW24364   1.065   5.640   5.016
 7822SOL    HW124365   1.125   5.705   5.062
 7822SOL    HW224366   0.975   5.681   5.003
 7823SOL     OW24367   2.289   4.313   5.070
 7823SOL    HW124368   2.278   4.227   5.020
 7823SOL    HW224369   2.340   4.296   5.154
 7824SOL     OW24370   0.128   2.334   5.370
 7824SOL    HW124371   0.134   2.289   5.281
 7824SOL    HW224372   0.143   2.267   5.443
 7825SOL     OW24373   2.183   2.189   6.593
 7825SOL    HW124374   2.251   2.130   6.549
 7825SOL    HW224375   2.151   2.146   6.677
 7826SOL     OW24376   6.726   2.548   6.745
 7826SOL    HW124377   6.748   2.577   6.838
 7826SOL    HW224378   6.711   2.628   6.687
 7827SOL     OW24379   6.877   6.408   2.770
 7827SOL    HW124380   6.865   6.333   2.705
 7827SOL    HW224381   6.825   6.487   2.740
 7828SOL     OW24382   0.179   3.799   6.873
 7828SOL    HW124383   0.185   3.892   6.911
 7828SOL    HW224384   0.125   3.742   6.935
 7829SOL     OW24385   3.405   2.796   1.438
 7829SOL    HW124386   3.456   2.833   1.515
 7829SOL    HW224387   3.319   2.757   1.470
 7830SOL     OW24388   3.167   5.508   4.632
 7830SOL    HW124389   3.160   5.409   4.644
 7830SOL    HW224390   3.224   5.529   4.553
 7831SOL     OW24391   1.737   1.886   0.996
 7831SOL    HW124392   1.832   1.884   1.028
 7831SOL    HW224393   1.686   1.956   1.047
 7832SOL     OW24394   5.810   0.462   5.096
 7832SOL    HW124395   5.731   0.501   5.049
 7832SOL    HW224396   5.799   0.363   5.103
 7833SOL     OW24397   2.087   0.386   4.032
 7833SOL    HW124398   2.046   0.467   4.073
 7833SOL    HW224399   2.147   0.341   4.099
 7834SOL     OW24400   6.425   2.678   4.450
 7834SOL    HW124401   6.455   2.618   4.376
 7834SOL    HW224402   6.433   2.773   4.422
 7835SOL     OW24403   4.307   1.986   5.277
 7835SOL    HW124404   4.255   2.069   5.259
 7835SOL    HW224405   4.323   1.937   5.192
 7836SOL     OW24406   3.657   4.261   5.165
 7836SOL    HW124407   3.727   4.224   5.104
 7836SOL    HW224408   3.566   4.243   5.128
 7837SOL     OW24409   6.116   6.541   0.142
 7837SOL    HW124410   6.112   6.509   0.048
 7837SOL    HW224411   6.211   6.563   0.166
 7838SOL     OW24412   5.415   5.588   1.148
 7838SOL    HW124413   5.427   5.687   1.153
 7838SOL    HW224414   5.467   5.552   1.071
 7839SOL     OW24415   6.319   4.301   4.821
 7839SOL    HW124416   6.340   4.219   4.767
 7839SOL    HW224417   6.378   4.305   4.901
 7840SOL     OW24418   2.016   4.150   3.165
 7840SOL    HW124419   2.063   4.204   3.095
 7840SOL    HW224420   2.050   4.056   3.163
 7841SOL     OW24421   5.315   2.041   5.909
 7841SOL    HW124422   5.374   2.119   5.887
 7841SOL    HW224423   5.240   2.072   5.968
 7842SOL     OW24424   1.762   1.394   2.527
 7842SOL    HW124425   1.778   1.309   2.478
 7842SOL    HW224426   1.849   1.433   2.556
 7843SOL     OW24427   0.423   6.388   3.937
 7843SOL    HW124428   0.498   6.425   3.882
 7843SOL    HW224429   0.363   6.333   3.878
 7844SOL     OW24430   3.555   1.280   2.316
 7844SOL    HW124431   3.530   1.370   2.353
 7844SOL    HW224432   3.651   1.261   2.339
 7845SOL     OW24433   6.118   1.927   1.318
 7845SOL    HW124434   6.091   1.843   1.271
 7845SOL    HW224435   6.039   1.965   1.367
 7846SOL     OW24436   1.306   2.464   6.952
 7846SOL    HW124437   1.214   2.473   6.990
 7846SOL    HW224438   1.348   2.554   6.945
 7847SOL     OW24439   5.933   2.215   4.165
 7847SOL    HW124440   5.904   2.193   4.258
 7847SOL    HW224441   6.029   2.191   4.153
 7848SOL     OW24442   2.589   5.088   0.644
 7848SOL    HW124443   2.563   5.010   0.700
 7848SOL    HW224444   2.595   5.060   0.548
 7849SOL     OW24445   4.864   3.727   5.692
 7849SOL    HW124446   4.885   3.642   5.740
 7849SOL    HW224447   4.766   3.730   5.671
 7850SOL     OW24448   6.627   1.241   3.484
 7850SOL    HW124449   6.668   1.328   3.511
 7850SOL    HW224450   6.569   1.207   3.559
 7851SOL     OW24451   0.976   4.403   1.361
 7851SOL    HW124452   1.042   4.478   1.364
 7851SOL    HW224453   1.025   4.316   1.365
 7852SOL     OW24454   2.207   1.738   0.417
 7852SOL    HW124455   2.249   1.825   0.393
 7852SOL    HW224456   2.258   1.695   0.491
 7853SOL     OW24457   4.136   2.836   1.407
 7853SOL    HW124458   4.213   2.793   1.360
 7853SOL    HW224459   4.050   2.804   1.367
 7854SOL     OW24460   4.442   1.799   5.859
 7854SOL    HW124461   4.512   1.855   5.814
 7854SOL    HW224462   4.364   1.856   5.883
 7855SOL     OW24463   5.365   0.000   4.262
 7855SOL    HW124464   5.421   0.054   4.199
 7855SOL    HW224465   5.354   0.051   4.348
 7856SOL     OW24466   1.873   5.299   4.754
 7856SOL    HW124467   1.863   5.260   4.662
 7856SOL    HW224468   1.970   5.302   4.778
 7857SOL     OW24469   5.396   4.138   6.778
 7857SOL    HW124470   5.488   4.177   6.779
 7857SOL    HW224471   5.335   4.197   6.726
 7858SOL     OW24472   0.585   4.980   5.727
 7858SOL    HW124473   0.507   5.043   5.727
 7858SOL    HW224474   0.593   4.938   5.817
 7859SOL     OW24475   5.343   2.549   6.375
 7859SOL    HW124476   5.254   2.583   6.345
 7859SOL    HW224477   5.391   2.621   6.426
 7860SOL     OW24478   2.854   0.956   5.268
 7860SOL    HW124479   2.797   0.956   5.186
 7860SOL    HW224480   2.862   1.050   5.302
 7861SOL     OW24481   2.467   6.384   1.148
 7861SOL    HW124482   2.478   6.320   1.072
 7861SOL    HW224483   2.488   6.338   1.234
 7862SOL     OW24484   2.938   6.296   1.385
 7862SOL    HW124485   2.975   6.263   1.298
 7862SOL    HW224486   2.927   6.396   1.380
 7863SOL     OW24487   0.122   4.505   3.686
 7863SOL    HW124488   0.032   4.478   3.653
 7863SOL    HW224489   0.158   4.578   3.628
 7864SOL     OW24490   2.531   6.295   5.952
 7864SOL    HW124491   2.497   6.388   5.936
 7864SOL    HW224492   2.514   6.238   5.872
 7865SOL     OW24493   6.405   6.296   3.850
 7865SOL    HW124494   6.332   6.313   3.917
 7865SOL    HW224495   6.431   6.200   3.854
 7866SOL     OW24496   1.729   0.610   6.339
 7866SOL    HW124497   1.718   0.702   6.376
 7866SOL    HW224498   1.756   0.547   6.412
 7867SOL     OW24499   5.540   0.520   3.600
 7867SOL    HW124500   5.470   0.465   3.644
 7867SOL    HW224501   5.598   0.462   3.543
 7868SOL     OW24502   3.808   6.474   1.011
 7868SOL    HW124503   3.823   6.418   1.093
 7868SOL    HW224504   3.887   6.466   0.951
 7869SOL     OW24505   5.061   3.887   5.615
 7869SOL    HW124506   4.992   3.818   5.635
 7869SOL    HW224507   5.044   3.927   5.525
 7870SOL     OW24508   4.748   6.382   4.906
 7870SOL    HW124509   4.829   6.432   4.877
 7870SOL    HW224510   4.761   6.348   5.000
 7871SOL     OW24511   5.293   1.312   2.250
 7871SOL    HW124512   5.197   1.290   2.233
 7871SOL    HW224513   5.347   1.227   2.252
 7872SOL     OW24514   1.759   5.734   2.607
 7872SOL    HW124515   1.686   5.669   2.628
 7872SOL    HW224516   1.833   5.725   2.673
 7873SOL     OW24517   0.106   1.319   0.382
 7873SOL    HW124518   0.018   1.365   0.380
 7873SOL    HW224519   0.179   1.384   0.360
 7874SOL     OW24520   5.741   2.631   1.047
 7874SOL    HW124521   5.688   2.659   0.967
 7874SOL    HW224522   5.680   2.592   1.116
 7875SOL     OW24523   4.273   4.213   6.570
 7875SOL    HW124524   4.290   4.115   6.576
 7875SOL    HW224525   4.227   4.233   6.483
 7876SOL     OW24526   0.576   0.360   2.740
 7876SOL    HW124527   0.536   0.346   2.650
 7876SOL    HW224528   0.525   0.306   2.808
 7877SOL     OW24529   6.627   1.465   2.702
 7877SOL    HW124530   6.722   1.435   2.694
 7877SOL    HW224531   6.603   1.519   2.622
 7878SOL     OW24532   4.735   4.712   3.564
 7878SOL    HW124533   4.790   4.793   3.544
 7878SOL    HW224534   4.698   4.674   3.479
 7879SOL     OW24535   2.705   4.773   3.278
 7879SOL    HW124536   2.614   4.773   3.320
 7879SOL    HW224537   2.717   4.688   3.227
 7880SOL     OW24538   1.652   3.746   1.577
 7880SOL    HW124539   1.731   3.805   1.566
 7880SOL    HW224540   1.650   3.709   1.670
 7881SOL     OW24541   4.961   3.624   4.301
 7881SOL    HW124542   4.943   3.685   4.378
 7881SOL    HW224543   5.015   3.546   4.332
 7882SOL     OW24544   1.954   3.145   1.153
 7882SOL    HW124545   2.045   3.111   1.176
 7882SOL    HW224546   1.895   3.140   1.234
 7883SOL     OW24547   1.003   1.257   4.928
 7883SOL    HW124548   0.939   1.281   5.001
 7883SOL    HW224549   1.072   1.194   4.963
 7884SOL     OW24550   0.438   3.150   4.693
 7884SOL    HW124551   0.386   3.134   4.777
 7884SOL    HW224552   0.415   3.078   4.627
 7885SOL     OW24553   6.118   5.251   6.965
 7885SOL    HW124554   6.172   5.312   6.907
 7885SOL    HW224555   6.179   5.187   7.011
 7886SOL     OW24556   4.711   5.724   6.647
 7886SOL    HW124557   4.740   5.738   6.552
 7886SOL    HW224558   4.775   5.663   6.693
 7887SOL     OW24559   4.805   2.214   0.273
 7887SOL    HW124560   4.758   2.126   0.283
 7887SOL    HW224561   4.752   2.273   0.213
 7888SOL     OW24562   4.720   0.577   4.549
 7888SOL    HW124563   4.754   0.488   4.580
 7888SOL    HW224564   4.622   0.573   4.535
 7889SOL     OW24565   0.079   5.863   2.395
 7889SOL    HW124566   0.066   5.937   2.328
 7889SOL    HW224567   0.082   5.775   2.348
 7890SOL     OW24568   1.711   3.939   2.491
 7890SOL    HW124569   1.783   3.896   2.436
 7890SOL    HW224570   1.743   4.029   2.523
 7891SOL     OW24571   2.587   4.577   2.004
 7891SOL    HW124572   2.525   4.605   1.931
 7891SOL    HW224573   2.681   4.576   1.969
 7892SOL     OW24574   2.068   2.328   5.536
 7892SOL    HW124575   2.067   2.388   5.616
 7892SOL    HW224576   2.151   2.344   5.483
 7893SOL     OW24577   6.220   6.343   0.929
 7893SOL    HW124578   6.142   6.287   0.903
 7893SOL    HW224579   6.228   6.421   0.866
 7894SOL     OW24580   2.498   6.366   1.971
 7894SOL    HW124581   2.593   6.388   1.949
 7894SOL    HW224582   2.438   6.434   1.930
 7895SOL     OW24583   6.188   1.126   4.610
 7895SOL    HW124584   6.093   1.137   4.579
 7895SOL    HW224585   6.208   1.028   4.617
 7896SOL     OW24586   5.065   4.272   5.542
 7896SOL    HW124587   5.046   4.199   5.607
 7896SOL    HW224588   5.050   4.361   5.586
 7897SOL     OW24589   2.470   3.631   6.656
 7897SOL    HW124590   2.494   3.534   6.656
 7897SOL    HW224591   2.432   3.656   6.566
 7898SOL     OW24592   4.358   2.365   3.789
 7898SOL    HW124593   4.373   2.463   3.805
 7898SOL    HW224594   4.305   2.353   3.705
 7899SOL     OW24595   5.663   2.307   2.721
 7899SOL    HW124596   5.588   2.293   2.786
 7899SOL    HW224597   5.673   2.405   2.701
 7900SOL     OW24598   1.733   5.777   1.082
 7900SOL    HW124599   1.806   5.709   1.072
 7900SOL    HW224600   1.737   5.842   1.006
 7901SOL     OW24601   6.590   6.568   6.515
 7901SOL    HW124602   6.536   6.618   6.447
 7901SOL    HW224603   6.618   6.480   6.476
 7902SOL     OW24604   4.485   4.405   0.794
 7902SOL    HW124605   4.521   4.334   0.732
 7902SOL    HW224606   4.483   4.369   0.887
 7903SOL     OW24607   6.639   1.183   0.089
 7903SOL    HW124608   6.603   1.268   0.126
 7903SOL    HW224609   6.568   1.112   0.094
 7904SOL     OW24610   0.054   1.262   2.492
 7904SOL    HW124611   0.091   1.259   2.399
 7904SOL    HW224612   7.018   1.344   2.503
 7905SOL     OW24613   4.214   0.524   1.219
 7905SOL    HW124614   4.193   0.499   1.124
 7905SOL    HW224615   4.174   0.613   1.239
 7906SOL     OW24616   5.281   5.968   6.913
 7906SOL    HW124617   5.277   5.978   6.814
 7906SOL    HW224618   5.199   6.009   6.954
 7907SOL     OW24619   6.943   2.914   3.625
 7907SOL    HW124620   6.899   2.990   3.577
 7907SOL    HW224621   6.904   2.906   3.717
 7908SOL     OW24622   6.656   1.893   3.827
 7908SOL    HW124623   6.745   1.852   3.813
 7908SOL    HW224624   6.620   1.924   3.738
 7909SOL     OW24625   4.877   4.018   5.095
 7909SOL    HW124626   4.839   4.091   5.152
 7909SOL    HW224627   4.973   4.038   5.075
 7910SOL     OW24628   4.803   3.205   5.754
 7910SOL    HW124629   4.740   3.253   5.815
 7910SOL    HW224630   4.840   3.270   5.687
 7911SOL     OW24631   6.675   4.719   0.328
 7911SOL    HW124632   6.748   4.689   0.390
 7911SOL    HW224633   6.587   4.717   0.377
 7912SOL     OW24634   6.052   4.441   6.259
 7912SOL    HW124635   6.097   4.503   6.323
 7912SOL    HW224636   6.012   4.493   6.183
 7913SOL     OW24637   6.752   5.358   6.963
 7913SOL    HW124638   6.654   5.368   6.977
 7913SOL    HW224639   6.786   5.280   7.016
 7914SOL     OW24640   5.963   3.869   1.389
 7914SOL    HW124641   6.001   3.778   1.370
 7914SOL    HW224642   5.865   3.868   1.372
 7915SOL     OW24643   4.092   1.926   3.545
 7915SOL    HW124644   4.044   1.983   3.611
 7915SOL    HW224645   4.177   1.972   3.518
 7916SOL     OW24646   5.709   2.958   5.484
 7916SOL    HW124647   5.620   2.930   5.520
 7916SOL    HW224648   5.700   2.978   5.386
 7917SOL     OW24649   3.532   3.716   4.386
 7917SOL    HW124650   3.501   3.801   4.430
 7917SOL    HW224651   3.510   3.720   4.288
 7918SOL     OW24652   6.334   1.355   2.591
 7918SOL    HW124653   6.405   1.312   2.647
 7918SOL    HW224654   6.279   1.415   2.650
 7919SOL     OW24655   5.198   5.401   2.165
 7919SOL    HW124656   5.117   5.356   2.201
 7919SOL    HW224657   5.171   5.480   2.110
 7920SOL     OW24658   0.471   5.172   1.433
 7920SOL    HW124659   0.388   5.116   1.430
 7920SOL    HW224660   0.534   5.141   1.362
 7921SOL     OW24661   2.165   6.743   1.729
 7921SOL    HW124662   2.112   6.817   1.688
 7921SOL    HW224663   2.141   6.657   1.683
 7922SOL     OW24664   1.068   5.659   6.223
 7922SOL    HW124665   1.062   5.735   6.288
 7922SOL    HW224666   1.132   5.682   6.150
 7923SOL     OW24667   1.130   1.269   3.517
 7923SOL    HW124668   1.187   1.284   3.436
 7923SOL    HW224669   1.034   1.263   3.490
 7924SOL     OW24670   2.954   6.895   3.546
 7924SOL    HW124671   3.018   6.819   3.550
 7924SOL    HW224672   2.906   6.904   3.634
 7925SOL     OW24673   6.427   1.354   6.475
 7925SOL    HW124674   6.422   1.295   6.395
 7925SOL    HW224675   6.335   1.365   6.514
 7926SOL     OW24676   3.158   0.831   2.430
 7926SOL    HW124677   3.083   0.799   2.489
 7926SOL    HW224678   3.143   0.800   2.337
 7927SOL     OW24679   4.040   4.876   5.110
 7927SOL    HW124680   4.033   4.933   5.028
 7927SOL    HW224681   4.124   4.823   5.107
 7928SOL     OW24682   1.701   5.382   2.448
 7928SOL    HW124683   1.636   5.447   2.487
 7928SOL    HW224684   1.686   5.291   2.488
 7929SOL     OW24685   4.098   3.542   4.512
 7929SOL    HW124686   4.067   3.458   4.468
 7929SOL    HW224687   4.129   3.607   4.443
 7930SOL     OW24688   4.724   5.507   3.887
 7930SOL    HW124689   4.652   5.464   3.942
 7930SOL    HW224690   4.683   5.549   3.806
 7931SOL     OW24691   2.521   2.066   0.562
 7931SOL    HW124692   2.479   2.001   0.626
 7931SOL    HW224693   2.518   2.158   0.600
 7932SOL     OW24694   1.901   6.877   0.001
 7932SOL    HW124695   1.975   6.890   0.066
 7932SOL    HW224696   1.938   6.838   6.936
 7933SOL     OW24697   0.997   0.135   6.733
 7933SOL    HW124698   0.947   0.174   6.810
 7933SOL    HW224699   1.062   0.066   6.767
 7934SOL     OW24700   3.063   3.858   0.242
 7934SOL    HW124701   3.031   3.911   0.320
 7934SOL    HW224702   3.142   3.904   0.200
 7935SOL     OW24703   4.638   6.644   1.219
 7935SOL    HW124704   4.636   6.638   1.119
 7935SOL    HW224705   4.574   6.578   1.258
 7936SOL     OW24706   4.107   6.086   2.925
 7936SOL    HW124707   4.012   6.079   2.955
 7936SOL    HW224708   4.116   6.047   2.834
 7937SOL     OW24709   6.295   6.218   5.592
 7937SOL    HW124710   6.253   6.261   5.673
 7937SOL    HW224711   6.393   6.239   5.590
 7938SOL     OW24712   4.418   5.401   4.605
 7938SOL    HW124713   4.360   5.332   4.648
 7938SOL    HW224714   4.510   5.396   4.644
 7939SOL     OW24715   1.236   0.869   5.747
 7939SOL    HW124716   1.219   0.799   5.678
 7939SOL    HW224717   1.160   0.871   5.812
 7940SOL     OW24718   2.150   5.729   1.299
 7940SOL    HW124719   2.104   5.818   1.302
 7940SOL    HW224720   2.105   5.670   1.232
 7941SOL     OW24721   0.275   0.892   0.541
 7941SOL    HW124722   0.277   0.966   0.473
 7941SOL    HW224723   0.219   0.920   0.619
 7942SOL     OW24724   0.489   6.904   1.587
 7942SOL    HW124725   0.490   6.972   1.661
 7942SOL    HW224726   0.572   6.848   1.593
 7943SOL     OW24727   5.604   2.282   0.963
 7943SOL    HW124728   5.549   2.274   0.880
 7943SOL    HW224729   5.700   2.270   0.941
 7944SOL     OW24730   0.459   4.191   1.149
 7944SOL    HW124731   0.493   4.121   1.086
 7944SOL    HW224732   0.414   4.264   1.098
 7945SOL     OW24733   5.510   6.393   2.938
 7945SOL    HW124734   5.451   6.373   2.860
 7945SOL    HW224735   5.596   6.342   2.928
 7946SOL     OW24736   1.792   2.362   5.843
 7946SOL    HW124737   1.869   2.425   5.841
 7946SOL    HW224738   1.757   2.355   5.936
 7947SOL     OW24739   4.468   2.766   6.565
 7947SOL    HW124740   4.392   2.722   6.612
 7947SOL    HW224741   4.469   2.736   6.469
 7948SOL     OW24742   6.986   6.766   0.308
 7948SOL    HW124743   0.047   6.824   0.317
 7948SOL    HW224744   6.969   6.719   0.394
 7949SOL     OW24745   5.197   5.101   3.615
 7949SOL    HW124746   5.153   5.180   3.574
 7949SOL    HW224747   5.296   5.116   3.620
 7950SOL     OW24748   4.172   4.996   4.033
 7950SOL    HW124749   4.099   4.931   4.053
 7950SOL    HW224750   4.261   4.954   4.055
 7951SOL     OW24751   3.587   3.402   0.708
 7951SOL    HW124752   3.578   3.303   0.720
 7951SOL    HW224753   3.518   3.434   0.643
 7952SOL     OW24754   6.057   3.517   0.977
 7952SOL    HW124755   6.045   3.419   0.991
 7952SOL    HW224756   6.101   3.558   1.057
 7953SOL     OW24757   2.442   2.584   3.326
 7953SOL    HW124758   2.532   2.542   3.309
 7953SOL    HW224759   2.370   2.518   3.305
 7954SOL     OW24760   4.427   5.635   4.480
 7954SOL    HW124761   4.424   5.545   4.524
 7954SOL    HW224762   4.516   5.677   4.496
 7955SOL     OW24763   0.338   6.390   6.517
 7955SOL    HW124764   0.400   6.322   6.558
 7955SOL    HW224765   0.300   6.448   6.589
 7956SOL     OW24766   6.691   6.176   3.955
 7956SOL    HW124767   6.650   6.259   3.995
 7956SOL    HW224768   6.620   6.123   3.909
 7957SOL     OW24769   1.261   1.593   1.079
 7957SOL    HW124770   1.173   1.618   1.039
 7957SOL    HW224771   1.246   1.535   1.159
 7958SOL     OW24772   3.135   4.914   3.697
 7958SOL    HW124773   3.212   4.853   3.714
 7958SOL    HW224774   3.065   4.899   3.766
 7959SOL     OW24775   6.421   4.691   0.423
 7959SOL    HW124776   6.382   4.783   0.423
 7959SOL    HW224777   6.393   4.643   0.506
 7960SOL     OW24778   2.859   1.414   1.161
 7960SOL    HW124779   2.820   1.496   1.121
 7960SOL    HW224780   2.816   1.396   1.250
 7961SOL     OW24781   1.448   5.785   6.176
 7961SOL    HW124782   1.361   5.778   6.127
 7961SOL    HW224783   1.524   5.782   6.111
 7962SOL     OW24784   1.969   0.811   2.119
 7962SOL    HW124785   1.981   0.910   2.123
 7962SOL    HW224786   2.049   0.769   2.077
 7963SOL     OW24787   0.991   0.831   5.908
 7963SOL    HW124788   0.946   0.742   5.894
 7963SOL    HW224789   0.984   0.857   6.005
 7964SOL     OW24790   5.505   5.455   3.677
 7964SOL    HW124791   5.481   5.512   3.599
 7964SOL    HW224792   5.488   5.505   3.762
 7965SOL     OW24793   5.090   2.523   0.094
 7965SOL    HW124794   5.120   2.434   0.128
 7965SOL    HW224795   4.993   2.518   0.068
 7966SOL     OW24796   6.982   5.158   3.825
 7966SOL    HW124797   6.924   5.081   3.799
 7966SOL    HW224798   7.000   5.215   3.745
 7967SOL     OW24799   3.220   6.297   2.408
 7967SOL    HW124800   3.122   6.278   2.405
 7967SOL    HW224801   3.271   6.213   2.390
 7968SOL     OW24802   2.244   2.396   3.655
 7968SOL    HW124803   2.298   2.322   3.615
 7968SOL    HW224804   2.268   2.407   3.751
 7969SOL     OW24805   4.038   1.397   3.538
 7969SOL    HW124806   3.940   1.405   3.557
 7969SOL    HW224807   4.078   1.488   3.534
 7970SOL     OW24808   0.507   4.228   2.987
 7970SOL    HW124809   0.524   4.325   2.999
 7970SOL    HW224810   0.425   4.215   2.930
 7971SOL     OW24811   3.530   0.110   1.140
 7971SOL    HW124812   3.437   0.140   1.162
 7971SOL    HW224813   3.595   0.176   1.178
 7972SOL     OW24814   6.843   4.601   1.491
 7972SOL    HW124815   6.921   4.584   1.551
 7972SOL    HW224816   6.764   4.629   1.547
 7973SOL     OW24817   4.940   3.199   3.756
 7973SOL    HW124818   4.900   3.290   3.764
 7973SOL    HW224819   4.951   3.175   3.659
 7974SOL     OW24820   5.210   0.319   4.319
 7974SOL    HW124821   5.170   0.384   4.255
 7974SOL    HW224822   5.309   0.328   4.319
 7975SOL     OW24823   3.194   0.948   4.447
 7975SOL    HW124824   3.145   1.005   4.382
 7975SOL    HW224825   3.130   0.883   4.489
 7976SOL     OW24826   1.156   6.151   5.464
 7976SOL    HW124827   1.236   6.107   5.506
 7976SOL    HW224828   1.143   6.241   5.504
 7977SOL     OW24829   5.029   5.998   1.767
 7977SOL    HW124830   4.982   5.920   1.726
 7977SOL    HW224831   5.112   5.967   1.814
 7978SOL     OW24832   4.724   3.488   5.807
 7978SOL    HW124833   4.653   3.474   5.738
 7978SOL    HW224834   4.712   3.578   5.849
 7979SOL     OW24835   2.709   0.212   4.380
 7979SOL    HW124836   2.714   0.194   4.282
 7979SOL    HW224837   2.682   0.129   4.428
 7980SOL     OW24838   3.213   6.134   0.137
 7980SOL    HW124839   3.267   6.079   0.201
 7980SOL    HW224840   3.127   6.161   0.180
 7981SOL     OW24841   1.327   5.227   2.093
 7981SOL    HW124842   1.373   5.139   2.106
 7981SOL    HW224843   1.316   5.245   1.996
 7982SOL     OW24844   6.513   2.139   0.405
 7982SOL    HW124845   6.543   2.172   0.494
 7982SOL    HW224846   6.479   2.045   0.413
 7983SOL     OW24847   5.302   1.760   2.233
 7983SOL    HW124848   5.313   1.860   2.235
 7983SOL    HW224849   5.343   1.723   2.150
 7984SOL     OW24850   0.171   2.825   2.421
 7984SOL    HW124851   0.154   2.729   2.442
 7984SOL    HW224852   0.117   2.852   2.342
 7985SOL     OW24853   0.782   1.089   2.409
 7985SOL    HW124854   0.740   1.170   2.367
 7985SOL    HW224855   0.840   1.043   2.343
 7986SOL     OW24856   3.814   1.295   6.481
 7986SOL    HW124857   3.817   1.272   6.578
 7986SOL    HW224858   3.755   1.375   6.468
 7987SOL     OW24859   0.395   2.467   5.520
 7987SOL    HW124860   0.444   2.392   5.475
 7987SOL    HW224861   0.303   2.438   5.544
 7988SOL     OW24862   2.599   2.091   4.650
 7988SOL    HW124863   2.658   2.010   4.659
 7988SOL    HW224864   2.508   2.069   4.687
 7989SOL     OW24865   3.179   2.329   5.680
 7989SOL    HW124866   3.121   2.337   5.600
 7989SOL    HW224867   3.215   2.419   5.706
 7990SOL     OW24868   1.073   2.878   4.440
 7990SOL    HW124869   1.162   2.874   4.395
 7990SOL    HW224870   1.056   2.972   4.472
 7991SOL     OW24871   0.315   2.707   5.998
 7991SOL    HW124872   0.380   2.659   5.940
 7991SOL    HW224873   0.350   2.710   6.092
 7992SOL     OW24874   1.834   0.080   0.667
 7992SOL    HW124875   1.885   0.133   0.734
 7992SOL    HW224876   1.753   0.040   0.711
 7993SOL     OW24877   2.020   5.387   6.818
 7993SOL    HW124878   2.085   5.452   6.780
 7993SOL    HW224879   2.048   5.364   6.912
 7994SOL     OW24880   4.758   1.306   3.329
 7994SOL    HW124881   4.671   1.260   3.346
 7994SOL    HW224882   4.753   1.400   3.362
 7995SOL     OW24883   3.076   5.208   4.019
 7995SOL    HW124884   3.131   5.287   4.046
 7995SOL    HW224885   3.008   5.236   3.951
 7996SOL     OW24886   3.533   0.050   5.140
 7996SOL    HW124887   3.469   0.124   5.158
 7996SOL    HW224888   3.508   0.004   5.055
 7997SOL     OW24889   5.960   2.501   1.036
 7997SOL    HW124890   5.871   2.547   1.032
 7997SOL    HW224891   6.032   2.564   1.007
 7998SOL     OW24892   5.544   4.090   0.241
 7998SOL    HW124893   5.548   4.171   0.299
 7998SOL    HW224894   5.626   4.087   0.183
 7999SOL     OW24895   1.734   6.916   5.358
 7999SOL    HW124896   1.775   6.853   5.293
 7999SOL    HW224897   1.639   6.935   5.331
 8000SOL     OW24898   6.343   6.745   5.752
 8000SOL    HW124899   6.414   6.715   5.689
 8000SOL    HW224900   6.338   6.845   5.751
 8001SOL     OW24901   2.088   6.847   1.353
 8001SOL    HW124902   2.172   6.795   1.342
 8001SOL    HW224903   2.057   6.878   1.263
 8002SOL     OW24904   6.010   3.234   5.001
 8002SOL    HW124905   6.074   3.159   4.983
 8002SOL    HW224906   6.017   3.260   5.097
 8003SOL     OW24907   3.616   4.913   3.215
 8003SOL    HW124908   3.665   4.899   3.301
 8003SOL    HW224909   3.538   4.974   3.231
 8004SOL     OW24910   2.211   4.378   3.077
 8004SOL    HW124911   2.143   4.402   3.146
 8004SOL    HW224912   2.297   4.426   3.097
 8005SOL     OW24913   3.363   0.636   1.471
 8005SOL    HW124914   3.404   0.634   1.562
 8005SOL    HW224915   3.406   0.565   1.414
 8006SOL     OW24916   2.803   5.800   0.384
 8006SOL    HW124917   2.745   5.721   0.405
 8006SOL    HW224918   2.756   5.884   0.411
 8007SOL     OW24919   0.198   0.664   4.331
 8007SOL    HW124920   0.120   0.611   4.298
 8007SOL    HW224921   0.274   0.603   4.351
 8008SOL     OW24922   6.144   6.814   0.164
 8008SOL    HW124923   6.117   6.725   0.129
 8008SOL    HW224924   6.106   6.886   0.105
 8009SOL     OW24925   6.810   0.271   3.747
 8009SOL    HW124926   6.850   0.197   3.801
 8009SOL    HW224927   6.839   0.263   3.652
 8010SOL     OW24928   2.338   2.331   0.578
 8010SOL    HW124929   2.343   2.415   0.523
 8010SOL    HW224930   2.255   2.281   0.555
 8011SOL     OW24931   3.188   2.283   1.118
 8011SOL    HW124932   3.217   2.355   1.181
 8011SOL    HW224933   3.131   2.217   1.167
 8012SOL     OW24934   2.509   6.769   1.593
 8012SOL    HW124935   2.569   6.737   1.520
 8012SOL    HW224936   2.482   6.692   1.650
 8013SOL     OW24937   5.538   5.081   4.494
 8013SOL    HW124938   5.510   5.171   4.527
 8013SOL    HW224939   5.517   5.073   4.397
 8014SOL     OW24940   1.889   6.649   6.651
 8014SOL    HW124941   1.796   6.616   6.669
 8014SOL    HW224942   1.904   6.655   6.552
 8015SOL     OW24943   2.844   2.489   0.643
 8015SOL    HW124944   2.820   2.395   0.670
 8015SOL    HW224945   2.873   2.539   0.724
 8016SOL     OW24946   4.522   6.915   0.362
 8016SOL    HW124947   4.517   7.012   0.385
 8016SOL    HW224948   4.434   6.885   0.325
 8017SOL     OW24949   6.714   3.863   4.860
 8017SOL    HW124950   6.662   3.941   4.894
 8017SOL    HW224951   6.795   3.849   4.917
 8018SOL     OW24952   4.438   1.593   5.673
 8018SOL    HW124953   4.530   1.555   5.659
 8018SOL    HW224954   4.444   1.670   5.737
 8019SOL     OW24955   1.897   5.796   0.346
 8019SOL    HW124956   1.904   5.893   0.369
 8019SOL    HW224957   1.836   5.785   0.267
 8020SOL     OW24958   5.395   5.304   6.598
 8020SOL    HW124959   5.454   5.305   6.678
 8020SOL    HW224960   5.316   5.363   6.613
 8021SOL     OW24961   0.654   1.031   1.006
 8021SOL    HW124962   0.746   1.004   0.977
 8021SOL    HW224963   0.640   1.128   0.987
 8022SOL     OW24964   4.118   6.820   3.078
 8022SOL    HW124965   4.066   6.761   3.016
 8022SOL    HW224966   4.161   6.765   3.149
 8023SOL     OW24967   6.203   5.935   2.318
 8023SOL    HW124968   6.235   6.000   2.249
 8023SOL    HW224969   6.255   5.850   2.310
 8024SOL     OW24970   4.491   5.495   5.689
 8024SOL    HW124971   4.508   5.403   5.726
 8024SOL    HW224972   4.405   5.530   5.726
 8025SOL     OW24973   3.660   5.915   6.329
 8025SOL    HW124974   3.736   5.858   6.359
 8025SOL    HW224975   3.590   5.858   6.286
 8026SOL     OW24976   1.754   3.442   6.352
 8026SOL    HW124977   1.840   3.493   6.355
 8026SOL    HW224978   1.772   3.348   6.323
 8027SOL     OW24979   4.601   2.032   5.057
 8027SOL    HW124980   4.686   2.045   5.108
 8027SOL    HW224981   4.594   1.937   5.027
 8028SOL     OW24982   5.014   5.329   6.383
 8028SOL    HW124983   4.930   5.344   6.331
 8028SOL    HW224984   5.051   5.238   6.360
 8029SOL     OW24985   3.864   4.372   0.783
 8029SOL    HW124986   3.884   4.455   0.732
 8029SOL    HW224987   3.878   4.388   0.881
 8030SOL     OW24988   5.990   4.199   5.849
 8030SOL    HW124989   5.925   4.194   5.773
 8030SOL    HW224990   5.997   4.293   5.881
 8031SOL     OW24991   3.826   5.354   1.390
 8031SOL    HW124992   3.757   5.368   1.461
 8031SOL    HW224993   3.783   5.315   1.308
 8032SOL     OW24994   5.318   4.251   5.379
 8032SOL    HW124995   5.248   4.264   5.449
 8032SOL    HW224996   5.287   4.293   5.293
 8033SOL     OW24997   5.677   2.351   0.194
 8033SOL    HW124998   5.712   2.441   0.170
 8033SOL    HW224999   5.592   2.362   0.246
 8034SOL     OW25000   4.979   0.068   4.824
 8034SOL    HW125001   4.972   0.137   4.896
 8034SOL    HW225002   4.888   0.032   4.803
 8035SOL     OW25003   5.394   6.405   0.191
 8035SOL    HW125004   5.428   6.463   0.116
 8035SOL    HW225005   5.400   6.456   0.277
 8036SOL     OW25006   2.215   3.823   1.816
 8036SOL    HW125007   2.162   3.904   1.792
 8036SOL    HW225008   2.152   3.750   1.844
 8037SOL     OW25009   1.500   2.607   0.564
 8037SOL    HW125010   1.419   2.627   0.619
 8037SOL    HW225011   1.507   2.673   0.490
 8038SOL     OW25012   0.428   2.226   3.388
 8038SOL    HW125013   0.471   2.191   3.471
 8038SOL    HW225014   0.415   2.152   3.322
 8039SOL     OW25015   2.169   0.116   3.019
 8039SOL    HW125016   2.130   0.083   2.932
 8039SOL    HW225017   2.266   0.135   3.006
 8040SOL     OW25018   0.548   5.360   1.061
 8040SOL    HW125019   0.497   5.374   1.146
 8040SOL    HW225020   0.611   5.284   1.073
 8041SOL     OW25021   4.444   1.420   0.950
 8041SOL    HW125022   4.414   1.462   0.865
 8041SOL    HW225023   4.483   1.330   0.930
 8042SOL     OW25024   3.383   2.998   2.538
 8042SOL    HW125025   3.342   2.931   2.599
 8042SOL    HW225026   3.360   3.090   2.570
 8043SOL     OW25027   2.944   0.609   1.770
 8043SOL    HW125028   2.919   0.558   1.852
 8043SOL    HW225029   2.970   0.545   1.697
 8044SOL     OW25030   2.975   3.398   1.388
 8044SOL    HW125031   3.059   3.360   1.351
 8044SOL    HW225032   2.980   3.498   1.386
 8045SOL     OW25033   5.729   2.683   3.392
 8045SOL    HW125034   5.640   2.667   3.351
 8045SOL    HW225035   5.735   2.779   3.422
 8046SOL     OW25036   5.984   4.620   5.673
 8046SOL    HW125037   5.917   4.557   5.633
 8046SOL    HW225038   5.973   4.710   5.631
 8047SOL     OW25039   3.795   5.921   4.416
 8047SOL    HW125040   3.817   5.964   4.503
 8047SOL    HW225041   3.856   5.955   4.345
 8048SOL     OW25042   6.411   0.000   5.733
 8048SOL    HW125043   6.368   0.071   5.677
 8048SOL    HW225044   6.440   0.040   5.820
 8049SOL     OW25045   1.261   6.533   1.288
 8049SOL    HW125046   1.239   6.567   1.379
 8049SOL    HW225047   1.359   6.537   1.273
 8050SOL     OW25048   1.938   3.252   0.898
 8050SOL    HW125049   1.849   3.238   0.853
 8050SOL    HW225050   1.938   3.204   0.986
 8051SOL     OW25051   4.725   0.782   2.863
 8051SOL    HW125052   4.704   0.717   2.935
 8051SOL    HW225053   4.722   0.875   2.899
 8052SOL     OW25054   2.987   1.445   3.003
 8052SOL    HW125055   2.944   1.355   2.992
 8052SOL    HW225056   2.978   1.474   3.099
 8053SOL     OW25057   3.807   3.881   2.700
 8053SOL    HW125058   3.886   3.847   2.648
 8053SOL    HW225059   3.837   3.915   2.789
 8054SOL     OW25060   4.886   6.971   4.178
 8054SOL    HW125061   4.976   7.012   4.163
 8054SOL    HW225062   4.818   0.024   4.190
 8055SOL     OW25063   1.430   6.840   6.222
 8055SOL    HW125064   1.488   6.830   6.141
 8055SOL    HW225065   1.339   6.871   6.194
 8056SOL     OW25066   4.686   1.823   3.224
 8056SOL    HW125067   4.595   1.862   3.212
 8056SOL    HW225068   4.731   1.867   3.301
 8057SOL     OW25069   2.881   7.010   3.092
 8057SOL    HW125070   2.954   6.947   3.118
 8057SOL    HW225071   2.848   6.985   3.000
 8058SOL     OW25072   2.948   0.773   2.575
 8058SOL    HW125073   2.927   0.859   2.529
 8058SOL    HW225074   2.903   0.697   2.527
 8059SOL     OW25075   3.092   2.144   4.803
 8059SOL    HW125076   3.165   2.139   4.871
 8059SOL    HW225077   3.014   2.192   4.843
 8060SOL     OW25078   6.416   0.688   4.898
 8060SOL    HW125079   6.495   0.748   4.889
 8060SOL    HW225080   6.438   0.597   4.864
 8061SOL     OW25081   6.527   5.607   2.807
 8061SOL    HW125082   6.506   5.687   2.864
 8061SOL    HW225083   6.625   5.605   2.788
 8062SOL     OW25084   1.293   4.132   3.738
 8062SOL    HW125085   1.225   4.069   3.703
 8062SOL    HW225086   1.360   4.082   3.793
 8063SOL     OW25087   3.049   3.411   6.722
 8063SOL    HW125088   3.051   3.499   6.675
 8063SOL    HW225089   3.026   3.339   6.657
 8064SOL     OW25090   0.344   3.484   0.351
 8064SOL    HW125091   0.249   3.495   0.381
 8064SOL    HW225092   0.395   3.568   0.367
 8065SOL     OW25093   4.692   0.263   4.236
 8065SOL    HW125094   4.633   0.183   4.246
 8065SOL    HW225095   4.754   0.250   4.158
 8066SOL     OW25096   1.695   1.031   1.305
 8066SOL    HW125097   1.760   1.017   1.379
 8066SOL    HW225098   1.669   0.942   1.266
 8067SOL     OW25099   4.561   2.640   1.533
 8067SOL    HW125100   4.591   2.672   1.444
 8067SOL    HW225101   4.573   2.541   1.539
 8068SOL     OW25102   0.949   4.157   4.930
 8068SOL    HW125103   1.043   4.154   4.894
 8068SOL    HW225104   0.930   4.072   4.979
 8069SOL     OW25105   1.419   6.078   1.409
 8069SOL    HW125106   1.440   6.094   1.506
 8069SOL    HW225107   1.320   6.085   1.395
 8070SOL     OW25108   3.869   6.333   1.564
 8070SOL    HW125109   3.866   6.423   1.521
 8070SOL    HW225110   3.785   6.318   1.617
 8071SOL     OW25111   3.408   0.047   5.966
 8071SOL    HW125112   3.430   7.004   5.892
 8071SOL    HW225113   3.322   0.018   6.010
 8072SOL     OW25114   4.830   1.337   0.560
 8072SOL    HW125115   4.796   1.246   0.539
 8072SOL    HW225116   4.807   1.399   0.485
 8073SOL     OW25117   4.298   6.371   5.750
 8073SOL    HW125118   4.382   6.366   5.696
 8073SOL    HW225119   4.222   6.332   5.698
 8074SOL     OW25120   3.549   3.688   0.204
 8074SOL    HW125121   3.603   3.764   0.167
 8074SOL    HW225122   3.610   3.615   0.234
 8075SOL     OW25123   0.098   1.242   2.965
 8075SOL    HW125124   0.001   1.263   2.974
 8075SOL    HW225125   0.136   1.219   3.055
 8076SOL     OW25126   5.703   2.532   5.266
 8076SOL    HW125127   5.629   2.484   5.220
 8076SOL    HW225128   5.669   2.572   5.351
 8077SOL     OW25129   0.718   0.207   0.944
 8077SOL    HW125130   0.753   0.114   0.935
 8077SOL    HW225131   0.789   0.266   0.984
 8078SOL     OW25132   6.224   2.619   0.959
 8078SOL    HW125133   6.204   2.705   0.912
 8078SOL    HW225134   6.304   2.630   1.019
 8079SOL     OW25135   6.702   2.141   2.821
 8079SOL    HW125136   6.739   2.108   2.734
 8079SOL    HW225137   6.643   2.220   2.803
 8080SOL     OW25138   2.894   4.256   0.621
 8080SOL    HW125139   2.911   4.159   0.635
 8080SOL    HW225140   2.841   4.292   0.698
 8081SOL     OW25141   6.008   0.721   5.090
 8081SOL    HW125142   5.961   0.799   5.049
 8081SOL    HW225143   5.983   0.637   5.042
 8082SOL     OW25144   0.172   2.474   3.653
 8082SOL    HW125145   0.230   2.404   3.693
 8082SOL    HW225146   0.076   2.447   3.662
 8083SOL     OW25147   4.611   2.606   3.289
 8083SOL    HW125148   4.704   2.589   3.324
 8083SOL    HW225149   4.550   2.535   3.325
 8084SOL     OW25150   7.011   6.576   1.677
 8084SOL    HW125151   6.939   6.529   1.626
 8084SOL    HW225152   0.077   6.568   1.628
 8085SOL     OW25153   6.082   0.521   1.052
 8085SOL    HW125154   6.164   0.465   1.052
 8085SOL    HW225155   6.002   0.463   1.034
 8086SOL     OW25156   3.854   0.901   4.814
 8086SOL    HW125157   3.817   0.828   4.756
 8086SOL    HW225158   3.798   0.911   4.896
 8087SOL     OW25159   2.776   2.254   1.368
 8087SOL    HW125160   2.739   2.214   1.452
 8087SOL    HW225161   2.778   2.354   1.376
 8088SOL     OW25162   5.445   1.004   2.064
 8088SOL    HW125163   5.486   1.043   2.146
 8088SOL    HW225164   5.363   0.953   2.089
 8089SOL     OW25165   5.519   3.229   0.557
 8089SOL    HW125166   5.457   3.225   0.479
 8089SOL    HW225167   5.586   3.155   0.550
 8090SOL     OW25168   5.209   1.852   5.731
 8090SOL    HW125169   5.148   1.785   5.774
 8090SOL    HW225170   5.233   1.923   5.797
 8091SOL     OW25171   2.956   4.644   6.495
 8091SOL    HW125172   2.856   4.639   6.497
 8091SOL    HW225173   2.985   4.720   6.436
 8092SOL     OW25174   1.351   1.430   4.925
 8092SOL    HW125175   1.255   1.403   4.926
 8092SOL    HW225176   1.385   1.439   5.018
 8093SOL     OW25177   5.585   5.407   0.843
 8093SOL    HW125178   5.597   5.315   0.805
 8093SOL    HW225179   5.595   5.475   0.770
 8094SOL     OW25180   1.249   4.194   6.163
 8094SOL    HW125181   1.240   4.232   6.255
 8094SOL    HW225182   1.342   4.211   6.129
 8095SOL     OW25183   5.771   3.549   4.806
 8095SOL    HW125184   5.827   3.631   4.816
 8095SOL    HW225185   5.721   3.553   4.719
 8096SOL     OW25186   3.409   6.206   1.846
 8096SOL    HW125187   3.341   6.231   1.777
 8096SOL    HW225188   3.490   6.169   1.801
 8097SOL     OW25189   5.182   1.259   3.338
 8097SOL    HW125190   5.144   1.347   3.367
 8097SOL    HW225191   5.254   1.231   3.401
 8098SOL     OW25192   2.853   6.154   4.207
 8098SOL    HW125193   2.840   6.250   4.231
 8098SOL    HW225194   2.843   6.098   4.290
 8099SOL     OW25195   4.818   6.747   4.949
 8099SOL    HW125196   4.831   6.697   4.863
 8099SOL    HW225197   4.887   6.719   5.015
 8100SOL     OW25198   6.899   6.675   0.550
 8100SOL    HW125199   6.826   6.619   0.588
 8100SOL    HW225200   6.957   6.709   0.624
 8101SOL     OW25201   1.449   6.027   3.506
 8101SOL    HW125202   1.376   6.093   3.489
 8101SOL    HW225203   1.535   6.063   3.470
 8102SOL     OW25204   6.782   5.684   5.859
 8102SOL    HW125205   6.761   5.727   5.771
 8102SOL    HW225206   6.809   5.589   5.845
 8103SOL     OW25207   3.479   1.735   2.591
 8103SOL    HW125208   3.456   1.794   2.668
 8103SOL    HW225209   3.495   1.642   2.625
 8104SOL     OW25210   2.514   6.670   6.536
 8104SOL    HW125211   2.508   6.722   6.451
 8104SOL    HW225212   2.607   6.635   6.547
 8105SOL     OW25213   2.389   2.008   3.520
 8105SOL    HW125214   2.396   2.108   3.523
 8105SOL    HW225215   2.480   1.968   3.527
 8106SOL     OW25216   0.923   4.158   3.963
 8106SOL    HW125217   0.934   4.236   4.024
 8106SOL    HW225218   0.895   4.190   3.873
 8107SOL     OW25219   2.099   6.194   5.742
 8107SOL    HW125220   2.096   6.095   5.728
 8107SOL    HW225221   2.119   6.213   5.838
 8108SOL     OW25222   0.927   3.697   4.249
 8108SOL    HW125223   0.918   3.791   4.217
 8108SOL    HW225224   0.902   3.634   4.175
 8109SOL     OW25225   1.214   4.650   4.782
 8109SOL    HW125226   1.270   4.571   4.758
 8109SOL    HW225227   1.266   4.734   4.765
 8110SOL     OW25228   2.147   6.242   0.636
 8110SOL    HW125229   2.152   6.269   0.733
 8110SOL    HW225230   2.071   6.289   0.592
 8111SOL     OW25231   3.079   5.236   4.681
 8111SOL    HW125232   3.117   5.143   4.684
 8111SOL    HW225233   2.984   5.231   4.648
 8112SOL     OW25234   2.415   0.721   5.356
 8112SOL    HW125235   2.361   0.754   5.278
 8112SOL    HW225236   2.418   0.791   5.427
 8113SOL     OW25237   3.424   2.659   6.409
 8113SOL    HW125238   3.400   2.711   6.491
 8113SOL    HW225239   3.488   2.712   6.354
 8114SOL     OW25240   2.238   2.767   2.254
 8114SOL    HW125241   2.276   2.835   2.316
 8114SOL    HW225242   2.198   2.814   2.175
 8115SOL     OW25243   3.378   1.251   1.096
 8115SOL    HW125244   3.366   1.203   1.183
 8115SOL    HW225245   3.290   1.285   1.064
 8116SOL     OW25246   5.991   0.194   5.263
 8116SOL    HW125247   5.953   0.178   5.354
 8116SOL    HW225248   6.071   0.136   5.249
 8117SOL     OW25249   1.851   1.968   5.159
 8117SOL    HW125250   1.844   2.061   5.198
 8117SOL    HW225251   1.782   1.957   5.088
 8118SOL     OW25252   0.700   3.353   5.302
 8118SOL    HW125253   0.647   3.366   5.218
 8118SOL    HW225254   0.798   3.363   5.282
 8119SOL     OW25255   0.732   6.143   2.727
 8119SOL    HW125256   0.738   6.079   2.803
 8119SOL    HW225257   0.764   6.098   2.643
 8120SOL     OW25258   4.464   4.334   1.110
 8120SOL    HW125259   4.442   4.247   1.155
 8120SOL    HW225260   4.380   4.386   1.093
 8121SOL     OW25261   6.615   0.531   2.493
 8121SOL    HW125262   6.715   0.529   2.494
 8121SOL    HW225263   6.582   0.460   2.430
 8122SOL     OW25264   6.384   6.533   1.981
 8122SOL    HW125265   6.466   6.586   1.961
 8122SOL    HW225266   6.304   6.580   1.943
 8123SOL     OW25267   1.529   6.383   6.859
 8123SOL    HW125268   1.583   6.299   6.865
 8123SOL    HW225269   1.494   6.408   6.949
 8124SOL     OW25270   1.177   5.896   1.762
 8124SOL    HW125271   1.137   5.891   1.671
 8124SOL    HW225272   1.276   5.888   1.756
 8125SOL     OW25273   5.819   4.621   3.054
 8125SOL    HW125274   5.854   4.712   3.073
 8125SOL    HW225275   5.889   4.553   3.073
 8126SOL     OW25276   5.634   4.299   2.473
 8126SOL    HW125277   5.584   4.385   2.484
 8126SOL    HW225278   5.576   4.232   2.427
 8127SOL     OW25279   2.073   5.065   7.015
 8127SOL    HW125280   2.047   5.004   6.940
 8127SOL    HW225281   2.077   5.013   0.080
 8128SOL     OW25282   3.529   2.716   5.359
 8128SOL    HW125283   3.449   2.697   5.303
 8128SOL    HW225284   3.591   2.777   5.308
 8129SOL     OW25285   5.510   0.692   6.039
 8129SOL    HW125286   5.412   0.711   6.025
 8129SOL    HW225287   5.560   0.779   6.043
 8130SOL     OW25288   1.616   6.121   6.772
 8130SOL    HW125289   1.710   6.114   6.803
 8130SOL    HW225290   1.611   6.096   6.675
 8131SOL     OW25291   2.781   0.634   0.562
 8131SOL    HW125292   2.693   0.667   0.597
 8131SOL    HW225293   2.850   0.641   0.634
 8132SOL     OW25294   5.931   5.504   3.906
 8132SOL    HW125295   5.846   5.450   3.908
 8132SOL    HW225296   5.912   5.596   3.942
 8133SOL     OW25297   2.184   5.386   2.539
 8133SOL    HW125298   2.092   5.418   2.519
 8133SOL    HW225299   2.230   5.360   2.454
 8134SOL     OW25300   2.090   2.184   3.763
 8134SOL    HW125301   2.089   2.238   3.847
 8134SOL    HW225302   2.134   2.238   3.690
 8135SOL     OW25303   4.101   5.329   1.975
 8135SOL    HW125304   4.191   5.312   2.015
 8135SOL    HW225305   4.041   5.372   2.043
 8136SOL     OW25306   4.047   5.628   2.156
 8136SOL    HW125307   3.992   5.546   2.142
 8136SOL    HW225308   4.041   5.686   2.074
 8137SOL     OW25309   2.112   4.373   4.850
 8137SOL    HW125310   2.146   4.351   4.941
 8137SOL    HW225311   2.022   4.416   4.858
 8138SOL     OW25312   5.158   1.041   2.594
 8138SOL    HW125313   5.096   0.986   2.538
 8138SOL    HW225314   5.132   1.138   2.586
 8139SOL     OW25315   1.895   2.166   3.281
 8139SOL    HW125316   1.798   2.148   3.264
 8139SOL    HW225317   1.907   2.205   3.372
 8140SOL     OW25318   5.029   0.673   0.659
 8140SOL    HW125319   5.066   0.586   0.627
 8140SOL    HW225320   5.010   0.667   0.758
 8141SOL     OW25321   5.043   1.641   5.881
 8141SOL    HW125322   4.974   1.706   5.850
 8141SOL    HW225323   5.016   1.602   5.969
 8142SOL     OW25324   2.124   5.620   0.445
 8142SOL    HW125325   2.145   5.543   0.505
 8142SOL    HW225326   2.025   5.629   0.436
 8143SOL     OW25327   5.674   4.707   0.888
 8143SOL    HW125328   5.768   4.690   0.918
 8143SOL    HW225329   5.611   4.662   0.950
 8144SOL     OW25330   0.193   4.899   5.915
 8144SOL    HW125331   0.150   4.928   6.001
 8144SOL    HW225332   0.281   4.944   5.905
 8145SOL     OW25333   5.242   5.487   6.891
 8145SOL    HW125334   5.165   5.515   6.949
 8145SOL    HW225335   5.229   5.526   6.799
 8146SOL     OW25336   5.832   0.240   4.518
 8146SOL    HW125337   5.773   0.160   4.525
 8146SOL    HW225338   5.791   0.306   4.456
 8147SOL     OW25339   1.529   0.762   5.824
 8147SOL    HW125340   1.436   0.734   5.848
 8147SOL    HW225341   1.564   0.825   5.893
 8148SOL     OW25342   3.949   4.924   0.508
 8148SOL    HW125343   3.913   4.945   0.417
 8148SOL    HW225344   3.874   4.920   0.574
 8149SOL     OW25345   1.521   6.020   4.413
 8149SOL    HW125346   1.558   6.045   4.502
 8149SOL    HW225347   1.532   6.096   4.349
 8150SOL     OW25348   1.057   3.045   0.773
 8150SOL    HW125349   0.960   3.050   0.750
 8150SOL    HW225350   1.068   3.055   0.872
 8151SOL     OW25351   6.081   4.635   3.755
 8151SOL    HW125352   6.078   4.622   3.855
 8151SOL    HW225353   6.167   4.599   3.720
 8152SOL     OW25354   4.552   2.132   3.202
 8152SOL    HW125355   4.631   2.088   3.159
 8152SOL    HW225356   4.567   2.142   3.300
 8153SOL     OW25357   0.069   2.115   4.014
 8153SOL    HW125358   0.041   2.105   4.110
 8153SOL    HW225359   0.148   2.176   4.008
 8154SOL     OW25360   2.012   1.494   3.375
 8154SOL    HW125361   2.039   1.573   3.320
 8154SOL    HW225362   2.061   1.495   3.462
 8155SOL     OW25363   1.351   5.297   1.812
 8155SOL    HW125364   1.255   5.278   1.794
 8155SOL    HW225365   1.404   5.286   1.728
 8156SOL     OW25366   5.965   5.326   1.377
 8156SOL    HW125367   5.906   5.323   1.458
 8156SOL    HW225368   6.055   5.361   1.403
 8157SOL     OW25369   6.787   2.768   5.996
 8157SOL    HW125370   6.881   2.801   5.991
 8157SOL    HW225371   6.770   2.730   6.088
 8158SOL     OW25372   5.948   4.934   6.531
 8158SOL    HW125373   5.988   4.878   6.603
 8158SOL    HW225374   5.986   4.905   6.443
 8159SOL     OW25375   3.067   6.103   5.503
 8159SOL    HW125376   3.065   6.200   5.480
 8159SOL    HW225377   3.162   6.075   5.521
 8160SOL     OW25378   5.386   1.230   3.521
 8160SOL    HW125379   5.428   1.286   3.592
 8160SOL    HW225380   5.445   1.153   3.499
 8161SOL     OW25381   5.778   3.187   0.776
 8161SOL    HW125382   5.714   3.252   0.817
 8161SOL    HW225383   5.753   3.094   0.804
 8162SOL     OW25384   0.387   4.760   6.392
 8162SOL    HW125385   0.444   4.720   6.463
 8162SOL    HW225386   0.317   4.695   6.365
 8163SOL     OW25387   4.671   4.567   5.137
 8163SOL    HW125388   4.680   4.566   5.037
 8163SOL    HW225389   4.738   4.630   5.176
 8164SOL     OW25390   6.090   0.759   0.085
 8164SOL    HW125391   6.099   0.773   7.006
 8164SOL    HW225392   6.082   0.661   0.104
 8165SOL     OW25393   0.504   2.019   6.558
 8165SOL    HW125394   0.447   2.049   6.634
 8165SOL    HW225395   0.467   1.936   6.518
 8166SOL     OW25396   1.509   2.354   4.594
 8166SOL    HW125397   1.425   2.405   4.613
 8166SOL    HW225398   1.586   2.400   4.637
 8167SOL     OW25399   0.131   2.841   4.139
 8167SOL    HW125400   0.048   2.896   4.147
 8167SOL    HW225401   0.133   2.798   4.049
 8168SOL     OW25402   2.626   0.766   1.658
 8168SOL    HW125403   2.697   0.820   1.613
 8168SOL    HW225404   2.602   0.688   1.601
 8169SOL     OW25405   5.129   2.493   1.399
 8169SOL    HW125406   5.194   2.552   1.448
 8169SOL    HW225407   5.164   2.400   1.397
 8170SOL     OW25408   6.500   4.704   2.493
 8170SOL    HW125409   6.423   4.683   2.554
 8170SOL    HW225410   6.565   4.763   2.541
 8171SOL     OW25411   2.152   1.359   0.589
 8171SOL    HW125412   2.072   1.406   0.625
 8171SOL    HW225413   2.189   1.411   0.511
 8172SOL     OW25414   0.943   2.811   1.969
 8172SOL    HW125415   0.873   2.766   2.025
 8172SOL    HW225416   1.034   2.780   1.999
 8173SOL     OW25417   5.648   1.350   1.915
 8173SOL    HW125418   5.579   1.414   1.948
 8173SOL    HW225419   5.605   1.263   1.893
 8174SOL     OW25420   2.608   5.393   2.661
 8174SOL    HW125421   2.692   5.428   2.701
 8174SOL    HW225422   2.544   5.368   2.733
 8175SOL     OW25423   0.509   2.094   4.311
 8175SOL    HW125424   0.489   2.146   4.228
 8175SOL    HW225425   0.428   2.043   4.338
 8176SOL     OW25426   2.146   4.305   1.139
 8176SOL    HW125427   2.236   4.332   1.173
 8176SOL    HW225428   2.102   4.243   1.204
 8177SOL     OW25429   3.561   1.486   2.723
 8177SOL    HW125430   3.628   1.480   2.649
 8177SOL    HW225431   3.605   1.460   2.809
 8178SOL     OW25432   2.026   6.569   1.222
 8178SOL    HW125433   2.110   6.548   1.270
 8178SOL    HW225434   2.047   6.611   1.134
 8179SOL     OW25435   5.410   0.876   3.263
 8179SOL    HW125436   5.310   0.880   3.261
 8179SOL    HW225437   5.444   0.932   3.339
 8180SOL     OW25438   4.715   6.122   0.012
 8180SOL    HW125439   4.782   6.175   6.979
 8180SOL    HW225440   4.744   6.119   0.108
 8181SOL     OW25441   0.577   0.778   1.174
 8181SOL    HW125442   0.545   0.855   1.119
 8181SOL    HW225443   0.637   0.812   1.246
 8182SOL     OW25444   3.059   3.294   4.487
 8182SOL    HW125445   3.084   3.206   4.446
 8182SOL    HW225446   3.088   3.368   4.426
 8183SOL     OW25447   6.955   0.422   5.353
 8183SOL    HW125448   6.872   0.466   5.319
 8183SOL    HW225449   6.948   0.323   5.340
 8184SOL     OW25450   0.898   6.166   6.883
 8184SOL    HW125451   0.892   6.125   6.974
 8184SOL    HW225452   0.824   6.231   6.870
 8185SOL     OW25453   0.682   0.018   0.010
 8185SOL    HW125454   0.737   0.065   6.961
 8185SOL    HW225455   0.611   0.080   0.043
 8186SOL     OW25456   1.625   5.519   6.820
 8186SOL    HW125457   1.701   5.584   6.827
 8186SOL    HW225458   1.656   5.429   6.853
 8187SOL     OW25459   1.344   0.595   6.028
 8187SOL    HW125460   1.409   0.544   6.086
 8187SOL    HW225461   1.314   0.677   6.077
 8188SOL     OW25462   2.806   1.999   4.055
 8188SOL    HW125463   2.795   2.098   4.065
 8188SOL    HW225464   2.901   1.975   4.075
 8189SOL     OW25465   4.874   4.656   3.852
 8189SOL    HW125466   4.874   4.644   3.752
 8189SOL    HW225467   4.958   4.703   3.879
 8190SOL     OW25468   6.087   3.753   3.088
 8190SOL    HW125469   6.121   3.815   3.017
 8190SOL    HW225470   6.006   3.705   3.055
 8191SOL     OW25471   4.075   5.131   1.507
 8191SOL    HW125472   4.062   5.143   1.605
 8191SOL    HW225473   4.124   5.045   1.490
 8192SOL     OW25474   1.608   4.686   3.605
 8192SOL    HW125475   1.539   4.619   3.577
 8192SOL    HW225476   1.647   4.659   3.693
 8193SOL     OW25477   0.252   4.038   5.028
 8193SOL    HW125478   0.297   4.086   4.953
 8193SOL    HW225479   0.321   4.001   5.090
 8194SOL     OW25480   4.746   6.614   1.902
 8194SOL    HW125481   4.769   6.546   1.832
 8194SOL    HW225482   4.655   6.652   1.882
 8195SOL     OW25483   5.608   6.489   3.163
 8195SOL    HW125484   5.569   6.448   3.080
 8195SOL    HW225485   5.708   6.482   3.159
 8196SOL     OW25486   4.677   0.320   0.216
 8196SOL    HW125487   4.769   0.304   0.181
 8196SOL    HW225488   4.652   0.416   0.203
 8197SOL     OW25489   5.150   1.947   1.673
 8197SOL    HW125490   5.084   1.889   1.626
 8197SOL    HW225491   5.104   1.998   1.745
 8198SOL     OW25492   2.041   0.473   2.528
 8198SOL    HW125493   2.124   0.526   2.507
 8198SOL    HW225494   1.960   0.525   2.502
 8199SOL     OW25495   5.546   2.728   5.919
 8199SOL    HW125496   5.574   2.657   5.855
 8199SOL    HW225497   5.625   2.784   5.943
 8200SOL     OW25498   4.235   3.503   1.150
 8200SOL    HW125499   4.322   3.529   1.108
 8200SOL    HW225500   4.251   3.431   1.217
 8201SOL     OW25501   0.341   6.810   4.997
 8201SOL    HW125502   0.268   6.789   4.932
 8201SOL    HW225503   0.320   6.894   5.046
 8202SOL     OW25504   0.501   6.299   2.419
 8202SOL    HW125505   0.404   6.318   2.437
 8202SOL    HW225506   0.520   6.203   2.439
 8203SOL     OW25507   1.599   3.002   0.943
 8203SOL    HW125508   1.588   2.914   0.989
 8203SOL    HW225509   1.509   3.038   0.918
 8204SOL     OW25510   4.296   3.249   1.321
 8204SOL    HW125511   4.308   3.187   1.243
 8204SOL    HW225512   4.265   3.196   1.400
 8205SOL     OW25513   0.958   3.535   0.580
 8205SOL    HW125514   0.966   3.590   0.663
 8205SOL    HW225515   1.005   3.448   0.592
 8206SOL     OW25516   4.352   1.413   6.815
 8206SOL    HW125517   4.369   1.316   6.835
 8206SOL    HW225518   4.374   1.433   6.720
 8207SOL     OW25519   3.971   3.122   4.613
 8207SOL    HW125520   3.887   3.068   4.623
 8207SOL    HW225521   3.977   3.188   4.688
 8208SOL     OW25522   1.296   1.316   0.012
 8208SOL    HW125523   1.325   1.232   0.058
 8208SOL    HW225524   1.246   1.292   6.948
 8209SOL     OW25525   6.485   0.721   5.468
 8209SOL    HW125526   6.528   0.661   5.536
 8209SOL    HW225527   6.544   0.800   5.452
 8210SOL     OW25528   2.095   3.112   0.368
 8210SOL    HW125529   2.162   3.043   0.393
 8210SOL    HW225530   2.131   3.169   0.294
 8211SOL     OW25531   2.855   4.312   1.052
 8211SOL    HW125532   2.887   4.219   1.070
 8211SOL    HW225533   2.924   4.361   0.998
 8212SOL     OW25534   1.966   2.386   3.036
 8212SOL    HW125535   1.973   2.313   3.105
 8212SOL    HW225536   1.875   2.384   2.995
 8213SOL     OW25537   0.221   5.006   1.538
 8213SOL    HW125538   0.281   4.960   1.604
 8213SOL    HW225539   0.127   4.975   1.552
 8214SOL     OW25540   5.797   4.354   3.466
 8214SOL    HW125541   5.755   4.315   3.548
 8214SOL    HW225542   5.769   4.450   3.457
 8215SOL     OW25543   3.989   4.974   4.793
 8215SOL    HW125544   4.019   5.067   4.769
 8215SOL    HW225545   4.057   4.908   4.761
 8216SOL     OW25546   5.192   4.495   4.168
 8216SOL    HW125547   5.177   4.397   4.159
 8216SOL    HW225548   5.107   4.540   4.195
 8217SOL     OW25549   1.982   5.916   0.747
 8217SOL    HW125550   2.037   5.863   0.811
 8217SOL    HW225551   2.038   5.986   0.705
 8218SOL     OW25552   0.409   1.883   0.084
 8218SOL    HW125553   0.364   1.801   0.049
 8218SOL    HW225554   0.489   1.857   0.138
 8219SOL     OW25555   5.776   1.979   6.520
 8219SOL    HW125556   5.701   2.008   6.580
 8219SOL    HW225557   5.740   1.919   6.449
 8220SOL     OW25558   3.557   3.780   2.499
 8220SOL    HW125559   3.560   3.817   2.591
 8220SOL    HW225560   3.623   3.705   2.491
 8221SOL     OW25561   5.100   6.013   3.903
 8221SOL    HW125562   5.083   6.074   3.826
 8221SOL    HW225563   5.172   5.948   3.879
 8222SOL     OW25564   5.993   1.802   1.878
 8222SOL    HW125565   5.983   1.703   1.881
 8222SOL    HW225566   6.076   1.825   1.826
 8223SOL     OW25567   0.584   4.103   6.222
 8223SOL    HW125568   0.575   4.112   6.321
 8223SOL    HW225569   0.575   4.194   6.180
 8224SOL     OW25570   0.834   2.759   2.394
 8224SOL    HW125571   0.809   2.851   2.365
 8224SOL    HW225572   0.830   2.753   2.494
 8225SOL     OW25573   4.855   1.435   6.352
 8225SOL    HW125574   4.900   1.346   6.359
 8225SOL    HW225575   4.845   1.459   6.255
 8226SOL     OW25576   5.250   0.659   1.233
 8226SOL    HW125577   5.325   0.628   1.292
 8226SOL    HW225578   5.260   0.757   1.216
 8227SOL     OW25579   6.456   3.127   3.171
 8227SOL    HW125580   6.480   3.183   3.250
 8227SOL    HW225581   6.358   3.132   3.155
 8228SOL     OW25582   0.290   1.969   4.719
 8228SOL    HW125583   0.355   1.996   4.790
 8228SOL    HW225584   0.230   2.046   4.698
 8229SOL     OW25585   3.079   5.513   6.827
 8229SOL    HW125586   3.119   5.505   6.918
 8229SOL    HW225587   2.983   5.540   6.835
 8230SOL     OW25588   4.614   0.183   5.133
 8230SOL    HW125589   4.671   0.102   5.117
 8230SOL    HW225590   4.614   0.240   5.051
 8231SOL     OW25591   5.343   5.359   1.273
 8231SOL    HW125592   5.369   5.448   1.237
 8231SOL    HW225593   5.395   5.287   1.226
 8232SOL     OW25594   4.122   1.326   0.141
 8232SOL    HW125595   4.169   1.240   0.159
 8232SOL    HW225596   4.188   1.401   0.141
 8233SOL     OW25597   0.824   5.292   5.940
 8233SOL    HW125598   0.770   5.358   5.889
 8233SOL    HW225599   0.765   5.241   6.003
 8234SOL     OW25600   2.725   2.365   6.999
 8234SOL    HW125601   2.629   2.339   7.011
 8234SOL    HW225602   2.782   2.308   0.039
 8235SOL     OW25603   3.804   3.528   0.961
 8235SOL    HW125604   3.832   3.482   1.046
 8235SOL    HW225605   3.705   3.517   0.949
 8236SOL     OW25606   6.699   2.887   0.109
 8236SOL    HW125607   6.754   2.866   0.190
 8236SOL    HW225608   6.741   2.961   0.057
 8237SOL     OW25609   4.251   5.628   5.440
 8237SOL    HW125610   4.259   5.710   5.383
 8237SOL    HW225611   4.329   5.623   5.502
 8238SOL     OW25612   2.171   3.621   0.372
 8238SOL    HW125613   2.157   3.541   0.314
 8238SOL    HW225614   2.269   3.643   0.375
 8239SOL     OW25615   6.294   2.085   5.346
 8239SOL    HW125616   6.358   2.138   5.401
 8239SOL    HW225617   6.241   2.025   5.405
 8240SOL     OW25618   3.042   3.941   2.508
 8240SOL    HW125619   2.991   4.023   2.531
 8240SOL    HW225620   3.033   3.874   2.581
 8241SOL     OW25621   3.236   0.128   0.866
 8241SOL    HW125622   3.169   0.064   0.905
 8241SOL    HW225623   3.307   0.076   0.818
 8242SOL     OW25624   0.767   4.428   5.959
 8242SOL    HW125625   0.733   4.454   5.869
 8242SOL    HW225626   0.814   4.340   5.952
 8243SOL     OW25627   0.124   2.775   5.818
 8243SOL    HW125628   0.214   2.765   5.860
 8243SOL    HW225629   0.062   2.819   5.882
 8244SOL     OW25630   0.456   6.788   4.004
 8244SOL    HW125631   0.394   6.792   3.925
 8244SOL    HW225632   0.515   6.708   3.996
 8245SOL     OW25633   4.666   1.846   1.005
 8245SOL    HW125634   4.731   1.881   1.072
 8245SOL    HW225635   4.595   1.914   0.989
 8246SOL     OW25636   5.991   4.054   6.197
 8246SOL    HW125637   5.932   4.122   6.154
 8246SOL    HW225638   6.025   3.990   6.129
 8247SOL     OW25639   0.681   0.396   1.321
 8247SOL    HW125640   0.698   0.492   1.343
 8247SOL    HW225641   0.764   0.355   1.284
 8248SOL     OW25642   5.746   4.945   3.887
 8248SOL    HW125643   5.775   4.869   3.829
 8248SOL    HW225644   5.818   5.014   3.889
 8249SOL     OW25645   2.074   4.718   4.325
 8249SOL    HW125646   2.055   4.642   4.264
 8249SOL    HW225647   1.989   4.766   4.347
 8250SOL     OW25648   3.688   4.032   3.195
 8250SOL    HW125649   3.591   4.009   3.186
 8250SOL    HW225650   3.705   4.068   3.286
 8251SOL     OW25651   5.076   2.151   4.821
 8251SOL    HW125652   5.158   2.200   4.792
 8251SOL    HW225653   5.101   2.079   4.885
 8252SOL     OW25654   2.801   3.112   5.793
 8252SOL    HW125655   2.842   3.095   5.882
 8252SOL    HW225656   2.812   3.208   5.768
 8253SOL     OW25657   3.389   2.973   5.129
 8253SOL    HW125658   3.344   2.905   5.187
 8253SOL    HW225659   3.327   3.051   5.116
 8254SOL     OW25660   4.255   4.763   4.285
 8254SOL    HW125661   4.249   4.704   4.366
 8254SOL    HW225662   4.286   4.709   4.207
 8255SOL     OW25663   4.303   5.794   4.083
 8255SOL    HW125664   4.215   5.823   4.046
 8255SOL    HW225665   4.370   5.867   4.070
 8256SOL     OW25666   5.702   1.221   3.728
 8256SOL    HW125667   5.622   1.281   3.722
 8256SOL    HW225668   5.749   1.221   3.640
 8257SOL     OW25669   5.899   4.916   3.122
 8257SOL    HW125670   5.984   4.881   3.084
 8257SOL    HW225671   5.916   4.957   3.211
 8258SOL     OW25672   4.788   1.070   0.507
 8258SOL    HW125673   4.858   1.025   0.562
 8258SOL    HW225674   4.771   1.019   0.423
 8259SOL     OW25675   3.563   1.603   3.949
 8259SOL    HW125676   3.600   1.695   3.958
 8259SOL    HW225677   3.553   1.581   3.852
 8260SOL     OW25678   2.607   6.669   2.043
 8260SOL    HW125679   2.525   6.725   2.041
 8260SOL    HW225680   2.591   6.585   1.991
 8261SOL     OW25681   5.416   1.259   0.816
 8261SOL    HW125682   5.432   1.188   0.885
 8261SOL    HW225683   5.503   1.293   0.781
 8262SOL     OW25684   0.944   2.176   1.558
 8262SOL    HW125685   1.019   2.237   1.583
 8262SOL    HW225686   0.866   2.230   1.526
 8263SOL     OW25687   7.000   1.135   1.323
 8263SOL    HW125688   0.067   1.094   1.295
 8263SOL    HW225689   7.013   1.232   1.342
 8264SOL     OW25690   1.216   6.374   2.205
 8264SOL    HW125691   1.255   6.466   2.212
 8264SOL    HW225692   1.279   6.314   2.156
 8265SOL     OW25693   1.754   0.297   1.851
 8265SOL    HW125694   1.669   0.245   1.839
 8265SOL    HW225695   1.737   0.393   1.831
 8266SOL     OW25696   2.143   6.547   2.999
 8266SOL    HW125697   2.135   6.645   2.984
 8266SOL    HW225698   2.238   6.524   3.017
 8267SOL     OW25699   1.827   3.551   1.155
 8267SOL    HW125700   1.744   3.498   1.173
 8267SOL    HW225701   1.863   3.528   1.065
 8268SOL     OW25702   2.167   6.864   6.502
 8268SOL    HW125703   2.081   6.915   6.503
 8268SOL    HW225704   2.243   6.926   6.522
 8269SOL     OW25705   5.712   1.553   0.810
 8269SOL    HW125706   5.810   1.573   0.819
 8269SOL    HW225707   5.659   1.636   0.828
 8270SOL     OW25708   3.327   6.626   3.935
 8270SOL    HW125709   3.228   6.618   3.924
 8270SOL    HW225710   3.348   6.648   4.031
 8271SOL     OW25711   6.603   1.610   3.012
 8271SOL    HW125712   6.680   1.618   2.949
 8271SOL    HW225713   6.577   1.514   3.021
 8272SOL     OW25714   4.292   0.715   2.355
 8272SOL    HW125715   4.285   0.623   2.395
 8272SOL    HW225716   4.386   0.747   2.363
 8273SOL     OW25717   1.916   0.112   1.137
 8273SOL    HW125718   1.880   0.072   1.053
 8273SOL    HW225719   1.992   0.056   1.170
 8274SOL     OW25720   4.292   4.980   2.997
 8274SOL    HW125721   4.254   4.900   2.951
 8274SOL    HW225722   4.325   5.046   2.929
 8275SOL     OW25723   4.326   2.283   5.943
 8275SOL    HW125724   4.393   2.258   6.013
 8275SOL    HW225725   4.365   2.267   5.852
 8276SOL     OW25726   0.712   2.161   3.991
 8276SOL    HW125727   0.714   2.245   4.045
 8276SOL    HW225728   0.743   2.085   4.047
 8277SOL     OW25729   6.617   0.635   6.508
 8277SOL    HW125730   6.652   0.545   6.532
 8277SOL    HW225731   6.671   0.706   6.553
 8278SOL     OW25732   2.651   2.048   0.234
 8278SOL    HW125733   2.579   2.095   0.184
 8278SOL    HW225734   2.615   1.964   0.274
 8279SOL     OW25735   0.861   6.192   4.606
 8279SOL    HW125736   0.850   6.277   4.657
 8279SOL    HW225737   0.852   6.210   4.508
 8280SOL     OW25738   3.061   2.650   6.809
 8280SOL    HW125739   3.027   2.713   6.880
 8280SOL    HW225740   2.987   2.588   6.782
 8281SOL     OW25741   1.177   5.594   1.403
 8281SOL    HW125742   1.134   5.532   1.338
 8281SOL    HW225743   1.199   5.680   1.358
 8282SOL     OW25744   5.540   3.022   6.482
 8282SOL    HW125745   5.489   2.972   6.412
 8282SOL    HW225746   5.628   2.976   6.498
 8283SOL     OW25747   1.164   4.556   6.115
 8283SOL    HW125748   1.143   4.491   6.188
 8283SOL    HW225749   1.251   4.529   6.072
 8284SOL     OW25750   0.603   4.549   2.016
 8284SOL    HW125751   0.527   4.564   1.953
 8284SOL    HW225752   0.660   4.473   1.983
 8285SOL     OW25753   3.948   3.249   5.060
 8285SOL    HW125754   3.961   3.214   5.153
 8285SOL    HW225755   3.928   3.172   4.999
 8286SOL     OW25756   6.342   2.377   5.563
 8286SOL    HW125757   6.404   2.451   5.589
 8286SOL    HW225758   6.254   2.389   5.609
 8287SOL     OW25759   1.070   5.240   4.619
 8287SOL    HW125760   1.054   5.339   4.626
 8287SOL    HW225761   1.099   5.217   4.526
 8288SOL     OW25762   2.773   2.341   3.133
 8288SOL    HW125763   2.730   2.280   3.066
 8288SOL    HW225764   2.770   2.435   3.099
 8289SOL     OW25765   0.757   0.205   0.486
 8289SOL    HW125766   0.810   0.283   0.454
 8289SOL    HW225767   0.818   0.138   0.528
 8290SOL     OW25768   6.962   1.668   0.481
 8290SOL    HW125769   6.889   1.736   0.467
 8290SOL    HW225770   6.965   1.642   0.577
 8291SOL     OW25771   4.661   0.092   6.879
 8291SOL    HW125772   4.721   0.072   6.956
 8291SOL    HW225773   4.574   0.129   6.912
 8292SOL     OW25774   2.729   6.521   0.443
 8292SOL    HW125775   2.650   6.566   0.485
 8292SOL    HW225776   2.702   6.480   0.357
 8293SOL     OW25777   4.146   0.010   6.491
 8293SOL    HW125778   4.204   0.054   6.560
 8293SOL    HW225779   4.196   6.954   6.449
 8294SOL     OW25780   6.051   3.302   6.399
 8294SOL    HW125781   6.010   3.342   6.317
 8294SOL    HW225782   6.074   3.375   6.464
 8295SOL     OW25783   5.519   4.967   2.335
 8295SOL    HW125784   5.494   4.871   2.317
 8295SOL    HW225785   5.463   5.003   2.409
 8296SOL     OW25786   1.280   6.126   6.493
 8296SOL    HW125787   1.323   6.189   6.557
 8296SOL    HW225788   1.230   6.178   6.423
 8297SOL     OW25789   6.193   2.503   3.338
 8297SOL    HW125790   6.268   2.459   3.289
 8297SOL    HW225791   6.127   2.539   3.272
 8298SOL     OW25792   5.166   1.328   1.826
 8298SOL    HW125793   5.135   1.288   1.739
 8298SOL    HW225794   5.181   1.426   1.813
 8299SOL     OW25795   0.294   2.998   1.902
 8299SOL    HW125796   0.277   2.899   1.899
 8299SOL    HW225797   0.372   3.020   1.843
 8300SOL     OW25798   0.529   4.624   5.357
 8300SOL    HW125799   0.562   4.678   5.434
 8300SOL    HW225800   0.508   4.684   5.280
 8301SOL     OW25801   4.116   2.295   1.108
 8301SOL    HW125802   4.169   2.264   1.187
 8301SOL    HW225803   4.078   2.385   1.126
 8302SOL     OW25804   5.907   6.642   6.730
 8302SOL    HW125805   5.976   6.669   6.798
 8302SOL    HW225806   5.936   6.674   6.639
 8303SOL     OW25807   0.344   0.123   4.708
 8303SOL    HW125808   0.413   0.057   4.680
 8303SOL    HW225809   0.253   0.081   4.702
 8304SOL     OW25810   1.100   3.650   5.956
 8304SOL    HW125811   1.131   3.722   6.019
 8304SOL    HW225812   1.011   3.616   5.986
 8305SOL     OW25813   3.537   5.539   3.916
 8305SOL    HW125814   3.496   5.616   3.964
 8305SOL    HW225815   3.593   5.485   3.980
 8306SOL     OW25816   0.603   2.151   5.657
 8306SOL    HW125817   0.538   2.181   5.726
 8306SOL    HW225818   0.574   2.063   5.618
 8307SOL     OW25819   3.508   5.178   0.974
 8307SOL    HW125820   3.543   5.173   0.880
 8307SOL    HW225821   3.418   5.220   0.973
 8308SOL     OW25822   4.305   6.797   1.604
 8308SOL    HW125823   4.256   6.725   1.653
 8308SOL    HW225824   4.244   6.839   1.536
 8309SOL     OW25825   5.811   5.357   3.141
 8309SOL    HW125826   5.830   5.452   3.164
 8309SOL    HW225827   5.772   5.311   3.221
 8310SOL     OW25828   0.981   4.277   0.701
 8310SOL    HW125829   0.949   4.187   0.730
 8310SOL    HW225830   0.908   4.344   0.715
 8311SOL     OW25831   0.300   0.616   6.493
 8311SOL    HW125832   0.353   0.537   6.463
 8311SOL    HW225833   0.339   0.699   6.454
 8312SOL     OW25834   4.828   6.289   1.406
 8312SOL    HW125835   4.798   6.298   1.501
 8312SOL    HW225836   4.895   6.360   1.385
 8313SOL     OW25837   3.881   2.051   2.921
 8313SOL    HW125838   3.922   2.015   3.005
 8313SOL    HW225839   3.870   1.977   2.855
 8314SOL     OW25840   5.052   6.719   0.959
 8314SOL    HW125841   4.954   6.700   0.955
 8314SOL    HW225842   5.067   6.816   0.979
 8315SOL     OW25843   4.408   3.327   0.649
 8315SOL    HW125844   4.464   3.244   0.652
 8315SOL    HW225845   4.465   3.406   0.671
 8316SOL     OW25846   0.459   3.866   1.239
 8316SOL    HW125847   0.464   3.892   1.142
 8316SOL    HW225848   0.369   3.887   1.275
 8317SOL     OW25849   2.078   3.373   2.729
 8317SOL    HW125850   2.017   3.439   2.685
 8317SOL    HW225851   2.161   3.420   2.758
 8318SOL     OW25852   4.272   1.875   5.033
 8318SOL    HW125853   4.369   1.852   5.027
 8318SOL    HW225854   4.245   1.925   4.950
 8319SOL     OW25855   3.401   1.346   5.494
 8319SOL    HW125856   3.335   1.390   5.555
 8319SOL    HW225857   3.372   1.359   5.399
 8320SOL     OW25858   3.370   4.829   1.271
 8320SOL    HW125859   3.335   4.901   1.331
 8320SOL    HW225860   3.314   4.825   1.188
 8321SOL     OW25861   0.504   1.377   6.731
 8321SOL    HW125862   0.537   1.459   6.778
 8321SOL    HW225863   0.544   1.372   6.640
 8322SOL     OW25864   6.691   0.067   6.868
 8322SOL    HW125865   6.623   0.052   6.941
 8322SOL    HW225866   6.779   0.090   6.909
 8323SOL     OW25867   0.501   0.344   2.484
 8323SOL    HW125868   0.567   0.419   2.487
 8323SOL    HW225869   0.453   0.346   2.396
 8324SOL     OW25870   6.309   0.345   2.210
 8324SOL    HW125871   6.317   0.387   2.120
 8324SOL    HW225872   6.266   0.409   2.273
 8325SOL     OW25873   4.049   3.306   4.405
 8325SOL    HW125874   4.036   3.226   4.347
 8325SOL    HW225875   4.048   3.278   4.501
 8326SOL     OW25876   4.548   3.430   5.593
 8326SOL    HW125877   4.520   3.358   5.530
 8326SOL    HW225878   4.468   3.460   5.646
 8327SOL     OW25879   4.945   2.077   5.684
 8327SOL    HW125880   4.986   2.102   5.772
 8327SOL    HW225881   4.899   2.156   5.645
 8328SOL     OW25882   2.603   3.824   6.168
 8328SOL    HW125883   2.540   3.879   6.113
 8328SOL    HW225884   2.671   3.884   6.210
 8329SOL     OW25885   0.075   2.590   5.418
 8329SOL    HW125886   0.101   2.497   5.390
 8329SOL    HW225887   0.157   2.646   5.426
 8330SOL     OW25888   1.859   6.589   0.670
 8330SOL    HW125889   1.929   6.645   0.625
 8330SOL    HW225890   1.781   6.578   0.609
 8331SOL     OW25891   3.209   0.027   1.177
 8331SOL    HW125892   3.222   0.123   1.201
 8331SOL    HW225893   3.129   7.010   1.225
 8332SOL     OW25894   4.706   5.294   2.263
 8332SOL    HW125895   4.645   5.266   2.337
 8332SOL    HW225896   4.661   5.282   2.175
 8333SOL     OW25897   0.033   6.048   6.940
 8333SOL    HW125898   0.026   6.081   0.014
 8333SOL    HW225899   0.128   6.019   6.922
 8334SOL     OW25900   5.578   1.336   4.067
 8334SOL    HW125901   5.507   1.405   4.056
 8334SOL    HW225902   5.536   1.245   4.067
 8335SOL     OW25903   6.482   5.419   5.864
 8335SOL    HW125904   6.390   5.391   5.892
 8335SOL    HW225905   6.512   5.496   5.921
 8336SOL     OW25906   6.767   1.251   2.974
 8336SOL    HW125907   6.790   1.193   2.896
 8336SOL    HW225908   6.670   1.277   2.968
 8337SOL     OW25909   0.757   6.267   4.067
 8337SOL    HW125910   0.712   6.178   4.069
 8337SOL    HW225911   0.733   6.314   3.982
 8338SOL     OW25912   1.766   4.842   1.442
 8338SOL    HW125913   1.674   4.847   1.482
 8338SOL    HW225914   1.833   4.873   1.509
 8339SOL     OW25915   6.715   0.868   3.041
 8339SOL    HW125916   6.730   0.910   3.131
 8339SOL    HW225917   6.778   0.791   3.031
 8340SOL     OW25918   4.894   3.919   0.967
 8340SOL    HW125919   4.866   3.996   0.910
 8340SOL    HW225920   4.992   3.927   0.986
 8341SOL     OW25921   1.555   6.989   0.362
 8341SOL    HW125922   1.595   6.929   0.432
 8341SOL    HW225923   1.626   0.029   0.326
 8342SOL     OW25924   3.765   0.342   1.042
 8342SOL    HW125925   3.853   0.378   1.011
 8342SOL    HW225926   3.697   0.416   1.040
 8343SOL     OW25927   1.851   5.316   5.927
 8343SOL    HW125928   1.855   5.216   5.931
 8343SOL    HW225929   1.865   5.353   6.018
 8344SOL     OW25930   4.605   6.505   6.067
 8344SOL    HW125931   4.581   6.587   6.015
 8344SOL    HW225932   4.674   6.453   6.017
 8345SOL     OW25933   5.527   1.900   3.475
 8345SOL    HW125934   5.566   1.869   3.388
 8345SOL    HW225935   5.457   1.835   3.505
 8346SOL     OW25936   2.446   4.786   0.392
 8346SOL    HW125937   2.535   4.746   0.413
 8346SOL    HW225938   2.380   4.757   0.461
 8347SOL     OW25939   2.683   6.990   5.189
 8347SOL    HW125940   2.643   6.949   5.271
 8347SOL    HW225941   2.618   0.033   5.148
 8348SOL     OW25942   1.332   0.585   1.572
 8348SOL    HW125943   1.372   0.523   1.640
 8348SOL    HW225944   1.393   0.591   1.493
 8349SOL     OW25945   5.613   3.777   1.095
 8349SOL    HW125946   5.631   3.867   1.056
 8349SOL    HW225947   5.636   3.706   1.028
 8350SOL     OW25948   5.766   0.857   4.998
 8350SOL    HW125949   5.794   0.857   4.902
 8350SOL    HW225950   5.670   0.829   5.005
 8351SOL     OW25951   3.792   5.512   4.192
 8351SOL    HW125952   3.758   5.425   4.156
 8351SOL    HW225953   3.814   5.501   4.289
 8352SOL     OW25954   6.486   0.085   1.993
 8352SOL    HW125955   6.462   0.072   2.089
 8352SOL    HW225956   6.525   0.000   1.956
 8353SOL     OW25957   5.980   3.954   2.119
 8353SOL    HW125958   6.037   3.884   2.076
 8353SOL    HW225959   6.037   4.028   2.153
 8354SOL     OW25960   3.085   1.468   6.626
 8354SOL    HW125961   3.157   1.465   6.696
 8354SOL    HW225962   3.074   1.376   6.587
 8355SOL     OW25963   3.138   0.683   0.012
 8355SOL    HW125964   3.143   0.773   0.054
 8355SOL    HW225965   3.069   0.684   6.959
 8356SOL     OW25966   0.896   6.477   0.129
 8356SOL    HW125967   0.976   6.508   0.076
 8356SOL    HW225968   0.927   6.431   0.212
 8357SOL     OW25969   3.987   5.520   5.152
 8357SOL    HW125970   3.998   5.429   5.194
 8357SOL    HW225971   4.046   5.527   5.072
 8358SOL     OW25972   1.619   2.414   5.564
 8358SOL    HW125973   1.695   2.352   5.549
 8358SOL    HW225974   1.541   2.387   5.507
 8359SOL     OW25975   4.139   5.924   4.589
 8359SOL    HW125976   4.165   5.956   4.498
 8359SOL    HW225977   4.041   5.938   4.602
 8360SOL     OW25978   3.802   0.227   2.702
 8360SOL    HW125979   3.784   0.145   2.646
 8360SOL    HW225980   3.820   0.305   2.642
 8361SOL     OW25981   1.858   1.556   2.170
 8361SOL    HW125982   1.816   1.645   2.187
 8361SOL    HW225983   1.855   1.535   2.073
 8362SOL     OW25984   3.047   2.507   0.452
 8362SOL    HW125985   3.091   2.447   0.519
 8362SOL    HW225986   2.953   2.525   0.481
 8363SOL     OW25987   1.151   2.687   0.903
 8363SOL    HW125988   1.235   2.691   0.957
 8363SOL    HW225989   1.081   2.744   0.946
 8364SOL     OW25990   6.571   3.349   2.912
 8364SOL    HW125991   6.602   3.260   2.946
 8364SOL    HW225992   6.474   3.345   2.889
 8365SOL     OW25993   2.277   3.568   0.835
 8365SOL    HW125994   2.375   3.585   0.848
 8365SOL    HW225995   2.264   3.473   0.806
 8366SOL     OW25996   4.698   6.010   2.332
 8366SOL    HW125997   4.756   5.997   2.413
 8366SOL    HW225998   4.643   6.093   2.343
 8367SOL     OW25999   4.706   6.439   3.769
 8367SOL    HW126000   4.713   6.443   3.869
 8367SOL    HW226001   4.702   6.344   3.739
 8368SOL     OW26002   2.851   5.635   6.214
 8368SOL    HW126003   2.938   5.684   6.208
 8368SOL    HW226004   2.810   5.629   6.123
 8369SOL     OW26005   1.905   0.797   0.338
 8369SOL    HW126006   1.863   0.719   0.386
 8369SOL    HW226007   1.870   0.882   0.377
 8370SOL     OW26008   2.648   1.941   5.956
 8370SOL    HW126009   2.646   2.003   6.035
 8370SOL    HW226010   2.703   1.861   5.979
 8371SOL     OW26011   1.429   3.208   0.011
 8371SOL    HW126012   1.479   3.241   0.092
 8371SOL    HW226013   1.330   3.217   0.027
 8372SOL     OW26014   0.405   0.049   2.833
 8372SOL    HW126015   0.482   0.013   2.886
 8372SOL    HW226016   0.406   0.010   2.741
 8373SOL     OW26017   0.848   6.252   5.521
 8373SOL    HW126018   0.750   6.269   5.516
 8373SOL    HW226019   0.871   6.169   5.470
 8374SOL     OW26020   0.015   1.072   6.942
 8374SOL    HW126021   6.993   1.138   6.881
 8374SOL    HW226022   7.016   1.096   0.017
 8375SOL     OW26023   3.257   5.839   6.012
 8375SOL    HW126024   3.266   5.938   5.998
 8375SOL    HW226025   3.300   5.790   5.936
 8376SOL     OW26026   2.588   0.580   4.405
 8376SOL    HW126027   2.623   0.620   4.490
 8376SOL    HW226028   2.524   0.506   4.427
 8377SOL     OW26029   5.647   5.758   1.016
 8377SOL    HW126030   5.558   5.793   1.048
 8377SOL    HW226031   5.696   5.831   0.970
 8378SOL     OW26032   5.367   3.626   3.202
 8378SOL    HW126033   5.319   3.688   3.140
 8378SOL    HW226034   5.417   3.558   3.150
 8379SOL     OW26035   6.638   3.931   2.056
 8379SOL    HW126036   6.721   3.943   2.110
 8379SOL    HW226037   6.625   4.010   1.996
 8380SOL     OW26038   6.219   1.517   2.364
 8380SOL    HW126039   6.219   1.425   2.405
 8380SOL    HW226040   6.239   1.584   2.435
 8381SOL     OW26041   0.834   5.172   4.786
 8381SOL    HW126042   0.769   5.236   4.745
 8381SOL    HW226043   0.928   5.203   4.767
 8382SOL     OW26044   1.418   1.677   2.215
 8382SOL    HW126045   1.349   1.728   2.266
 8382SOL    HW226046   1.466   1.614   2.277
 8383SOL     OW26047   2.610   2.272   6.752
 8383SOL    HW126048   2.687   2.336   6.758
 8383SOL    HW226049   2.576   2.270   6.658
 8384SOL     OW26050   6.929   6.489   1.113
 8384SOL    HW126051   6.986   6.520   1.189
 8384SOL    HW226052   6.851   6.550   1.102
 8385SOL     OW26053   5.476   2.447   1.721
 8385SOL    HW126054   5.449   2.356   1.751
 8385SOL    HW226055   5.575   2.457   1.728
 8386SOL     OW26056   0.985   4.070   2.678
 8386SOL    HW126057   0.893   4.034   2.693
 8386SOL    HW226058   1.021   4.105   2.765
 8387SOL     OW26059   1.669   1.304   1.057
 8387SOL    HW126060   1.624   1.356   0.984
 8387SOL    HW226061   1.669   1.358   1.141
 8388SOL     OW26062   2.888   6.116   1.587
 8388SOL    HW126063   2.911   6.020   1.572
 8388SOL    HW226064   2.925   6.171   1.512
 8389SOL     OW26065   5.544   2.962   2.097
 8389SOL    HW126066   5.635   2.987   2.061
 8389SOL    HW226067   5.476   2.976   2.025
 8390SOL     OW26068   3.667   2.444   6.078
 8390SOL    HW126069   3.624   2.533   6.060
 8390SOL    HW226070   3.627   2.375   6.017
 8391SOL     OW26071   6.237   0.189   0.736
 8391SOL    HW126072   6.328   0.199   0.695
 8391SOL    HW226073   6.174   0.254   0.695
 8392SOL     OW26074   6.205   3.453   4.751
 8392SOL    HW126075   6.114   3.413   4.741
 8392SOL    HW226076   6.266   3.389   4.798
 8393SOL     OW26077   4.875   0.412   2.088
 8393SOL    HW126078   4.795   0.353   2.077
 8393SOL    HW226079   4.919   0.426   1.999
 8394SOL     OW26080   6.442   3.920   2.249
 8394SOL    HW126081   6.526   3.921   2.196
 8394SOL    HW226082   6.461   3.953   2.342
 8395SOL     OW26083   2.301   0.480   5.413
 8395SOL    HW126084   2.277   0.468   5.509
 8395SOL    HW226085   2.334   0.573   5.398
 8396SOL     OW26086   4.104   5.433   4.037
 8396SOL    HW126087   4.140   5.499   4.103
 8396SOL    HW226088   4.059   5.358   4.086
 8397SOL     OW26089   6.414   1.407   3.933
 8397SOL    HW126090   6.441   1.498   3.904
 8397SOL    HW226091   6.392   1.408   4.031
 8398SOL     OW26092   5.205   1.941   6.168
 8398SOL    HW126093   5.183   1.849   6.137
 8398SOL    HW226094   5.145   1.967   6.243
 8399SOL     OW26095   6.607   6.067   6.947
 8399SOL    HW126096   6.526   6.019   6.912
 8399SOL    HW226097   6.680   6.000   6.963
 8400SOL     OW26098   1.400   2.182   4.202
 8400SOL    HW126099   1.416   2.227   4.114
 8400SOL    HW226100   1.482   2.133   4.230
 8401SOL     OW26101   2.463   0.101   5.491
 8401SOL    HW126102   2.468   0.002   5.478
 8401SOL    HW226103   2.457   0.147   5.403
 8402SOL     OW26104   4.763   0.901   5.946
 8402SOL    HW126105   4.781   0.930   6.040
 8402SOL    HW226106   4.739   0.980   5.890
 8403SOL     OW26107   6.488   4.670   3.977
 8403SOL    HW126108   6.568   4.649   4.033
 8403SOL    HW226109   6.424   4.593   3.980
 8404SOL     OW26110   2.399   2.016   6.275
 8404SOL    HW126111   2.334   2.076   6.227
 8404SOL    HW226112   2.447   2.069   6.346
 8405SOL     OW26113   3.680   1.569   5.600
 8405SOL    HW126114   3.674   1.469   5.605
 8405SOL    HW226115   3.759   1.594   5.543
 8406SOL     OW26116   5.079   0.915   6.458
 8406SOL    HW126117   5.061   0.840   6.393
 8406SOL    HW226118   5.144   0.883   6.528
 8407SOL     OW26119   3.776   6.449   3.431
 8407SOL    HW126120   3.717   6.432   3.510
 8407SOL    HW226121   3.820   6.539   3.440
 8408SOL     OW26122   5.229   6.800   1.187
 8408SOL    HW126123   5.301   6.776   1.252
 8408SOL    HW226124   5.186   6.718   1.151
 8409SOL     OW26125   4.429   2.494   1.886
 8409SOL    HW126126   4.516   2.494   1.935
 8409SOL    HW226127   4.435   2.557   1.808
 8410SOL     OW26128   6.849   1.757   1.597
 8410SOL    HW126129   6.905   1.783   1.676
 8410SOL    HW226130   6.840   1.657   1.594
 8411SOL     OW26131   0.297   5.884   0.988
 8411SOL    HW126132   0.214   5.938   0.998
 8411SOL    HW226133   0.344   5.878   1.076
 8412SOL     OW26134   3.209   3.056   0.904
 8412SOL    HW126135   3.291   3.113   0.905
 8412SOL    HW226136   3.141   3.096   0.965
 8413SOL     OW26137   4.189   5.309   5.985
 8413SOL    HW126138   4.195   5.408   5.998
 8413SOL    HW226139   4.150   5.267   6.067
 8414SOL     OW26140   1.564   1.008   2.638
 8414SOL    HW126141   1.613   0.987   2.554
 8414SOL    HW226142   1.468   0.983   2.628
 8415SOL     OW26143   2.977   6.950   4.315
 8415SOL    HW126144   2.973   6.998   4.402
 8415SOL    HW226145   3.002   7.014   4.242
 8416SOL     OW26146   5.981   1.620   4.887
 8416SOL    HW126147   6.078   1.634   4.871
 8416SOL    HW226148   5.956   1.659   4.976
 8417SOL     OW26149   1.020   3.174   5.278
 8417SOL    HW126150   1.015   3.240   5.353
 8417SOL    HW226151   1.088   3.104   5.299
 8418SOL     OW26152   0.630   5.500   2.018
 8418SOL    HW126153   0.667   5.408   2.033
 8418SOL    HW226154   0.691   5.568   2.059
 8419SOL     OW26155   5.372   0.726   2.889
 8419SOL    HW126156   5.348   0.746   2.794
 8419SOL    HW226157   5.439   0.794   2.921
 8420SOL     OW26158   3.547   6.671   2.421
 8420SOL    HW126159   3.466   6.648   2.367
 8420SOL    HW226160   3.609   6.593   2.423
 8421SOL     OW26161   4.187   6.198   5.976
 8421SOL    HW126162   4.184   6.104   5.941
 8421SOL    HW226163   4.179   6.262   5.900
 8422SOL     OW26164   4.799   2.511   2.647
 8422SOL    HW126165   4.740   2.562   2.584
 8422SOL    HW226166   4.768   2.416   2.652
 8423SOL     OW26167   5.405   4.407   5.728
 8423SOL    HW126168   5.431   4.316   5.760
 8423SOL    HW226169   5.306   4.420   5.739
 8424SOL     OW26170   1.865   0.123   3.514
 8424SOL    HW126171   1.937   0.143   3.448
 8424SOL    HW226172   1.851   0.202   3.574
 8425SOL     OW26173   3.218   3.566   3.731
 8425SOL    HW126174   3.204   3.662   3.708
 8425SOL    HW226175   3.227   3.556   3.830
 8426SOL     OW26176   3.867   3.364   2.355
 8426SOL    HW126177   3.781   3.318   2.334
 8426SOL    HW226178   3.936   3.295   2.379
 8427SOL     OW26179   3.006   3.249   3.196
 8427SOL    HW126180   3.015   3.219   3.291
 8427SOL    HW226181   3.066   3.327   3.180
 8428SOL     OW26182   0.238   0.376   0.546
 8428SOL    HW126183   0.335   0.358   0.563
 8428SOL    HW226184   0.209   0.456   0.598
 8429SOL     OW26185   2.037   5.661   6.192
 8429SOL    HW126186   2.036   5.761   6.182
 8429SOL    HW226187   2.129   5.632   6.220
 8430SOL     OW26188   4.441   6.023   4.073
 8430SOL    HW126189   4.506   6.073   4.131
 8430SOL    HW226190   4.393   6.088   4.014
 8431SOL     OW26191   2.498   2.756   6.605
 8431SOL    HW126192   2.572   2.729   6.667
 8431SOL    HW226193   2.526   2.837   6.553
 8432SOL     OW26194   6.657   5.380   5.415
 8432SOL    HW126195   6.742   5.379   5.467
 8432SOL    HW226196   6.654   5.462   5.357
 8433SOL     OW26197   4.700   2.179   1.180
 8433SOL    HW126198   4.661   2.267   1.151
 8433SOL    HW226199   4.634   2.106   1.161
 8434SOL     OW26200   1.979   5.520   4.580
 8434SOL    HW126201   1.895   5.545   4.532
 8434SOL    HW226202   1.965   5.433   4.628
 8435SOL     OW26203   5.177   0.574   2.669
 8435SOL    HW126204   5.200   0.482   2.700
 8435SOL    HW226205   5.085   0.598   2.698
 8436SOL     OW26206   2.142   6.440   3.581
 8436SOL    HW126207   2.139   6.539   3.573
 8436SOL    HW226208   2.147   6.414   3.677
 8437SOL     OW26209   2.238   2.958   2.428
 8437SOL    HW126210   2.232   3.039   2.371
 8437SOL    HW226211   2.202   2.979   2.519
 8438SOL     OW26212   1.626   3.743   3.097
 8438SOL    HW126213   1.706   3.799   3.119
 8438SOL    HW226214   1.590   3.771   3.008
 8439SOL     OW26215   6.051   4.879   3.581
 8439SOL    HW126216   6.062   4.780   3.586
 8439SOL    HW226217   6.073   4.910   3.489
 8440SOL     OW26218   2.119   1.709   3.232
 8440SOL    HW126219   2.180   1.712   3.312
 8440SOL    HW226220   2.105   1.802   3.198
 8441SOL     OW26221   5.733   6.195   5.313
 8441SOL    HW126222   5.808   6.211   5.378
 8441SOL    HW226223   5.762   6.224   5.222
 8442SOL     OW26224   3.634   0.887   4.987
 8442SOL    HW126225   3.583   0.959   4.939
 8442SOL    HW226226   3.609   0.887   5.083
 8443SOL     OW26227   1.840   4.768   3.485
 8443SOL    HW126228   1.908   4.795   3.553
 8443SOL    HW226229   1.767   4.715   3.530
 8444SOL     OW26230   4.364   6.538   2.972
 8444SOL    HW126231   4.348   6.565   3.068
 8444SOL    HW226232   4.438   6.593   2.935
 8445SOL     OW26233   3.102   6.700   6.797
 8445SOL    HW126234   3.149   6.633   6.855
 8445SOL    HW226235   3.131   6.687   6.702
 8446SOL     OW26236   0.299   6.521   5.110
 8446SOL    HW126237   0.306   6.620   5.122
 8446SOL    HW226238   0.349   6.493   5.029
 8447SOL     OW26239   4.343   1.768   2.890
 8447SOL    HW126240   4.343   1.856   2.937
 8447SOL    HW226241   4.257   1.721   2.908
 8448SOL     OW26242   4.753   6.742   3.273
 8448SOL    HW126243   4.725   6.687   3.194
 8448SOL    HW226244   4.850   6.765   3.264
 8449SOL     OW26245   1.917   2.641   3.308
 8449SOL    HW126246   1.899   2.677   3.216
 8449SOL    HW226247   1.944   2.716   3.368
 8450SOL     OW26248   6.695   0.838   0.180
 8450SOL    HW126249   6.757   0.878   0.247
 8450SOL    HW226250   6.606   0.882   0.186
 8451SOL     OW26251   4.060   1.451   1.094
 8451SOL    HW126252   4.032   1.503   1.175
 8451SOL    HW226253   4.157   1.429   1.100
 8452SOL     OW26254   4.869   1.924   4.952
 8452SOL    HW126255   4.956   1.879   4.931
 8452SOL    HW226256   4.828   1.959   4.868
 8453SOL     OW26257   0.922   6.005   6.675
 8453SOL    HW126258   0.920   6.063   6.756
 8453SOL    HW226259   0.836   5.956   6.667
 8454SOL     OW26260   0.672   4.024   6.897
 8454SOL    HW126261   0.624   3.948   6.942
 8454SOL    HW226262   0.689   4.097   6.962
 8455SOL     OW26263   1.107   0.448   2.448
 8455SOL    HW126264   1.151   0.479   2.364
 8455SOL    HW226265   1.159   0.480   2.527
 8456SOL     OW26266   5.121   0.750   3.003
 8456SOL    HW126267   5.092   0.825   2.944
 8456SOL    HW226268   5.218   0.731   2.988
 8457SOL     OW26269   6.106   6.510   4.543
 8457SOL    HW126270   6.007   6.507   4.530
 8457SOL    HW226271   6.131   6.451   4.620
 8458SOL     OW26272   0.226   0.173   0.110
 8458SOL    HW126273   0.205   0.262   0.151
 8458SOL    HW226274   0.168   0.159   0.029
 8459SOL     OW26275   1.267   5.688   3.310
 8459SOL    HW126276   1.306   5.767   3.262
 8459SOL    HW226277   1.292   5.604   3.262
 8460SOL     OW26278   3.599   4.149   4.795
 8460SOL    HW126279   3.573   4.052   4.800
 8460SOL    HW226280   3.652   4.173   4.876
 8461SOL     OW26281   6.950   3.131   4.496
 8461SOL    HW126282   6.895   3.120   4.579
 8461SOL    HW226283   0.010   3.071   4.502
 8462SOL     OW26284   2.855   1.729   1.795
 8462SOL    HW126285   2.817   1.801   1.735
 8462SOL    HW226286   2.935   1.765   1.843
 8463SOL     OW26287   6.008   0.893   2.235
 8463SOL    HW126288   6.102   0.899   2.268
 8463SOL    HW226289   5.954   0.838   2.299
 8464SOL     OW26290   5.994   3.262   4.503
 8464SOL    HW126291   6.081   3.215   4.487
 8464SOL    HW226292   5.992   3.298   4.597
 8465SOL     OW26293   1.258   1.844   0.649
 8465SOL    HW126294   1.179   1.798   0.608
 8465SOL    HW226295   1.262   1.938   0.616
 8466SOL     OW26296   0.866   5.878   3.333
 8466SOL    HW126297   0.934   5.869   3.406
 8466SOL    HW226298   0.792   5.938   3.365
 8467SOL     OW26299   2.640   5.350   0.989
 8467SOL    HW126300   2.714   5.296   1.029
 8467SOL    HW226301   2.672   5.444   0.974
 8468SOL     OW26302   4.114   2.104   6.723
 8468SOL    HW126303   4.146   2.163   6.649
 8468SOL    HW226304   4.192   2.068   6.775
 8469SOL     OW26305   3.418   3.035   6.669
 8469SOL    HW126306   3.348   3.051   6.600
 8469SOL    HW226307   3.375   3.016   6.758
 8470SOL     OW26308   2.977   3.033   0.264
 8470SOL    HW126309   3.001   3.124   0.231
 8470SOL    HW226310   3.060   2.981   0.283
 8471SOL     OW26311   2.878   0.322   3.894
 8471SOL    HW126312   2.817   0.354   3.822
 8471SOL    HW226313   2.968   0.365   3.883
 8472SOL     OW26314   0.501   6.955   4.366
 8472SOL    HW126315   0.542   6.943   4.456
 8472SOL    HW226316   0.403   6.935   4.371
 8473SOL     OW26317   6.685   5.196   6.684
 8473SOL    HW126318   6.732   5.142   6.753
 8473SOL    HW226319   6.741   5.202   6.601
 8474SOL     OW26320   3.536   3.179   1.616
 8474SOL    HW126321   3.606   3.250   1.621
 8474SOL    HW226322   3.458   3.212   1.563
 8475SOL     OW26323   5.947   1.822   2.751
 8475SOL    HW126324   6.037   1.856   2.781
 8475SOL    HW226325   5.885   1.900   2.739
 8476SOL     OW26326   5.042   0.773   1.790
 8476SOL    HW126327   5.138   0.800   1.777
 8476SOL    HW226328   5.006   0.817   1.873
 8477SOL     OW26329   2.408   6.905   1.270
 8477SOL    HW126330   2.439   6.810   1.267
 8477SOL    HW226331   2.481   6.964   1.235
 8478SOL     OW26332   1.728   0.557   5.890
 8478SOL    HW126333   1.674   0.475   5.902
 8478SOL    HW226334   1.673   0.627   5.843
 8479SOL     OW26335   6.079   0.987   0.866
 8479SOL    HW126336   6.105   0.891   0.878
 8479SOL    HW226337   6.161   1.043   0.860
 8480SOL     OW26338   3.120   0.488   1.509
 8480SOL    HW126339   3.191   0.557   1.499
 8480SOL    HW226340   3.159   0.398   1.494
 8481SOL     OW26341   3.122   1.498   4.646
 8481SOL    HW126342   3.081   1.512   4.556
 8481SOL    HW226343   3.090   1.412   4.685
 8482SOL     OW26344   1.295   6.995   2.149
 8482SOL    HW126345   1.364   6.953   2.090
 8482SOL    HW226346   1.262   6.927   2.214
 8483SOL     OW26347   3.548   5.604   1.787
 8483SOL    HW126348   3.528   5.684   1.844
 8483SOL    HW226349   3.492   5.607   1.704
 8484SOL     OW26350   0.717   4.866   4.521
 8484SOL    HW126351   0.636   4.894   4.573
 8484SOL    HW226352   0.722   4.766   4.518
 8485SOL     OW26353   2.123   4.137   7.010
 8485SOL    HW126354   2.124   4.042   0.020
 8485SOL    HW226355   2.164   4.194   0.062
 8486SOL     OW26356   5.794   0.797   2.432
 8486SOL    HW126357   5.703   0.807   2.393
 8486SOL    HW226358   5.815   0.876   2.490
 8487SOL     OW26359   5.218   0.433   1.835
 8487SOL    HW126360   5.220   0.339   1.800
 8487SOL    HW226361   5.308   0.456   1.872
 8488SOL     OW26362   5.033   4.475   4.503
 8488SOL    HW126363   5.103   4.428   4.557
 8488SOL    HW226364   4.974   4.529   4.562
 8489SOL     OW26365   5.308   4.680   1.392
 8489SOL    HW126366   5.215   4.699   1.424
 8489SOL    HW226367   5.350   4.765   1.360
 8490SOL     OW26368   4.171   5.219   3.177
 8490SOL    HW126369   4.267   5.245   3.169
 8490SOL    HW226370   4.150   5.199   3.273
 8491SOL     OW26371   2.417   0.488   2.096
 8491SOL    HW126372   2.451   0.539   2.017
 8491SOL    HW226373   2.468   0.402   2.106
 8492SOL     OW26374   6.178   2.386   5.318
 8492SOL    HW126375   6.212   2.389   5.412
 8492SOL    HW226376   6.126   2.302   5.304
 8493SOL     OW26377   4.425   1.562   0.034
 8493SOL    HW126378   4.525   1.558   0.033
 8493SOL    HW226379   4.390   1.532   6.965
 8494SOL     OW26380   2.546   5.691   0.343
 8494SOL    HW126381   2.500   5.777   0.322
 8494SOL    HW226382   2.534   5.627   0.267
 8495SOL     OW26383   6.672   2.460   0.806
 8495SOL    HW126384   6.646   2.394   0.876
 8495SOL    HW226385   6.733   2.529   0.846
 8496SOL     OW26386   6.997   2.134   3.117
 8496SOL    HW126387   6.916   2.081   3.091
 8496SOL    HW226388   6.989   2.164   3.212
 8497SOL     OW26389   6.065   5.035   3.799
 8497SOL    HW126390   6.093   5.120   3.752
 8497SOL    HW226391   6.066   4.960   3.733
 8498SOL     OW26392   0.232   0.200   1.183
 8498SOL    HW126393   0.295   0.272   1.155
 8498SOL    HW226394   0.248   0.176   1.279
 8499SOL     OW26395   3.023   4.375   6.433
 8499SOL    HW126396   3.002   4.470   6.454
 8499SOL    HW226397   3.066   4.369   6.343
 8500SOL     OW26398   2.407   7.009   6.529
 8500SOL    HW126399   2.468   6.942   6.487
 8500SOL    HW226400   2.425   0.080   6.491
 8501SOL     OW26401   2.154   3.550   6.609
 8501SOL    HW126402   2.102   3.549   6.524
 8501SOL    HW226403   2.165   3.645   6.640
 8502SOL     OW26404   6.742   6.427   1.974
 8502SOL    HW126405   6.820   6.383   1.929
 8502SOL    HW226406   6.775   6.480   2.052
 8503SOL     OW26407   2.806   4.882   3.595
 8503SOL    HW126408   2.746   4.812   3.557
 8503SOL    HW226409   2.872   4.910   3.525
 8504SOL     OW26410   1.559   5.236   3.265
 8504SOL    HW126411   1.564   5.141   3.295
 8504SOL    HW226412   1.595   5.295   3.337
 8505SOL     OW26413   5.124   4.109   3.944
 8505SOL    HW126414   5.044   4.165   3.963
 8505SOL    HW226415   5.190   4.119   4.019
 8506SOL     OW26416   1.173   6.761   0.483
 8506SOL    HW126417   1.134   6.852   0.493
 8506SOL    HW226418   1.115   6.694   0.527
 8507SOL     OW26419   1.958   1.173   6.381
 8507SOL    HW126420   2.051   1.137   6.372
 8507SOL    HW226421   1.961   1.273   6.380
 8508SOL     OW26422   0.281   1.870   5.611
 8508SOL    HW126423   0.222   1.925   5.670
 8508SOL    HW226424   0.228   1.794   5.573
 8509SOL     OW26425   5.709   1.717   4.043
 8509SOL    HW126426   5.671   1.808   4.028
 8509SOL    HW226427   5.670   1.678   4.126
 8510SOL     OW26428   5.350   5.556   3.097
 8510SOL    HW126429   5.353   5.649   3.136
 8510SOL    HW226430   5.417   5.499   3.144
 8511SOL     OW26431   6.741   4.552   1.237
 8511SOL    HW126432   6.772   4.588   1.325
 8511SOL    HW226433   6.720   4.454   1.246
 8512SOL     OW26434   4.497   1.890   0.205
 8512SOL    HW126435   4.454   1.969   0.161
 8512SOL    HW226436   4.444   1.808   0.186
 8513SOL     OW26437   5.651   4.049   1.005
 8513SOL    HW126438   5.726   4.115   1.010
 8513SOL    HW226439   5.605   4.043   1.093
 8514SOL     OW26440   2.753   1.534   4.792
 8514SOL    HW126441   2.691   1.598   4.837
 8514SOL    HW226442   2.736   1.536   4.693
 8515SOL     OW26443   0.519   1.205   6.977
 8515SOL    HW126444   0.539   1.228   6.881
 8515SOL    HW226445   0.579   1.258   0.017
 8516SOL     OW26446   5.978   3.383   2.577
 8516SOL    HW126447   5.989   3.405   2.480
 8516SOL    HW226448   5.941   3.291   2.586
 8517SOL     OW26449   1.860   2.719   5.338
 8517SOL    HW126450   1.954   2.743   5.361
 8517SOL    HW226451   1.805   2.716   5.421
 8518SOL     OW26452   5.126   4.776   6.404
 8518SOL    HW126453   5.079   4.763   6.491
 8518SOL    HW226454   5.190   4.853   6.411
 8519SOL     OW26455   1.729   4.403   1.014
 8519SOL    HW126456   1.760   4.492   1.048
 8519SOL    HW226457   1.791   4.371   0.942
 8520SOL     OW26458   3.905   3.943   4.786
 8520SOL    HW126459   3.996   3.930   4.746
 8520SOL    HW226460   3.838   3.952   4.713
 8521SOL     OW26461   1.203   6.449   5.478
 8521SOL    HW126462   1.239   6.450   5.385
 8521SOL    HW226463   1.112   6.490   5.478
 8522SOL     OW26464   1.292   0.036   0.353
 8522SOL    HW126465   1.260   0.050   0.447
 8522SOL    HW226466   1.390   0.014   0.355
 8523SOL     OW26467   2.763   6.941   6.610
 8523SOL    HW126468   2.704   6.887   6.669
 8523SOL    HW226469   2.832   6.882   6.568
 8524SOL     OW26470   1.122   5.149   5.076
 8524SOL    HW126471   1.222   5.150   5.080
 8524SOL    HW226472   1.087   5.240   5.096
 8525SOL     OW26473   6.507   4.658   1.296
 8525SOL    HW126474   6.597   4.621   1.274
 8525SOL    HW226475   6.437   4.588   1.277
 8526SOL     OW26476   2.287   6.507   0.572
 8526SOL    HW126477   2.381   6.536   0.556
 8526SOL    HW226478   2.286   6.419   0.618
 8527SOL     OW26479   3.440   0.496   6.511
 8527SOL    HW126480   3.513   0.548   6.466
 8527SOL    HW226481   3.400   0.432   6.445
 8528SOL     OW26482   4.583   2.199   0.751
 8528SOL    HW126483   4.571   2.298   0.756
 8528SOL    HW226484   4.514   2.154   0.807
 8529SOL     OW26485   1.402   6.111   0.151
 8529SOL    HW126486   1.406   6.196   0.203
 8529SOL    HW226487   1.378   6.132   0.056
 8530SOL     OW26488   2.976   3.238   4.075
 8530SOL    HW126489   2.963   3.300   4.153
 8530SOL    HW226490   2.977   3.290   3.990
 8531SOL     OW26491   6.665   6.153   3.593
 8531SOL    HW126492   6.744   6.105   3.630
 8531SOL    HW226493   6.610   6.091   3.537
 8532SOL     OW26494   3.714   6.469   4.442
 8532SOL    HW126495   3.701   6.385   4.496
 8532SOL    HW226496   3.647   6.471   4.368
 8533SOL     OW26497   1.196   5.952   6.723
 8533SOL    HW126498   1.097   5.951   6.713
 8533SOL    HW226499   1.237   5.989   6.639
 8534SOL     OW26500   4.482   2.079   4.084
 8534SOL    HW126501   4.500   1.996   4.137
 8534SOL    HW226502   4.416   2.136   4.133
 8535SOL     OW26503   5.564   1.014   3.442
 8535SOL    HW126504   5.662   1.013   3.420
 8535SOL    HW226505   5.545   0.945   3.511
 8536SOL     OW26506   0.682   1.384   4.903
 8536SOL    HW126507   0.613   1.312   4.915
 8536SOL    HW226508   0.739   1.390   4.985
 8537SOL     OW26509   6.322   1.139   3.379
 8537SOL    HW126510   6.278   1.208   3.321
 8537SOL    HW226511   6.373   1.185   3.452
 8538SOL     OW26512   1.313   1.745   0.265
 8538SOL    HW126513   1.314   1.674   0.195
 8538SOL    HW226514   1.404   1.785   0.274
 8539SOL     OW26515   5.968   2.612   3.198
 8539SOL    HW126516   5.932   2.561   3.120
 8539SOL    HW226517   5.896   2.628   3.264
 8540SOL     OW26518   4.290   0.149   6.678
 8540SOL    HW126519   4.323   0.098   6.757
 8540SOL    HW226520   4.226   0.219   6.709
 8541SOL     OW26521   2.207   2.221   4.045
 8541SOL    HW126522   2.290   2.235   3.992
 8541SOL    HW226523   2.212   2.276   4.129
 8542SOL     OW26524   4.165   4.438   6.338
 8542SOL    HW126525   4.190   4.440   6.241
 8542SOL    HW226526   4.073   4.401   6.348
 8543SOL     OW26527   2.247   2.530   0.396
 8543SOL    HW126528   2.185   2.490   0.328
 8543SOL    HW226529   2.321   2.578   0.348
 8544SOL     OW26530   5.238   2.531   4.088
 8544SOL    HW126531   5.306   2.506   4.156
 8544SOL    HW226532   5.236   2.461   4.016
 8545SOL     OW26533   5.087   5.934   5.505
 8545SOL    HW126534   5.030   5.890   5.574
 8545SOL    HW226535   5.174   5.885   5.498
 8546SOL     OW26536   5.296   1.740   3.509
 8546SOL    HW126537   5.230   1.788   3.451
 8546SOL    HW226538   5.334   1.663   3.459
 8547SOL     OW26539   1.705   5.036   4.357
 8547SOL    HW126540   1.672   5.118   4.310
 8547SOL    HW226541   1.633   5.001   4.417
 8548SOL     OW26542   5.423   1.290   5.601
 8548SOL    HW126543   5.412   1.389   5.607
 8548SOL    HW226544   5.372   1.246   5.675
 8549SOL     OW26545   6.684   3.894   4.017
 8549SOL    HW126546   6.660   3.911   4.112
 8549SOL    HW226547   6.753   3.822   4.011
 8550SOL     OW26548   1.898   5.415   6.169
 8550SOL    HW126549   1.939   5.506   6.174
 8550SOL    HW226550   1.939   5.357   6.240
 8551SOL     OW26551   3.881   4.331   6.617
 8551SOL    HW126552   3.884   4.333   6.517
 8551SOL    HW226553   3.962   4.377   6.654
 8552SOL     OW26554   3.283   5.695   3.107
 8552SOL    HW126555   3.326   5.786   3.108
 8552SOL    HW226556   3.233   5.683   3.022
 8553SOL     OW26557   4.953   6.871   0.550
 8553SOL    HW126558   4.978   6.915   0.464
 8553SOL    HW226559   4.863   6.827   0.540
 8554SOL     OW26560   0.393   4.104   6.928
 8554SOL    HW126561   0.486   4.077   6.901
 8554SOL    HW226562   0.344   4.139   6.849
 8555SOL     OW26563   0.831   1.305   3.871
 8555SOL    HW126564   0.771   1.230   3.897
 8555SOL    HW226565   0.779   1.390   3.865
 8556SOL     OW26566   6.811   0.804   3.753
 8556SOL    HW126567   6.771   0.719   3.787
 8556SOL    HW226568   6.742   0.876   3.754
 8557SOL     OW26569   6.667   6.830   1.468
 8557SOL    HW126570   6.652   6.885   1.550
 8557SOL    HW226571   6.765   6.813   1.456
 8558SOL     OW26572   1.940   5.510   2.478
 8558SOL    HW126573   1.953   5.535   2.382
 8558SOL    HW226574   1.855   5.458   2.487
 8559SOL     OW26575   0.969   0.352   1.577
 8559SOL    HW126576   1.004   0.440   1.543
 8559SOL    HW226577   0.869   0.357   1.581
 8560SOL     OW26578   6.862   1.432   0.394
 8560SOL    HW126579   6.892   1.524   0.418
 8560SOL    HW226580   6.831   1.431   0.299
 8561SOL     OW26581   4.916   6.390   3.034
 8561SOL    HW126582   5.002   6.416   2.990
 8561SOL    HW226583   4.862   6.335   2.970
 8562SOL     OW26584   3.813   6.650   4.673
 8562SOL    HW126585   3.771   6.636   4.583
 8562SOL    HW226586   3.759   6.715   4.725
 8563SOL     OW26587   2.561   3.111   6.955
 8563SOL    HW126588   2.640   3.119   7.016
 8563SOL    HW226589   2.487   3.063   7.003
 8564SOL     OW26590   0.765   0.061   3.605
 8564SOL    HW126591   0.758   6.991   3.561
 8564SOL    HW226592   0.719   0.057   3.694
 8565SOL     OW26593   3.912   0.168   0.421
 8565SOL    HW126594   3.847   0.095   0.443
 8565SOL    HW226595   3.865   0.239   0.368
 8566SOL     OW26596   1.136   2.224   3.082
 8566SOL    HW126597   1.108   2.156   3.149
 8566SOL    HW226598   1.056   2.258   3.033
 8567SOL     OW26599   5.731   1.175   0.954
 8567SOL    HW126600   5.811   1.191   1.012
 8567SOL    HW226601   5.648   1.176   1.011
 8568SOL     OW26602   5.454   1.863   0.306
 8568SOL    HW126603   5.516   1.870   0.384
 8568SOL    HW226604   5.496   1.906   0.226
 8569SOL     OW26605   4.880   1.341   4.045
 8569SOL    HW126606   4.914   1.248   4.035
 8569SOL    HW226607   4.840   1.353   4.136
 8570SOL     OW26608   0.510   3.851   6.117
 8570SOL    HW126609   0.521   3.934   6.171
 8570SOL    HW226610   0.430   3.861   6.057
 8571SOL     OW26611   6.655   4.270   4.593
 8571SOL    HW126612   6.663   4.201   4.665
 8571SOL    HW226613   6.709   4.351   4.617
 8572SOL     OW26614   1.869   4.984   5.378
 8572SOL    HW126615   1.858   4.977   5.477
 8572SOL    HW226616   1.966   4.979   5.355
 8573SOL     OW26617   4.418   5.769   6.041
 8573SOL    HW126618   4.362   5.819   6.107
 8573SOL    HW226619   4.513   5.768   6.070
 8574SOL     OW26620   0.044   3.664   5.618
 8574SOL    HW126621   0.117   3.655   5.686
 8574SOL    HW226622   7.010   3.580   5.616
 8575SOL     OW26623   2.982   2.865   0.534
 8575SOL    HW126624   2.972   2.806   0.453
 8575SOL    HW226625   3.039   2.818   0.601
 8576SOL     OW26626   1.004   0.066   1.491
 8576SOL    HW126627   1.096   0.098   1.472
 8576SOL    HW226628   0.968   0.113   1.572
 8577SOL     OW26629   6.333   5.368   3.140
 8577SOL    HW126630   6.291   5.381   3.229
 8577SOL    HW226631   6.266   5.330   3.076
 8578SOL     OW26632   4.375   0.477   3.887
 8578SOL    HW126633   4.409   0.493   3.980
 8578SOL    HW226634   4.440   0.419   3.837
 8579SOL     OW26635   1.227   4.648   3.314
 8579SOL    HW126636   1.135   4.639   3.353
 8579SOL    HW226637   1.294   4.608   3.376
 8580SOL     OW26638   1.566   6.440   1.580
 8580SOL    HW126639   1.506   6.500   1.633
 8580SOL    HW226640   1.632   6.495   1.529
 8581SOL     OW26641   3.317   1.759   1.256
 8581SOL    HW126642   3.379   1.837   1.255
 8581SOL    HW226643   3.331   1.704   1.173
 8582SOL     OW26644   4.517   4.527   2.139
 8582SOL    HW126645   4.546   4.433   2.119
 8582SOL    HW226646   4.489   4.572   2.054
 8583SOL     OW26647   6.053   0.068   5.823
 8583SOL    HW126648   6.085   0.063   5.728
 8583SOL    HW226649   5.958   0.098   5.826
 8584SOL     OW26650   0.304   5.414   0.368
 8584SOL    HW126651   0.305   5.497   0.423
 8584SOL    HW226652   0.210   5.390   0.345
 8585SOL     OW26653   0.350   0.855   0.085
 8585SOL    HW126654   0.279   0.821   0.023
 8585SOL    HW226655   0.319   0.939   0.128
 8586SOL     OW26656   3.771   5.796   2.730
 8586SOL    HW126657   3.800   5.722   2.791
 8586SOL    HW226658   3.674   5.786   2.708
 8587SOL     OW26659   6.972   1.668   2.645
 8587SOL    HW126660   0.045   1.643   2.673
 8587SOL    HW226661   6.975   1.719   2.559
 8588SOL     OW26662   4.086   2.665   0.436
 8588SOL    HW126663   4.139   2.750   0.444
 8588SOL    HW226664   4.102   2.623   0.347
 8589SOL     OW26665   3.433   0.835   4.394
 8589SOL    HW126666   3.344   0.859   4.433
 8589SOL    HW226667   3.422   0.805   4.300
 8590SOL     OW26668   6.268   5.212   4.619
 8590SOL    HW126669   6.220   5.125   4.613
 8590SOL    HW226670   6.338   5.206   4.691
 8591SOL     OW26671   1.344   3.535   6.148
 8591SOL    HW126672   1.421   3.488   6.105
 8591SOL    HW226673   1.263   3.476   6.147
 8592SOL     OW26674   0.089   4.357   1.093
 8592SOL    HW126675   0.180   4.396   1.106
 8592SOL    HW226676   0.071   4.290   1.165
 8593SOL     OW26677   1.776   6.784   2.051
 8593SOL    HW126678   1.826   6.870   2.063
 8593SOL    HW226679   1.755   6.770   1.954
 8594SOL     OW26680   3.204   3.625   4.030
 8594SOL    HW126681   3.105   3.631   4.040
 8594SOL    HW226682   3.232   3.529   4.036
 8595SOL     OW26683   1.737   2.190   2.348
 8595SOL    HW126684   1.702   2.240   2.270
 8595SOL    HW226685   1.725   2.091   2.333
 8596SOL     OW26686   5.478   5.270   1.554
 8596SOL    HW126687   5.489   5.313   1.464
 8596SOL    HW226688   5.434   5.335   1.616
 8597SOL     OW26689   2.877   1.306   0.717
 8597SOL    HW126690   2.832   1.252   0.788
 8597SOL    HW226691   2.841   1.280   0.627
 8598SOL     OW26692   6.157   3.824   1.072
 8598SOL    HW126693   6.098   3.832   0.991
 8598SOL    HW226694   6.113   3.763   1.138
 8599SOL     OW26695   1.261   2.814   3.164
 8599SOL    HW126696   1.360   2.823   3.180
 8599SOL    HW226697   1.226   2.737   3.217
 8600SOL     OW26698   6.569   4.944   6.478
 8600SOL    HW126699   6.483   4.903   6.507
 8600SOL    HW226700   6.558   5.043   6.468
 8601SOL     OW26701   6.958   0.114   3.951
 8601SOL    HW126702   0.004   0.144   3.882
 8601SOL    HW226703   6.986   0.145   4.041
 8602SOL     OW26704   2.786   5.495   2.257
 8602SOL    HW126705   2.830   5.517   2.170
 8602SOL    HW226706   2.824   5.409   2.292
 8603SOL     OW26707   3.944   3.146   6.852
 8603SOL    HW126708   3.980   3.237   6.875
 8603SOL    HW226709   3.852   3.156   6.813
 8604SOL     OW26710   5.528   3.085   3.783
 8604SOL    HW126711   5.614   3.135   3.789
 8604SOL    HW226712   5.454   3.148   3.759
 8605SOL     OW26713   2.614   5.984   3.532
 8605SOL    HW126714   2.614   6.084   3.534
 8605SOL    HW226715   2.540   5.949   3.589
 8606SOL     OW26716   3.796   4.789   6.120
 8606SOL    HW126717   3.776   4.858   6.191
 8606SOL    HW226718   3.874   4.734   6.149
 8607SOL     OW26719   4.382   5.756   1.949
 8607SOL    HW126720   4.351   5.713   1.865
 8607SOL    HW226721   4.365   5.855   1.944
 8608SOL     OW26722   3.905   5.322   2.754
 8608SOL    HW126723   3.826   5.318   2.815
 8608SOL    HW226724   3.967   5.246   2.774
 8609SOL     OW26725   3.340   0.243   5.141
 8609SOL    HW126726   3.311   0.273   5.232
 8609SOL    HW226727   3.336   0.321   5.078
 8610SOL     OW26728   1.032   6.588   3.292
 8610SOL    HW126729   0.979   6.514   3.252
 8610SOL    HW226730   1.129   6.569   3.282
 8611SOL     OW26731   1.868   2.177   4.754
 8611SOL    HW126732   1.902   2.228   4.675
 8611SOL    HW226733   1.786   2.223   4.790
 8612SOL     OW26734   3.669   3.100   6.769
 8612SOL    HW126735   3.656   3.079   6.866
 8612SOL    HW226736   3.594   3.060   6.716
 8613SOL     OW26737   1.918   1.665   1.261
 8613SOL    HW126738   1.984   1.590   1.256
 8613SOL    HW226739   1.929   1.713   1.348
 8614SOL     OW26740   1.210   2.971   2.658
 8614SOL    HW126741   1.122   3.004   2.692
 8614SOL    HW226742   1.195   2.902   2.587
 8615SOL     OW26743   4.014   2.144   6.029
 8615SOL    HW126744   4.007   2.147   5.929
 8615SOL    HW226745   3.939   2.089   6.066
 8616SOL     OW26746   1.066   4.652   0.542
 8616SOL    HW126747   1.048   4.554   0.530
 8616SOL    HW226748   1.163   4.666   0.561
 8617SOL     OW26749   5.732   2.728   0.773
 8617SOL    HW126750   5.723   2.820   0.812
 8617SOL    HW226751   5.644   2.700   0.735
 8618SOL     OW26752   4.267   0.015   3.033
 8618SOL    HW126753   4.224   6.947   3.014
 8618SOL    HW226754   4.254   0.076   2.954
 8619SOL     OW26755   4.438   4.911   0.025
 8619SOL    HW126756   4.466   5.007   0.020
 8619SOL    HW226757   4.380   4.889   6.967
 8620SOL     OW26758   5.466   6.488   2.058
 8620SOL    HW126759   5.515   6.450   2.136
 8620SOL    HW226760   5.373   6.451   2.056
 8621SOL     OW26761   6.011   1.436   3.835
 8621SOL    HW126762   5.918   1.470   3.828
 8621SOL    HW226763   6.075   1.513   3.832
 8622SOL     OW26764   4.800   5.444   0.080
 8622SOL    HW126765   4.832   5.436   0.174
 8622SOL    HW226766   4.701   5.457   0.080
 8623SOL     OW26767   1.218   3.523   3.122
 8623SOL    HW126768   1.193   3.526   3.219
 8623SOL    HW226769   1.273   3.603   3.099
 8624SOL     OW26770   0.918   4.025   3.093
 8624SOL    HW126771   0.852   4.081   3.042
 8624SOL    HW226772   0.944   3.946   3.037
 8625SOL     OW26773   4.448   1.226   4.537
 8625SOL    HW126774   4.388   1.181   4.470
 8625SOL    HW226775   4.401   1.233   4.625
 8626SOL     OW26776   3.314   3.065   4.132
 8626SOL    HW126777   3.257   3.085   4.212
 8626SOL    HW226778   3.256   3.057   4.051
 8627SOL     OW26779   0.992   0.943   1.209
 8627SOL    HW126780   0.898   0.967   1.230
 8627SOL    HW226781   1.005   0.845   1.217
 8628SOL     OW26782   6.170   0.745   6.843
 8628SOL    HW126783   6.266   0.726   6.864
 8628SOL    HW226784   6.165   0.821   6.779
 8629SOL     OW26785   1.139   4.754   4.196
 8629SOL    HW126786   1.201   4.679   4.175
 8629SOL    HW226787   1.052   4.717   4.230
 8630SOL     OW26788   5.931   4.366   4.069
 8630SOL    HW126789   5.832   4.365   4.058
 8630SOL    HW226790   5.967   4.454   4.041
 8631SOL     OW26791   3.882   6.119   5.041
 8631SOL    HW126792   3.867   6.106   4.943
 8631SOL    HW226793   3.847   6.040   5.091
 8632SOL     OW26794   3.364   0.810   3.586
 8632SOL    HW126795   3.389   0.879   3.518
 8632SOL    HW226796   3.318   0.734   3.540
 8633SOL     OW26797   5.470   1.097   4.007
 8633SOL    HW126798   5.540   1.047   3.956
 8633SOL    HW226799   5.395   1.035   4.029
 8634SOL     OW26800   6.836   4.363   1.798
 8634SOL    HW126801   6.752   4.388   1.751
 8634SOL    HW226802   6.840   4.408   1.887
 8635SOL     OW26803   5.894   3.771   5.883
 8635SOL    HW126804   5.965   3.832   5.919
 8635SOL    HW226805   5.934   3.712   5.813
 8636SOL     OW26806   6.261   5.921   0.399
 8636SOL    HW126807   6.215   5.837   0.429
 8636SOL    HW226808   6.338   5.941   0.459
 8637SOL     OW26809   1.821   0.786   0.658
 8637SOL    HW126810   1.897   0.852   0.661
 8637SOL    HW226811   1.772   0.787   0.745
 8638SOL     OW26812   2.627   4.609   0.135
 8638SOL    HW126813   2.638   4.668   0.215
 8638SOL    HW226814   2.607   4.664   0.055
 8639SOL     OW26815   5.627   3.664   1.670
 8639SOL    HW126816   5.584   3.729   1.733
 8639SOL    HW226817   5.566   3.648   1.593
 8640SOL     OW26818   4.920   4.403   0.435
 8640SOL    HW126819   4.873   4.483   0.472
 8640SOL    HW226820   5.007   4.431   0.395
 8641SOL     OW26821   0.072   4.256   3.370
 8641SOL    HW126822   0.004   4.275   3.441
 8641SOL    HW226823   0.109   4.342   3.335
 8642SOL     OW26824   4.578   1.019   2.260
 8642SOL    HW126825   4.590   0.928   2.299
 8642SOL    HW226826   4.482   1.046   2.268
 8643SOL     OW26827   4.415   0.593   6.635
 8643SOL    HW126828   4.462   0.519   6.586
 8643SOL    HW226829   4.413   0.675   6.577
 8644SOL     OW26830   5.248   2.590   4.682
 8644SOL    HW126831   5.327   2.595   4.621
 8644SOL    HW226832   5.173   2.645   4.645
 8645SOL     OW26833   6.411   3.944   1.353
 8645SOL    HW126834   6.435   3.999   1.433
 8645SOL    HW226835   6.376   3.855   1.382
 8646SOL     OW26836   4.970   1.008   0.245
 8646SOL    HW126837   4.908   0.990   0.169
 8646SOL    HW226838   4.976   1.106   0.262
 8647SOL     OW26839   3.777   4.692   0.152
 8647SOL    HW126840   3.690   4.642   0.144
 8647SOL    HW226841   3.792   4.745   0.069
 8648SOL     OW26842   5.456   0.739   4.599
 8648SOL    HW126843   5.534   0.802   4.599
 8648SOL    HW226844   5.490   0.645   4.593
 8649SOL     OW26845   6.114   3.930   5.494
 8649SOL    HW126846   6.190   3.990   5.471
 8649SOL    HW226847   6.037   3.985   5.527
 8650SOL     OW26848   2.094   4.771   3.889
 8650SOL    HW126849   2.125   4.726   3.805
 8650SOL    HW226850   2.166   4.766   3.959
 8651SOL     OW26851   3.653   1.765   0.097
 8651SOL    HW126852   3.672   1.863   0.089
 8651SOL    HW226853   3.556   1.748   0.080
 8652SOL     OW26854   2.158   3.622   3.403
 8652SOL    HW126855   2.188   3.717   3.415
 8652SOL    HW226856   2.184   3.590   3.312
 8653SOL     OW26857   0.423   2.472   6.631
 8653SOL    HW126858   0.483   2.541   6.671
 8653SOL    HW226859   0.334   2.475   6.676
 8654SOL     OW26860   0.438   6.636   3.331
 8654SOL    HW126861   0.397   6.577   3.401
 8654SOL    HW226862   0.399   6.615   3.242
 8655SOL     OW26863   5.840   6.585   4.386
 8655SOL    HW126864   5.760   6.576   4.328
 8655SOL    HW226865   5.815   6.628   4.473
 8656SOL     OW26866   6.149   1.083   1.288
 8656SOL    HW126867   6.075   1.116   1.229
 8656SOL    HW226868   6.219   1.154   1.295
 8657SOL     OW26869   5.089   5.078   6.286
 8657SOL    HW126870   5.092   5.089   6.187
 8657SOL    HW226871   5.170   5.027   6.317
 8658SOL     OW26872   5.707   4.578   0.382
 8658SOL    HW126873   5.644   4.638   0.430
 8658SOL    HW226874   5.749   4.628   0.306
 8659SOL     OW26875   4.379   0.695   3.016
 8659SOL    HW126876   4.378   0.711   2.917
 8659SOL    HW226877   4.305   0.631   3.040
 8660SOL     OW26878   5.929   3.770   0.344
 8660SOL    HW126879   5.922   3.862   0.303
 8660SOL    HW226880   5.939   3.778   0.443
 8661SOL     OW26881   6.372   4.199   1.803
 8661SOL    HW126882   6.358   4.269   1.733
 8661SOL    HW226883   6.285   4.179   1.848
 8662SOL     OW26884   6.363   6.443   1.185
 8662SOL    HW126885   6.306   6.396   1.254
 8662SOL    HW226886   6.319   6.435   1.096
 8663SOL     OW26887   2.026   5.540   1.125
 8663SOL    HW126888   2.035   5.460   1.185
 8663SOL    HW226889   2.058   5.516   1.034
 8664SOL     OW26890   3.876   6.098   0.107
 8664SOL    HW126891   3.905   6.173   0.047
 8664SOL    HW226892   3.943   6.085   0.180
 8665SOL     OW26893   4.361   5.432   4.974
 8665SOL    HW126894   4.439   5.493   4.990
 8665SOL    HW226895   4.336   5.387   5.059
 8666SOL     OW26896   4.863   2.332   5.545
 8666SOL    HW126897   4.781   2.339   5.487
 8666SOL    HW226898   4.928   2.403   5.518
 8667SOL     OW26899   5.459   1.585   3.078
 8667SOL    HW126900   5.552   1.587   3.041
 8667SOL    HW226901   5.402   1.650   3.028
 8668SOL     OW26902   5.114   2.410   4.421
 8668SOL    HW126903   5.047   2.483   4.435
 8668SOL    HW226904   5.202   2.449   4.396
 8669SOL     OW26905   4.052   0.984   6.132
 8669SOL    HW126906   4.039   0.987   6.033
 8669SOL    HW226907   4.009   0.902   6.169
 8670SOL     OW26908   3.878   5.678   4.662
 8670SOL    HW126909   3.943   5.623   4.609
 8670SOL    HW226910   3.899   5.775   4.650
 8671SOL     OW26911   5.992   6.843   3.649
 8671SOL    HW126912   5.910   6.816   3.599
 8671SOL    HW226913   5.973   6.844   3.747
 8672SOL     OW26914   2.876   5.086   4.190
 8672SOL    HW126915   2.929   5.151   4.136
 8672SOL    HW226916   2.925   4.999   4.194
 8673SOL     OW26917   7.006   1.921   0.673
 8673SOL    HW126918   0.034   1.920   0.586
 8673SOL    HW226919   6.914   1.959   0.661
 8674SOL     OW26920   0.078   0.005   2.747
 8674SOL    HW126921   0.154   6.974   2.707
 8674SOL    HW226922   7.014   7.007   2.695
 8675SOL     OW26923   2.630   1.688   3.716
 8675SOL    HW126924   2.666   1.771   3.674
 8675SOL    HW226925   2.705   1.635   3.754
 8676SOL     OW26926   3.765   0.518   2.649
 8676SOL    HW126927   3.695   0.521   2.720
 8676SOL    HW226928   3.722   0.505   2.559
 8677SOL     OW26929   2.636   4.371   6.155
 8677SOL    HW126930   2.649   4.466   6.129
 8677SOL    HW226931   2.667   4.311   6.081
 8678SOL     OW26932   1.607   0.035   6.670
 8678SOL    HW126933   1.540   0.036   6.744
 8678SOL    HW226934   1.560   0.023   6.582
 8679SOL     OW26935   6.458   1.869   5.171
 8679SOL    HW126936   6.463   1.967   5.186
 8679SOL    HW226937   6.509   1.845   5.089
 8680SOL     OW26938   1.831   3.301   0.367
 8680SOL    HW126939   1.859   3.220   0.419
 8680SOL    HW226940   1.902   3.323   0.300
 8681SOL     OW26941   4.215   4.476   0.734
 8681SOL    HW126942   4.170   4.480   0.644
 8681SOL    HW226943   4.306   4.436   0.723
 8682SOL     OW26944   2.667   6.484   2.804
 8682SOL    HW126945   2.578   6.510   2.767
 8682SOL    HW226946   2.655   6.439   2.892
 8683SOL     OW26947   1.090   2.771   1.300
 8683SOL    HW126948   1.161   2.708   1.270
 8683SOL    HW226949   1.094   2.784   1.399
 8684SOL     OW26950   6.086   2.754   5.318
 8684SOL    HW126951   6.058   2.659   5.333
 8684SOL    HW226952   6.122   2.764   5.226
 8685SOL     OW26953   0.911   1.683   6.718
 8685SOL    HW126954   0.863   1.675   6.805
 8685SOL    HW226955   0.978   1.757   6.724
 8686SOL     OW26956   0.066   2.004   2.654
 8686SOL    HW126957   0.121   1.925   2.626
 8686SOL    HW226958   0.127   2.079   2.681
 8687SOL     OW26959   3.314   6.575   2.274
 8687SOL    HW126960   3.300   6.482   2.306
 8687SOL    HW226961   3.318   6.576   2.174
 8688SOL     OW26962   2.818   6.804   1.208
 8688SOL    HW126963   2.804   6.727   1.146
 8688SOL    HW226964   2.742   6.869   1.197
 8689SOL     OW26965   4.179   5.772   0.222
 8689SOL    HW126966   4.210   5.866   0.228
 8689SOL    HW226967   4.081   5.768   0.240
 8690SOL     OW26968   1.054   2.088   3.322
 8690SOL    HW126969   1.114   2.126   3.392
 8690SOL    HW226970   0.970   2.054   3.364
 8691SOL     OW26971   5.028   2.666   6.634
 8691SOL    HW126972   5.111   2.642   6.685
 8691SOL    HW226973   5.036   2.632   6.540
 8692SOL     OW26974   2.934   2.024   3.596
 8692SOL    HW126975   2.980   1.968   3.527
 8692SOL    HW226976   2.910   1.967   3.675
 8693SOL     OW26977   5.742   2.186   0.637
 8693SOL    HW126978   5.653   2.232   0.637
 8693SOL    HW226979   5.780   2.187   0.730
 8694SOL     OW26980   5.050   6.943   6.663
 8694SOL    HW126981   5.054   0.004   6.722
 8694SOL    HW226982   4.967   6.948   6.607
 8695SOL     OW26983   5.063   2.833   5.602
 8695SOL    HW126984   5.027   2.839   5.695
 8695SOL    HW226985   5.160   2.810   5.605
 8696SOL     OW26986   3.412   5.565   0.971
 8696SOL    HW126987   3.343   5.633   0.945
 8696SOL    HW226988   3.495   5.578   0.917
 8697SOL     OW26989   6.498   3.360   1.421
 8697SOL    HW126990   6.447   3.311   1.350
 8697SOL    HW226991   6.590   3.323   1.427
 8698SOL     OW26992   5.584   5.580   4.491
 8698SOL    HW126993   5.527   5.661   4.492
 8698SOL    HW226994   5.657   5.589   4.558
 8699SOL     OW26995   0.831   1.804   5.535
 8699SOL    HW126996   0.838   1.780   5.438
 8699SOL    HW226997   0.815   1.903   5.543
 8700SOL     OW26998   1.880   0.806   4.758
 8700SOL    HW126999   1.894   0.710   4.733
 8700SOL    HW227000   1.963   0.841   4.800
 8701SOL     OW27001   1.033   1.153   5.562
 8701SOL    HW127002   0.993   1.235   5.602
 8701SOL    HW227003   1.133   1.160   5.563
 8702SOL     OW27004   5.600   4.760   0.594
 8702SOL    HW127005   5.600   4.731   0.690
 8702SOL    HW227006   5.671   4.829   0.580
 8703SOL     OW27007   3.096   5.583   1.130
 8703SOL    HW127008   2.998   5.597   1.141
 8703SOL    HW227009   3.121   5.492   1.164
 8704SOL     OW27010   6.677   4.546   2.352
 8704SOL    HW127011   6.597   4.604   2.360
 8704SOL    HW227012   6.755   4.590   2.397
 8705SOL     OW27013   5.229   0.728   6.076
 8705SOL    HW127014   5.159   0.729   6.148
 8705SOL    HW227015   5.193   0.775   5.996
 8706SOL     OW27016   4.751   2.014   6.976
 8706SOL    HW127017   4.654   2.009   6.998
 8706SOL    HW227018   4.769   2.099   6.926
 8707SOL     OW27019   4.679   2.714   6.804
 8707SOL    HW127020   4.669   2.677   6.712
 8707SOL    HW227021   4.591   2.751   6.834
 8708SOL     OW27022   3.512   0.952   1.534
 8708SOL    HW127023   3.420   0.921   1.559
 8708SOL    HW227024   3.560   0.983   1.616
 8709SOL     OW27025   0.241   4.425   0.046
 8709SOL    HW127026   0.151   4.470   0.046
 8709SOL    HW227027   0.252   4.372   6.982
 8710SOL     OW27028   1.483   3.518   2.704
 8710SOL    HW127029   1.432   3.484   2.782
 8710SOL    HW227030   1.426   3.514   2.622
 8711SOL     OW27031   6.586   0.453   2.757
 8711SOL    HW127032   6.501   0.469   2.807
 8711SOL    HW227033   6.575   0.484   2.662
 8712SOL     OW27034   3.023   1.762   4.454
 8712SOL    HW127035   2.947   1.825   4.472
 8712SOL    HW227036   3.109   1.806   4.478
 8713SOL     OW27037   6.922   4.630   3.931
 8713SOL    HW127038   6.975   4.559   3.885
 8713SOL    HW227039   6.837   4.646   3.880
 8714SOL     OW27040   1.575   0.963   6.006
 8714SOL    HW127041   1.631   0.950   6.088
 8714SOL    HW227042   1.486   1.002   6.032
 8715SOL     OW27043   5.655   1.133   1.347
 8715SOL    HW127044   5.724   1.205   1.354
 8715SOL    HW227045   5.700   1.046   1.329
 8716SOL     OW27046   0.538   1.631   1.658
 8716SOL    HW127047   0.600   1.554   1.665
 8716SOL    HW227048   0.590   1.716   1.651
 8717SOL     OW27049   4.151   3.761   2.005
 8717SOL    HW127050   4.103   3.727   2.085
 8717SOL    HW227051   4.200   3.845   2.028
 8718SOL     OW27052   6.776   2.419   4.533
 8718SOL    HW127053   6.804   2.496   4.590
 8718SOL    HW227054   6.811   2.433   4.440
 8719SOL     OW27055   1.478   0.613   5.429
 8719SOL    HW127056   1.532   0.684   5.473
 8719SOL    HW227057   1.530   0.527   5.429
 8720SOL     OW27058   6.248   5.295   4.945
 8720SOL    HW127059   6.340   5.283   4.909
 8720SOL    HW227060   6.212   5.384   4.917
 8721SOL     OW27061   6.425   1.826   4.585
 8721SOL    HW127062   6.370   1.747   4.561
 8721SOL    HW227063   6.372   1.888   4.644
 8722SOL     OW27064   3.681   1.904   0.596
 8722SOL    HW127065   3.609   1.838   0.576
 8722SOL    HW227066   3.767   1.855   0.613
 8723SOL     OW27067   6.695   5.438   0.517
 8723SOL    HW127068   6.718   5.528   0.555
 8723SOL    HW227069   6.628   5.393   0.576
 8724SOL     OW27070   5.420   0.346   5.773
 8724SOL    HW127071   5.476   0.326   5.854
 8724SOL    HW227072   5.430   0.272   5.707
 8725SOL     OW27073   2.215   0.455   0.349
 8725SOL    HW127074   2.144   0.413   0.406
 8725SOL    HW227075   2.221   0.406   0.262
 8726SOL     OW27076   5.993   6.751   1.470
 8726SOL    HW127077   5.921   6.815   1.443
 8726SOL    HW227078   6.062   6.747   1.399
 8727SOL     OW27079   6.633   6.580   1.782
 8727SOL    HW127080   6.562   6.545   1.721
 8727SOL    HW227081   6.651   6.514   1.855
 8728SOL     OW27082   3.056   6.737   5.378
 8728SOL    HW127083   2.987   6.756   5.448
 8728SOL    HW227084   3.132   6.688   5.420
 8729SOL     OW27085   4.150   5.666   3.229
 8729SOL    HW127086   4.071   5.699   3.281
 8729SOL    HW227087   4.217   5.628   3.292
 8730SOL     OW27088   0.065   5.617   2.253
 8730SOL    HW127089   7.009   5.552   2.258
 8730SOL    HW227090   0.117   5.601   2.169
 8731SOL     OW27091   1.350   2.287   3.269
 8731SOL    HW127092   1.338   2.296   3.368
 8731SOL    HW227093   1.261   2.292   3.224
 8732SOL     OW27094   5.301   4.229   1.760
 8732SOL    HW127095   5.245   4.147   1.774
 8732SOL    HW227096   5.325   4.269   1.848
 8733SOL     OW27097   0.765   6.390   2.108
 8733SOL    HW127098   0.714   6.356   2.187
 8733SOL    HW227099   0.862   6.398   2.131
 8734SOL     OW27100   0.608   5.089   1.207
 8734SOL    HW127101   0.705   5.073   1.226
 8734SOL    HW227102   0.587   5.058   1.114
 8735SOL     OW27103   0.467   2.145   0.144
 8735SOL    HW127104   0.451   2.199   0.062
 8735SOL    HW227105   0.457   2.048   0.123
 8736SOL     OW27106   1.025   6.159   0.158
 8736SOL    HW127107   1.113   6.181   0.117
 8736SOL    HW227108   1.001   6.230   0.224
 8737SOL     OW27109   3.613   6.103   5.854
 8737SOL    HW127110   3.617   6.013   5.810
 8737SOL    HW227111   3.553   6.099   5.933
 8738SOL     OW27112   1.687   4.111   4.126
 8738SOL    HW127113   1.660   4.177   4.196
 8738SOL    HW227114   1.721   4.160   4.046
 8739SOL     OW27115   6.590   3.571   5.950
 8739SOL    HW127116   6.495   3.563   5.919
 8739SOL    HW227117   6.650   3.580   5.870
 8740SOL     OW27118   2.995   0.505   6.143
 8740SOL    HW127119   3.039   0.459   6.067
 8740SOL    HW227120   3.042   0.591   6.162
 8741SOL     OW27121   1.568   2.614   2.044
 8741SOL    HW127122   1.626   2.695   2.051
 8741SOL    HW227123   1.521   2.615   1.956
 8742SOL     OW27124   4.928   6.566   1.445
 8742SOL    HW127125   5.003   6.630   1.432
 8742SOL    HW227126   4.914   6.551   1.543
 8743SOL     OW27127   2.369   5.686   1.791
 8743SOL    HW127128   2.390   5.775   1.751
 8743SOL    HW227129   2.427   5.616   1.750
 8744SOL     OW27130   4.758   2.622   6.550
 8744SOL    HW127131   4.851   2.633   6.583
 8744SOL    HW227132   4.731   2.704   6.499
 8745SOL     OW27133   6.134   2.066   5.119
 8745SOL    HW127134   6.100   1.972   5.116
 8745SOL    HW227135   6.195   2.076   5.197
 8746SOL     OW27136   4.648   4.838   6.000
 8746SOL    HW127137   4.708   4.851   6.080
 8746SOL    HW227138   4.663   4.912   5.935
 8747SOL     OW27139   0.777   2.880   3.798
 8747SOL    HW127140   0.762   2.825   3.881
 8747SOL    HW227141   0.803   2.820   3.723
 8748SOL     OW27142   1.548   0.704   6.630
 8748SOL    HW127143   1.541   0.755   6.716
 8748SOL    HW227144   1.644   0.687   6.609
 8749SOL     OW27145   3.263   0.955   4.042
 8749SOL    HW127146   3.324   0.883   4.075
 8749SOL    HW227147   3.290   1.043   4.081
 8750SOL     OW27148   1.913   2.462   5.158
 8750SOL    HW127149   1.841   2.525   5.185
 8750SOL    HW227150   1.906   2.443   5.060
 8751SOL     OW27151   0.555   0.141   2.029
 8751SOL    HW127152   0.637   0.156   2.084
 8751SOL    HW227153   0.516   0.051   2.051
 8752SOL     OW27154   2.456   3.683   6.389
 8752SOL    HW127155   2.525   3.743   6.348
 8752SOL    HW227156   2.366   3.706   6.352
 8753SOL     OW27157   5.413   1.422   5.262
 8753SOL    HW127158   5.320   1.443   5.292
 8753SOL    HW227159   5.418   1.326   5.235
 8754SOL     OW27160   0.965   1.649   5.970
 8754SOL    HW127161   0.905   1.660   5.891
 8754SOL    HW227162   0.938   1.713   6.043
 8755SOL     OW27163   2.465   0.741   0.437
 8755SOL    HW127164   2.367   0.759   0.445
 8755SOL    HW227165   2.480   0.644   0.417
 8756SOL     OW27166   2.029   2.773   3.686
 8756SOL    HW127167   2.027   2.729   3.776
 8756SOL    HW227168   2.062   2.708   3.618
 8757SOL     OW27169   4.329   6.552   5.010
 8757SOL    HW127170   4.248   6.607   5.025
 8757SOL    HW227171   4.408   6.611   4.996
 8758SOL     OW27172   5.376   6.741   1.731
 8758SOL    HW127173   5.427   6.657   1.712
 8758SOL    HW227174   5.281   6.717   1.751
 8759SOL     OW27175   4.870   0.692   5.795
 8759SOL    HW127176   4.814   0.755   5.848
 8759SOL    HW227177   4.963   0.693   5.831
 8760SOL     OW27178   1.710   1.967   4.691
 8760SOL    HW127179   1.631   1.991   4.635
 8760SOL    HW227180   1.775   2.043   4.693
 8761SOL     OW27181   5.228   0.702   6.982
 8761SOL    HW127182   5.157   0.761   0.001
 8761SOL    HW227183   5.250   0.732   6.889
 8762SOL     OW27184   1.554   3.464   1.184
 8762SOL    HW127185   1.470   3.426   1.222
 8762SOL    HW227186   1.531   3.539   1.122
 8763SOL     OW27187   6.577   6.245   5.614
 8763SOL    HW127188   6.668   6.262   5.576
 8763SOL    HW227189   6.578   6.161   5.667
 8764SOL     OW27190   5.115   1.501   4.219
 8764SOL    HW127191   5.047   1.453   4.275
 8764SOL    HW227192   5.099   1.599   4.226
 8765SOL     OW27193   5.530   6.830   5.088
 8765SOL    HW127194   5.454   6.820   5.024
 8765SOL    HW227195   5.532   6.924   5.122
 8766SOL     OW27196   2.964   4.875   3.336
 8766SOL    HW127197   3.017   4.875   3.251
 8766SOL    HW227198   2.879   4.824   3.323
 8767SOL     OW27199   4.456   1.269   2.919
 8767SOL    HW127200   4.484   1.363   2.903
 8767SOL    HW227201   4.481   1.242   3.012
 8768SOL     OW27202   1.636   2.950   0.613
 8768SOL    HW127203   1.727   2.968   0.651
 8768SOL    HW227204   1.568   2.950   0.686
 8769SOL     OW27205   0.975   0.021   5.703
 8769SOL    HW127206   1.040   6.987   5.757
 8769SOL    HW227207   0.985   0.118   5.725
 8770SOL     OW27208   4.912   4.580   1.765
 8770SOL    HW127209   4.963   4.606   1.846
 8770SOL    HW227210   4.959   4.505   1.718
 8771SOL     OW27211   1.986   1.187   6.674
 8771SOL    HW127212   2.066   1.247   6.670
 8771SOL    HW227213   1.953   1.168   6.581
 8772SOL     OW27214   5.666   1.189   6.779
 8772SOL    HW127215   5.594   1.137   6.825
 8772SOL    HW227216   5.684   1.273   6.831
 8773SOL     OW27217   3.493   2.113   3.284
 8773SOL    HW127218   3.393   2.105   3.273
 8773SOL    HW227219   3.537   2.101   3.195
 8774SOL     OW27220   0.893   1.735   0.690
 8774SOL    HW127221   0.828   1.722   0.765
 8774SOL    HW227222   0.973   1.679   0.706
 8775SOL     OW27223   6.101   6.598   3.362
 8775SOL    HW127224   6.166   6.592   3.438
 8775SOL    HW227225   6.016   6.640   3.394
 8776SOL     OW27226   3.190   3.428   5.091
 8776SOL    HW127227   3.275   3.465   5.055
 8776SOL    HW227228   3.206   3.336   5.128
 8777SOL     OW27229   6.354   5.445   1.813
 8777SOL    HW127230   6.382   5.351   1.792
 8777SOL    HW227231   6.254   5.452   1.808
 8778SOL     OW27232   0.207   2.005   3.528
 8778SOL    HW127233   0.199   1.909   3.500
 8778SOL    HW227234   0.144   2.061   3.475
 8779SOL     OW27235   1.976   4.178   1.374
 8779SOL    HW127236   1.983   4.175   1.473
 8779SOL    HW227237   1.887   4.213   1.347
 8780SOL     OW27238   0.964   5.466   4.347
 8780SOL    HW127239   0.933   5.382   4.303
 8780SOL    HW227240   0.886   5.516   4.384
 8781SOL     OW27241   0.425   1.687   2.908
 8781SOL    HW127242   0.456   1.767   2.959
 8781SOL    HW227243   0.375   1.625   2.968
 8782SOL     OW27244   4.579   1.780   2.665
 8782SOL    HW127245   4.584   1.872   2.627
 8782SOL    HW227246   4.501   1.774   2.728
 8783SOL     OW27247   6.128   4.131   4.082
 8783SOL    HW127248   6.200   4.153   4.148
 8783SOL    HW227249   6.063   4.207   4.077
 8784SOL     OW27250   5.691   5.362   5.460
 8784SOL    HW127251   5.774   5.416   5.476
 8784SOL    HW227252   5.706   5.301   5.381
 8785SOL     OW27253   5.645   4.219   6.375
 8785SOL    HW127254   5.708   4.218   6.297
 8785SOL    HW227255   5.660   4.303   6.428
 8786SOL     OW27256   1.378   6.360   0.271
 8786SOL    HW127257   1.361   6.360   0.369
 8786SOL    HW227258   1.340   6.444   0.230
 8787SOL     OW27259   2.124   3.242   1.827
 8787SOL    HW127260   2.178   3.316   1.868
 8787SOL    HW227261   2.028   3.271   1.819
 8788SOL     OW27262   6.567   1.777   4.952
 8788SOL    HW127263   6.662   1.809   4.948
 8788SOL    HW227264   6.553   1.705   4.885
 8789SOL     OW27265   6.671   0.167   6.273
 8789SOL    HW127266   6.599   0.110   6.234
 8789SOL    HW227267   6.632   0.254   6.302
 8790SOL     OW27268   0.054   1.795   6.529
 8790SOL    HW127269   0.034   1.893   6.520
 8790SOL    HW227270   6.989   1.743   6.520
 8791SOL     OW27271   4.868   6.751   5.473
 8791SOL    HW127272   4.822   6.832   5.509
 8791SOL    HW227273   4.954   6.737   5.522
 8792SOL     OW27274   4.102   0.060   3.278
 8792SOL    HW127275   4.116   0.008   3.362
 8792SOL    HW227276   4.134   0.006   3.199
 8793SOL     OW27277   2.266   6.103   3.854
 8793SOL    HW127278   2.263   6.186   3.908
 8793SOL    HW227279   2.176   6.087   3.812
 8794SOL     OW27280   1.883   6.664   2.820
 8794SOL    HW127281   1.934   6.749   2.823
 8794SOL    HW227282   1.799   6.673   2.874
 8795SOL     OW27283   1.873   6.307   5.581
 8795SOL    HW127284   1.793   6.267   5.626
 8795SOL    HW227285   1.956   6.275   5.627
 8796SOL     OW27286   4.466   2.105   5.469
 8796SOL    HW127287   4.555   2.060   5.476
 8796SOL    HW227288   4.411   2.060   5.398
 8797SOL     OW27289   0.727   6.511   6.320
 8797SOL    HW127290   0.774   6.470   6.241
 8797SOL    HW227291   0.628   6.505   6.307
 8798SOL     OW27292   5.526   3.788   5.206
 8798SOL    HW127293   5.558   3.715   5.145
 8798SOL    HW227294   5.427   3.796   5.198
 8799SOL     OW27295   2.833   4.813   2.884
 8799SOL    HW127296   2.927   4.841   2.866
 8799SOL    HW227297   2.808   4.738   2.823
 8800SOL     OW27298   4.605   4.904   6.383
 8800SOL    HW127299   4.687   4.856   6.352
 8800SOL    HW227300   4.588   4.882   6.479
 8801SOL     OW27301   2.439   1.275   4.312
 8801SOL    HW127302   2.348   1.283   4.271
 8801SOL    HW227303   2.476   1.183   4.294
 8802SOL     OW27304   1.839   6.374   2.321
 8802SOL    HW127305   1.850   6.405   2.227
 8802SOL    HW227306   1.767   6.305   2.326
 8803SOL     OW27307   2.387   5.857   0.034
 8803SOL    HW127308   2.358   5.885   0.126
 8803SOL    HW227309   2.377   5.757   0.025
 8804SOL     OW27310   4.000   0.291   1.319
 8804SOL    HW127311   4.006   0.386   1.349
 8804SOL    HW227312   4.047   0.280   1.231
 8805SOL     OW27313   0.902   0.484   3.280
 8805SOL    HW127314   1.002   0.483   3.288
 8805SOL    HW227315   0.876   0.457   3.187
 8806SOL     OW27316   1.506   5.181   0.141
 8806SOL    HW127317   1.491   5.173   0.239
 8806SOL    HW227318   1.601   5.158   0.120
 8807SOL     OW27319   6.894   6.053   5.834
 8807SOL    HW127320   6.865   5.994   5.909
 8807SOL    HW227321   6.893   6.148   5.864
 8808SOL     OW27322   5.851   0.834   0.402
 8808SOL    HW127323   5.948   0.808   0.403
 8808SOL    HW227324   5.823   0.863   0.494
 8809SOL     OW27325   5.521   4.027   1.684
 8809SOL    HW127326   5.559   3.962   1.750
 8809SOL    HW227327   5.453   4.085   1.729
 8810SOL     OW27328   4.879   1.604   3.539
 8810SOL    HW127329   4.793   1.577   3.496
 8810SOL    HW227330   4.897   1.544   3.617
 8811SOL     OW27331   2.923   1.768   3.481
 8811SOL    HW127332   2.890   1.830   3.409
 8811SOL    HW227333   2.856   1.695   3.495
 8812SOL     OW27334   0.941   1.345   0.851
 8812SOL    HW127335   0.852   1.313   0.884
 8812SOL    HW227336   0.944   1.336   0.751
 8813SOL     OW27337   1.137   6.579   1.819
 8813SOL    HW127338   1.139   6.661   1.876
 8813SOL    HW227339   1.048   6.534   1.827
 8814SOL     OW27340   6.438   0.700   6.875
 8814SOL    HW127341   6.433   0.682   6.973
 8814SOL    HW227342   6.515   0.761   6.855
 8815SOL     OW27343   0.166   5.908   1.877
 8815SOL    HW127344   0.167   5.951   1.787
 8815SOL    HW227345   0.076   5.920   1.919
 8816SOL     OW27346   1.207   5.837   1.263
 8816SOL    HW127347   1.301   5.830   1.231
 8816SOL    HW227348   1.176   5.932   1.258
 8817SOL     OW27349   1.359   5.680   5.166
 8817SOL    HW127350   1.366   5.580   5.165
 8817SOL    HW227351   1.448   5.720   5.145
 8818SOL     OW27352   0.203   4.789   4.338
 8818SOL    HW127353   0.300   4.812   4.326
 8818SOL    HW227354   0.149   4.873   4.347
 8819SOL     OW27355   4.656   6.556   4.297
 8819SOL    HW127356   4.565   6.597   4.300
 8819SOL    HW227357   4.657   6.471   4.350
 8820SOL     OW27358   2.024   2.649   3.942
 8820SOL    HW127359   2.034   2.698   4.028
 8820SOL    HW227360   2.007   2.552   3.960
 8821SOL     OW27361   2.566   0.706   6.612
 8821SOL    HW127362   2.620   0.784   6.643
 8821SOL    HW227363   2.606   0.621   6.649
 8822SOL     OW27364   0.842   1.734   3.409
 8822SOL    HW127365   0.783   1.676   3.354
 8822SOL    HW227366   0.918   1.680   3.445
 8823SOL     OW27367   1.834   6.952   0.943
 8823SOL    HW127368   1.911   6.919   0.889
 8823SOL    HW227369   1.756   6.970   0.883
 8824SOL     OW27370   3.132   3.964   0.847
 8824SOL    HW127371   3.182   3.879   0.863
 8824SOL    HW227372   3.034   3.943   0.839
 8825SOL     OW27373   1.665   0.898   2.077
 8825SOL    HW127374   1.720   0.815   2.073
 8825SOL    HW227375   1.682   0.954   1.996
 8826SOL     OW27376   5.490   0.713   6.812
 8826SOL    HW127377   5.468   0.619   6.837
 8826SOL    HW227378   5.544   0.755   6.886
 8827SOL     OW27379   2.137   1.542   3.033
 8827SOL    HW127380   2.122   1.601   2.953
 8827SOL    HW227381   2.135   1.597   3.116
 8828SOL     OW27382   2.415   6.127   3.002
 8828SOL    HW127383   2.496   6.090   3.047
 8828SOL    HW227384   2.443   6.180   2.922
 8829SOL     OW27385   0.138   2.422   6.736
 8829SOL    HW127386   0.096   2.387   6.820
 8829SOL    HW227387   0.091   2.505   6.707
 8830SOL     OW27388   1.029   1.316   0.136
 8830SOL    HW127389   1.037   1.223   0.100
 8830SOL    HW227390   1.038   1.382   0.061
 8831SOL     OW27391   6.076   0.638   2.744
 8831SOL    HW127392   6.030   0.633   2.833
 8831SOL    HW227393   6.029   0.704   2.686
 8832SOL     OW27394   6.793   0.239   2.139
 8832SOL    HW127395   6.876   0.269   2.186
 8832SOL    HW227396   6.816   0.174   2.068
 8833SOL     OW27397   2.895   5.392   4.360
 8833SOL    HW127398   2.823   5.451   4.396
 8833SOL    HW227399   2.917   5.321   4.427
 8834SOL     OW27400   6.096   2.974   4.684
 8834SOL    HW127401   6.027   3.009   4.621
 8834SOL    HW227402   6.116   3.043   4.754
 8835SOL     OW27403   6.716   6.502   5.363
 8835SOL    HW127404   6.694   6.519   5.267
 8835SOL    HW227405   6.779   6.573   5.395
 8836SOL     OW27406   4.458   1.315   0.339
 8836SOL    HW127407   4.448   1.412   0.362
 8836SOL    HW227408   4.549   1.300   0.300
 8837SOL     OW27409   0.437   0.623   1.894
 8837SOL    HW127410   0.468   0.578   1.810
 8837SOL    HW227411   0.404   0.715   1.873
 8838SOL     OW27412   2.829   5.386   3.434
 8838SOL    HW127413   2.876   5.300   3.413
 8838SOL    HW227414   2.828   5.399   3.533
 8839SOL     OW27415   6.356   6.164   3.320
 8839SOL    HW127416   6.423   6.091   3.326
 8839SOL    HW227417   6.403   6.253   3.317
 8840SOL     OW27418   5.715   2.391   2.393
 8840SOL    HW127419   5.780   2.320   2.420
 8840SOL    HW227420   5.722   2.468   2.456
 8841SOL     OW27421   1.199   1.723   5.083
 8841SOL    HW127422   1.190   1.724   4.983
 8841SOL    HW227423   1.157   1.639   5.119
 8842SOL     OW27424   2.648   2.679   1.568
 8842SOL    HW127425   2.670   2.645   1.659
 8842SOL    HW227426   2.578   2.750   1.574
 8843SOL     OW27427   1.110   2.941   5.152
 8843SOL    HW127428   1.206   2.948   5.126
 8843SOL    HW227429   1.058   3.014   5.108
 8844SOL     OW27430   6.250   1.336   5.878
 8844SOL    HW127431   6.206   1.275   5.943
 8844SOL    HW227432   6.264   1.288   5.791
 8845SOL     OW27433   4.608   4.074   0.153
 8845SOL    HW127434   4.673   4.115   0.217
 8845SOL    HW227435   4.658   4.027   0.080
 8846SOL     OW27436   1.892   4.443   4.529
 8846SOL    HW127437   1.903   4.377   4.455
 8846SOL    HW227438   1.979   4.490   4.546
 8847SOL     OW27439   2.681   0.062   2.156
 8847SOL    HW127440   2.772   0.026   2.173
 8847SOL    HW227441   2.678   0.102   2.064
 8848SOL     OW27442   1.767   0.596   2.080
 8848SOL    HW127443   1.811   0.509   2.103
 8848SOL    HW227444   1.837   0.668   2.075
 8849SOL     OW27445   2.260   6.592   2.139
 8849SOL    HW127446   2.214   6.618   2.225
 8849SOL    HW227447   2.306   6.505   2.151
 8850SOL     OW27448   3.319   2.540   6.872
 8850SOL    HW127449   3.363   2.537   6.782
 8850SOL    HW227450   3.222   2.563   6.861
 8851SOL     OW27451   1.591   4.477   2.344
 8851SOL    HW127452   1.644   4.439   2.267
 8851SOL    HW227453   1.515   4.531   2.308
 8852SOL     OW27454   1.309   1.499   6.231
 8852SOL    HW127455   1.310   1.504   6.331
 8852SOL    HW227456   1.385   1.442   6.200
 8853SOL     OW27457   3.615   0.881   0.866
 8853SOL    HW127458   3.600   0.850   0.959
 8853SOL    HW227459   3.690   0.947   0.864
 8854SOL     OW27460   1.386   3.147   4.810
 8854SOL    HW127461   1.382   3.159   4.711
 8854SOL    HW227462   1.463   3.087   4.833
 8855SOL     OW27463   5.718   5.069   1.159
 8855SOL    HW127464   5.717   4.971   1.177
 8855SOL    HW227465   5.810   5.105   1.176
 8856SOL     OW27466   0.728   5.580   6.348
 8856SOL    HW127467   0.789   5.624   6.282
 8856SOL    HW227468   0.639   5.563   6.307
 8857SOL     OW27469   6.509   0.970   5.040
 8857SOL    HW127470   6.477   1.006   4.953
 8857SOL    HW227471   6.444   0.902   5.074
 8858SOL     OW27472   6.099   4.799   4.458
 8858SOL    HW127473   6.073   4.866   4.388
 8858SOL    HW227474   6.119   4.846   4.543
 8859SOL     OW27475   0.536   0.759   3.526
 8859SOL    HW127476   0.508   0.719   3.439
 8859SOL    HW227477   0.497   0.851   3.535
 8860SOL     OW27478   6.407   2.498   1.636
 8860SOL    HW127479   6.384   2.402   1.649
 8860SOL    HW227480   6.423   2.541   1.725
 8861SOL     OW27481   4.314   1.844   1.177
 8861SOL    HW127482   4.379   1.768   1.185
 8861SOL    HW227483   4.350   1.912   1.114
 8862SOL     OW27484   4.519   5.086   5.175
 8862SOL    HW127485   4.611   5.125   5.180
 8862SOL    HW227486   4.463   5.121   5.250
 8863SOL     OW27487   1.932   3.928   3.772
 8863SOL    HW127488   1.904   3.938   3.867
 8863SOL    HW227489   2.020   3.881   3.768
 8864SOL     OW27490   5.672   1.654   5.624
 8864SOL    HW127491   5.767   1.680   5.608
 8864SOL    HW227492   5.669   1.579   5.689
 8865SOL     OW27493   2.298   1.708   6.488
 8865SOL    HW127494   2.239   1.696   6.408
 8865SOL    HW227495   2.367   1.636   6.490
 8866SOL     OW27496   5.768   5.948   1.738
 8866SOL    HW127497   5.868   5.940   1.738
 8866SOL    HW227498   5.738   5.989   1.824
 8867SOL     OW27499   6.669   3.748   2.739
 8867SOL    HW127500   6.617   3.718   2.820
 8867SOL    HW227501   6.718   3.833   2.760
 8868SOL     OW27502   0.064   3.801   3.196
 8868SOL    HW127503   0.048   3.704   3.178
 8868SOL    HW227504   0.038   3.822   3.291
 8869SOL     OW27505   3.033   6.275   3.880
 8869SOL    HW127506   2.939   6.263   3.912
 8869SOL    HW227507   3.056   6.201   3.816
 8870SOL     OW27508   1.584   0.089   1.934
 8870SOL    HW127509   1.542   0.002   1.959
 8870SOL    HW227510   1.675   0.073   1.896
 8871SOL     OW27511   0.473   1.038   2.873
 8871SOL    HW127512   0.440   1.074   2.786
 8871SOL    HW227513   0.572   1.053   2.880
 8872SOL     OW27514   0.293   4.642   5.075
 8872SOL    HW127515   0.224   4.689   5.021
 8872SOL    HW227516   0.300   4.547   5.045
 8873SOL     OW27517   1.491   0.743   2.257
 8873SOL    HW127518   1.542   0.786   2.183
 8873SOL    HW227519   1.407   0.795   2.275
 8874SOL     OW27520   2.470   5.585   0.594
 8874SOL    HW127521   2.449   5.489   0.614
 8874SOL    HW227522   2.502   5.594   0.500
 8875SOL     OW27523   0.174   3.322   3.573
 8875SOL    HW127524   0.262   3.349   3.613
 8875SOL    HW227525   0.139   3.397   3.516
 8876SOL     OW27526   3.623   0.676   6.402
 8876SOL    HW127527   3.629   0.625   6.317
 8876SOL    HW227528   3.690   0.640   6.467
 8877SOL     OW27529   1.804   3.827   1.257
 8877SOL    HW127530   1.807   3.730   1.236
 8877SOL    HW227531   1.877   3.874   1.208
 8878SOL     OW27532   4.223   4.443   1.020
 8878SOL    HW127533   4.216   4.460   0.922
 8878SOL    HW227534   4.186   4.352   1.041
 8879SOL     OW27535   6.293   4.665   2.665
 8879SOL    HW127536   6.299   4.764   2.674
 8879SOL    HW227537   6.278   4.624   2.755
 8880SOL     OW27538   4.564   6.696   3.720
 8880SOL    HW127539   4.567   6.736   3.812
 8880SOL    HW227540   4.618   6.613   3.717
 8881SOL     OW27541   3.954   5.229   4.156
 8881SOL    HW127542   3.953   5.219   4.255
 8881SOL    HW227543   4.017   5.161   4.117
 8882SOL     OW27544   4.239   0.504   0.922
 8882SOL    HW127545   4.267   0.599   0.907
 8882SOL    HW227546   4.312   0.442   0.893
 8883SOL     OW27547   0.239   6.081   4.758
 8883SOL    HW127548   0.278   6.156   4.811
 8883SOL    HW227549   0.250   5.995   4.807
 8884SOL     OW27550   5.478   3.697   4.876
 8884SOL    HW127551   5.547   3.737   4.816
 8884SOL    HW227552   5.522   3.643   4.948
 8885SOL     OW27553   5.845   5.638   0.365
 8885SOL    HW127554   5.760   5.628   0.313
 8885SOL    HW227555   5.920   5.596   0.314
 8886SOL     OW27556   3.019   5.907   0.002
 8886SOL    HW127557   3.042   5.984   0.063
 8886SOL    HW227558   2.929   5.871   0.027
 8887SOL     OW27559   4.850   1.920   1.180
 8887SOL    HW127560   4.823   1.850   1.246
 8887SOL    HW227561   4.941   1.954   1.202
 8888SOL     OW27562   2.567   1.858   3.145
 8888SOL    HW127563   2.560   1.758   3.139
 8888SOL    HW227564   2.476   1.898   3.155
 8889SOL     OW27565   0.424   6.500   6.266
 8889SOL    HW127566   0.394   6.454   6.349
 8889SOL    HW227567   0.407   6.441   6.187
 8890SOL     OW27568   0.311   0.102   6.710
 8890SOL    HW127569   0.299   0.017   6.762
 8890SOL    HW227570   0.407   0.130   6.713
 8891SOL     OW27571   6.204   4.822   0.148
 8891SOL    HW127572   6.126   4.831   0.211
 8891SOL    HW227573   6.193   4.739   0.093
 8892SOL     OW27574   3.037   5.664   3.462
 8892SOL    HW127575   2.969   5.733   3.486
 8892SOL    HW227576   3.010   5.618   3.378
 8893SOL     OW27577   1.516   5.350   4.915
 8893SOL    HW127578   1.448   5.302   4.970
 8893SOL    HW227579   1.554   5.427   4.967
 8894SOL     OW27580   4.191   1.926   0.089
 8894SOL    HW127581   4.229   1.944   7.018
 8894SOL    HW227582   4.095   1.954   0.090
 8895SOL     OW27583   0.550   3.588   1.273
 8895SOL    HW127584   0.505   3.521   1.215
 8895SOL    HW227585   0.524   3.680   1.244
 8896SOL     OW27586   0.334   2.217   4.117
 8896SOL    HW127587   0.302   2.310   4.099
 8896SOL    HW227588   0.311   2.191   4.210
 8897SOL     OW27589   2.169   4.104   3.983
 8897SOL    HW127590   2.167   4.073   4.078
 8897SOL    HW227591   2.099   4.174   3.970
 8898SOL     OW27592   4.997   3.854   2.989
 8898SOL    HW127593   4.965   3.845   2.894
 8898SOL    HW227594   5.034   3.766   3.019
 8899SOL     OW27595   6.827   3.471   6.121
 8899SOL    HW127596   6.735   3.456   6.085
 8899SOL    HW227597   6.888   3.498   6.047
 8900SOL     OW27598   5.288   2.751   4.339
 8900SOL    HW127599   5.294   2.695   4.256
 8900SOL    HW227600   5.194   2.750   4.373
 8901SOL     OW27601   0.810   2.881   4.247
 8901SOL    HW127602   0.809   2.874   4.347
 8901SOL    HW227603   0.904   2.882   4.214
 8902SOL     OW27604   0.878   4.372   0.238
 8902SOL    HW127605   0.895   4.446   0.174
 8902SOL    HW227606   0.800   4.395   0.297
 8903SOL     OW27607   1.264   0.443   4.723
 8903SOL    HW127608   1.191   0.511   4.719
 8903SOL    HW227609   1.338   0.476   4.781
 8904SOL     OW27610   0.577   1.220   3.386
 8904SOL    HW127611   0.610   1.239   3.479
 8904SOL    HW227612   0.649   1.241   3.320
 8905SOL     OW27613   1.649   3.711   2.207
 8905SOL    HW127614   1.576   3.652   2.239
 8905SOL    HW227615   1.705   3.663   2.140
 8906SOL     OW27616   6.950   0.201   0.806
 8906SOL    HW127617   6.952   0.260   0.726
 8906SOL    HW227618   6.970   0.255   0.888
 8907SOL     OW27619   3.803   3.076   4.878
 8907SOL    HW127620   3.796   3.037   4.786
 8907SOL    HW227621   3.754   3.163   4.881
 8908SOL     OW27622   1.735   6.255   0.709
 8908SOL    HW127623   1.705   6.347   0.683
 8908SOL    HW227624   1.734   6.196   0.628
 8909SOL     OW27625   2.723   1.061   7.004
 8909SOL    HW127626   2.780   1.121   6.948
 8909SOL    HW227627   2.699   1.107   0.070
 8910SOL     OW27628   1.719   2.260   3.811
 8910SOL    HW127629   1.677   2.275   3.901
 8910SOL    HW227630   1.691   2.170   3.776
 8911SOL     OW27631   4.810   1.632   4.090
 8911SOL    HW127632   4.857   1.551   4.056
 8911SOL    HW227633   4.750   1.669   4.019
 8912SOL     OW27634   3.426   3.907   4.528
 8912SOL    HW127635   3.446   4.001   4.552
 8912SOL    HW227636   3.378   3.905   4.440
 8913SOL     OW27637   4.868   6.260   6.838
 8913SOL    HW127638   4.870   6.174   6.788
 8913SOL    HW227639   4.888   6.335   6.776
 8914SOL     OW27640   4.896   6.541   6.216
 8914SOL    HW127641   4.875   6.472   6.146
 8914SOL    HW227642   4.924   6.626   6.171
 8915SOL     OW27643   0.859   1.180   3.492
 8915SOL    HW127644   0.818   1.091   3.511
 8915SOL    HW227645   0.798   1.253   3.524
 8916SOL     OW27646   5.361   1.550   6.740
 8916SOL    HW127647   5.427   1.486   6.700
 8916SOL    HW227648   5.375   1.554   6.839
 8917SOL     OW27649   5.846   1.857   0.166
 8917SOL    HW127650   5.830   1.781   0.229
 8917SOL    HW227651   5.942   1.886   0.174
 8918SOL     OW27652   1.294   4.400   1.808
 8918SOL    HW127653   1.221   4.402   1.740
 8918SOL    HW227654   1.267   4.340   1.884
 8919SOL     OW27655   5.671   4.196   6.730
 8919SOL    HW127656   5.699   4.274   6.674
 8919SOL    HW227657   5.729   4.117   6.708
 8920SOL     OW27658   6.898   1.238   0.094
 8920SOL    HW127659   6.896   1.329   0.051
 8920SOL    HW227660   6.805   1.203   0.103
 8921SOL     OW27661   1.413   2.890   0.781
 8921SOL    HW127662   1.445   2.805   0.822
 8921SOL    HW227663   1.359   2.870   0.700
 8922SOL     OW27664   3.369   0.568   3.884
 8922SOL    HW127665   3.450   0.611   3.843
 8922SOL    HW227666   3.369   0.470   3.863
 8923SOL     OW27667   1.643   2.261   4.862
 8923SOL    HW127668   1.604   2.189   4.919
 8923SOL    HW227669   1.574   2.330   4.843
 8924SOL     OW27670   4.895   5.265   4.568
 8924SOL    HW127671   4.827   5.200   4.603
 8924SOL    HW227672   4.985   5.221   4.567
 8925SOL     OW27673   1.347   0.801   3.622
 8925SOL    HW127674   1.295   0.834   3.543
 8925SOL    HW227675   1.351   0.873   3.691
 8926SOL     OW27676   6.649   2.955   5.225
 8926SOL    HW127677   6.725   2.947   5.290
 8926SOL    HW227678   6.601   2.867   5.220
 8927SOL     OW27679   6.609   1.537   6.536
 8927SOL    HW127680   6.547   1.468   6.499
 8927SOL    HW227681   6.571   1.628   6.519
 8928SOL     OW27682   2.187   6.736   5.485
 8928SOL    HW127683   2.237   6.747   5.571
 8928SOL    HW227684   2.245   6.767   5.410
 8929SOL     OW27685   0.148   2.167   4.620
 8929SOL    HW127686   0.058   2.145   4.657
 8929SOL    HW227687   0.144   2.256   4.574
 8930SOL     OW27688   1.695   4.626   3.848
 8930SOL    HW127689   1.610   4.621   3.901
 8930SOL    HW227690   1.762   4.679   3.899
 8931SOL     OW27691   3.731   2.997   1.411
 8931SOL    HW127692   3.657   2.962   1.468
 8931SOL    HW227693   3.799   3.043   1.468
 8932SOL     OW27694   6.822   2.397   2.942
 8932SOL    HW127695   6.841   2.460   2.867
 8932SOL    HW227696   6.815   2.304   2.905
 8933SOL     OW27697   3.854   1.988   6.180
 8933SOL    HW127698   3.830   1.901   6.223
 8933SOL    HW227699   3.791   2.059   6.212
 8934SOL     OW27700   3.046   5.800   4.444
 8934SOL    HW127701   3.136   5.762   4.424
 8934SOL    HW227702   2.991   5.801   4.360
 8935SOL     OW27703   0.103   4.989   1.039
 8935SOL    HW127704   0.018   4.956   0.998
 8935SOL    HW227705   0.132   4.928   1.112
 8936SOL     OW27706   2.269   2.917   0.714
 8936SOL    HW127707   2.231   2.976   0.785
 8936SOL    HW227708   2.266   2.821   0.744
 8937SOL     OW27709   0.245   6.463   5.631
 8937SOL    HW127710   0.233   6.364   5.624
 8937SOL    HW227711   0.201   6.496   5.714
 8938SOL     OW27712   6.419   5.206   1.364
 8938SOL    HW127713   6.502   5.253   1.334
 8938SOL    HW227714   6.441   5.140   1.435
 8939SOL     OW27715   4.822   2.187   4.746
 8939SOL    HW127716   4.920   2.182   4.765
 8939SOL    HW227717   4.778   2.253   4.808
 8940SOL     OW27718   6.436   0.691   3.841
 8940SOL    HW127719   6.525   0.669   3.879
 8940SOL    HW227720   6.439   0.781   3.799
 8941SOL     OW27721   5.611   2.187   6.179
 8941SOL    HW127722   5.570   2.258   6.122
 8941SOL    HW227723   5.566   2.099   6.161
 8942SOL     OW27724   0.256   2.030   5.286
 8942SOL    HW127725   0.247   2.051   5.383
 8942SOL    HW227726   0.173   2.059   5.238
 8943SOL     OW27727   4.970   3.149   1.359
 8943SOL    HW127728   4.989   3.211   1.436
 8943SOL    HW227729   5.046   3.151   1.295
 8944SOL     OW27730   4.525   5.879   0.261
 8944SOL    HW127731   4.495   5.828   0.180
 8944SOL    HW227732   4.546   5.815   0.335
 8945SOL     OW27733   2.359   0.773   4.822
 8945SOL    HW127734   2.382   0.675   4.823
 8945SOL    HW227735   2.270   0.787   4.864
 8946SOL     OW27736   3.691   1.734   5.193
 8946SOL    HW127737   3.774   1.769   5.148
 8946SOL    HW227738   3.632   1.811   5.218
 8947SOL     OW27739   3.675   3.738   5.746
 8947SOL    HW127740   3.644   3.787   5.665
 8947SOL    HW227741   3.773   3.720   5.739
 8948SOL     OW27742   5.320   4.680   3.292
 8948SOL    HW127743   5.400   4.739   3.294
 8948SOL    HW227744   5.254   4.716   3.225
 8949SOL     OW27745   1.649   6.844   0.051
 8949SOL    HW127746   1.613   6.779   0.118
 8949SOL    HW227747   1.748   6.849   0.058
 8950SOL     OW27748   4.966   2.950   5.361
 8950SOL    HW127749   4.881   3.001   5.355
 8950SOL    HW227750   4.969   2.900   5.448
 8951SOL     OW27751   1.737   3.084   5.419
 8951SOL    HW127752   1.834   3.094   5.399
 8951SOL    HW227753   1.687   3.162   5.383
 8952SOL     OW27754   1.292   1.266   3.296
 8952SOL    HW127755   1.391   1.268   3.299
 8952SOL    HW227756   1.261   1.281   3.202
 8953SOL     OW27757   1.638   3.267   0.175
 8953SOL    HW127758   1.669   3.318   0.095
 8953SOL    HW227759   1.698   3.287   0.253
 8954SOL     OW27760   0.987   6.003   6.193
 8954SOL    HW127761   0.953   5.953   6.114
 8954SOL    HW227762   0.956   6.098   6.188
 8955SOL     OW27763   6.929   4.414   3.528
 8955SOL    HW127764   6.854   4.403   3.593
 8955SOL    HW227765   6.893   4.424   3.436
 8956SOL     OW27766   0.643   1.121   6.468
 8956SOL    HW127767   0.548   1.104   6.496
 8956SOL    HW227768   0.649   1.210   6.422
 8957SOL     OW27769   2.739   4.733   1.720
 8957SOL    HW127770   2.773   4.664   1.784
 8957SOL    HW227771   2.720   4.690   1.632
 8958SOL     OW27772   1.640   6.903   4.122
 8958SOL    HW127773   1.621   6.992   4.080
 8958SOL    HW227774   1.678   6.916   4.213
 8959SOL     OW27775   1.300   4.774   0.774
 8959SOL    HW127776   1.273   4.862   0.736
 8959SOL    HW227777   1.217   4.722   0.798
 8960SOL     OW27778   3.951   5.527   1.869
 8960SOL    HW127779   3.986   5.441   1.907
 8960SOL    HW227780   3.886   5.506   1.796
 8961SOL     OW27781   1.114   2.205   4.297
 8961SOL    HW127782   1.076   2.266   4.227
 8961SOL    HW227783   1.212   2.194   4.282
 8962SOL     OW27784   6.239   0.621   3.511
 8962SOL    HW127785   6.171   0.571   3.457
 8962SOL    HW227786   6.224   0.720   3.501
 8963SOL     OW27787   5.530   0.181   4.423
 8963SOL    HW127788   5.587   0.117   4.474
 8963SOL    HW227789   5.587   0.236   4.362
 8964SOL     OW27790   5.082   4.890   2.124
 8964SOL    HW127791   5.116   4.802   2.156
 8964SOL    HW227792   5.149   4.931   2.063
 8965SOL     OW27793   1.247   4.962   1.538
 8965SOL    HW127794   1.188   4.982   1.617
 8965SOL    HW227795   1.296   4.877   1.553
 8966SOL     OW27796   1.836   2.394   6.130
 8966SOL    HW127797   1.764   2.457   6.160
 8966SOL    HW227798   1.926   2.435   6.147
 8967SOL     OW27799   3.929   0.444   0.681
 8967SOL    HW127800   3.873   0.362   0.694
 8967SOL    HW227801   3.918   0.505   0.759
 8968SOL     OW27802   5.170   6.329   1.469
 8968SOL    HW127803   5.140   6.380   1.389
 8968SOL    HW227804   5.220   6.247   1.440
 8969SOL     OW27805   5.901   0.753   3.786
 8969SOL    HW127806   5.950   0.673   3.751
 8969SOL    HW227807   5.920   0.763   3.884
 8970SOL     OW27808   3.863   2.273   1.520
 8970SOL    HW127809   3.865   2.361   1.568
 8970SOL    HW227810   3.788   2.274   1.453
 8971SOL     OW27811   3.698   5.833   2.352
 8971SOL    HW127812   3.717   5.931   2.347
 8971SOL    HW227813   3.714   5.791   2.263
 8972SOL     OW27814   5.683   6.208   5.963
 8972SOL    HW127815   5.732   6.123   5.980
 8972SOL    HW227816   5.585   6.193   5.973
 8973SOL     OW27817   1.661   4.797   0.722
 8973SOL    HW127818   1.741   4.803   0.781
 8973SOL    HW227819   1.578   4.796   0.778
 8974SOL     OW27820   0.887   4.107   6.258
 8974SOL    HW127821   0.789   4.117   6.238
 8974SOL    HW227822   0.899   4.080   6.353
 8975SOL     OW27823   2.621   0.167   0.904
 8975SOL    HW127824   2.708   0.192   0.862
 8975SOL    HW227825   2.573   0.101   0.846
 8976SOL     OW27826   1.958   5.248   4.207
 8976SOL    HW127827   1.859   5.251   4.216
 8976SOL    HW227828   1.991   5.330   4.160
 8977SOL     OW27829   5.728   1.452   5.789
 8977SOL    HW127830   5.709   1.356   5.767
 8977SOL    HW227831   5.817   1.458   5.834
 8978SOL     OW27832   5.920   6.281   0.566
 8978SOL    HW127833   5.947   6.286   0.469
 8978SOL    HW227834   5.821   6.290   0.573
 8979SOL     OW27835   1.989   3.973   4.988
 8979SOL    HW127836   2.054   3.989   4.914
 8979SOL    HW227837   2.014   4.029   5.067
 8980SOL     OW27838   3.360   3.643   5.004
 8980SOL    HW127839   3.430   3.702   5.043
 8980SOL    HW227840   3.305   3.695   4.939
 8981SOL     OW27841   3.519   1.365   5.002
 8981SOL    HW127842   3.445   1.397   4.942
 8981SOL    HW227843   3.503   1.269   5.026
 8982SOL     OW27844   2.601   3.555   0.615
 8982SOL    HW127845   2.609   3.517   0.707
 8982SOL    HW227846   2.633   3.487   0.548
 8983SOL     OW27847   3.943   5.532   6.828
 8983SOL    HW127848   3.984   5.514   6.739
 8983SOL    HW227849   3.920   5.445   6.872
 8984SOL     OW27850   2.254   5.670   3.291
 8984SOL    HW127851   2.301   5.740   3.344
 8984SOL    HW227852   2.297   5.662   3.201
 8985SOL     OW27853   3.385   2.580   0.513
 8985SOL    HW127854   3.405   2.501   0.570
 8985SOL    HW227855   3.470   2.629   0.493
 8986SOL     OW27856   3.328   4.908   3.001
 8986SOL    HW127857   3.383   4.990   2.984
 8986SOL    HW227858   3.389   4.831   3.018
 8987SOL     OW27859   5.426   5.828   2.749
 8987SOL    HW127860   5.331   5.812   2.721
 8987SOL    HW227861   5.434   5.813   2.848
 8988SOL     OW27862   0.567   5.717   3.583
 8988SOL    HW127863   0.510   5.662   3.521
 8988SOL    HW227864   0.521   5.725   3.672
 8989SOL     OW27865   5.074   2.653   6.330
 8989SOL    HW127866   5.048   2.561   6.299
 8989SOL    HW227867   5.029   2.721   6.272
 8990SOL     OW27868   0.871   4.919   4.143
 8990SOL    HW127869   0.944   4.915   4.075
 8990SOL    HW227870   0.905   4.962   4.227
 8991SOL     OW27871   1.706   2.317   4.354
 8991SOL    HW127872   1.612   2.339   4.330
 8991SOL    HW227873   1.721   2.330   4.452
 8992SOL     OW27874   5.623   2.000   0.108
 8992SOL    HW127875   5.711   1.959   0.132
 8992SOL    HW227876   5.638   2.084   0.056
 8993SOL     OW27877   3.874   3.326   6.494
 8993SOL    HW127878   3.965   3.288   6.504
 8993SOL    HW227879   3.853   3.338   6.397
 8994SOL     OW27880   1.975   4.652   4.811
 8994SOL    HW127881   1.901   4.585   4.815
 8994SOL    HW227882   2.028   4.640   4.728
 8995SOL     OW27883   7.003   1.839   1.807
 8995SOL    HW127884   0.031   1.763   1.851
 8995SOL    HW227885   0.034   1.923   1.821
 8996SOL     OW27886   5.271   3.888   6.677
 8996SOL    HW127887   5.302   3.804   6.722
 8996SOL    HW227888   5.315   3.967   6.719
 8997SOL     OW27889   4.746   0.854   5.315
 8997SOL    HW127890   4.652   0.879   5.292
 8997SOL    HW227891   4.749   0.817   5.408
 8998SOL     OW27892   6.455   4.068   3.981
 8998SOL    HW127893   6.543   4.106   3.953
 8998SOL    HW227894   6.467   3.974   4.014
 8999SOL     OW27895   4.360   6.872   5.609
 8999SOL    HW127896   4.424   6.869   5.532
 8999SOL    HW227897   4.335   6.778   5.635
 9000SOL     OW27898   1.335   3.930   1.451
 9000SOL    HW127899   1.410   3.995   1.460
 9000SOL    HW227900   1.297   3.910   1.541
 9001SOL     OW27901   0.176   4.732   2.159
 9001SOL    HW127902   0.248   4.797   2.184
 9001SOL    HW227903   0.184   4.650   2.216
 9002SOL     OW27904   1.040   4.559   5.423
 9002SOL    HW127905   1.070   4.499   5.349
 9002SOL    HW227906   0.988   4.506   5.490
 9003SOL     OW27907   5.400   2.913   1.415
 9003SOL    HW127908   5.337   2.860   1.472
 9003SOL    HW227909   5.371   3.008   1.411
 9004SOL     OW27910   4.372   4.954   0.937
 9004SOL    HW127911   4.302   5.017   0.970
 9004SOL    HW227912   4.433   5.004   0.874
 9005SOL     OW27913   5.841   1.147   5.996
 9005SOL    HW127914   5.804   1.231   6.036
 9005SOL    HW227915   5.808   1.136   5.903
 9006SOL     OW27916   3.169   6.880   0.953
 9006SOL    HW127917   3.189   6.929   1.037
 9006SOL    HW227918   3.251   6.875   0.896
 9007SOL     OW27919   2.435   1.092   2.626
 9007SOL    HW127920   2.421   1.167   2.562
 9007SOL    HW227921   2.411   1.122   2.718
 9008SOL     OW27922   0.411   5.149   2.916
 9008SOL    HW127923   0.465   5.073   2.880
 9008SOL    HW227924   0.451   5.181   3.002
 9009SOL     OW27925   3.405   5.427   1.243
 9009SOL    HW127926   3.485   5.381   1.281
 9009SOL    HW227927   3.432   5.477   1.160
 9010SOL     OW27928   1.749   7.005   4.392
 9010SOL    HW127929   1.841   0.021   4.380
 9010SOL    HW227930   1.753   6.910   4.421
 9011SOL     OW27931   3.932   0.707   1.835
 9011SOL    HW127932   3.965   0.779   1.897
 9011SOL    HW227933   3.887   0.749   1.757
 9012SOL     OW27934   2.298   5.818   0.674
 9012SOL    HW127935   2.263   5.798   0.765
 9012SOL    HW227936   2.333   5.734   0.632
 9013SOL     OW27937   1.052   6.970   4.372
 9013SOL    HW127938   1.097   6.891   4.412
 9013SOL    HW227939   0.963   6.942   4.335
 9014SOL     OW27940   5.937   3.083   1.624
 9014SOL    HW127941   5.955   3.034   1.710
 9014SOL    HW227942   5.862   3.038   1.576
 9015SOL     OW27943   4.720   2.644   1.266
 9015SOL    HW127944   4.778   2.572   1.228
 9015SOL    HW227945   4.636   2.651   1.212
 9016SOL     OW27946   5.685   4.986   6.426
 9016SOL    HW127947   5.781   4.978   6.454
 9016SOL    HW227948   5.627   4.992   6.507
 9017SOL     OW27949   3.738   1.332   4.819
 9017SOL    HW127950   3.745   1.239   4.781
 9017SOL    HW227951   3.665   1.335   4.886
 9018SOL     OW27952   3.911   3.679   6.716
 9018SOL    HW127953   3.983   3.631   6.665
 9018SOL    HW227954   3.929   3.673   6.814
 9019SOL     OW27955   1.280   3.786   3.035
 9019SOL    HW127956   1.242   3.752   2.949
 9019SOL    HW227957   1.325   3.874   3.020
 9020SOL     OW27958   6.412   5.002   1.561
 9020SOL    HW127959   6.461   5.039   1.639
 9020SOL    HW227960   6.341   4.939   1.594
 9021SOL     OW27961   0.002   0.507   4.236
 9021SOL    HW127962   6.924   0.489   4.241
 9021SOL    HW227963   0.036   0.483   4.145
 9022SOL     OW27964   3.667   2.263   6.789
 9022SOL    HW127965   3.735   2.213   6.843
 9022SOL    HW227966   3.709   2.293   6.704
 9023SOL     OW27967   3.824   3.088   1.155
 9023SOL    HW127968   3.830   3.062   1.251
 9023SOL    HW227969   3.862   3.180   1.143
 9024SOL     OW27970   0.860   4.712   5.615
 9024SOL    HW127971   0.932   4.695   5.682
 9024SOL    HW227972   0.893   4.688   5.523
 9025SOL     OW27973   0.459   5.396   0.790
 9025SOL    HW127974   0.501   5.377   0.878
 9025SOL    HW227975   0.384   5.462   0.802
 9026SOL     OW27976   3.997   1.334   0.415
 9026SOL    HW127977   3.935   1.255   0.423
 9026SOL    HW227978   4.048   1.327   0.330
 9027SOL     OW27979   1.127   3.888   3.680
 9027SOL    HW127980   1.050   3.905   3.743
 9027SOL    HW227981   1.206   3.857   3.732
 9028SOL     OW27982   3.498   3.416   5.097
 9028SOL    HW127983   3.471   3.506   5.062
 9028SOL    HW227984   3.523   3.357   5.020
 9029SOL     OW27985   4.305   0.678   4.773
 9029SOL    HW127986   4.238   0.646   4.841
 9029SOL    HW227987   4.377   0.731   4.819
 9030SOL     OW27988   2.269   2.474   3.914
 9030SOL    HW127989   2.182   2.489   3.962
 9030SOL    HW227990   2.331   2.550   3.935
 9031SOL     OW27991   4.457   0.560   4.493
 9031SOL    HW127992   4.445   0.607   4.405
 9031SOL    HW227993   4.392   0.598   4.559
 9032SOL     OW27994   4.478   3.905   1.232
 9032SOL    HW127995   4.480   3.810   1.263
 9032SOL    HW227996   4.546   3.958   1.283
 9033SOL     OW27997   0.524   5.141   2.198
 9033SOL    HW127998   0.618   5.154   2.167
 9033SOL    HW227999   0.466   5.215   2.162
 9034SOL     OW28000   3.544   6.024   5.344
 9034SOL    HW128001   3.471   6.061   5.402
 9034SOL    HW228002   3.632   6.061   5.373
 9035SOL     OW28003   1.896   6.068   0.078
 9035SOL    HW128004   1.878   6.083   0.175
 9035SOL    HW228005   1.859   6.145   0.026
 9036SOL     OW28006   1.600   3.772   4.953
 9036SOL    HW128007   1.556   3.779   5.042
 9036SOL    HW228008   1.531   3.776   4.881
 9037SOL     OW28009   1.043   2.594   4.396
 9037SOL    HW128010   0.959   2.542   4.380
 9037SOL    HW228011   1.023   2.692   4.391
 9038SOL     OW28012   4.710   2.917   6.459
 9038SOL    HW128013   4.716   2.946   6.555
 9038SOL    HW228014   4.626   2.953   6.419
 9039SOL     OW28015   3.603   4.640   6.766
 9039SOL    HW128016   3.662   4.574   6.812
 9039SOL    HW228017   3.650   4.678   6.686
 9040SOL     OW28018   2.544   1.962   2.081
 9040SOL    HW128019   2.576   2.034   2.020
 9040SOL    HW228020   2.583   1.874   2.054
 9041SOL     OW28021   0.808   2.086   1.127
 9041SOL    HW128022   0.780   2.179   1.101
 9041SOL    HW228023   0.877   2.091   1.199
 9042SOL     OW28024   4.042   5.946   5.272
 9042SOL    HW128025   4.130   5.918   5.309
 9042SOL    HW228026   4.044   5.936   5.172
 9043SOL     OW28027   2.458   1.542   6.905
 9043SOL    HW128028   2.368   1.576   6.877
 9043SOL    HW228029   2.492   1.595   6.983
 9044SOL     OW28030   0.867   0.715   0.109
 9044SOL    HW128031   0.770   0.694   0.123
 9044SOL    HW228032   0.907   0.648   0.048
 9045SOL     OW28033   4.130   0.569   3.504
 9045SOL    HW128034   4.078   0.508   3.445
 9045SOL    HW228035   4.101   0.663   3.489
 9046SOL     OW28036   4.126   3.523   2.485
 9046SOL    HW128037   4.055   3.519   2.555
 9046SOL    HW228038   4.142   3.432   2.448
 9047SOL     OW28039   1.655   4.112   5.247
 9047SOL    HW128040   1.692   4.045   5.182
 9047SOL    HW228041   1.556   4.102   5.251
 9048SOL     OW28042   5.990   2.123   6.387
 9048SOL    HW128043   6.021   2.204   6.436
 9048SOL    HW228044   5.913   2.082   6.435
 9049SOL     OW28045   3.450   6.134   6.124
 9049SOL    HW128046   3.424   6.085   6.206
 9049SOL    HW228047   3.528   6.194   6.144
 9050SOL     OW28048   0.711   4.354   1.873
 9050SOL    HW128049   0.804   4.333   1.844
 9050SOL    HW228050   0.663   4.270   1.895
 9051SOL     OW28051   2.624   0.917   1.288
 9051SOL    HW128052   2.723   0.924   1.278
 9051SOL    HW228053   2.580   0.928   1.199
 9052SOL     OW28054   1.810   2.828   4.124
 9052SOL    HW128055   1.827   2.738   4.164
 9052SOL    HW228056   1.897   2.877   4.115
 9053SOL     OW28057   2.171   1.246   1.181
 9053SOL    HW128058   2.259   1.202   1.161
 9053SOL    HW228059   2.125   1.268   1.095
 9054SOL     OW28060   2.547   5.635   3.802
 9054SOL    HW128061   2.545   5.631   3.902
 9054SOL    HW228062   2.496   5.716   3.771
 9055SOL     OW28063   6.783   4.250   4.882
 9055SOL    HW128064   6.870   4.215   4.917
 9055SOL    HW228065   6.712   4.181   4.894
 9056SOL     OW28066   6.291   2.297   2.801
 9056SOL    HW128067   6.295   2.352   2.885
 9056SOL    HW228068   6.374   2.311   2.748
 9057SOL     OW28069   4.861   1.714   4.345
 9057SOL    HW128070   4.857   1.705   4.246
 9057SOL    HW228071   4.788   1.660   4.387
 9058SOL     OW28072   1.513   0.456   6.222
 9058SOL    HW128073   1.578   0.501   6.283
 9058SOL    HW228074   1.453   0.396   6.276
 9059SOL     OW28075   1.663   2.380   2.196
 9059SOL    HW128076   1.646   2.441   2.273
 9059SOL    HW228077   1.663   2.433   2.111
 9060SOL     OW28078   5.378   3.390   4.687
 9060SOL    HW128079   5.334   3.300   4.693
 9060SOL    HW228080   5.450   3.397   4.756
 9061SOL     OW28081   4.518   5.674   2.323
 9061SOL    HW128082   4.443   5.655   2.260
 9061SOL    HW228083   4.604   5.640   2.284
 9062SOL     OW28084   1.375   5.339   1.528
 9062SOL    HW128085   1.312   5.277   1.482
 9062SOL    HW228086   1.340   5.433   1.523
 9063SOL     OW28087   2.853   1.564   3.791
 9063SOL    HW128088   2.900   1.523   3.869
 9063SOL    HW228089   2.829   1.493   3.725
 9064SOL     OW28090   6.452   3.603   0.104
 9064SOL    HW128091   6.352   3.608   0.108
 9064SOL    HW228092   6.480   3.588   0.009
 9065SOL     OW28093   3.121   0.723   0.358
 9065SOL    HW128094   3.117   0.624   0.372
 9065SOL    HW228095   3.029   0.758   0.342
 9066SOL     OW28096   5.313   0.109   0.098
 9066SOL    HW128097   5.393   0.086   0.042
 9066SOL    HW228098   5.341   0.174   0.169
 9067SOL     OW28099   1.702   6.645   3.181
 9067SOL    HW128100   1.673   6.549   3.177
 9067SOL    HW228101   1.672   6.685   3.267
 9068SOL     OW28102   1.380   6.019   5.683
 9068SOL    HW128103   1.385   5.920   5.670
 9068SOL    HW228104   1.315   6.041   5.755
 9069SOL     OW28105   1.719   2.728   6.050
 9069SOL    HW128106   1.706   2.826   6.064
 9069SOL    HW228107   1.797   2.713   5.989
 9070SOL     OW28108   1.680   3.926   4.441
 9070SOL    HW128109   1.597   3.873   4.460
 9070SOL    HW228110   1.734   3.933   4.524
 9071SOL     OW28111   6.364   6.589   0.223
 9071SOL    HW128112   6.387   6.510   0.166
 9071SOL    HW228113   6.423   6.666   0.198
 9072SOL     OW28114   6.854   3.748   0.688
 9072SOL    HW128115   6.819   3.764   0.780
 9072SOL    HW228116   6.791   3.689   0.638
 9073SOL     OW28117   2.430   1.047   2.017
 9073SOL    HW128118   2.410   1.033   2.114
 9073SOL    HW228119   2.416   0.962   1.967
 9074SOL     OW28120   1.234   6.778   2.783
 9074SOL    HW128121   1.153   6.832   2.760
 9074SOL    HW228122   1.205   6.689   2.820
 9075SOL     OW28123   6.564   0.807   2.121
 9075SOL    HW128124   6.582   0.709   2.113
 9075SOL    HW228125   6.514   0.838   2.041
 9076SOL     OW28126   6.917   1.089   5.636
 9076SOL    HW128127   6.908   1.086   5.536
 9076SOL    HW228128   6.952   1.002   5.669
 9077SOL     OW28129   5.079   6.574   2.194
 9077SOL    HW128130   4.992   6.529   2.176
 9077SOL    HW228131   5.084   6.658   2.141
 9078SOL     OW28132   3.908   3.502   4.978
 9078SOL    HW128133   3.919   3.409   5.012
 9078SOL    HW228134   3.848   3.553   5.038
 9079SOL     OW28135   3.470   6.562   4.628
 9079SOL    HW128136   3.372   6.545   4.637
 9079SOL    HW228137   3.516   6.479   4.596
 9080SOL     OW28138   5.447   2.550   0.008
 9080SOL    HW128139   5.385   2.629   0.013
 9080SOL    HW228140   5.540   2.580   0.031
 9081SOL     OW28141   5.297   6.120   1.884
 9081SOL    HW128142   5.374   6.147   1.825
 9081SOL    HW228143   5.278   6.194   1.948
 9082SOL     OW28144   2.846   0.667   3.741
 9082SOL    HW128145   2.814   0.749   3.789
 9082SOL    HW228146   2.928   0.690   3.689
 9083SOL     OW28147   5.061   4.329   5.277
 9083SOL    HW128148   5.050   4.427   5.261
 9083SOL    HW228149   5.055   4.311   5.376
 9084SOL     OW28150   3.126   4.022   2.970
 9084SOL    HW128151   3.181   4.105   2.981
 9084SOL    HW228152   3.153   3.976   2.885
 9085SOL     OW28153   2.251   2.131   1.580
 9085SOL    HW128154   2.291   2.221   1.564
 9085SOL    HW228155   2.321   2.061   1.565
 9086SOL     OW28156   0.740   3.873   1.268
 9086SOL    HW128157   0.754   3.781   1.230
 9086SOL    HW228158   0.651   3.877   1.312
 9087SOL     OW28159   5.073   3.864   2.161
 9087SOL    HW128160   5.137   3.792   2.191
 9087SOL    HW228161   5.003   3.824   2.103
 9088SOL     OW28162   6.844   0.436   6.248
 9088SOL    HW128163   6.865   0.458   6.343
 9088SOL    HW228164   6.745   0.436   6.235
 9089SOL     OW28165   4.452   0.003   5.825
 9089SOL    HW128166   4.392   0.064   5.876
 9089SOL    HW228167   4.404   6.985   5.746
 9090SOL     OW28168   5.484   0.429   4.301
 9090SOL    HW128169   5.522   0.482   4.377
 9090SOL    HW228170   5.496   0.479   4.215
 9091SOL     OW28171   3.043   3.677   0.005
 9091SOL    HW128172   3.140   3.663   7.004
 9091SOL    HW228173   3.034   3.743   0.079
 9092SOL     OW28174   0.140   1.937   0.121
 9092SOL    HW128175   0.234   1.928   0.090
 9092SOL    HW228176   0.102   1.846   0.139
 9093SOL     OW28177   1.483   6.953   5.241
 9093SOL    HW128178   1.457   6.872   5.189
 9093SOL    HW228179   1.463   0.015   5.188
 9094SOL     OW28180   0.634   3.330   2.184
 9094SOL    HW128181   0.721   3.346   2.232
 9094SOL    HW228182   0.638   3.243   2.136
 9095SOL     OW28183   5.533   6.010   5.306
 9095SOL    HW128184   5.570   5.919   5.322
 9095SOL    HW228185   5.605   6.078   5.320
 9096SOL     OW28186   6.185   5.271   2.948
 9096SOL    HW128187   6.091   5.262   2.916
 9096SOL    HW228188   6.234   5.337   2.891
 9097SOL     OW28189   0.911   3.074   5.594
 9097SOL    HW128190   0.911   3.015   5.514
 9097SOL    HW228191   0.887   3.168   5.568
 9098SOL     OW28192   2.119   3.293   4.549
 9098SOL    HW128193   2.161   3.243   4.625
 9098SOL    HW228194   2.064   3.368   4.585
 9099SOL     OW28195   1.993   3.396   0.174
 9099SOL    HW128196   1.943   3.470   0.129
 9099SOL    HW228197   2.062   3.360   0.113
 9100SOL     OW28198   1.006   4.509   2.841
 9100SOL    HW128199   1.069   4.587   2.836
 9100SOL    HW228200   0.921   4.538   2.886
 9101SOL     OW28201   1.969   1.413   1.940
 9101SOL    HW128202   1.975   1.423   1.841
 9101SOL    HW228203   2.038   1.347   1.971
 9102SOL     OW28204   4.311   5.860   2.515
 9102SOL    HW128205   4.373   5.839   2.440
 9102SOL    HW228206   4.355   5.924   2.579
 9103SOL     OW28207   6.396   1.909   0.344
 9103SOL    HW128208   6.304   1.942   0.324
 9103SOL    HW228209   6.394   1.857   0.429
 9104SOL     OW28210   6.424   0.659   0.143
 9104SOL    HW128211   6.363   0.589   0.179
 9104SOL    HW228212   6.504   0.615   0.101
 9105SOL     OW28213   2.145   0.163   6.347
 9105SOL    HW128214   2.075   0.107   6.390
 9105SOL    HW228215   2.139   0.154   6.248
 9106SOL     OW28216   1.444   4.790   6.790
 9106SOL    HW128217   1.463   4.866   6.727
 9106SOL    HW228218   1.506   4.794   6.868
 9107SOL     OW28219   2.365   1.319   0.386
 9107SOL    HW128220   2.416   1.354   0.464
 9107SOL    HW228221   2.371   1.384   0.310
 9108SOL     OW28222   5.587   5.204   6.007
 9108SOL    HW128223   5.630   5.287   5.972
 9108SOL    HW228224   5.609   5.194   6.104
 9109SOL     OW28225   5.043   2.916   2.516
 9109SOL    HW128226   4.944   2.929   2.509
 9109SOL    HW228227   5.082   2.906   2.425
 9110SOL     OW28228   1.439   5.398   4.466
 9110SOL    HW128229   1.437   5.330   4.539
 9110SOL    HW228230   1.358   5.388   4.408
 9111SOL     OW28231   4.456   3.206   5.505
 9111SOL    HW128232   4.491   3.124   5.459
 9111SOL    HW228233   4.415   3.181   5.592
 9112SOL     OW28234   1.670   5.436   2.158
 9112SOL    HW128235   1.755   5.480   2.186
 9112SOL    HW228236   1.614   5.416   2.238
 9113SOL     OW28237   4.834   2.030   3.380
 9113SOL    HW128238   4.870   1.965   3.447
 9113SOL    HW228239   4.911   2.079   3.338
 9114SOL     OW28240   1.325   6.145   4.756
 9114SOL    HW128241   1.271   6.071   4.797
 9114SOL    HW228242   1.420   6.117   4.749
 9115SOL     OW28243   5.612   4.753   4.033
 9115SOL    HW128244   5.518   4.731   4.006
 9115SOL    HW228245   5.643   4.832   3.980
 9116SOL     OW28246   0.757   6.609   3.498
 9116SOL    HW128247   0.798   6.650   3.417
 9116SOL    HW228248   0.748   6.677   3.570
 9117SOL     OW28249   3.903   0.723   6.716
 9117SOL    HW128250   3.906   0.716   6.815
 9117SOL    HW228251   3.995   0.744   6.681
 9118SOL     OW28252   6.169   4.200   0.947
 9118SOL    HW128253   6.190   4.164   1.038
 9118SOL    HW228254   6.082   4.163   0.915
 9119SOL     OW28255   3.614   0.489   0.573
 9119SOL    HW128256   3.574   0.548   0.642
 9119SOL    HW228257   3.641   0.402   0.614
 9120SOL     OW28258   5.687   2.976   5.216
 9120SOL    HW128259   5.651   3.048   5.157
 9120SOL    HW228260   5.645   2.889   5.191
 9121SOL     OW28261   3.187   0.025   5.090
 9121SOL    HW128262   3.253   0.097   5.111
 9121SOL    HW228263   3.144   7.013   5.174
 9122SOL     OW28264   2.419   4.329   2.281
 9122SOL    HW128265   2.487   4.256   2.279
 9122SOL    HW228266   2.438   4.390   2.359
 9123SOL     OW28267   1.062   0.980   3.964
 9123SOL    HW128268   1.069   1.054   3.896
 9123SOL    HW228269   0.985   0.998   4.025
 9124SOL     OW28270   3.088   5.582   1.600
 9124SOL    HW128271   3.098   5.614   1.694
 9124SOL    HW228272   3.103   5.659   1.537
 9125SOL     OW28273   4.760   6.656   0.941
 9125SOL    HW128274   4.811   6.601   0.875
 9125SOL    HW228275   4.678   6.693   0.898
 9126SOL     OW28276   3.815   4.218   0.289
 9126SOL    HW128277   3.780   4.124   0.292
 9126SOL    HW228278   3.763   4.275   0.351
 9127SOL     OW28279   7.007   4.101   5.827
 9127SOL    HW128280   0.050   4.177   5.808
 9127SOL    HW228281   7.013   4.035   5.752
 9128SOL     OW28282   5.695   3.601   5.584
 9128SOL    HW128283   5.644   3.680   5.551
 9128SOL    HW228284   5.640   3.551   5.650
 9129SOL     OW28285   1.726   2.068   0.350
 9129SOL    HW128286   1.788   2.145   0.339
 9129SOL    HW228287   1.656   2.091   0.417
 9130SOL     OW28288   2.590   3.951   5.292
 9130SOL    HW128289   2.504   3.958   5.241
 9130SOL    HW228290   2.659   4.008   5.247
 9131SOL     OW28291   5.613   2.941   0.869
 9131SOL    HW128292   5.577   2.939   0.962
 9131SOL    HW228293   5.540   2.966   0.805
 9132SOL     OW28294   0.323   4.382   3.881
 9132SOL    HW128295   0.259   4.415   3.811
 9132SOL    HW228296   0.404   4.344   3.836
 9133SOL     OW28297   4.535   1.004   0.623
 9133SOL    HW128298   4.532   0.904   0.612
 9133SOL    HW228299   4.622   1.039   0.590
 9134SOL     OW28300   4.221   5.215   0.792
 9134SOL    HW128301   4.247   5.229   0.888
 9134SOL    HW228302   4.164   5.291   0.761
 9135SOL     OW28303   0.100   6.580   2.904
 9135SOL    HW128304   0.057   6.651   2.960
 9135SOL    HW228305   0.035   6.506   2.888
 9136SOL     OW28306   6.304   4.539   6.977
 9136SOL    HW128307   6.287   4.527   0.055
 9136SOL    HW228308   6.379   4.605   6.964
 9137SOL     OW28309   4.957   6.375   6.411
 9137SOL    HW128310   4.929   6.464   6.375
 9137SOL    HW228311   4.916   6.302   6.357
 9138SOL     OW28312   3.247   3.508   1.148
 9138SOL    HW128313   3.325   3.449   1.169
 9138SOL    HW228314   3.280   3.596   1.115
 9139SOL     OW28315   6.604   0.113   1.243
 9139SOL    HW128316   6.577   0.204   1.211
 9139SOL    HW228317   6.659   0.068   1.172
 9140SOL     OW28318   1.080   4.331   3.026
 9140SOL    HW128319   0.996   4.310   3.075
 9140SOL    HW228320   1.062   4.401   2.956
 9141SOL     OW28321   6.592   5.868   5.235
 9141SOL    HW128322   6.580   5.861   5.136
 9141SOL    HW228323   6.658   5.940   5.256
 9142SOL     OW28324   1.088   4.364   3.593
 9142SOL    HW128325   1.168   4.324   3.549
 9142SOL    HW228326   1.117   4.423   3.669
 9143SOL     OW28327   7.012   4.049   2.524
 9143SOL    HW128328   6.946   3.976   2.544
 9143SOL    HW228329   6.963   4.135   2.510
 9144SOL     OW28330   2.575   4.510   5.512
 9144SOL    HW128331   2.615   4.419   5.502
 9144SOL    HW228332   2.611   4.571   5.441
 9145SOL     OW28333   1.430   6.325   5.890
 9145SOL    HW128334   1.421   6.252   5.957
 9145SOL    HW228335   1.340   6.348   5.853
 9146SOL     OW28336   5.997   2.804   2.777
 9146SOL    HW128337   5.929   2.854   2.830
 9146SOL    HW228338   6.069   2.867   2.748
 9147SOL     OW28339   4.278   0.155   4.186
 9147SOL    HW128340   4.282   0.091   4.262
 9147SOL    HW228341   4.184   0.186   4.173
 9148SOL     OW28342   5.982   6.451   1.804
 9148SOL    HW128343   5.940   6.397   1.877
 9148SOL    HW228344   5.971   6.404   1.717
 9149SOL     OW28345   0.284   3.751   2.129
 9149SOL    HW128346   0.346   3.742   2.051
 9149SOL    HW228347   0.274   3.662   2.174
 9150SOL     OW28348   2.733   2.642   1.173
 9150SOL    HW128349   2.642   2.605   1.157
 9150SOL    HW228350   2.767   2.611   1.262
 9151SOL     OW28351   1.947   3.030   3.682
 9151SOL    HW128352   1.987   2.939   3.696
 9151SOL    HW228353   1.863   3.021   3.628
 9152SOL     OW28354   2.197   4.699   3.195
 9152SOL    HW128355   2.279   4.642   3.190
 9152SOL    HW228356   2.118   4.642   3.217
 9153SOL     OW28357   6.587   3.996   0.454
 9153SOL    HW128358   6.662   4.047   0.413
 9153SOL    HW228359   6.572   3.911   0.402
 9154SOL     OW28360   5.786   4.860   2.405
 9154SOL    HW128361   5.782   4.776   2.459
 9154SOL    HW228362   5.722   4.927   2.442
 9155SOL     OW28363   1.148   6.404   2.474
 9155SOL    HW128364   1.202   6.405   2.390
 9155SOL    HW228365   1.057   6.443   2.457
 9156SOL     OW28366   6.952   3.996   6.982
 9156SOL    HW128367   0.010   4.018   0.020
 9156SOL    HW228368   6.908   3.912   7.015
 9157SOL     OW28369   2.128   5.288   6.014
 9157SOL    HW128370   2.119   5.239   6.100
 9157SOL    HW228371   2.054   5.260   5.952
 9158SOL     OW28372   6.723   3.358   4.906
 9158SOL    HW128373   6.746   3.381   5.000
 9158SOL    HW228374   6.673   3.435   4.865
 9159SOL     OW28375   3.827   1.449   3.850
 9159SOL    HW128376   3.783   1.537   3.836
 9159SOL    HW228377   3.758   1.381   3.875
 9160SOL     OW28378   6.895   4.544   1.026
 9160SOL    HW128379   6.946   4.460   1.047
 9160SOL    HW228380   6.836   4.567   1.104
 9161SOL     OW28381   6.589   4.463   1.705
 9161SOL    HW128382   6.498   4.421   1.706
 9161SOL    HW228383   6.598   4.520   1.623
 9162SOL     OW28384   4.438   2.048   1.516
 9162SOL    HW128385   4.512   2.013   1.459
 9162SOL    HW228386   4.455   2.024   1.612
 9163SOL     OW28387   1.543   2.522   3.292
 9163SOL    HW128388   1.531   2.589   3.365
 9163SOL    HW228389   1.477   2.448   3.303
 9164SOL     OW28390   3.064   0.065   0.207
 9164SOL    HW128391   3.133   0.078   0.279
 9164SOL    HW228392   3.035   6.989   0.205
 9165SOL     OW28393   5.139   1.658   6.201
 9165SOL    HW128394   5.223   1.655   6.147
 9165SOL    HW228395   5.157   1.619   6.292
 9166SOL     OW28396   5.342   5.862   1.503
 9166SOL    HW128397   5.354   5.865   1.603
 9166SOL    HW228398   5.429   5.840   1.459
 9167SOL     OW28399   1.630   1.550   4.459
 9167SOL    HW128400   1.555   1.529   4.522
 9167SOL    HW228401   1.689   1.470   4.450
 9168SOL     OW28402   6.594   5.791   4.339
 9168SOL    HW128403   6.662   5.736   4.292
 9168SOL    HW228404   6.517   5.808   4.277
 9169SOL     OW28405   6.465   5.774   0.761
 9169SOL    HW128406   6.435   5.866   0.735
 9169SOL    HW228407   6.564   5.767   0.749
 9170SOL     OW28408   1.442   1.210   6.250
 9170SOL    HW128409   1.542   1.206   6.255
 9170SOL    HW228410   1.412   1.184   6.158
 9171SOL     OW28411   3.425   4.813   0.128
 9171SOL    HW128412   3.399   4.798   0.033
 9171SOL    HW228413   3.462   4.728   0.166
 9172SOL     OW28414   4.767   1.356   3.672
 9172SOL    HW128415   4.728   1.264   3.675
 9172SOL    HW228416   4.864   1.351   3.697
 9173SOL     OW28417   5.631   3.083   4.960
 9173SOL    HW128418   5.623   3.170   4.913
 9173SOL    HW228419   5.545   3.032   4.952
 9174SOL     OW28420   0.631   4.677   0.201
 9174SOL    HW128421   0.723   4.708   0.175
 9174SOL    HW228422   0.612   4.706   0.295
 9175SOL     OW28423   2.291   0.014   6.962
 9175SOL    HW128424   2.366   0.007   6.895
 9175SOL    HW228425   2.230   0.089   6.935
 9176SOL     OW28426   1.544   1.544   2.401
 9176SOL    HW128427   1.606   1.477   2.442
 9176SOL    HW228428   1.528   1.618   2.466
 9177SOL     OW28429   0.622   4.364   3.862
 9177SOL    HW128430   0.610   4.304   3.940
 9177SOL    HW228431   0.662   4.313   3.786
 9178SOL     OW28432   2.213   6.029   0.482
 9178SOL    HW128433   2.200   6.119   0.524
 9178SOL    HW228434   2.242   5.964   0.552
 9179SOL     OW28435   3.491   5.387   4.717
 9179SOL    HW128436   3.545   5.303   4.717
 9179SOL    HW228437   3.403   5.369   4.761
 9180SOL     OW28438   6.866   0.764   4.971
 9180SOL    HW128439   6.848   0.862   4.966
 9180SOL    HW228440   6.962   0.749   4.996
 9181SOL     OW28441   2.860   1.865   3.809
 9181SOL    HW128442   2.811   1.882   3.894
 9181SOL    HW228443   2.894   1.771   3.808
 9182SOL     OW28444   1.384   1.207   2.544
 9182SOL    HW128445   1.475   1.166   2.549
 9182SOL    HW228446   1.377   1.262   2.460
 9183SOL     OW28447   0.482   1.990   6.235
 9183SOL    HW128448   0.510   2.052   6.308
 9183SOL    HW228449   0.520   2.021   6.148
 9184SOL     OW28450   3.765   3.206   0.272
 9184SOL    HW128451   3.820   3.173   0.194
 9184SOL    HW228452   3.761   3.134   0.342
 9185SOL     OW28453   1.238   0.816   0.045
 9185SOL    HW128454   1.234   0.770   6.976
 9185SOL    HW228455   1.290   0.761   0.109
 9186SOL     OW28456   5.833   0.899   6.160
 9186SOL    HW128457   5.843   0.969   6.089
 9186SOL    HW228458   5.750   0.917   6.213
 9187SOL     OW28459   5.492   2.260   0.704
 9187SOL    HW128460   5.419   2.319   0.670
 9187SOL    HW228461   5.472   2.165   0.680
 9188SOL     OW28462   1.435   0.417   1.769
 9188SOL    HW128463   1.401   0.331   1.732
 9188SOL    HW228464   1.394   0.433   1.859
 9189SOL     OW28465   3.712   1.493   4.612
 9189SOL    HW128466   3.710   1.431   4.690
 9189SOL    HW228467   3.742   1.444   4.530
 9190SOL     OW28468   6.546   2.172   5.445
 9190SOL    HW128469   6.599   2.112   5.504
 9190SOL    HW228470   6.529   2.259   5.493
 9191SOL     OW28471   5.511   6.495   0.631
 9191SOL    HW128472   5.609   6.514   0.622
 9191SOL    HW228473   5.464   6.577   0.664
 9192SOL     OW28474   5.735   4.698   4.589
 9192SOL    HW128475   5.643   4.708   4.553
 9192SOL    HW228476   5.740   4.738   4.681
 9193SOL     OW28477   3.667   2.878   3.951
 9193SOL    HW128478   3.753   2.884   4.002
 9193SOL    HW228479   3.592   2.859   4.014
 9194SOL     OW28480   3.093   5.640   2.259
 9194SOL    HW128481   3.149   5.723   2.252
 9194SOL    HW228482   3.131   5.579   2.328
 9195SOL     OW28483   6.896   3.580   3.161
 9195SOL    HW128484   6.858   3.564   3.070
 9195SOL    HW228485   6.890   3.678   3.182
 9196SOL     OW28486   4.462   0.221   3.650
 9196SOL    HW128487   4.370   0.205   3.684
 9196SOL    HW228488   4.462   0.217   3.550
 9197SOL     OW28489   3.307   3.468   6.435
 9197SOL    HW128490   3.249   3.452   6.356
 9197SOL    HW228491   3.304   3.565   6.460
 9198SOL     OW28492   5.003   2.644   4.999
 9198SOL    HW128493   4.943   2.664   5.076
 9198SOL    HW228494   4.952   2.649   4.913
 9199SOL     OW28495   1.496   3.489   6.399
 9199SOL    HW128496   1.449   3.517   6.315
 9199SOL    HW228497   1.591   3.468   6.378
 9200SOL     OW28498   6.023   0.018   0.477
 9200SOL    HW128499   6.030   0.031   0.378
 9200SOL    HW228500   6.078   0.087   0.524
 9201SOL     OW28501   1.758   4.159   3.247
 9201SOL    HW128502   1.747   4.123   3.340
 9201SOL    HW228503   1.855   4.170   3.226
 9202SOL     OW28504   3.242   5.428   4.059
 9202SOL    HW128505   3.313   5.361   4.076
 9202SOL    HW228506   3.284   5.515   4.031
 9203SOL     OW28507   5.014   0.706   6.279
 9203SOL    HW128508   4.940   0.730   6.342
 9203SOL    HW228509   5.000   0.613   6.246
 9204SOL     OW28510   4.684   4.348   1.760
 9204SOL    HW128511   4.603   4.300   1.794
 9204SOL    HW228512   4.694   4.435   1.808
 9205SOL     OW28513   4.916   3.213   2.741
 9205SOL    HW128514   5.011   3.192   2.718
 9205SOL    HW228515   4.865   3.127   2.752
 9206SOL     OW28516   0.584   6.855   3.347
 9206SOL    HW128517   0.535   6.768   3.336
 9206SOL    HW228518   0.665   6.855   3.289
 9207SOL     OW28519   4.204   6.531   7.004
 9207SOL    HW128520   4.191   6.630   7.011
 9207SOL    HW228521   4.302   6.511   6.992
 9208SOL     OW28522   4.638   4.687   2.501
 9208SOL    HW128523   4.593   4.726   2.582
 9208SOL    HW228524   4.625   4.749   2.423
 9209SOL     OW28525   3.764   0.987   2.954
 9209SOL    HW128526   3.704   0.907   2.949
 9209SOL    HW228527   3.776   1.025   2.863
 9210SOL     OW28528   1.342   0.102   0.849
 9210SOL    HW128529   1.313   0.096   0.753
 9210SOL    HW228530   1.339   0.012   0.891
 9211SOL     OW28531   4.851   1.712   6.218
 9211SOL    HW128532   4.819   1.763   6.138
 9211SOL    HW228533   4.949   1.698   6.211
 9212SOL     OW28534   5.858   3.831   4.835
 9212SOL    HW128535   5.858   3.871   4.927
 9212SOL    HW228536   5.935   3.868   4.782
 9213SOL     OW28537   6.333   6.820   2.484
 9213SOL    HW128538   6.296   6.735   2.524
 9213SOL    HW228539   6.403   6.857   2.544
 9214SOL     OW28540   1.750   2.669   5.585
 9214SOL    HW128541   1.702   2.582   5.573
 9214SOL    HW228542   1.689   2.736   5.627
 9215SOL     OW28543   0.787   2.810   2.681
 9215SOL    HW128544   0.691   2.815   2.708
 9215SOL    HW228545   0.844   2.803   2.763
 9216SOL     OW28546   2.748   5.662   4.974
 9216SOL    HW128547   2.811   5.613   4.914
 9216SOL    HW228548   2.799   5.702   5.050
 9217SOL     OW28549   4.580   1.278   6.193
 9217SOL    HW128550   4.502   1.217   6.211
 9217SOL    HW228551   4.664   1.234   6.224
 9218SOL     OW28552   6.343   5.290   6.625
 9218SOL    HW128553   6.404   5.274   6.548
 9218SOL    HW228554   6.255   5.245   6.608
 9219SOL     OW28555   3.700   3.031   5.529
 9219SOL    HW128556   3.691   3.028   5.430
 9219SOL    HW228557   3.762   2.959   5.559
 9220SOL     OW28558   0.916   6.435   3.786
 9220SOL    HW128559   0.960   6.524   3.776
 9220SOL    HW228560   0.952   6.371   3.717
 9221SOL     OW28561   2.416   1.197   1.033
 9221SOL    HW128562   2.482   1.262   1.070
 9221SOL    HW228563   2.392   1.224   0.939
 9222SOL     OW28564   1.722   3.062   3.978
 9222SOL    HW128565   1.811   3.016   3.983
 9222SOL    HW228566   1.735   3.161   3.986
 9223SOL     OW28567   0.605   3.315   5.029
 9223SOL    HW128568   0.684   3.252   5.024
 9223SOL    HW228569   0.522   3.262   5.041
 9224SOL     OW28570   2.228   4.407   3.805
 9224SOL    HW128571   2.279   4.408   3.891
 9224SOL    HW228572   2.285   4.448   3.733
 9225SOL     OW28573   5.064   6.141   6.512
 9225SOL    HW128574   4.999   6.100   6.576
 9225SOL    HW228575   5.025   6.226   6.474
 9226SOL     OW28576   0.874   0.930   0.865
 9226SOL    HW128577   0.878   0.847   0.809
 9226SOL    HW228578   0.954   0.933   0.926
 9227SOL     OW28579   2.301   4.712   0.862
 9227SOL    HW128580   2.321   4.614   0.856
 9227SOL    HW228581   2.301   4.740   0.958
 9228SOL     OW28582   3.594   3.271   5.620
 9228SOL    HW128583   3.614   3.177   5.591
 9228SOL    HW228584   3.548   3.319   5.545
 9229SOL     OW28585   0.170   4.974   0.134
 9229SOL    HW128586   0.230   4.937   0.205
 9229SOL    HW228587   0.078   4.985   0.170
 9230SOL     OW28588   4.529   1.774   4.995
 9230SOL    HW128589   4.476   1.701   4.951
 9230SOL    HW228590   4.603   1.733   5.048
 9231SOL     OW28591   6.904   5.647   3.579
 9231SOL    HW128592   6.822   5.655   3.635
 9231SOL    HW228593   6.879   5.610   3.490
 9232SOL     OW28594   1.456   5.088   2.333
 9232SOL    HW128595   1.503   5.085   2.421
 9232SOL    HW228596   1.458   5.181   2.297
 9233SOL     OW28597   0.662   6.395   0.037
 9233SOL    HW128598   0.668   6.374   6.960
 9233SOL    HW228599   0.753   6.416   0.073
 9234SOL     OW28600   2.251   4.151   0.743
 9234SOL    HW128601   2.277   4.075   0.683
 9234SOL    HW228602   2.256   4.122   0.838
 9235SOL     OW28603   2.276   1.957   3.764
 9235SOL    HW128604   2.340   1.973   3.688
 9235SOL    HW228605   2.219   2.038   3.776
 9236SOL     OW28606   2.793   3.562   6.658
 9236SOL    HW128607   2.886   3.595   6.675
 9236SOL    HW228608   2.777   3.480   6.713
 9237SOL     OW28609   5.565   4.706   3.040
 9237SOL    HW128610   5.656   4.667   3.035
 9237SOL    HW228611   5.510   4.654   3.106
 9238SOL     OW28612   1.730   2.804   5.087
 9238SOL    HW128613   1.651   2.745   5.100
 9238SOL    HW228614   1.790   2.796   5.167
 9239SOL     OW28615   1.128   5.145   0.066
 9239SOL    HW128616   1.144   5.097   0.152
 9239SOL    HW228617   1.215   5.157   0.018
 9240SOL     OW28618   4.283   2.209   2.819
 9240SOL    HW128619   4.314   2.277   2.885
 9240SOL    HW228620   4.186   2.224   2.800
 9241SOL     OW28621   6.015   6.208   1.147
 9241SOL    HW128622   5.951   6.140   1.182
 9241SOL    HW228623   6.036   6.275   1.219
 9242SOL     OW28624   1.246   2.553   0.347
 9242SOL    HW128625   1.166   2.493   0.346
 9242SOL    HW228626   1.217   2.645   0.374
 9243SOL     OW28627   0.992   0.937   0.136
 9243SOL    HW128628   1.090   0.921   0.121
 9243SOL    HW228629   0.943   0.850   0.131
 9244SOL     OW28630   3.293   6.622   5.480
 9244SOL    HW128631   3.320   6.679   5.558
 9244SOL    HW228632   3.361   6.631   5.407
 9245SOL     OW28633   1.224   4.551   3.808
 9245SOL    HW128634   1.137   4.589   3.778
 9245SOL    HW228635   1.270   4.616   3.869
 9246SOL     OW28636   6.509   0.266   6.012
 9246SOL    HW128637   6.437   0.247   5.946
 9246SOL    HW228638   6.469   0.289   6.100
 9247SOL     OW28639   3.534   6.722   2.918
 9247SOL    HW128640   3.440   6.694   2.942
 9247SOL    HW228641   3.578   6.648   2.867
 9248SOL     OW28642   2.399   1.268   6.266
 9248SOL    HW128643   2.481   1.287   6.212
 9248SOL    HW228644   2.318   1.294   6.213
 9249SOL     OW28645   3.703   5.820   0.953
 9249SOL    HW128646   3.669   5.912   0.974
 9249SOL    HW228647   3.748   5.782   1.034
 9250SOL     OW28648   0.460   2.924   3.919
 9250SOL    HW128649   0.475   2.966   4.009
 9250SOL    HW228650   0.496   2.831   3.919
 9251SOL     OW28651   3.015   2.921   1.180
 9251SOL    HW128652   3.089   2.858   1.154
 9251SOL    HW228653   2.927   2.876   1.165
 9252SOL     OW28654   4.649   1.975   5.768
 9252SOL    HW128655   4.687   1.988   5.677
 9252SOL    HW228656   4.660   2.060   5.821
 9253SOL     OW28657   1.127   5.294   5.420
 9253SOL    HW128658   1.117   5.195   5.429
 9253SOL    HW228659   1.040   5.334   5.392
 9254SOL     OW28660   0.057   4.881   2.851
 9254SOL    HW128661   0.090   4.941   2.778
 9254SOL    HW228662   0.039   4.935   2.933
 9255SOL     OW28663   6.845   4.621   0.540
 9255SOL    HW128664   6.900   4.539   0.560
 9255SOL    HW228665   6.787   4.642   0.619
 9256SOL     OW28666   2.082   6.327   2.020
 9256SOL    HW128667   2.005   6.390   2.033
 9256SOL    HW228668   2.157   6.354   2.080
 9257SOL     OW28669   6.496   6.026   3.855
 9257SOL    HW128670   6.542   5.947   3.814
 9257SOL    HW228671   6.403   6.001   3.880
 9258SOL     OW28672   3.642   5.254   1.205
 9258SOL    HW128673   3.597   5.247   1.116
 9258SOL    HW228674   3.686   5.167   1.227
 9259SOL     OW28675   2.212   1.392   0.050
 9259SOL    HW128676   2.304   1.362   0.026
 9259SOL    HW228677   2.159   1.314   0.084
 9260SOL     OW28678   6.192   3.980   5.018
 9260SOL    HW128679   6.122   3.913   5.042
 9260SOL    HW228680   6.148   4.069   5.001
 9261SOL     OW28681   3.736   2.502   1.697
 9261SOL    HW128682   3.809   2.571   1.692
 9261SOL    HW228683   3.746   2.449   1.781
 9262SOL     OW28684   6.176   6.022   4.760
 9262SOL    HW128685   6.242   6.079   4.809
 9262SOL    HW228686   6.181   5.928   4.794
 9263SOL     OW28687   1.920   4.249   4.306
 9263SOL    HW128688   1.973   4.166   4.290
 9263SOL    HW228689   1.828   4.225   4.337
 9264SOL     OW28690   4.362   4.002   0.032
 9264SOL    HW128691   4.406   4.006   0.121
 9264SOL    HW228692   4.366   4.092   7.009
 9265SOL     OW28693   6.156   2.380   0.259
 9265SOL    HW128694   6.173   2.478   0.250
 9265SOL    HW228695   6.121   2.360   0.351
 9266SOL     OW28696   1.185   4.579   1.408
 9266SOL    HW128697   1.158   4.663   1.361
 9266SOL    HW228698   1.251   4.528   1.352
 9267SOL     OW28699   6.054   0.818   4.615
 9267SOL    HW128700   6.088   0.760   4.689
 9267SOL    HW228701   5.976   0.871   4.647
 9268SOL     OW28702   0.682   0.262   1.800
 9268SOL    HW128703   0.738   0.313   1.866
 9268SOL    HW228704   0.624   0.197   1.849
 9269SOL     OW28705   4.027   0.995   0.264
 9269SOL    HW128706   4.120   1.032   0.267
 9269SOL    HW228707   3.973   1.034   0.339
 9270SOL     OW28708   1.885   0.190   6.177
 9270SOL    HW128709   1.821   0.184   6.254
 9270SOL    HW228710   1.888   0.284   6.143
 9271SOL     OW28711   1.268   6.716   4.729
 9271SOL    HW128712   1.264   6.619   4.753
 9271SOL    HW228713   1.228   6.770   4.803
 9272SOL     OW28714   6.308   6.548   6.105
 9272SOL    HW128715   6.263   6.587   6.024
 9272SOL    HW228716   6.382   6.488   6.076
 9273SOL     OW28717   5.063   5.004   4.337
 9273SOL    HW128718   5.024   4.956   4.258
 9273SOL    HW228719   5.106   5.089   4.306
 9274SOL     OW28720   0.762   2.696   0.285
 9274SOL    HW128721   0.714   2.783   0.294
 9274SOL    HW228722   0.735   2.635   0.359
 9275SOL     OW28723   0.058   0.545   0.054
 9275SOL    HW128724   0.070   0.639   0.021
 9275SOL    HW228725   0.103   0.482   7.012
 9276SOL     OW28726   2.409   5.327   0.543
 9276SOL    HW128727   2.488   5.367   0.496
 9276SOL    HW228728   2.402   5.230   0.520
 9277SOL     OW28729   5.104   5.667   1.703
 9277SOL    HW128730   5.182   5.727   1.723
 9277SOL    HW228731   5.106   5.642   1.606
 9278SOL     OW28732   1.103   0.658   5.208
 9278SOL    HW128733   1.049   0.727   5.160
 9278SOL    HW228734   1.056   0.570   5.205
 9279SOL     OW28735   4.672   5.789   1.575
 9279SOL    HW128736   4.679   5.698   1.536
 9279SOL    HW228737   4.727   5.794   1.659
 9280SOL     OW28738   1.533   6.909   2.606
 9280SOL    HW128739   1.455   6.865   2.562
 9280SOL    HW228740   1.519   7.008   2.607
 9281SOL     OW28741   2.401   5.327   0.059
 9281SOL    HW128742   2.469   5.400   0.048
 9281SOL    HW228743   2.333   5.355   0.127
 9282SOL     OW28744   2.652   6.794   5.002
 9282SOL    HW128745   2.662   6.863   5.073
 9282SOL    HW228746   2.595   6.830   4.928
 9283SOL     OW28747   4.221   5.987   0.508
 9283SOL    HW128748   4.315   5.955   0.506
 9283SOL    HW228749   4.217   6.079   0.546
 9284SOL     OW28750   3.318   3.991   4.933
 9284SOL    HW128751   3.396   3.969   4.874
 9284SOL    HW228752   3.255   3.913   4.934
 9285SOL     OW28753   0.495   4.875   2.859
 9285SOL    HW128754   0.501   4.832   2.769
 9285SOL    HW228755   0.587   4.883   2.897
 9286SOL     OW28756   4.461   6.243   1.219
 9286SOL    HW128757   4.419   6.262   1.130
 9286SOL    HW228758   4.411   6.171   1.266
 9287SOL     OW28759   3.740   4.547   6.321
 9287SOL    HW128760   3.726   4.473   6.255
 9287SOL    HW228761   3.838   4.563   6.332
 9288SOL     OW28762   3.765   1.985   2.632
 9288SOL    HW128763   3.768   2.016   2.537
 9288SOL    HW228764   3.677   2.012   2.672
 9289SOL     OW28765   4.973   6.340   0.384
 9289SOL    HW128766   4.968   6.374   0.290
 9289SOL    HW228767   4.881   6.332   0.422
 9290SOL     OW28768   4.510   0.734   4.019
 9290SOL    HW128769   4.483   0.741   3.923
 9290SOL    HW228770   4.601   0.692   4.025
 9291SOL     OW28771   1.052   5.026   6.104
 9291SOL    HW128772   1.052   5.125   6.111
 9291SOL    HW228773   0.967   4.995   6.061
 9292SOL     OW28774   1.389   1.300   6.501
 9292SOL    HW128775   1.406   1.208   6.535
 9292SOL    HW228776   1.405   1.303   6.403
 9293SOL     OW28777   4.855   2.616   4.771
 9293SOL    HW128778   4.918   2.623   4.694
 9293SOL    HW228779   4.803   2.701   4.779
 9294SOL     OW28780   4.633   1.097   0.004
 9294SOL    HW128781   4.568   1.039   0.053
 9294SOL    HW228782   4.586   1.146   6.951
 9295SOL     OW28783   0.807   1.330   5.166
 9295SOL    HW128784   0.715   1.296   5.187
 9295SOL    HW228785   0.804   1.430   5.160
 9296SOL     OW28786   1.523   4.656   0.235
 9296SOL    HW128787   1.463   4.577   0.247
 9296SOL    HW228788   1.468   4.736   0.214
 9297SOL     OW28789   5.947   5.728   2.270
 9297SOL    HW128790   6.003   5.695   2.346
 9297SOL    HW228791   5.990   5.809   2.229
 9298SOL     OW28792   1.694   5.233   6.614
 9298SOL    HW128793   1.719   5.328   6.633
 9298SOL    HW228794   1.662   5.225   6.520
 9299SOL     OW28795   1.937   2.843   4.703
 9299SOL    HW128796   1.888   2.920   4.662
 9299SOL    HW228797   2.035   2.863   4.706
 9300SOL     OW28798   1.593   5.067   5.275
 9300SOL    HW128799   1.685   5.091   5.245
 9300SOL    HW228800   1.590   5.065   5.375
 9301SOL     OW28801   0.323   4.379   5.053
 9301SOL    HW128802   0.416   4.344   5.042
 9301SOL    HW228803   0.304   4.393   5.151
 9302SOL     OW28804   2.377   3.492   5.297
 9302SOL    HW128805   2.307   3.498   5.226
 9302SOL    HW228806   2.384   3.580   5.345
 9303SOL     OW28807   2.433   4.413   0.905
 9303SOL    HW128808   2.526   4.443   0.886
 9303SOL    HW228809   2.425   4.389   1.002
 9304SOL     OW28810   3.897   5.721   0.248
 9304SOL    HW128811   3.848   5.699   0.164
 9304SOL    HW228812   3.831   5.752   0.317
 9305SOL     OW28813   2.195   1.886   1.401
 9305SOL    HW128814   2.195   1.824   1.323
 9305SOL    HW228815   2.117   1.865   1.461
 9306SOL     OW28816   6.446   5.439   4.746
 9306SOL    HW128817   6.377   5.512   4.739
 9306SOL    HW228818   6.486   5.424   4.656
 9307SOL     OW28819   2.679   3.048   1.514
 9307SOL    HW128820   2.649   3.009   1.600
 9307SOL    HW228821   2.658   2.985   1.439
 9308SOL     OW28822   2.059   3.891   2.133
 9308SOL    HW128823   1.985   3.859   2.193
 9308SOL    HW228824   2.055   3.841   2.047
 9309SOL     OW28825   4.820   5.521   6.195
 9309SOL    HW128826   4.810   5.576   6.279
 9309SOL    HW228827   4.910   5.538   6.155
 9310SOL     OW28828   5.952   5.880   0.204
 9310SOL    HW128829   6.017   5.824   0.256
 9310SOL    HW228830   5.921   5.829   0.124
 9311SOL     OW28831   4.735   3.769   1.728
 9311SOL    HW128832   4.790   3.748   1.647
 9311SOL    HW228833   4.639   3.776   1.702
 9312SOL     OW28834   0.480   2.843   2.533
 9312SOL    HW128835   0.403   2.896   2.496
 9312SOL    HW228836   0.520   2.788   2.460
 9313SOL     OW28837   0.118   0.253   1.990
 9313SOL    HW128838   0.079   0.331   2.040
 9313SOL    HW228839   0.214   0.272   1.969
 9314SOL     OW28840   4.967   3.550   0.662
 9314SOL    HW128841   4.908   3.496   0.602
 9314SOL    HW228842   4.924   3.558   0.752
 9315SOL     OW28843   5.236   0.459   6.122
 9315SOL    HW128844   5.213   0.552   6.095
 9315SOL    HW228845   5.167   0.425   6.186
 9316SOL     OW28846   4.343   0.668   5.533
 9316SOL    HW128847   4.283   0.606   5.482
 9316SOL    HW228848   4.338   0.646   5.631
 9317SOL     OW28849   3.445   6.651   3.212
 9317SOL    HW128850   3.395   6.632   3.127
 9317SOL    HW228851   3.466   6.565   3.259
 9318SOL     OW28852   4.467   6.436   1.393
 9318SOL    HW128853   4.484   6.354   1.338
 9318SOL    HW228854   4.490   6.418   1.489
 9319SOL     OW28855   2.565   3.299   0.495
 9319SOL    HW128856   2.564   3.215   0.440
 9319SOL    HW228857   2.498   3.293   0.568
 9320SOL     OW28858   6.772   6.455   6.877
 9320SOL    HW128859   6.820   6.477   6.961
 9320SOL    HW228860   6.769   6.536   6.818
 9321SOL     OW28861   0.582   3.586   5.005
 9321SOL    HW128862   0.588   3.486   5.009
 9321SOL    HW228863   0.656   3.626   5.058
 9322SOL     OW28864   5.597   3.269   6.598
 9322SOL    HW128865   5.693   3.244   6.611
 9322SOL    HW228866   5.554   3.204   6.536
 9323SOL     OW28867   1.281   2.178   5.065
 9323SOL    HW128868   1.310   2.147   4.974
 9323SOL    HW228869   1.362   2.192   5.123
 9324SOL     OW28870   0.725   4.670   1.752
 9324SOL    HW128871   0.727   4.602   1.826
 9324SOL    HW228872   0.704   4.625   1.666
 9325SOL     OW28873   0.945   4.527   3.374
 9325SOL    HW128874   0.952   4.441   3.424
 9325SOL    HW228875   0.875   4.584   3.416
 9326SOL     OW28876   4.433   4.926   1.707
 9326SOL    HW128877   4.481   4.985   1.643
 9326SOL    HW228878   4.390   4.851   1.658
 9327SOL     OW28879   3.859   0.652   4.003
 9327SOL    HW128880   3.940   0.704   4.029
 9327SOL    HW228881   3.873   0.613   3.911
 9328SOL     OW28882   2.550   6.793   4.212
 9328SOL    HW128883   2.646   6.775   4.235
 9328SOL    HW228884   2.544   6.878   4.159
 9329SOL     OW28885   0.351   5.330   6.439
 9329SOL    HW128886   0.369   5.321   6.537
 9329SOL    HW228887   0.260   5.368   6.425
 9330SOL     OW28888   6.668   6.017   6.243
 9330SOL    HW128889   6.601   6.066   6.189
 9330SOL    HW228890   6.732   5.968   6.183
 9331SOL     OW28891   1.576   3.357   4.913
 9331SOL    HW128892   1.581   3.302   4.829
 9331SOL    HW228893   1.611   3.304   4.990
 9332SOL     OW28894   4.701   5.869   1.074
 9332SOL    HW128895   4.747   5.792   1.029
 9332SOL    HW228896   4.754   5.952   1.060
 9333SOL     OW28897   4.096   4.213   1.096
 9333SOL    HW128898   4.027   4.268   1.144
 9333SOL    HW228899   4.062   4.119   1.087
 9334SOL     OW28900   5.851   5.588   5.755
 9334SOL    HW128901   5.949   5.602   5.767
 9334SOL    HW228902   5.801   5.652   5.814
 9335SOL     OW28903   1.389   3.241   1.488
 9335SOL    HW128904   1.431   3.161   1.446
 9335SOL    HW228905   1.365   3.308   1.417
 9336SOL     OW28906   5.885   6.942   5.163
 9336SOL    HW128907   5.896   0.021   5.166
 9336SOL    HW228908   5.942   6.901   5.235
 9337SOL     OW28909   2.519   0.265   6.679
 9337SOL    HW128910   2.542   0.265   6.582
 9337SOL    HW228911   2.577   0.332   6.727
 9338SOL     OW28912   5.492   6.703   0.422
 9338SOL    HW128913   5.572   6.740   0.376
 9338SOL    HW228914   5.420   6.685   0.355
 9339SOL     OW28915   6.211   3.693   5.512
 9339SOL    HW128916   6.181   3.630   5.441
 9339SOL    HW228917   6.163   3.780   5.501
 9340SOL     OW28918   4.104   5.836   1.618
 9340SOL    HW128919   4.035   5.908   1.608
 9340SOL    HW228920   4.172   5.845   1.545
 9341SOL     OW28921   5.157   4.320   6.857
 9341SOL    HW128922   5.078   4.261   6.876
 9341SOL    HW228923   5.207   4.337   6.942
 9342SOL     OW28924   2.936   0.336   4.239
 9342SOL    HW128925   2.931   0.323   4.338
 9342SOL    HW228926   2.867   0.403   4.210
 9343SOL     OW28927   4.547   4.300   1.442
 9343SOL    HW128928   4.629   4.243   1.442
 9343SOL    HW228929   4.533   4.340   1.533
 9344SOL     OW28930   6.156   5.930   5.292
 9344SOL    HW128931   6.104   5.980   5.361
 9344SOL    HW228932   6.093   5.878   5.234
 9345SOL     OW28933   0.387   6.037   0.608
 9345SOL    HW128934   0.356   6.127   0.577
 9345SOL    HW228935   0.439   6.047   0.693
 9346SOL     OW28936   5.936   5.766   0.586
 9346SOL    HW128937   5.865   5.757   0.517
 9346SOL    HW228938   5.914   5.843   0.646
 9347SOL     OW28939   3.629   5.611   0.820
 9347SOL    HW128940   3.649   5.694   0.871
 9347SOL    HW228941   3.609   5.634   0.725
 9348SOL     OW28942   3.075   5.895   1.596
 9348SOL    HW128943   3.162   5.923   1.635
 9348SOL    HW228944   3.090   5.858   1.504
 9349SOL     OW28945   6.318   5.937   1.784
 9349SOL    HW128946   6.370   5.930   1.699
 9349SOL    HW228947   6.310   5.847   1.826
 9350SOL     OW28948   6.993   0.328   5.923
 9350SOL    HW128949   0.010   0.325   5.830
 9350SOL    HW228950   6.983   0.424   5.951
 9351SOL     OW28951   3.150   1.824   6.441
 9351SOL    HW128952   3.094   1.792   6.517
 9351SOL    HW228953   3.215   1.893   6.474
 9352SOL     OW28954   3.416   2.548   5.948
 9352SOL    HW128955   3.484   2.620   5.958
 9352SOL    HW228956   3.347   2.578   5.882
 9353SOL     OW28957   0.921   3.146   1.263
 9353SOL    HW128958   0.825   3.151   1.235
 9353SOL    HW228959   0.927   3.110   1.356
 9354SOL     OW28960   4.882   2.303   1.645
 9354SOL    HW128961   4.858   2.391   1.684
 9354SOL    HW228962   4.875   2.307   1.545
 9355SOL     OW28963   6.969   0.208   3.171
 9355SOL    HW128964   6.960   0.301   3.137
 9355SOL    HW228965   0.038   0.171   3.145
 9356SOL     OW28966   4.385   4.574   2.390
 9356SOL    HW128967   4.468   4.576   2.446
 9356SOL    HW228968   4.404   4.526   2.304
 9357SOL     OW28969   3.543   2.497   1.293
 9357SOL    HW128970   3.539   2.538   1.384
 9357SOL    HW228971   3.585   2.406   1.299
 9358SOL     OW28972   6.276   4.782   2.380
 9358SOL    HW128973   6.237   4.863   2.423
 9358SOL    HW228974   6.373   4.776   2.402
 9359SOL     OW28975   6.662   4.031   5.703
 9359SOL    HW128976   6.656   3.933   5.687
 9359SOL    HW228977   6.715   4.048   5.786
 9360SOL     OW28978   2.395   1.075   0.263
 9360SOL    HW128979   2.339   1.151   0.296
 9360SOL    HW228980   2.434   1.027   0.341
 9361SOL     OW28981   2.685   6.686   2.314
 9361SOL    HW128982   2.779   6.713   2.334
 9361SOL    HW228983   2.677   6.659   2.219
 9362SOL     OW28984   2.113   1.152   2.771
 9362SOL    HW128985   2.038   1.087   2.769
 9362SOL    HW228986   2.149   1.164   2.679
 9363SOL     OW28987   3.384   5.765   2.337
 9363SOL    HW128988   3.370   5.717   2.424
 9363SOL    HW228989   3.432   5.851   2.353
 9364SOL     OW28990   4.361   4.139   0.340
 9364SOL    HW128991   4.418   4.180   0.268
 9364SOL    HW228992   4.377   4.186   0.426
 9365SOL     OW28993   2.917   1.925   4.731
 9365SOL    HW128994   2.974   2.007   4.728
 9365SOL    HW228995   2.975   1.843   4.736
 9366SOL     OW28996   2.713   1.631   1.024
 9366SOL    HW128997   2.772   1.619   0.945
 9366SOL    HW228998   2.753   1.698   1.086
 9367SOL     OW28999   6.919   5.751   2.941
 9367SOL    HW129000   6.862   5.772   2.862
 9367SOL    HW229001   6.991   5.687   2.914
 9368SOL     OW29002   3.073   1.828   1.960
 9368SOL    HW129003   3.073   1.926   1.981
 9368SOL    HW229004   3.158   1.786   1.991
 9369SOL     OW29005   6.905   2.200   4.667
 9369SOL    HW129006   6.866   2.116   4.631
 9369SOL    HW229007   6.900   2.272   4.597
 9370SOL     OW29008   6.173   0.935   2.538
 9370SOL    HW129009   6.261   0.912   2.579
 9370SOL    HW229010   6.171   1.032   2.514
 9371SOL     OW29011   0.408   6.317   0.450
 9371SOL    HW129012   0.328   6.373   0.428
 9371SOL    HW229013   0.469   6.367   0.511
 9372SOL     OW29014   6.026   6.409   4.278
 9372SOL    HW129015   5.947   6.460   4.312
 9372SOL    HW229016   6.109   6.462   4.296
 9373SOL     OW29017   3.750   1.657   3.568
 9373SOL    HW129018   3.668   1.714   3.567
 9373SOL    HW229019   3.822   1.702   3.621
 9374SOL     OW29020   5.065   3.382   0.079
 9374SOL    HW129021   5.147   3.343   0.120
 9374SOL    HW229022   5.087   3.421   7.009
 9375SOL     OW29023   0.394   1.415   3.367
 9375SOL    HW129024   0.450   1.332   3.368
 9375SOL    HW229025   0.358   1.432   3.459
 9376SOL     OW29026   2.427   3.533   1.183
 9376SOL    HW129027   2.334   3.505   1.161
 9376SOL    HW229028   2.452   3.499   1.273
 9377SOL     OW29029   6.007   5.797   3.841
 9377SOL    HW129030   5.911   5.821   3.846
 9377SOL    HW229031   6.060   5.877   3.811
 9378SOL     OW29032   2.178   6.933   0.497
 9378SOL    HW129033   2.252   6.942   0.430
 9378SOL    HW229034   2.096   6.980   0.463
 9379SOL     OW29035   5.018   5.200   4.115
 9379SOL    HW129036   4.923   5.232   4.116
 9379SOL    HW229037   5.043   5.171   4.023
 9380SOL     OW29038   5.822   0.099   5.532
 9380SOL    HW129039   5.742   0.093   5.472
 9380SOL    HW229040   5.792   0.111   5.626
 9381SOL     OW29041   2.272   1.586   5.715
 9381SOL    HW129042   2.288   1.488   5.716
 9381SOL    HW229043   2.351   1.633   5.756
 9382SOL     OW29044   4.556   2.025   2.485
 9382SOL    HW129045   4.525   2.027   2.390
 9382SOL    HW229046   4.478   2.008   2.545
 9383SOL     OW29047   4.011   6.501   4.432
 9383SOL    HW129048   3.916   6.473   4.443
 9383SOL    HW229049   4.045   6.536   4.519
 9384SOL     OW29050   5.021   6.366   2.628
 9384SOL    HW129051   4.999   6.335   2.536
 9384SOL    HW229052   4.939   6.364   2.685
 9385SOL     OW29053   3.764   1.308   3.470
 9385SOL    HW129054   3.745   1.303   3.372
 9385SOL    HW229055   3.798   1.219   3.502
 9386SOL     OW29056   2.855   6.731   5.579
 9386SOL    HW129057   2.793   6.706   5.504
 9386SOL    HW229058   2.839   6.670   5.657
 9387SOL     OW29059   3.279   6.582   0.812
 9387SOL    HW129060   3.247   6.549   0.723
 9387SOL    HW229061   3.287   6.504   0.875
 9388SOL     OW29062   0.414   0.773   2.851
 9388SOL    HW129063   0.423   0.872   2.863
 9388SOL    HW229064   0.485   0.740   2.789
 9389SOL     OW29065   2.760   1.028   5.895
 9389SOL    HW129066   2.737   1.125   5.902
 9389SOL    HW229067   2.824   1.003   5.967
 9390SOL     OW29068   2.806   5.192   2.359
 9390SOL    HW129069   2.861   5.167   2.279
 9390SOL    HW229070   2.867   5.217   2.435
 9391SOL     OW29071   0.612   1.219   5.440
 9391SOL    HW129072   0.578   1.146   5.499
 9391SOL    HW229073   0.678   1.275   5.489
 9392SOL     OW29074   1.783   6.285   4.851
 9392SOL    HW129075   1.756   6.250   4.941
 9392SOL    HW229076   1.714   6.350   4.819
 9393SOL     OW29077   3.416   2.313   5.368
 9393SOL    HW129078   3.363   2.393   5.338
 9393SOL    HW229079   3.365   2.263   5.437
 9394SOL     OW29080   6.189   2.958   2.678
 9394SOL    HW129081   6.180   2.999   2.587
 9394SOL    HW229082   6.194   3.030   2.747
 9395SOL     OW29083   2.331   3.217   1.059
 9395SOL    HW129084   2.372   3.255   0.976
 9395SOL    HW229085   2.276   3.287   1.104
 9396SOL     OW29086   6.185   6.928   6.014
 9396SOL    HW129087   6.136   6.930   6.101
 9396SOL    HW229088   6.129   6.970   5.943
 9397SOL     OW29089   2.370   6.844   0.658
 9397SOL    HW129090   2.423   6.927   0.672
 9397SOL    HW229091   2.291   6.865   0.600
 9398SOL     OW29092   2.589   1.734   6.637
 9398SOL    HW129093   2.565   1.750   6.541
 9398SOL    HW229094   2.649   1.655   6.644
 9399SOL     OW29095   0.021   0.867   5.752
 9399SOL    HW129096   0.069   0.885   5.838
 9399SOL    HW229097   0.071   0.798   5.700
 9400SOL     OW29098   5.585   3.394   2.499
 9400SOL    HW129099   5.649   3.342   2.442
 9400SOL    HW229100   5.636   3.461   2.554
 9401SOL     OW29101   2.877   6.182   3.484
 9401SOL    HW129102   2.902   6.134   3.568
 9401SOL    HW229103   2.844   6.116   3.416
 9402SOL     OW29104   2.424   5.041   6.246
 9402SOL    HW129105   2.456   4.973   6.311
 9402SOL    HW229106   2.327   5.058   6.260
 9403SOL     OW29107   5.440   1.331   3.772
 9403SOL    HW129108   5.377   1.267   3.815
 9403SOL    HW229109   5.483   1.389   3.841
 9404SOL     OW29110   1.489   5.049   6.668
 9404SOL    HW129111   1.533   5.138   6.676
 9404SOL    HW229112   1.420   5.051   6.596
 9405SOL     OW29113   6.376   0.148   0.960
 9405SOL    HW129114   6.332   0.213   1.022
 9405SOL    HW229115   6.326   0.147   0.873
 9406SOL     OW29116   0.475   1.172   4.899
 9406SOL    HW129117   0.486   1.077   4.871
 9406SOL    HW229118   0.495   1.181   4.997
 9407SOL     OW29119   2.868   5.998   3.194
 9407SOL    HW129120   2.884   6.046   3.108
 9407SOL    HW229121   2.947   5.942   3.216
 9408SOL     OW29122   3.635   1.499   6.447
 9408SOL    HW129123   3.577   1.546   6.381
 9408SOL    HW229124   3.623   1.540   6.538
 9409SOL     OW29125   5.698   3.547   4.089
 9409SOL    HW129126   5.599   3.544   4.108
 9409SOL    HW229127   5.748   3.519   4.171
 9410SOL     OW29128   4.556   6.282   2.640
 9410SOL    HW129129   4.500   6.361   2.666
 9410SOL    HW229130   4.577   6.287   2.542
 9411SOL     OW29131   4.282   5.618   0.447
 9411SOL    HW129132   4.329   5.677   0.512
 9411SOL    HW229133   4.263   5.669   0.363
 9412SOL     OW29134   0.026   2.656   1.568
 9412SOL    HW129135   6.958   2.608   1.572
 9412SOL    HW229136   0.099   2.594   1.600
 9413SOL     OW29137   4.304   5.885   5.356
 9413SOL    HW129138   4.374   5.895   5.286
 9413SOL    HW229139   4.336   5.925   5.442
 9414SOL     OW29140   3.447   1.265   2.789
 9414SOL    HW129141   3.367   1.299   2.839
 9414SOL    HW229142   3.497   1.342   2.751
 9415SOL     OW29143   1.918   6.471   2.614
 9415SOL    HW129144   1.859   6.543   2.649
 9415SOL    HW229145   1.874   6.426   2.536
 9416SOL     OW29146   1.303   2.122   1.870
 9416SOL    HW129147   1.242   2.130   1.791
 9416SOL    HW229148   1.265   2.055   1.934
 9417SOL     OW29149   2.346   5.498   5.710
 9417SOL    HW129150   2.384   5.418   5.754
 9417SOL    HW229151   2.268   5.532   5.763
 9418SOL     OW29152   2.125   4.928   1.425
 9418SOL    HW129153   2.052   4.989   1.393
 9418SOL    HW229154   2.199   4.927   1.358
 9419SOL     OW29155   3.041   6.592   5.115
 9419SOL    HW129156   3.017   6.640   5.031
 9419SOL    HW229157   3.069   6.658   5.185
 9420SOL     OW29158   6.785   1.302   4.833
 9420SOL    HW129159   6.747   1.321   4.742
 9420SOL    HW229160   6.760   1.210   4.860
 9421SOL     OW29161   0.682   4.160   5.442
 9421SOL    HW129162   0.655   4.201   5.529
 9421SOL    HW229163   0.655   4.221   5.367
 9422SOL     OW29164   5.447   0.280   2.210
 9422SOL    HW129165   5.505   0.271   2.129
 9422SOL    HW229166   5.358   0.238   2.191
 9423SOL     OW29167   3.640   0.637   4.192
 9423SOL    HW129168   3.673   0.669   4.280
 9423SOL    HW229169   3.718   0.615   4.133
 9424SOL     OW29170   3.835   6.961   4.815
 9424SOL    HW129171   3.862   6.948   4.720
 9424SOL    HW229172   3.742   6.926   4.828
 9425SOL     OW29173   1.186   3.917   5.171
 9425SOL    HW129174   1.199   3.924   5.072
 9425SOL    HW229175   1.248   3.980   5.217
 9426SOL     OW29176   3.175   0.551   6.592
 9426SOL    HW129177   3.135   0.464   6.624
 9426SOL    HW229178   3.275   0.543   6.590
 9427SOL     OW29179   2.673   5.160   5.196
 9427SOL    HW129180   2.747   5.107   5.153
 9427SOL    HW229181   2.700   5.256   5.202
 9428SOL     OW29182   6.066   0.365   3.050
 9428SOL    HW129183   5.989   0.303   3.038
 9428SOL    HW229184   6.130   0.327   3.117
 9429SOL     OW29185   0.787   4.194   2.166
 9429SOL    HW129186   0.702   4.173   2.215
 9429SOL    HW229187   0.857   4.126   2.189
 9430SOL     OW29188   6.933   6.234   1.742
 9430SOL    HW129189   0.003   6.257   1.706
 9430SOL    HW229190   6.941   6.159   1.808
 9431SOL     OW29191   6.894   4.045   0.726
 9431SOL    HW129192   6.847   3.963   0.758
 9431SOL    HW229193   6.927   4.031   0.632
 9432SOL     OW29194   6.210   0.215   3.212
 9432SOL    HW129195   6.213   0.124   3.171
 9432SOL    HW229196   6.229   0.208   3.310
 9433SOL     OW29197   3.538   4.739   5.295
 9433SOL    HW129198   3.449   4.781   5.275
 9433SOL    HW229199   3.611   4.803   5.270
 9434SOL     OW29200   5.608   4.571   2.618
 9434SOL    HW129201   5.578   4.658   2.656
 9434SOL    HW229202   5.705   4.557   2.640
 9435SOL     OW29203   1.553   1.242   4.393
 9435SOL    HW129204   1.513   1.253   4.484
 9435SOL    HW229205   1.481   1.231   4.326
 9436SOL     OW29206   2.438   3.659   0.421
 9436SOL    HW129207   2.486   3.745   0.403
 9436SOL    HW229208   2.498   3.597   0.471
 9437SOL     OW29209   1.841   5.131   3.446
 9437SOL    HW129210   1.933   5.170   3.435
 9437SOL    HW229211   1.790   5.186   3.512
 9438SOL     OW29212   0.622   6.538   2.373
 9438SOL    HW129213   0.586   6.588   2.294
 9438SOL    HW229214   0.574   6.450   2.381
 9439SOL     OW29215   0.223   3.065   2.193
 9439SOL    HW129216   0.249   3.063   2.096
 9439SOL    HW229217   0.290   3.118   2.245
 9440SOL     OW29218   4.926   6.206   5.666
 9440SOL    HW129219   5.018   6.179   5.693
 9440SOL    HW229220   4.878   6.128   5.627
 9441SOL     OW29221   2.037   5.066   4.980
 9441SOL    HW129222   2.025   4.984   5.035
 9441SOL    HW229223   1.948   5.099   4.949
 9442SOL     OW29224   6.772   2.804   0.402
 9442SOL    HW129225   6.797   2.867   0.476
 9442SOL    HW229226   6.849   2.744   0.382
 9443SOL     OW29227   1.980   4.249   0.915
 9443SOL    HW129228   1.971   4.150   0.925
 9443SOL    HW229229   2.039   4.284   0.988
 9444SOL     OW29230   0.452   3.042   0.168
 9444SOL    HW129231   0.457   3.134   0.208
 9444SOL    HW229232   0.505   2.979   0.224
 9445SOL     OW29233   5.668   3.917   2.115
 9445SOL    HW129234   5.763   3.914   2.146
 9445SOL    HW229235   5.608   3.900   2.193
 9446SOL     OW29236   6.223   6.321   2.043
 9446SOL    HW129237   6.248   6.276   2.129
 9446SOL    HW229238   6.285   6.397   2.026
 9447SOL     OW29239   5.309   3.760   1.932
 9447SOL    HW129240   5.306   3.670   1.890
 9447SOL    HW229241   5.267   3.756   2.023
 9448SOL     OW29242   5.750   6.369   0.221
 9448SOL    HW129243   5.745   6.441   0.151
 9448SOL    HW229244   5.843   6.364   0.256
 9449SOL     OW29245   5.880   5.260   5.702
 9449SOL    HW129246   5.955   5.327   5.698
 9449SOL    HW229247   5.811   5.284   5.634
 9450SOL     OW29248   2.669   5.148   4.350
 9450SOL    HW129249   2.746   5.157   4.287
 9450SOL    HW229250   2.692   5.192   4.437
 9451SOL     OW29251   4.212   5.618   6.470
 9451SOL    HW129252   4.224   5.717   6.458
 9451SOL    HW229253   4.301   5.576   6.488
 9452SOL     OW29254   2.161   3.870   1.445
 9452SOL    HW129255   2.206   3.942   1.394
 9452SOL    HW229256   2.199   3.781   1.418
 9453SOL     OW29257   2.427   5.299   2.835
 9453SOL    HW129258   2.351   5.360   2.857
 9453SOL    HW229259   2.391   5.216   2.791
 9454SOL     OW29260   1.442   4.026   5.839
 9454SOL    HW129261   1.509   3.978   5.782
 9454SOL    HW229262   1.357   3.973   5.843
 9455SOL     OW29263   3.481   1.177   3.064
 9455SOL    HW129264   3.483   1.103   2.997
 9455SOL    HW229265   3.390   1.184   3.104
 9456SOL     OW29266   1.221   3.597   0.776
 9456SOL    HW129267   1.297   3.538   0.801
 9456SOL    HW229268   1.237   3.689   0.811
 9457SOL     OW29269   1.609   3.005   0.079
 9457SOL    HW129270   1.620   3.100   0.107
 9457SOL    HW229271   1.662   2.946   0.140
 9458SOL     OW29272   6.622   5.086   5.573
 9458SOL    HW129273   6.692   5.152   5.548
 9458SOL    HW229274   6.663   5.015   5.632
 9459SOL     OW29275   6.214   5.335   1.496
 9459SOL    HW129276   6.213   5.430   1.526
 9459SOL    HW229277   6.301   5.317   1.449
 9460SOL     OW29278   0.673   1.879   4.971
 9460SOL    HW129279   0.659   1.898   4.874
 9460SOL    HW229280   0.727   1.953   5.012
 9461SOL     OW29281   0.863   0.792   3.295
 9461SOL    HW129282   0.875   0.693   3.302
 9461SOL    HW229283   0.771   0.812   3.262
 9462SOL     OW29284   1.146   3.088   2.159
 9462SOL    HW129285   1.103   3.142   2.086
 9462SOL    HW229286   1.099   3.105   2.245
 9463SOL     OW29287   6.414   0.913   0.245
 9463SOL    HW129288   6.429   0.815   0.231
 9463SOL    HW229289   6.377   0.952   0.161
 9464SOL     OW29290   5.750   6.840   6.177
 9464SOL    HW129291   5.722   6.827   6.273
 9464SOL    HW229292   5.708   6.769   6.120
 9465SOL     OW29293   6.459   0.317   3.647
 9465SOL    HW129294   6.488   0.406   3.611
 9465SOL    HW229295   6.522   0.288   3.719
 9466SOL     OW29296   2.496   3.110   6.020
 9466SOL    HW129297   2.538   3.033   5.971
 9466SOL    HW229298   2.401   3.121   5.990
 9467SOL     OW29299   1.933   2.685   1.973
 9467SOL    HW129300   1.967   2.605   2.021
 9467SOL    HW229301   1.863   2.731   2.029
 9468SOL     OW29302   6.582   2.776   5.534
 9468SOL    HW129303   6.601   2.839   5.610
 9468SOL    HW229304   6.488   2.787   5.504
 9469SOL     OW29305   6.537   5.917   2.240
 9469SOL    HW129306   6.498   6.009   2.235
 9469SOL    HW229307   6.463   5.850   2.236
 9470SOL     OW29308   4.901   3.718   0.230
 9470SOL    HW129309   4.859   3.629   0.247
 9470SOL    HW229310   4.981   3.706   0.171
 9471SOL     OW29311   6.816   2.227   5.825
 9471SOL    HW129312   6.914   2.232   5.839
 9471SOL    HW229313   6.769   2.277   5.898
 9472SOL     OW29314   6.063   4.385   4.801
 9472SOL    HW129315   6.161   4.362   4.794
 9472SOL    HW229316   6.044   4.466   4.745
 9473SOL     OW29317   2.975   6.022   6.123
 9473SOL    HW129318   3.014   5.931   6.135
 9473SOL    HW229319   3.011   6.063   6.039
 9474SOL     OW29320   4.800   4.911   2.093
 9474SOL    HW129321   4.893   4.882   2.114
 9474SOL    HW229322   4.742   4.898   2.174
 9475SOL     OW29323   3.040   3.785   1.090
 9475SOL    HW129324   3.038   3.738   1.178
 9475SOL    HW229325   3.123   3.762   1.040
 9476SOL     OW29326   4.142   3.499   5.510
 9476SOL    HW129327   4.070   3.540   5.454
 9476SOL    HW229328   4.202   3.444   5.451
 9477SOL     OW29329   1.134   2.405   0.899
 9477SOL    HW129330   1.039   2.373   0.904
 9477SOL    HW229331   1.135   2.503   0.883
 9478SOL     OW29332   5.683   4.722   5.499
 9478SOL    HW129333   5.783   4.728   5.510
 9478SOL    HW229334   5.662   4.672   5.415
 9479SOL     OW29335   6.120   5.592   6.653
 9479SOL    HW129336   6.106   5.679   6.701
 9479SOL    HW229337   6.159   5.525   6.716
 9480SOL     OW29338   5.407   4.470   6.787
 9480SOL    HW129339   5.414   4.441   6.691
 9480SOL    HW229340   5.311   4.467   6.815
 9481SOL     OW29341   0.259   4.295   1.601
 9481SOL    HW129342   0.206   4.245   1.669
 9481SOL    HW229343   0.354   4.266   1.604
 9482SOL     OW29344   4.570   0.754   2.338
 9482SOL    HW129345   4.636   0.712   2.275
 9482SOL    HW229346   4.618   0.794   2.415
 9483SOL     OW29347   1.884   1.793   0.719
 9483SOL    HW129348   1.861   1.696   0.712
 9483SOL    HW229349   1.858   1.828   0.809
 9484SOL     OW29350   5.999   1.166   3.849
 9484SOL    HW129351   6.044   1.254   3.856
 9484SOL    HW229352   5.927   1.160   3.918
 9485SOL     OW29353   0.996   1.239   2.796
 9485SOL    HW129354   1.011   1.212   2.892
 9485SOL    HW229355   1.042   1.174   2.736
 9486SOL     OW29356   2.478   5.666   0.990
 9486SOL    HW129357   2.529   5.695   1.071
 9486SOL    HW229358   2.520   5.703   0.908
 9487SOL     OW29359   3.195   4.063   3.442
 9487SOL    HW129360   3.290   4.094   3.437
 9487SOL    HW229361   3.159   4.079   3.534
 9488SOL     OW29362   2.001   6.311   1.116
 9488SOL    HW129363   1.959   6.315   1.026
 9488SOL    HW229364   1.988   6.398   1.164
 9489SOL     OW29365   4.203   4.542   1.408
 9489SOL    HW129366   4.198   4.443   1.423
 9489SOL    HW229367   4.156   4.565   1.324
 9490SOL     OW29368   5.494   0.954   0.960
 9490SOL    HW129369   5.581   0.944   0.911
 9490SOL    HW229370   5.508   1.014   1.039
 9491SOL     OW29371   6.182   5.507   3.793
 9491SOL    HW129372   6.167   5.415   3.755
 9491SOL    HW229373   6.108   5.529   3.856
 9492SOL     OW29374   3.233   3.868   1.910
 9492SOL    HW129375   3.141   3.905   1.911
 9492SOL    HW229376   3.299   3.943   1.915
 9493SOL     OW29377   4.381   6.105   3.003
 9493SOL    HW129378   4.283   6.090   2.997
 9493SOL    HW229379   4.429   6.017   2.993
 9494SOL     OW29380   5.388   3.360   0.077
 9494SOL    HW129381   5.383   3.336   7.000
 9494SOL    HW229382   5.419   3.455   0.086
 9495SOL     OW29383   6.218   1.948   4.770
 9495SOL    HW129384   6.120   1.933   4.786
 9495SOL    HW229385   6.234   2.045   4.752
 9496SOL     OW29386   5.492   4.379   0.006
 9496SOL    HW129387   5.582   4.420   0.021
 9496SOL    HW229388   5.453   4.413   6.940
 9497SOL     OW29389   5.322   4.780   0.463
 9497SOL    HW129390   5.421   4.782   0.472
 9497SOL    HW229391   5.279   4.799   0.552
 9498SOL     OW29392   3.695   6.842   5.397
 9498SOL    HW129393   3.638   6.924   5.405
 9498SOL    HW229394   3.652   6.779   5.332
 9499SOL     OW29395   2.883   3.605   5.432
 9499SOL    HW129396   2.867   3.508   5.449
 9499SOL    HW229397   2.976   3.618   5.397
 9500SOL     OW29398   4.524   6.322   1.648
 9500SOL    HW129399   4.580   6.334   1.730
 9500SOL    HW229400   4.433   6.289   1.673
 9501SOL     OW29401   3.565   1.728   4.652
 9501SOL    HW129402   3.606   1.638   4.637
 9501SOL    HW229403   3.537   1.737   4.747
 9502SOL     OW29404   6.397   2.123   5.011
 9502SOL    HW129405   6.298   2.132   5.022
 9502SOL    HW229406   6.417   2.083   4.922
 9503SOL     OW29407   0.375   0.115   1.794
 9503SOL    HW129408   0.365   0.203   1.749
 9503SOL    HW229409   0.286   0.084   1.827
 9504SOL     OW29410   0.278   2.693   0.746
 9504SOL    HW129411   0.238   2.656   0.830
 9504SOL    HW229412   0.350   2.632   0.713
 9505SOL     OW29413   6.531   3.665   2.997
 9505SOL    HW129414   6.440   3.632   2.972
 9505SOL    HW229415   6.597   3.591   2.988
 9506SOL     OW29416   7.018   3.386   6.932
 9506SOL    HW129417   0.075   3.352   6.986
 9506SOL    HW229418   0.015   3.370   6.835
 9507SOL     OW29419   1.290   1.600   3.869
 9507SOL    HW129420   1.374   1.568   3.913
 9507SOL    HW229421   1.279   1.554   3.781
 9508SOL     OW29422   5.903   1.952   0.557
 9508SOL    HW129423   5.829   2.020   0.563
 9508SOL    HW229424   5.950   1.962   0.470
 9509SOL     OW29425   1.936   6.358   5.326
 9509SOL    HW129426   1.922   6.298   5.247
 9509SOL    HW229427   1.900   6.314   5.409
 9510SOL     OW29428   0.339   4.279   2.571
 9510SOL    HW129429   0.413   4.295   2.505
 9510SOL    HW229430   0.274   4.355   2.566
 9511SOL     OW29431   0.206   2.630   0.280
 9511SOL    HW129432   0.275   2.690   0.319
 9511SOL    HW229433   0.166   2.673   0.199
 9512SOL     OW29434   0.888   2.091   3.788
 9512SOL    HW129435   0.860   2.073   3.694
 9512SOL    HW229436   0.808   2.107   3.845
 9513SOL     OW29437   2.069   3.560   3.650
 9513SOL    HW129438   2.102   3.591   3.561
 9513SOL    HW229439   2.043   3.464   3.645
 9514SOL     OW29440   2.279   3.452   6.850
 9514SOL    HW129441   2.334   3.368   6.842
 9514SOL    HW229442   2.273   3.497   6.761
 9515SOL     OW29443   1.317   6.178   6.096
 9515SOL    HW129444   1.254   6.227   6.156
 9515SOL    HW229445   1.266   6.114   6.039
 9516SOL     OW29446   4.960   3.628   4.009
 9516SOL    HW129447   4.917   3.715   3.987
 9516SOL    HW229448   4.967   3.618   4.108
 9517SOL     OW29449   0.895   5.111   1.224
 9517SOL    HW129450   0.962   5.053   1.176
 9517SOL    HW229451   0.887   5.198   1.177
 9518SOL     OW29452   0.722   2.701   5.993
 9518SOL    HW129453   0.816   2.670   5.982
 9518SOL    HW229454   0.660   2.640   5.943
 9519SOL     OW29455   3.353   3.501   2.734
 9519SOL    HW129456   3.299   3.569   2.683
 9519SOL    HW229457   3.343   3.411   2.690
 9520SOL     OW29458   0.264   0.842   5.417
 9520SOL    HW129459   0.205   0.784   5.473
 9520SOL    HW229460   0.360   0.820   5.435
 9521SOL     OW29461   3.805   6.818   1.333
 9521SOL    HW129462   3.779   6.787   1.242
 9521SOL    HW229463   3.803   6.918   1.336
 9522SOL     OW29464   4.092   5.413   1.011
 9522SOL    HW129465   4.049   5.333   1.051
 9522SOL    HW229466   4.063   5.423   0.916
 9523SOL     OW29467   2.804   5.004   4.784
 9523SOL    HW129468   2.800   4.910   4.750
 9523SOL    HW229469   2.726   5.019   4.845
 9524SOL     OW29470   1.967   3.969   0.939
 9524SOL    HW129471   1.992   3.966   1.036
 9524SOL    HW229472   2.017   3.899   0.889
 9525SOL     OW29473   1.812   2.226   5.523
 9525SOL    HW129474   1.907   2.256   5.529
 9525SOL    HW229475   1.789   2.172   5.604
 9526SOL     OW29476   5.489   5.031   6.610
 9526SOL    HW129477   5.458   5.126   6.600
 9526SOL    HW229478   5.460   4.995   6.699
 9527SOL     OW29479   3.104   6.705   3.652
 9527SOL    HW129480   3.185   6.755   3.684
 9527SOL    HW229481   3.078   6.637   3.720
 9528SOL     OW29482   6.560   1.324   1.129
 9528SOL    HW129483   6.612   1.365   1.053
 9528SOL    HW229484   6.621   1.265   1.182
 9529SOL     OW29485   6.354   2.144   1.913
 9529SOL    HW129486   6.406   2.191   1.984
 9529SOL    HW229487   6.415   2.087   1.858
 9530SOL     OW29488   0.658   5.399   4.071
 9530SOL    HW129489   0.756   5.421   4.080
 9530SOL    HW229490   0.647   5.300   4.069
 9531SOL     OW29491   4.451   4.673   3.665
 9531SOL    HW129492   4.430   4.575   3.666
 9531SOL    HW229493   4.549   4.686   3.655
 9532SOL     OW29494   6.260   5.694   1.869
 9532SOL    HW129495   6.161   5.694   1.880
 9532SOL    HW229496   6.293   5.599   1.860
 9533SOL     OW29497   1.612   5.760   4.078
 9533SOL    HW129498   1.561   5.761   4.164
 9533SOL    HW229499   1.556   5.717   4.007
 9534SOL     OW29500   5.799   5.088   4.564
 9534SOL    HW129501   5.840   5.042   4.485
 9534SOL    HW229502   5.699   5.088   4.554
 9535SOL     OW29503   1.640   1.459   6.156
 9535SOL    HW129504   1.686   1.391   6.098
 9535SOL    HW229505   1.582   1.517   6.099
 9536SOL     OW29506   3.803   3.674   5.226
 9536SOL    HW129507   3.867   3.751   5.230
 9536SOL    HW229508   3.836   3.600   5.285
 9537SOL     OW29509   1.908   1.506   3.791
 9537SOL    HW129510   1.828   1.466   3.746
 9537SOL    HW229511   1.883   1.594   3.831
 9538SOL     OW29512   3.542   0.696   4.647
 9538SOL    HW129513   3.623   0.655   4.603
 9538SOL    HW229514   3.490   0.748   4.579
 9539SOL     OW29515   3.599   2.866   3.414
 9539SOL    HW129516   3.500   2.866   3.399
 9539SOL    HW229517   3.625   2.944   3.471
 9540SOL     OW29518   4.613   5.200   4.085
 9540SOL    HW129519   4.576   5.172   4.174
 9540SOL    HW229520   4.537   5.229   4.026
 9541SOL     OW29521   1.167   0.191   4.756
 9541SOL    HW129522   1.201   0.284   4.746
 9541SOL    HW229523   1.096   0.173   4.688
 9542SOL     OW29524   5.921   4.989   4.331
 9542SOL    HW129525   5.871   4.902   4.331
 9542SOL    HW229526   5.934   5.021   4.237
 9543SOL     OW29527   3.255   0.404   6.233
 9543SOL    HW129528   3.274   0.331   6.298
 9543SOL    HW229529   3.158   0.402   6.208
 9544SOL     OW29530   5.073   3.956   3.514
 9544SOL    HW129531   5.103   3.991   3.426
 9544SOL    HW229532   5.137   3.985   3.585
 9545SOL     OW29533   1.049   4.704   1.803
 9545SOL    HW129534   1.074   4.677   1.896
 9545SOL    HW229535   0.955   4.673   1.784
 9546SOL     OW29536   3.475   1.082   5.510
 9546SOL    HW129537   3.389   1.032   5.511
 9546SOL    HW229538   3.457   1.180   5.515
 9547SOL     OW29539   3.502   5.746   4.630
 9547SOL    HW129540   3.539   5.745   4.537
 9547SOL    HW229541   3.568   5.789   4.692
 9548SOL     OW29542   1.234   5.002   5.591
 9548SOL    HW129543   1.157   4.987   5.530
 9548SOL    HW229544   1.216   5.081   5.649
 9549SOL     OW29545   3.857   1.727   2.656
 9549SOL    HW129546   3.804   1.811   2.647
 9549SOL    HW229547   3.809   1.652   2.609
 9550SOL     OW29548   5.709   2.930   1.516
 9550SOL    HW129549   5.622   2.976   1.534
 9550SOL    HW229550   5.697   2.860   1.446
 9551SOL     OW29551   6.110   2.326   6.059
 9551SOL    HW129552   6.070   2.255   6.002
 9551SOL    HW229553   6.046   2.350   6.132
 9552SOL     OW29554   2.614   1.014   6.641
 9552SOL    HW129555   2.712   1.021   6.659
 9552SOL    HW229556   2.566   0.992   6.726
 9553SOL     OW29557   5.279   2.448   0.759
 9553SOL    HW129558   5.257   2.434   0.855
 9553SOL    HW229559   5.196   2.439   0.704
 9554SOL     OW29560   2.649   6.419   3.952
 9554SOL    HW129561   2.615   6.335   3.910
 9554SOL    HW229562   2.644   6.411   4.052
 9555SOL     OW29563   6.498   1.380   3.268
 9555SOL    HW129564   6.542   1.315   3.330
 9555SOL    HW229565   6.548   1.382   3.181
 9556SOL     OW29566   1.368   4.485   1.240
 9556SOL    HW129567   1.416   4.568   1.213
 9556SOL    HW229568   1.340   4.434   1.158
 9557SOL     OW29569   4.877   6.873   1.828
 9557SOL    HW129570   4.856   6.792   1.884
 9557SOL    HW229571   4.908   6.843   1.737
 9558SOL     OW29572   5.847   6.544   6.300
 9558SOL    HW129573   5.776   6.497   6.248
 9558SOL    HW229574   5.811   6.629   6.338
 9559SOL     OW29575   1.457   3.831   6.688
 9559SOL    HW129576   1.482   3.847   6.592
 9559SOL    HW229577   1.393   3.902   6.718
 9560SOL     OW29578   3.460   0.565   2.272
 9560SOL    HW129579   3.361   0.548   2.272
 9560SOL    HW229580   3.479   0.650   2.320
 9561SOL     OW29581   0.811   6.719   0.861
 9561SOL    HW129582   0.731   6.698   0.805
 9561SOL    HW229583   0.782   6.759   0.947
 9562SOL     OW29584   2.783   5.731   4.607
 9562SOL    HW129585   2.865   5.739   4.549
 9562SOL    HW229586   2.706   5.776   4.562
 9563SOL     OW29587   0.555   6.617   0.187
 9563SOL    HW129588   0.566   6.570   0.100
 9563SOL    HW229589   0.459   6.646   0.197
 9564SOL     OW29590   0.723   0.646   1.417
 9564SOL    HW129591   0.732   0.717   1.487
 9564SOL    HW229592   0.806   0.645   1.360
 9565SOL     OW29593   2.632   1.031   4.289
 9565SOL    HW129594   2.557   0.973   4.322
 9565SOL    HW229595   2.669   0.993   4.204
 9566SOL     OW29596   2.877   6.370   0.819
 9566SOL    HW129597   2.790   6.350   0.775
 9566SOL    HW229598   2.899   6.467   0.807
 9567SOL     OW29599   7.006   4.873   0.400
 9567SOL    HW129600   6.945   4.891   0.324
 9567SOL    HW229601   6.968   4.801   0.458
 9568SOL     OW29602   3.900   1.738   0.627
 9568SOL    HW129603   3.855   1.660   0.586
 9568SOL    HW229604   3.999   1.731   0.615
 9569SOL     OW29605   6.383   0.953   2.321
 9569SOL    HW129606   6.458   0.920   2.263
 9569SOL    HW229607   6.332   0.875   2.357
 9570SOL     OW29608   0.636   2.645   0.714
 9570SOL    HW129609   0.682   2.557   0.723
 9570SOL    HW229610   0.673   2.709   0.782
 9571SOL     OW29611   2.530   2.559   6.269
 9571SOL    HW129612   2.550   2.656   6.252
 9571SOL    HW229613   2.597   2.502   6.221
 9572SOL     OW29614   2.162   3.900   3.432
 9572SOL    HW129615   2.172   3.934   3.338
 9572SOL    HW229616   2.207   3.964   3.494
 9573SOL     OW29617   6.737   0.846   5.727
 9573SOL    HW129618   6.836   0.854   5.737
 9573SOL    HW229619   6.707   0.893   5.645
 9574SOL     OW29620   3.922   3.157   1.602
 9574SOL    HW129621   3.978   3.165   1.684
 9574SOL    HW229622   3.904   3.249   1.566
 9575SOL     OW29623   6.088   0.137   2.501
 9575SOL    HW129624   6.044   0.227   2.496
 9575SOL    HW229625   6.186   0.146   2.485
 9576SOL     OW29626   1.440   1.404   0.258
 9576SOL    HW129627   1.513   1.471   0.276
 9576SOL    HW229628   1.406   1.416   0.165
 9577SOL     OW29629   0.115   6.201   0.402
 9577SOL    HW129630   0.083   6.107   0.403
 9577SOL    HW229631   0.167   6.219   0.319
 9578SOL     OW29632   1.149   2.812   2.421
 9578SOL    HW129633   1.075   2.747   2.406
 9578SOL    HW229634   1.123   2.902   2.385
 9579SOL     OW29635   5.848   0.159   2.225
 9579SOL    HW129636   5.890   0.213   2.298
 9579SOL    HW229637   5.920   0.122   2.166
 9580SOL     OW29638   4.894   4.142   1.308
 9580SOL    HW129639   4.843   4.189   1.235
 9580SOL    HW229640   4.877   4.188   1.395
 9581SOL     OW29641   0.097   0.719   6.656
 9581SOL    HW129642   0.157   0.655   6.608
 9581SOL    HW229643   0.021   0.670   6.697
 9582SOL     OW29644   3.874   6.007   4.667
 9582SOL    HW129645   3.815   6.085   4.646
 9582SOL    HW229646   3.833   5.954   4.741
 9583SOL     OW29647   3.249   4.422   1.416
 9583SOL    HW129648   3.254   4.487   1.492
 9583SOL    HW229649   3.218   4.470   1.333
 9584SOL     OW29650   1.526   4.788   4.987
 9584SOL    HW129651   1.583   4.835   4.919
 9584SOL    HW229652   1.528   4.838   5.073
 9585SOL     OW29653   5.074   6.290   1.709
 9585SOL    HW129654   5.105   6.305   1.615
 9585SOL    HW229655   5.113   6.204   1.743
 9586SOL     OW29656   4.774   4.932   1.679
 9586SOL    HW129657   4.863   4.922   1.725
 9586SOL    HW229658   4.773   4.877   1.595
 9587SOL     OW29659   1.864   6.473   2.073
 9587SOL    HW129660   1.854   6.572   2.081
 9587SOL    HW229661   1.814   6.441   1.992
 9588SOL     OW29662   6.438   6.193   0.986
 9588SOL    HW129663   6.373   6.268   0.974
 9588SOL    HW229664   6.393   6.106   0.965
 9589SOL     OW29665   1.887   3.817   6.480
 9589SOL    HW129666   1.935   3.904   6.484
 9589SOL    HW229667   1.809   3.819   6.542
 9590SOL     OW29668   5.948   2.211   1.773
 9590SOL    HW129669   5.849   2.202   1.766
 9590SOL    HW229670   5.979   2.179   1.862
 9591SOL     OW29671   3.425   6.627   6.030
 9591SOL    HW129672   3.517   6.663   6.045
 9591SOL    HW229673   3.413   6.544   6.083
 9592SOL     OW29674   3.190   4.598   6.751
 9592SOL    HW129675   3.103   4.588   6.703
 9592SOL    HW229676   3.251   4.522   6.725
 9593SOL     OW29677   1.531   1.093   5.708
 9593SOL    HW129678   1.549   1.009   5.761
 9593SOL    HW229679   1.583   1.169   5.747
 9594SOL     OW29680   2.643   6.383   4.235
 9594SOL    HW129681   2.565   6.415   4.288
 9594SOL    HW229682   2.725   6.434   4.261
 9595SOL     OW29683   0.708   3.318   3.290
 9595SOL    HW129684   0.699   3.402   3.236
 9595SOL    HW229685   0.747   3.246   3.234
 9596SOL     OW29686   0.793   5.318   0.240
 9596SOL    HW129687   0.847   5.375   0.302
 9596SOL    HW229688   0.764   5.235   0.288
 9597SOL     OW29689   0.754   4.469   1.529
 9597SOL    HW129690   0.701   4.386   1.516
 9597SOL    HW229691   0.846   4.457   1.492
 9598SOL     OW29692   2.139   3.913   2.749
 9598SOL    HW129693   2.140   4.004   2.708
 9598SOL    HW229694   2.227   3.869   2.735
 9599SOL     OW29695   3.332   6.663   4.198
 9599SOL    HW129696   3.272   6.626   4.268
 9599SOL    HW229697   3.349   6.760   4.216
 9600SOL     OW29698   2.909   6.991   0.953
 9600SOL    HW129699   2.858   7.009   1.038
 9600SOL    HW229700   2.976   6.918   0.969
 9601SOL     OW29701   5.952   4.081   0.806
 9601SOL    HW129702   5.935   4.067   0.708
 9601SOL    HW229703   5.883   4.145   0.842
 9602SOL     OW29704   4.460   4.365   5.945
 9602SOL    HW129705   4.457   4.414   5.857
 9602SOL    HW229706   4.555   4.351   5.972
 9603SOL     OW29707   5.399   6.316   6.384
 9603SOL    HW129708   5.415   6.347   6.478
 9603SOL    HW229709   5.325   6.370   6.343
 9604SOL     OW29710   4.762   0.344   1.708
 9604SOL    HW129711   4.694   0.392   1.654
 9604SOL    HW229712   4.815   0.409   1.762
 9605SOL     OW29713   0.167   5.193   3.046
 9605SOL    HW129714   0.252   5.175   2.996
 9605SOL    HW229715   0.188   5.227   3.137
 9606SOL     OW29716   1.822   0.857   6.983
 9606SOL    HW129717   1.894   0.801   6.942
 9606SOL    HW229718   1.775   0.804   0.034
 9607SOL     OW29719   3.018   1.583   0.125
 9607SOL    HW129720   2.983   1.664   0.171
 9607SOL    HW229721   3.011   1.595   0.026
 9608SOL     OW29722   6.905   4.705   2.735
 9608SOL    HW129723   6.975   4.755   2.788
 9608SOL    HW229724   6.823   4.761   2.728
 9609SOL     OW29725   4.163   2.897   6.837
 9609SOL    HW129726   4.112   2.822   6.880
 9609SOL    HW229727   4.099   2.970   6.811
 9610SOL     OW29728   1.875   5.083   2.622
 9610SOL    HW129729   1.950   5.129   2.669
 9610SOL    HW229730   1.909   5.040   2.539
 9611SOL     OW29731   1.657   6.776   0.515
 9611SOL    HW129732   1.742   6.728   0.496
 9611SOL    HW229733   1.602   6.722   0.580
 9612SOL     OW29734   0.332   3.327   1.522
 9612SOL    HW129735   0.416   3.355   1.568
 9612SOL    HW229736   0.294   3.406   1.473
 9613SOL     OW29737   5.782   6.447   3.527
 9613SOL    HW129738   5.709   6.382   3.504
 9613SOL    HW229739   5.867   6.396   3.543
 9614SOL     OW29740   3.609   1.839   2.355
 9614SOL    HW129741   3.640   1.931   2.334
 9614SOL    HW229742   3.573   1.836   2.448
 9615SOL     OW29743   2.951   1.877   1.423
 9615SOL    HW129744   2.881   1.901   1.490
 9615SOL    HW229745   3.020   1.949   1.420
 9616SOL     OW29746   3.641   3.601   1.172
 9616SOL    HW129747   3.600   3.644   1.253
 9616SOL    HW229748   3.681   3.671   1.114
 9617SOL     OW29749   2.280   3.021   3.525
 9617SOL    HW129750   2.182   2.998   3.521
 9617SOL    HW229751   2.323   3.000   3.437
 9618SOL     OW29752   3.070   0.267   1.194
 9618SOL    HW129753   2.997   0.286   1.260
 9618SOL    HW229754   3.149   0.326   1.214
 9619SOL     OW29755   1.886   0.207   5.339
 9619SOL    HW129756   1.887   0.269   5.418
 9619SOL    HW229757   1.795   0.208   5.298
 9620SOL     OW29758   4.173   0.235   4.652
 9620SOL    HW129759   4.186   0.158   4.715
 9620SOL    HW229760   4.103   0.296   4.688
 9621SOL     OW29761   1.564   2.693   1.714
 9621SOL    HW129762   1.651   2.720   1.673
 9621SOL    HW229763   1.497   2.766   1.700
 9622SOL     OW29764   6.479   1.695   0.479
 9622SOL    HW129765   6.535   1.670   0.558
 9622SOL    HW229766   6.417   1.620   0.457
 9623SOL     OW29767   1.988   3.076   6.596
 9623SOL    HW129768   2.035   3.164   6.602
 9623SOL    HW229769   2.054   3.002   6.611
 9624SOL     OW29770   6.076   4.138   2.944
 9624SOL    HW129771   6.171   4.166   2.956
 9624SOL    HW229772   6.044   4.167   2.854
 9625SOL     OW29773   5.693   5.768   7.011
 9625SOL    HW129774   5.651   5.858   6.999
 9625SOL    HW229775   5.670   5.733   0.081
 9626SOL     OW29776   3.879   5.074   0.864
 9626SOL    HW129777   3.975   5.101   0.861
 9626SOL    HW229778   3.869   4.992   0.920
 9627SOL     OW29779   0.897   6.244   6.497
 9627SOL    HW129780   0.919   6.181   6.571
 9627SOL    HW229781   0.868   6.193   6.416
 9628SOL     OW29782   5.038   5.238   1.021
 9628SOL    HW129783   5.116   5.185   0.985
 9628SOL    HW229784   5.068   5.293   1.099
 9629SOL     OW29785   2.162   0.648   1.528
 9629SOL    HW129786   2.186   0.734   1.571
 9629SOL    HW229787   2.181   0.572   1.591
 9630SOL     OW29788   6.005   6.912   4.643
 9630SOL    HW129789   5.932   6.947   4.584
 9630SOL    HW229790   6.094   6.931   4.601
 9631SOL     OW29791   6.305   0.285   5.842
 9631SOL    HW129792   6.269   0.268   5.750
 9631SOL    HW229793   6.232   0.275   5.909
 9632SOL     OW29794   1.596   6.459   2.943
 9632SOL    HW129795   1.521   6.474   3.008
 9632SOL    HW229796   1.645   6.376   2.968
 9633SOL     OW29797   5.807   4.801   6.863
 9633SOL    HW129798   5.732   4.784   6.799
 9633SOL    HW229799   5.782   4.874   6.926
 9634SOL     OW29800   1.499   6.553   3.992
 9634SOL    HW129801   1.508   6.572   4.090
 9634SOL    HW229802   1.583   6.578   3.945
 9635SOL     OW29803   2.546   5.442   5.079
 9635SOL    HW129804   2.478   5.514   5.069
 9635SOL    HW229805   2.511   5.370   5.139
 9636SOL     OW29806   4.159   1.511   5.738
 9636SOL    HW129807   4.259   1.512   5.731
 9636SOL    HW229808   4.122   1.590   5.690
 9637SOL     OW29809   2.408   2.366   6.398
 9637SOL    HW129810   2.309   2.359   6.383
 9637SOL    HW229811   2.440   2.455   6.366
 9638SOL     OW29812   6.480   3.634   5.604
 9638SOL    HW129813   6.394   3.650   5.557
 9638SOL    HW229814   6.463   3.597   5.695
 9639SOL     OW29815   4.259   1.849   2.316
 9639SOL    HW129816   4.175   1.872   2.364
 9639SOL    HW229817   4.319   1.798   2.378
 9640SOL     OW29818   2.453   2.631   3.611
 9640SOL    HW129819   2.480   2.616   3.516
 9640SOL    HW229820   2.356   2.653   3.616
 9641SOL     OW29821   5.017   7.012   0.322
 9641SOL    HW129822   4.985   0.085   0.308
 9641SOL    HW229823   5.115   7.013   0.340
 9642SOL     OW29824   2.393   0.237   4.699
 9642SOL    HW129825   2.332   0.245   4.777
 9642SOL    HW229826   2.482   0.276   4.723
 9643SOL     OW29827   5.524   3.962   3.617
 9643SOL    HW129828   5.519   3.894   3.544
 9643SOL    HW229829   5.531   4.053   3.577
 9644SOL     OW29830   1.156   2.825   6.246
 9644SOL    HW129831   1.205   2.767   6.181
 9644SOL    HW229832   1.221   2.882   6.297
 9645SOL     OW29833   3.229   5.236   5.411
 9645SOL    HW129834   3.327   5.220   5.413
 9645SOL    HW229835   3.191   5.202   5.325
 9646SOL     OW29836   4.187   4.976   2.686
 9646SOL    HW129837   4.260   5.006   2.624
 9646SOL    HW229838   4.098   5.005   2.648
 9647SOL     OW29839   6.346   3.692   1.442
 9647SOL    HW129840   6.300   3.608   1.414
 9647SOL    HW229841   6.445   3.677   1.445
 9648SOL     OW29842   3.926   1.640   1.231
 9648SOL    HW129843   3.960   1.665   1.141
 9648SOL    HW229844   3.920   1.723   1.288
 9649SOL     OW29845   2.965   6.346   6.908
 9649SOL    HW129846   2.971   6.251   6.877
 9649SOL    HW229847   2.904   6.397   6.847
 9650SOL     OW29848   6.788   5.564   2.719
 9650SOL    HW129849   6.870   5.520   2.755
 9650SOL    HW229850   6.814   5.626   2.644
 9651SOL     OW29851   0.218   1.632   5.916
 9651SOL    HW129852   0.212   1.634   6.015
 9651SOL    HW229853   0.166   1.554   5.881
 9652SOL     OW29854   0.988   5.117   2.124
 9652SOL    HW129855   1.051   5.151   2.194
 9652SOL    HW229856   0.994   5.017   2.120
 9653SOL     OW29857   4.388   4.674   4.514
 9653SOL    HW129858   4.404   4.622   4.598
 9653SOL    HW229859   4.467   4.664   4.454
 9654SOL     OW29860   2.680   2.490   1.796
 9654SOL    HW129861   2.617   2.414   1.782
 9654SOL    HW229862   2.772   2.454   1.813
 9655SOL     OW29863   6.893   1.742   6.160
 9655SOL    HW129864   6.835   1.824   6.157
 9655SOL    HW229865   6.981   1.766   6.199
 9656SOL     OW29866   2.762   0.065   2.600
 9656SOL    HW129867   2.842   0.036   2.652
 9656SOL    HW229868   2.767   0.027   2.508
 9657SOL     OW29869   5.678   1.116   4.605
 9657SOL    HW129870   5.582   1.146   4.606
 9657SOL    HW229871   5.684   1.024   4.567
 9658SOL     OW29872   6.321   2.653   2.551
 9658SOL    HW129873   6.371   2.712   2.615
 9658SOL    HW229874   6.245   2.609   2.599
 9659SOL     OW29875   0.282   4.816   0.334
 9659SOL    HW129876   0.260   4.812   0.431
 9659SOL    HW229877   0.333   4.735   0.307
 9660SOL     OW29878   0.657   5.738   1.238
 9660SOL    HW129879   0.713   5.664   1.276
 9660SOL    HW229880   0.609   5.704   1.157
 9661SOL     OW29881   4.419   6.964   0.830
 9661SOL    HW129882   4.339   0.004   0.827
 9661SOL    HW229883   4.435   6.934   0.924
 9662SOL     OW29884   5.847   2.041   4.905
 9662SOL    HW129885   5.844   2.085   4.995
 9662SOL    HW229886   5.821   2.107   4.835
 9663SOL     OW29887   1.817   5.243   3.143
 9663SOL    HW129888   1.849   5.337   3.156
 9663SOL    HW229889   1.732   5.229   3.194
 9664SOL     OW29890   4.566   6.716   2.849
 9664SOL    HW129891   4.553   6.710   2.750
 9664SOL    HW229892   4.538   6.806   2.881
 9665SOL     OW29893   5.739   4.808   4.838
 9665SOL    HW129894   5.776   4.901   4.841
 9665SOL    HW229895   5.790   4.750   4.902
 9666SOL     OW29896   5.798   4.578   1.974
 9666SOL    HW129897   5.820   4.620   2.062
 9666SOL    HW229898   5.883   4.554   1.926
 9667SOL     OW29899   3.596   3.386   3.757
 9667SOL    HW129900   3.538   3.308   3.734
 9667SOL    HW229901   3.554   3.439   3.831
 9668SOL     OW29902   0.140   1.264   5.699
 9668SOL    HW129903   0.202   1.296   5.627
 9668SOL    HW229904   0.082   1.192   5.662
 9669SOL     OW29905   0.492   0.512   0.298
 9669SOL    HW129906   0.532   0.434   0.347
 9669SOL    HW229907   0.402   0.485   0.263
 9670SOL     OW29908   5.009   4.345   6.367
 9670SOL    HW129909   4.943   4.317   6.298
 9670SOL    HW229910   5.038   4.264   6.420
 9671SOL     OW29911   0.109   5.314   5.465
 9671SOL    HW129912   0.150   5.392   5.417
 9671SOL    HW229913   0.150   5.229   5.433
 9672SOL     OW29914   1.144   6.182   4.496
 9672SOL    HW129915   1.049   6.191   4.526
 9672SOL    HW229916   1.204   6.176   4.576
 9673SOL     OW29917   3.849   3.906   6.582
 9673SOL    HW129918   3.878   3.826   6.634
 9673SOL    HW229919   3.772   3.882   6.524
 9674SOL     OW29920   3.219   6.416   1.539
 9674SOL    HW129921   3.204   6.333   1.593
 9674SOL    HW229922   3.139   6.434   1.482
 9675SOL     OW29923   6.549   1.562   2.452
 9675SOL    HW129924   6.588   1.644   2.409
 9675SOL    HW229925   6.494   1.512   2.385
 9676SOL     OW29926   0.860   3.345   4.877
 9676SOL    HW129927   0.833   3.435   4.843
 9676SOL    HW229928   0.960   3.338   4.878
 9677SOL     OW29929   2.128   4.301   5.889
 9677SOL    HW129930   2.152   4.328   5.982
 9677SOL    HW229931   2.163   4.209   5.871
 9678SOL     OW29932   4.164   3.377   3.006
 9678SOL    HW129933   4.130   3.333   3.089
 9678SOL    HW229934   4.249   3.333   2.977
 9679SOL     OW29935   1.690   2.466   1.787
 9679SOL    HW129936   1.631   2.546   1.775
 9679SOL    HW229937   1.781   2.496   1.818
 9680SOL     OW29938   5.912   5.934   3.322
 9680SOL    HW129939   5.981   6.005   3.336
 9680SOL    HW229940   5.843   5.939   3.394
 9681SOL     OW29941   1.881   0.993   1.498
 9681SOL    HW129942   1.915   0.904   1.466
 9681SOL    HW229943   1.909   1.008   1.593
 9682SOL     OW29944   5.482   4.856   3.419
 9682SOL    HW129945   5.580   4.852   3.443
 9682SOL    HW229946   5.428   4.828   3.498
 9683SOL     OW29947   3.710   5.271   0.318
 9683SOL    HW129948   3.773   5.340   0.353
 9683SOL    HW229949   3.666   5.304   0.234
 9684SOL     OW29950   0.349   3.705   5.085
 9684SOL    HW129951   0.435   3.655   5.087
 9684SOL    HW229952   0.320   3.718   4.991
 9685SOL     OW29953   2.163   3.089   0.871
 9685SOL    HW129954   2.212   3.101   0.958
 9685SOL    HW229955   2.087   3.154   0.866
 9686SOL     OW29956   6.515   0.599   1.538
 9686SOL    HW129957   6.570   0.681   1.554
 9686SOL    HW229958   6.570   0.518   1.558
 9687SOL     OW29959   2.264   1.314   3.130
 9687SOL    HW129960   2.236   1.401   3.091
 9687SOL    HW229961   2.359   1.321   3.163
 9688SOL     OW29962   0.073   1.881   2.897
 9688SOL    HW129963   0.042   1.886   2.802
 9688SOL    HW229964   0.014   1.939   2.954
 9689SOL     OW29965   2.685   6.051   6.849
 9689SOL    HW129966   2.784   6.062   6.835
 9689SOL    HW229967   2.636   6.078   6.767
 9690SOL     OW29968   6.016   4.875   0.331
 9690SOL    HW129969   6.027   4.961   0.381
 9690SOL    HW229970   6.000   4.801   0.396
 9691SOL     OW29971   1.494   5.529   1.928
 9691SOL    HW129972   1.513   5.483   2.015
 9691SOL    HW229973   1.432   5.472   1.874
 9692SOL     OW29974   2.794   5.240   1.735
 9692SOL    HW129975   2.718   5.304   1.739
 9692SOL    HW229976   2.870   5.275   1.790
 9693SOL     OW29977   6.783   5.787   1.587
 9693SOL    HW129978   6.811   5.755   1.497
 9693SOL    HW229979   6.853   5.764   1.654
 9694SOL     OW29980   1.469   2.406   0.310
 9694SOL    HW129981   1.389   2.461   0.332
 9694SOL    HW229982   1.506   2.364   0.393
 9695SOL     OW29983   6.245   4.052   1.160
 9695SOL    HW129984   6.310   4.029   1.233
 9695SOL    HW229985   6.227   3.970   1.106
 9696SOL     OW29986   3.868   2.831   1.664
 9696SOL    HW129987   3.803   2.835   1.740
 9696SOL    HW229988   3.919   2.917   1.660
 9697SOL     OW29989   0.596   4.462   6.987
 9697SOL    HW129990   0.584   4.500   0.059
 9697SOL    HW229991   0.670   4.510   6.940
 9698SOL     OW29992   5.834   0.900   5.250
 9698SOL    HW129993   5.846   0.806   5.283
 9698SOL    HW229994   5.792   0.899   5.159
 9699SOL     OW29995   1.081   3.446   6.382
 9699SOL    HW129996   1.159   3.433   6.443
 9699SOL    HW229997   1.079   3.542   6.353
 9700SOL     OW29998   3.383   4.674   5.867
 9700SOL    HW129999   3.480   4.679   5.890
 9700SOL    HW230000   3.364   4.735   5.790
 9701SOL     OW30001   4.153   5.438   4.512
 9701SOL    HW130002   4.167   5.463   4.416
 9701SOL    HW230003   4.239   5.450   4.562
 9702SOL     OW30004   5.212   1.110   0.711
 9702SOL    HW130005   5.204   1.033   0.774
 9702SOL    HW230006   5.276   1.177   0.748
 9703SOL     OW30007   3.255   5.869   4.663
 9703SOL    HW130008   3.337   5.814   4.679
 9703SOL    HW230009   3.203   5.830   4.587
 9704SOL     OW30010   3.168   6.779   2.645
 9704SOL    HW130011   3.166   6.682   2.670
 9704SOL    HW230012   3.263   6.807   2.629
 9705SOL     OW30013   3.897   4.675   0.969
 9705SOL    HW130014   3.870   4.766   0.999
 9705SOL    HW230015   3.862   4.659   0.877
 9706SOL     OW30016   6.304   2.782   1.891
 9706SOL    HW130017   6.220   2.793   1.838
 9706SOL    HW230018   6.342   2.873   1.911
 9707SOL     OW30019   1.010   3.899   2.480
 9707SOL    HW130020   0.932   3.836   2.474
 9707SOL    HW230021   0.999   3.959   2.558
 9708SOL     OW30022   2.221   1.767   3.952
 9708SOL    HW130023   2.253   1.835   3.887
 9708SOL    HW230024   2.193   1.813   4.037
 9709SOL     OW30025   1.056   5.758   3.504
 9709SOL    HW130026   1.111   5.745   3.422
 9709SOL    HW230027   1.116   5.771   3.583
 9710SOL     OW30028   0.262   1.472   3.000
 9710SOL    HW130029   0.228   1.392   2.950
 9710SOL    HW230030   0.186   1.517   3.047
 9711SOL     OW30031   1.776   3.346   5.808
 9711SOL    HW130032   1.807   3.272   5.749
 9711SOL    HW230033   1.854   3.385   5.856
 9712SOL     OW30034   5.621   1.980   4.610
 9712SOL    HW130035   5.579   2.002   4.522
 9712SOL    HW230036   5.674   2.059   4.642
 9713SOL     OW30037   0.710   4.775   3.497
 9713SOL    HW130038   0.616   4.759   3.467
 9713SOL    HW230039   0.732   4.712   3.572
 9714SOL     OW30040   1.788   2.041   1.859
 9714SOL    HW130041   1.828   2.034   1.950
 9714SOL    HW230042   1.702   2.092   1.864
 9715SOL     OW30043   5.463   5.717   4.850
 9715SOL    HW130044   5.445   5.813   4.826
 9715SOL    HW230045   5.377   5.669   4.862
 9716SOL     OW30046   3.981   1.765   6.501
 9716SOL    HW130047   3.972   1.863   6.485
 9716SOL    HW230048   4.011   1.749   6.595
 9717SOL     OW30049   5.428   5.958   3.817
 9717SOL    HW130050   5.411   5.949   3.915
 9717SOL    HW230051   5.451   6.053   3.795
 9718SOL     OW30052   3.906   3.341   1.188
 9718SOL    HW130053   4.004   3.362   1.181
 9718SOL    HW230054   3.874   3.365   1.279
 9719SOL     OW30055   0.356   2.718   6.927
 9719SOL    HW130056   0.378   2.660   7.006
 9719SOL    HW230057   0.261   2.703   6.900
 9720SOL     OW30058   0.589   6.025   2.414
 9720SOL    HW130059   0.577   5.987   2.322
 9720SOL    HW230060   0.553   5.960   2.481
 9721SOL     OW30061   0.096   3.917   2.066
 9721SOL    HW130062   0.067   3.921   1.971
 9721SOL    HW230063   0.165   3.845   2.077
 9722SOL     OW30064   0.371   0.784   3.253
 9722SOL    HW130065   0.376   0.711   3.186
 9722SOL    HW230066   0.285   0.778   3.304
 9723SOL     OW30067   0.633   0.561   3.269
 9723SOL    HW130068   0.639   0.614   3.184
 9723SOL    HW230069   0.726   0.547   3.305
 9724SOL     OW30070   3.014   2.486   1.596
 9724SOL    HW130071   2.988   2.453   1.686
 9724SOL    HW230072   3.078   2.422   1.554
 9725SOL     OW30073   5.060   3.303   6.314
 9725SOL    HW130074   5.106   3.353   6.241
 9725SOL    HW230075   5.027   3.367   6.383
 9726SOL     OW30076   5.203   6.986   4.664
 9726SOL    HW130077   5.114   7.001   4.707
 9726SOL    HW230078   5.232   0.049   4.616
 9727SOL     OW30079   0.545   2.795   5.650
 9727SOL    HW130080   0.601   2.842   5.718
 9727SOL    HW230081   0.513   2.708   5.688
 9728SOL     OW30082   1.758   6.445   6.162
 9728SOL    HW130083   1.693   6.491   6.222
 9728SOL    HW230084   1.714   6.365   6.121
 9729SOL     OW30085   1.303   4.402   3.198
 9729SOL    HW130086   1.220   4.390   3.144
 9729SOL    HW230087   1.307   4.496   3.232
 9730SOL     OW30088   6.955   3.194   2.764
 9730SOL    HW130089   6.993   3.132   2.695
 9730SOL    HW230090   6.909   3.271   2.718
 9731SOL     OW30091   3.756   5.389   0.738
 9731SOL    HW130092   3.698   5.467   0.760
 9731SOL    HW230093   3.706   5.304   0.753
 9732SOL     OW30094   0.194   6.022   2.584
 9732SOL    HW130095   0.148   5.989   2.502
 9732SOL    HW230096   0.293   6.026   2.567
 9733SOL     OW30097   5.296   4.888   5.048
 9733SOL    HW130098   5.354   4.867   5.126
 9733SOL    HW230099   5.354   4.905   4.968
 9734SOL     OW30100   5.341   2.135   4.191
 9734SOL    HW130101   5.246   2.108   4.184
 9734SOL    HW230102   5.396   2.058   4.225
 9735SOL     OW30103   2.358   4.881   1.889
 9735SOL    HW130104   2.302   4.961   1.866
 9735SOL    HW230105   2.423   4.906   1.960
 9736SOL     OW30106   5.498   1.186   0.048
 9736SOL    HW130107   5.400   1.206   0.039
 9736SOL    HW230108   5.527   1.205   0.142
 9737SOL     OW30109   4.012   2.147   5.039
 9737SOL    HW130110   4.034   2.244   5.031
 9737SOL    HW230111   4.029   2.101   4.951
 9738SOL     OW30112   1.569   1.218   3.249
 9738SOL    HW130113   1.655   1.245   3.206
 9738SOL    HW230114   1.508   1.178   3.181
 9739SOL     OW30115   6.788   5.168   1.765
 9739SOL    HW130116   6.698   5.126   1.778
 9739SOL    HW230117   6.845   5.152   1.845
 9740SOL     OW30118   6.478   3.991   2.506
 9740SOL    HW130119   6.460   3.908   2.558
 9740SOL    HW230120   6.534   4.053   2.561
 9741SOL     OW30121   4.436   1.674   2.444
 9741SOL    HW130122   4.509   1.698   2.508
 9741SOL    HW230123   4.469   1.607   2.379
 9742SOL     OW30124   5.592   0.677   3.212
 9742SOL    HW130125   5.542   0.606   3.162
 9742SOL    HW230126   5.527   0.746   3.246
 9743SOL     OW30127   1.874   3.123   5.674
 9743SOL    HW130128   1.910   3.037   5.709
 9743SOL    HW230129   1.854   3.113   5.576
 9744SOL     OW30130   1.979   1.072   2.058
 9744SOL    HW130131   1.894   1.123   2.039
 9744SOL    HW230132   2.055   1.136   2.066
 9745SOL     OW30133   0.753   2.636   4.970
 9745SOL    HW130134   0.737   2.654   5.067
 9745SOL    HW230135   0.666   2.616   4.925
 9746SOL     OW30136   5.402   0.506   5.402
 9746SOL    HW130137   5.335   0.458   5.346
 9746SOL    HW230138   5.405   0.602   5.375
 9747SOL     OW30139   1.226   0.966   0.443
 9747SOL    HW130140   1.312   1.018   0.438
 9747SOL    HW230141   1.240   0.876   0.401
 9748SOL     OW30142   1.404   5.835   4.263
 9748SOL    HW130143   1.440   5.909   4.319
 9748SOL    HW230144   1.380   5.757   4.322
 9749SOL     OW30145   1.477   3.705   4.455
 9749SOL    HW130146   1.539   3.627   4.456
 9749SOL    HW230147   1.389   3.677   4.417
 9750SOL     OW30148   4.872   4.940   3.332
 9750SOL    HW130149   4.909   5.019   3.283
 9750SOL    HW230150   4.939   4.905   3.396
 9751SOL     OW30151   1.545   2.083   0.533
 9751SOL    HW130152   1.480   2.158   0.527
 9751SOL    HW230153   1.586   2.082   0.624
 9752SOL     OW30154   4.098   1.070   5.868
 9752SOL    HW130155   4.011   1.054   5.822
 9752SOL    HW230156   4.100   1.163   5.905
 9753SOL     OW30157   6.743   5.601   5.184
 9753SOL    HW130158   6.660   5.656   5.182
 9753SOL    HW230159   6.761   5.564   5.093
 9754SOL     OW30160   1.277   1.612   0.007
 9754SOL    HW130161   1.220   1.530   7.020
 9754SOL    HW230162   1.355   1.604   6.964
 9755SOL     OW30163   4.159   3.608   5.004
 9755SOL    HW130164   4.196   3.666   4.931
 9755SOL    HW230165   4.080   3.557   4.969
 9756SOL     OW30166   5.859   3.327   0.135
 9756SOL    HW130167   5.823   3.400   0.193
 9756SOL    HW230168   5.784   3.267   0.108
 9757SOL     OW30169   5.498   2.794   3.783
 9757SOL    HW130170   5.501   2.757   3.875
 9757SOL    HW230171   5.520   2.892   3.785
 9758SOL     OW30172   2.288   0.522   6.985
 9758SOL    HW130173   2.200   0.499   6.943
 9758SOL    HW230174   2.300   0.622   6.982
 9759SOL     OW30175   2.619   6.218   1.554
 9759SOL    HW130176   2.588   6.197   1.646
 9759SOL    HW230177   2.716   6.195   1.545
 9760SOL     OW30178   5.152   4.785   5.449
 9760SOL    HW130179   5.197   4.706   5.406
 9760SOL    HW230180   5.220   4.838   5.500
 9761SOL     OW30181   5.309   5.300   1.904
 9761SOL    HW130182   5.345   5.363   1.835
 9761SOL    HW230183   5.309   5.345   1.993
 9762SOL     OW30184   2.552   2.027   5.254
 9762SOL    HW130185   2.607   2.110   5.260
 9762SOL    HW230186   2.611   1.949   5.235
 9763SOL     OW30187   3.553   1.313   1.590
 9763SOL    HW130188   3.572   1.392   1.648
 9763SOL    HW230189   3.474   1.333   1.532
 9764SOL     OW30190   1.545   2.706   2.866
 9764SOL    HW130191   1.586   2.737   2.780
 9764SOL    HW230192   1.475   2.638   2.847
 9765SOL     OW30193   0.150   1.883   5.860
 9765SOL    HW130194   0.180   1.936   5.939
 9765SOL    HW230195   0.166   1.785   5.878
 9766SOL     OW30196   2.973   0.265   3.044
 9766SOL    HW130197   2.905   0.268   2.971
 9766SOL    HW230198   2.964   0.179   3.095
 9767SOL     OW30199   5.246   0.616   5.071
 9767SOL    HW130200   5.180   0.660   5.132
 9767SOL    HW230201   5.264   0.523   5.103
 9768SOL     OW30202   4.948   1.968   2.269
 9768SOL    HW130203   4.904   1.955   2.180
 9768SOL    HW230204   4.943   2.065   2.294
 9769SOL     OW30205   1.345   2.067   1.377
 9769SOL    HW130206   1.336   2.014   1.461
 9769SOL    HW230207   1.394   2.013   1.308
 9770SOL     OW30208   5.130   5.076   5.995
 9770SOL    HW130209   5.205   5.111   5.939
 9770SOL    HW230210   5.081   5.005   5.944
 9771SOL     OW30211   4.503   5.321   6.695
 9771SOL    HW130212   4.489   5.415   6.725
 9771SOL    HW230213   4.601   5.305   6.680
 9772SOL     OW30214   6.843   6.944   2.167
 9772SOL    HW130215   6.930   6.989   2.183
 9772SOL    HW230216   6.859   6.850   2.136
 9773SOL     OW30217   5.862   5.484   3.622
 9773SOL    HW130218   5.924   5.494   3.700
 9773SOL    HW230219   5.794   5.557   3.625
 9774SOL     OW30220   6.000   5.011   4.072
 9774SOL    HW130221   6.007   5.010   3.972
 9774SOL    HW230222   6.065   4.947   4.110
 9775SOL     OW30223   1.700   2.685   4.445
 9775SOL    HW130224   1.611   2.664   4.406
 9775SOL    HW230225   1.716   2.626   4.525
 9776SOL     OW30226   6.672   5.422   4.388
 9776SOL    HW130227   6.573   5.424   4.381
 9776SOL    HW230228   6.712   5.487   4.323
 9777SOL     OW30229   5.454   4.169   5.826
 9777SOL    HW130230   5.370   4.127   5.793
 9777SOL    HW230231   5.497   4.110   5.893
 9778SOL     OW30232   4.855   6.780   2.847
 9778SOL    HW130233   4.773   6.730   2.874
 9778SOL    HW230234   4.832   6.841   2.771
 9779SOL     OW30235   2.893   1.405   5.569
 9779SOL    HW130236   2.803   1.429   5.604
 9779SOL    HW230237   2.938   1.486   5.534
 9780SOL     OW30238   2.663   3.157   0.777
 9780SOL    HW130239   2.717   3.139   0.695
 9780SOL    HW230240   2.648   3.072   0.827
 9781SOL     OW30241   2.591   4.784   5.082
 9781SOL    HW130242   2.542   4.786   4.995
 9781SOL    HW230243   2.672   4.725   5.074
 9782SOL     OW30244   6.141   0.499   1.527
 9782SOL    HW130245   6.222   0.511   1.470
 9782SOL    HW230246   6.123   0.583   1.577
 9783SOL     OW30247   5.977   1.828   2.355
 9783SOL    HW130248   5.960   1.735   2.324
 9783SOL    HW230249   5.976   1.830   2.455
 9784SOL     OW30250   4.524   1.555   2.891
 9784SOL    HW130251   4.452   1.625   2.892
 9784SOL    HW230252   4.606   1.592   2.934
 9785SOL     OW30253   6.925   2.851   2.778
 9785SOL    HW130254   6.834   2.865   2.740
 9785SOL    HW230255   6.992   2.901   2.725
 9786SOL     OW30256   2.273   5.424   5.461
 9786SOL    HW130257   2.177   5.398   5.472
 9786SOL    HW230258   2.313   5.443   5.551
 9787SOL     OW30259   4.948   4.026   1.853
 9787SOL    HW130260   5.045   4.044   1.838
 9787SOL    HW230261   4.928   3.931   1.827
 9788SOL     OW30262   6.374   0.858   4.542
 9788SOL    HW130263   6.428   0.774   4.530
 9788SOL    HW230264   6.308   0.845   4.616
 9789SOL     OW30265   2.492   5.781   5.120
 9789SOL    HW130266   2.449   5.693   5.141
 9789SOL    HW230267   2.574   5.765   5.065
 9790SOL     OW30268   5.493   1.891   4.185
 9790SOL    HW130269   5.557   1.823   4.224
 9790SOL    HW230270   5.402   1.851   4.180
 9791SOL     OW30271   1.135   1.069   1.545
 9791SOL    HW130272   1.135   1.128   1.465
 9791SOL    HW230273   1.229   1.054   1.576
 9792SOL     OW30274   4.433   4.731   1.088
 9792SOL    HW130275   4.451   4.768   1.179
 9792SOL    HW230276   4.404   4.805   1.027
 9793SOL     OW30277   5.964   5.918   2.040
 9793SOL    HW130278   5.880   5.968   2.056
 9793SOL    HW230279   6.039   5.982   2.026
 9794SOL     OW30280   5.237   2.994   6.467
 9794SOL    HW130281   5.275   2.952   6.385
 9794SOL    HW230282   5.143   2.962   6.481
 9795SOL     OW30283   1.706   3.358   3.719
 9795SOL    HW130284   1.754   3.443   3.741
 9795SOL    HW230285   1.764   3.302   3.659
 9796SOL     OW30286   2.961   5.342   0.442
 9796SOL    HW130287   3.012   5.276   0.388
 9796SOL    HW230288   2.950   5.307   0.535
 9797SOL     OW30289   4.735   3.380   6.083
 9797SOL    HW130290   4.791   3.449   6.128
 9797SOL    HW230291   4.752   3.383   5.984
 9798SOL     OW30292   2.864   0.734   1.002
 9798SOL    HW130293   2.870   0.815   1.060
 9798SOL    HW230294   2.927   0.664   1.036
 9799SOL     OW30295   2.957   3.210   2.602
 9799SOL    HW130296   3.020   3.132   2.607
 9799SOL    HW230297   2.871   3.186   2.648
 9800SOL     OW30298   4.199   5.689   6.784
 9800SOL    HW130299   4.121   5.721   6.730
 9800SOL    HW230300   4.165   5.653   6.871
 9801SOL     OW30301   3.681   6.127   6.817
 9801SOL    HW130302   3.660   6.164   6.726
 9801SOL    HW230303   3.769   6.163   6.848
 9802SOL     OW30304   0.453   3.371   1.119
 9802SOL    HW130305   0.372   3.332   1.165
 9802SOL    HW230306   0.438   3.372   1.020
 9803SOL     OW30307   5.969   0.299   6.732
 9803SOL    HW130308   5.886   0.348   6.707
 9803SOL    HW230309   6.037   0.365   6.767
 9804SOL     OW30310   6.305   5.265   4.059
 9804SOL    HW130311   6.211   5.291   4.079
 9804SOL    HW230312   6.353   5.342   4.017
 9805SOL     OW30313   1.749   5.305   6.921
 9805SOL    HW130314   1.704   5.216   6.910
 9805SOL    HW230315   1.836   5.305   6.871
 9806SOL     OW30316   0.054   2.580   2.452
 9806SOL    HW130317   0.069   2.575   2.551
 9806SOL    HW230318   7.001   2.646   2.433
 9807SOL     OW30319   3.905   2.030   0.148
 9807SOL    HW130320   3.941   1.980   0.227
 9807SOL    HW230321   3.888   2.125   0.173
 9808SOL     OW30322   0.036   1.822   4.397
 9808SOL    HW130323   6.994   1.849   4.470
 9808SOL    HW230324   0.110   1.767   4.435
 9809SOL     OW30325   0.137   1.413   4.329
 9809SOL    HW130326   0.135   1.389   4.427
 9809SOL    HW230327   0.098   1.505   4.317
 9810SOL     OW30328   2.934   1.157   2.984
 9810SOL    HW130329   2.879   1.080   3.017
 9810SOL    HW230330   2.951   1.146   2.886
 9811SOL     OW30331   6.749   6.673   2.754
 9811SOL    HW130332   6.662   6.672   2.803
 9811SOL    HW230333   6.819   6.715   2.811
 9812SOL     OW30334   5.073   2.266   6.184
 9812SOL    HW130335   5.036   2.226   6.268
 9812SOL    HW230336   5.173   2.268   6.190
 9813SOL     OW30337   6.887   4.933   0.138
 9813SOL    HW130338   6.930   4.889   0.059
 9813SOL    HW230339   6.804   4.883   0.162
 9814SOL     OW30340   0.056   6.814   5.821
 9814SOL    HW130341   7.012   6.753   5.774
 9814SOL    HW230342   0.111   6.761   5.886
 9815SOL     OW30343   5.687   3.438   1.826
 9815SOL    HW130344   5.777   3.412   1.860
 9815SOL    HW230345   5.690   3.531   1.790
 9816SOL     OW30346   6.458   0.075   7.018
 9816SOL    HW130347   6.507   0.081   0.085
 9816SOL    HW230348   6.381   0.139   7.019
 9817SOL     OW30349   2.972   6.213   0.260
 9817SOL    HW130350   2.986   6.309   0.283
 9817SOL    HW230351   2.883   6.201   0.217
 9818SOL     OW30352   1.062   7.020   3.564
 9818SOL    HW130353   0.971   0.041   3.569
 9818SOL    HW230354   1.115   0.025   3.645
 9819SOL     OW30355   6.481   3.878   5.095
 9819SOL    HW130356   6.396   3.929   5.106
 9819SOL    HW230357   6.495   3.856   4.999
 9820SOL     OW30358   3.314   2.081   6.462
 9820SOL    HW130359   3.301   2.135   6.545
 9820SOL    HW230360   3.408   2.045   6.459
 9821SOL     OW30361   4.346   2.694   1.683
 9821SOL    HW130362   4.298   2.612   1.652
 9821SOL    HW230363   4.421   2.715   1.620
 9822SOL     OW30364   3.541   6.368   5.250
 9822SOL    HW130365   3.520   6.321   5.164
 9822SOL    HW230366   3.504   6.314   5.327
 9823SOL     OW30367   1.700   0.502   3.072
 9823SOL    HW130368   1.785   0.488   3.022
 9823SOL    HW230369   1.717   0.494   3.170
 9824SOL     OW30370   0.940   5.990   5.413
 9824SOL    HW130371   0.959   5.902   5.371
 9824SOL    HW230372   1.024   6.027   5.453
 9825SOL     OW30373   5.437   6.107   6.026
 9825SOL    HW130374   5.347   6.143   6.051
 9825SOL    HW230375   5.474   6.053   6.102
 9826SOL     OW30376   2.433   6.574   5.869
 9826SOL    HW130377   2.344   6.619   5.878
 9826SOL    HW230378   2.454   6.560   5.773
 9827SOL     OW30379   1.727   5.811   1.829
 9827SOL    HW130380   1.711   5.872   1.751
 9827SOL    HW230381   1.720   5.716   1.798
 9828SOL     OW30382   3.508   2.178   5.164
 9828SOL    HW130383   3.483   2.194   5.068
 9828SOL    HW230384   3.452   2.234   5.224
 9829SOL     OW30385   4.756   5.294   5.197
 9829SOL    HW130386   4.829   5.247   5.247
 9829SOL    HW230387   4.796   5.360   5.133
 9830SOL     OW30388   5.885   2.196   2.427
 9830SOL    HW130389   5.924   2.182   2.518
 9830SOL    HW230390   5.959   2.215   2.362
 9831SOL     OW30391   0.536   4.140   1.934
 9831SOL    HW130392   0.496   4.093   2.012
 9831SOL    HW230393   0.544   4.077   1.856
 9832SOL     OW30394   4.446   4.549   4.759
 9832SOL    HW130395   4.417   4.533   4.854
 9832SOL    HW230396   4.421   4.469   4.704
 9833SOL     OW30397   3.414   4.144   4.081
 9833SOL    HW130398   3.406   4.238   4.112
 9833SOL    HW230399   3.471   4.140   3.999
 9834SOL     OW30400   2.307   5.590   5.212
 9834SOL    HW130401   2.329   5.527   5.286
 9834SOL    HW230402   2.219   5.564   5.172
 9835SOL     OW30403   3.567   4.129   4.305
 9835SOL    HW130404   3.501   4.116   4.231
 9835SOL    HW230405   3.518   4.157   4.388
 9836SOL     OW30406   0.167   3.538   5.352
 9836SOL    HW130407   0.130   3.616   5.403
 9836SOL    HW230408   0.219   3.480   5.415
 9837SOL     OW30409   5.503   2.144   2.517
 9837SOL    HW130410   5.586   2.200   2.522
 9837SOL    HW230411   5.454   2.150   2.604
 9838SOL     OW30412   0.749   6.852   1.669
 9838SOL    HW130413   0.812   6.928   1.648
 9838SOL    HW230414   0.801   6.776   1.706
 9839SOL     OW30415   4.138   0.932   2.729
 9839SOL    HW130416   4.058   0.877   2.752
 9839SOL    HW230417   4.173   0.975   2.812
 9840SOL     OW30418   6.246   1.030   0.432
 9840SOL    HW130419   6.184   0.952   0.438
 9840SOL    HW230420   6.317   1.011   0.364
 9841SOL     OW30421   0.189   6.130   4.046
 9841SOL    HW130422   0.171   6.034   4.067
 9841SOL    HW230423   0.247   6.169   4.118
 9842SOL     OW30424   2.724   2.014   6.406
 9842SOL    HW130425   2.641   2.062   6.433
 9842SOL    HW230426   2.803   2.060   6.446
 9843SOL     OW30427   0.741   6.839   1.100
 9843SOL    HW130428   0.684   6.912   1.138
 9843SOL    HW230429   0.819   6.823   1.160
 9844SOL     OW30430   5.109   0.092   4.120
 9844SOL    HW130431   5.176   0.147   4.169
 9844SOL    HW230432   5.157   0.035   4.053
 9845SOL     OW30433   1.801   3.481   1.450
 9845SOL    HW130434   1.719   3.427   1.471
 9845SOL    HW230435   1.775   3.560   1.395
 9846SOL     OW30436   5.170   2.024   0.974
 9846SOL    HW130437   5.134   1.940   0.935
 9846SOL    HW230438   5.097   2.071   1.025
 9847SOL     OW30439   4.121   3.978   0.561
 9847SOL    HW130440   4.088   4.046   0.627
 9847SOL    HW230441   4.099   4.008   0.469
 9848SOL     OW30442   3.503   3.870   5.296
 9848SOL    HW130443   3.547   3.878   5.206
 9848SOL    HW230444   3.418   3.922   5.295
 9849SOL     OW30445   0.772   1.601   4.596
 9849SOL    HW130446   0.680   1.566   4.579
 9849SOL    HW230447   0.767   1.691   4.639
 9850SOL     OW30448   0.615   0.616   4.561
 9850SOL    HW130449   0.714   0.608   4.572
 9850SOL    HW230450   0.593   0.708   4.528
 9851SOL     OW30451   3.896   4.896   4.325
 9851SOL    HW130452   3.987   4.878   4.362
 9851SOL    HW230453   3.890   4.861   4.231
 9852SOL     OW30454   2.135   1.113   0.444
 9852SOL    HW130455   2.163   1.103   0.349
 9852SOL    HW230456   2.148   1.208   0.473
 9853SOL     OW30457   6.697   4.580   3.775
 9853SOL    HW130458   6.692   4.481   3.761
 9853SOL    HW230459   6.605   4.618   3.776
 9854SOL     OW30460   1.099   5.300   6.062
 9854SOL    HW130461   1.001   5.293   6.040
 9854SOL    HW230462   1.134   5.388   6.029
 9855SOL     OW30463   1.775   4.472   1.490
 9855SOL    HW130464   1.848   4.539   1.489
 9855SOL    HW230465   1.778   4.418   1.406
 9856SOL     OW30466   5.869   4.095   3.391
 9856SOL    HW130467   5.879   4.091   3.291
 9856SOL    HW230468   5.861   4.191   3.420
 9857SOL     OW30469   3.723   0.913   4.444
 9857SOL    HW130470   3.731   0.997   4.499
 9857SOL    HW230471   3.629   0.903   4.412
 9858SOL     OW30472   6.783   6.410   2.369
 9858SOL    HW130473   6.784   6.310   2.367
 9858SOL    HW230474   6.698   6.444   2.329
 9859SOL     OW30475   6.763   5.888   3.238
 9859SOL    HW130476   6.760   5.968   3.178
 9859SOL    HW230477   6.858   5.865   3.259
 9860SOL     OW30478   0.954   3.185   4.321
 9860SOL    HW130479   0.991   3.268   4.279
 9860SOL    HW230480   0.898   3.137   4.253
 9861SOL     OW30481   3.314   1.384   4.327
 9861SOL    HW130482   3.390   1.445   4.347
 9861SOL    HW230483   3.228   1.431   4.348
 9862SOL     OW30484   1.180   5.012   0.697
 9862SOL    HW130485   1.113   4.960   0.751
 9862SOL    HW230486   1.135   5.048   0.614
 9863SOL     OW30487   3.822   6.158   0.678
 9863SOL    HW130488   3.754   6.090   0.651
 9863SOL    HW230489   3.887   6.116   0.741
 9864SOL     OW30490   2.751   5.717   5.469
 9864SOL    HW130491   2.746   5.726   5.369
 9864SOL    HW230492   2.769   5.807   5.509
 9865SOL     OW30493   0.316   6.284   5.287
 9865SOL    HW130494   0.380   6.236   5.228
 9865SOL    HW230495   0.287   6.369   5.242
 9866SOL     OW30496   6.103   5.257   4.404
 9866SOL    HW130497   6.045   5.176   4.410
 9866SOL    HW230498   6.153   5.269   4.489
 9867SOL     OW30499   4.568   2.110   2.031
 9867SOL    HW130500   4.643   2.065   2.078
 9867SOL    HW230501   4.600   2.196   1.991
 9868SOL     OW30502   1.945   4.076   3.557
 9868SOL    HW130503   1.967   4.027   3.641
 9868SOL    HW230504   1.944   4.011   3.480
 9869SOL     OW30505   6.777   2.418   0.567
 9869SOL    HW130506   6.841   2.482   0.526
 9869SOL    HW230507   6.752   2.449   0.659
 9870SOL     OW30508   3.123   1.234   2.609
 9870SOL    HW130509   3.154   1.318   2.653
 9870SOL    HW230510   3.198   1.191   2.560
 9871SOL     OW30511   0.081   4.313   4.887
 9871SOL    HW130512   0.156   4.350   4.942
 9871SOL    HW230513   0.039   4.237   4.936
 9872SOL     OW30514   1.675   4.913   5.774
 9872SOL    HW130515   1.651   4.833   5.719
 9872SOL    HW230516   1.764   4.899   5.817
 9873SOL     OW30517   1.033   1.441   6.118
 9873SOL    HW130518   0.997   1.514   6.060
 9873SOL    HW230519   1.122   1.469   6.156
 9874SOL     OW30520   1.003   2.724   4.674
 9874SOL    HW130521   1.022   2.767   4.762
 9874SOL    HW230522   1.048   2.776   4.601
 9875SOL     OW30523   6.469   5.118   0.738
 9875SOL    HW130524   6.551   5.154   0.693
 9875SOL    HW230525   6.428   5.190   0.795
 9876SOL     OW30526   1.429   6.592   3.540
 9876SOL    HW130527   1.362   6.588   3.614
 9876SOL    HW230528   1.492   6.514   3.548
 9877SOL     OW30529   0.558   5.585   4.980
 9877SOL    HW130530   0.483   5.632   4.933
 9877SOL    HW230531   0.625   5.554   4.913
 9878SOL     OW30532   2.384   2.454   0.112
 9878SOL    HW130533   2.360   2.376   0.053
 9878SOL    HW230534   2.314   2.524   0.104
 9879SOL     OW30535   6.811   5.196   6.386
 9879SOL    HW130536   6.879   5.126   6.362
 9879SOL    HW230537   6.849   5.287   6.368
 9880SOL     OW30538   2.732   1.445   0.088
 9880SOL    HW130539   2.743   1.403   7.017
 9880SOL    HW230540   2.816   1.495   0.111
 9881SOL     OW30541   5.802   0.507   4.325
 9881SOL    HW130542   5.788   0.484   4.229
 9881SOL    HW230543   5.870   0.580   4.333
 9882SOL     OW30544   3.467   2.838   4.909
 9882SOL    HW130545   3.442   2.890   4.990
 9882SOL    HW230546   3.542   2.776   4.931
 9883SOL     OW30547   2.486   6.958   1.839
 9883SOL    HW130548   2.575   6.916   1.826
 9883SOL    HW230549   2.423   6.892   1.880
 9884SOL     OW30550   2.574   3.826   5.736
 9884SOL    HW130551   2.579   3.809   5.638
 9884SOL    HW230552   2.653   3.784   5.781
 9885SOL     OW30553   5.931   2.889   4.430
 9885SOL    HW130554   5.902   2.853   4.342
 9885SOL    HW230555   6.030   2.877   4.440
 9886SOL     OW30556   4.413   5.948   1.054
 9886SOL    HW130557   4.510   5.937   1.075
 9886SOL    HW230558   4.402   5.979   0.960
 9887SOL     OW30559   3.186   0.071   6.678
 9887SOL    HW130560   3.148   0.034   6.763
 9887SOL    HW230561   3.269   0.020   6.654
 9888SOL     OW30562   6.125   5.661   2.715
 9888SOL    HW130563   6.214   5.687   2.677
 9888SOL    HW230564   6.105   5.718   2.795
 9889SOL     OW30565   6.915   5.612   3.300
 9889SOL    HW130566   6.855   5.568   3.231
 9889SOL    HW230567   6.994   5.652   3.254
 9890SOL     OW30568   7.000   3.933   1.805
 9890SOL    HW130569   0.017   4.024   1.787
 9890SOL    HW230570   6.909   3.925   1.763
 9891SOL     OW30571   5.945   4.898   1.049
 9891SOL    HW130572   5.983   4.966   1.112
 9891SOL    HW230573   5.846   4.909   1.043
 9892SOL     OW30574   2.289   4.758   4.079
 9892SOL    HW130575   2.275   4.685   4.146
 9892SOL    HW230576   2.327   4.838   4.125
 9893SOL     OW30577   5.070   5.336   3.552
 9893SOL    HW130578   5.099   5.419   3.599
 9893SOL    HW230579   4.975   5.347   3.521
 9894SOL     OW30580   4.452   3.452   6.054
 9894SOL    HW130581   4.385   3.509   6.006
 9894SOL    HW230582   4.542   3.494   6.047
 9895SOL     OW30583   5.501   2.087   6.539
 9895SOL    HW130584   5.455   2.010   6.495
 9895SOL    HW230585   5.439   2.166   6.540
 9896SOL     OW30586   4.366   3.932   0.685
 9896SOL    HW130587   4.332   3.903   0.774
 9896SOL    HW230588   4.289   3.940   0.621
 9897SOL     OW30589   6.235   2.184   3.710
 9897SOL    HW130590   6.307   2.214   3.647
 9897SOL    HW230591   6.146   2.203   3.670
 9898SOL     OW30592   1.415   4.798   5.581
 9898SOL    HW130593   1.462   4.804   5.493
 9898SOL    HW230594   1.353   4.876   5.591
 9899SOL     OW30595   5.418   5.486   1.739
 9899SOL    HW130596   5.328   5.515   1.709
 9899SOL    HW230597   5.455   5.552   1.805
 9900SOL     OW30598   1.514   3.182   3.674
 9900SOL    HW130599   1.569   3.255   3.716
 9900SOL    HW230600   1.551   3.160   3.584
 9901SOL     OW30601   3.051   2.349   5.410
 9901SOL    HW130602   3.092   2.384   5.326
 9901SOL    HW230603   2.959   2.386   5.421
 9902SOL     OW30604   4.739   3.691   6.924
 9902SOL    HW130605   4.663   3.674   6.987
 9902SOL    HW230606   4.779   3.604   6.895
 9903SOL     OW30607   3.900   1.732   1.839
 9903SOL    HW130608   3.835   1.796   1.882
 9903SOL    HW230609   3.854   1.681   1.767
 9904SOL     OW30610   6.556   0.957   1.586
 9904SOL    HW130611   6.624   0.891   1.620
 9904SOL    HW230612   6.547   1.032   1.652
 9905SOL     OW30613   1.213   6.782   5.039
 9905SOL    HW130614   1.170   6.694   5.056
 9905SOL    HW230615   1.154   6.856   5.072
 9906SOL     OW30616   2.583   3.020   6.481
 9906SOL    HW130617   2.527   3.011   6.398
 9906SOL    HW230618   2.610   3.116   6.492
 9907SOL     OW30619   2.459   6.237   2.735
 9907SOL    HW130620   2.425   6.329   2.719
 9907SOL    HW230621   2.428   6.176   2.661
 9908SOL     OW30622   1.402   3.270   5.636
 9908SOL    HW130623   1.433   3.347   5.580
 9908SOL    HW230624   1.329   3.301   5.698
 9909SOL     OW30625   3.743   7.017   2.484
 9909SOL    HW130626   3.748   6.933   2.430
 9909SOL    HW230627   3.692   6.999   2.569
 9910SOL     OW30628   0.217   3.901   1.348
 9910SOL    HW130629   0.197   3.971   1.416
 9910SOL    HW230630   0.135   3.884   1.293
 9911SOL     OW30631   3.373   5.078   3.284
 9911SOL    HW130632   3.293   5.079   3.224
 9911SOL    HW230633   3.402   5.171   3.304
 9912SOL     OW30634   5.111   0.189   1.671
 9912SOL    HW130635   5.189   0.154   1.619
 9912SOL    HW230636   5.059   0.253   1.614
 9913SOL     OW30637   4.973   2.048   2.814
 9913SOL    HW130638   4.950   2.084   2.904
 9913SOL    HW230639   4.933   1.957   2.803
 9914SOL     OW30640   1.514   6.839   4.958
 9914SOL    HW130641   1.415   6.824   4.961
 9914SOL    HW230642   1.536   6.896   4.879
 9915SOL     OW30643   5.284   3.758   4.526
 9915SOL    HW130644   5.217   3.799   4.464
 9915SOL    HW230645   5.257   3.775   4.620
 9916SOL     OW30646   2.107   3.095   2.072
 9916SOL    HW130647   2.121   3.005   2.032
 9916SOL    HW230648   2.135   3.166   2.008
 9917SOL     OW30649   2.552   3.374   6.069
 9917SOL    HW130650   2.553   3.274   6.067
 9917SOL    HW230651   2.558   3.410   5.975
 9918SOL     OW30652   1.651   1.284   5.845
 9918SOL    HW130653   1.704   1.364   5.816
 9918SOL    HW230654   1.691   1.245   5.928
 9919SOL     OW30655   0.441   5.600   2.870
 9919SOL    HW130656   0.426   5.699   2.876
 9919SOL    HW230657   0.353   5.553   2.869
 9920SOL     OW30658   4.336   0.043   1.280
 9920SOL    HW130659   4.365   0.123   1.228
 9920SOL    HW230660   4.387   0.040   1.366
 9921SOL     OW30661   5.389   0.268   3.289
 9921SOL    HW130662   5.345   0.341   3.342
 9921SOL    HW230663   5.488   0.272   3.302
 9922SOL     OW30664   4.498   3.874   0.957
 9922SOL    HW130665   4.484   3.890   1.055
 9922SOL    HW230666   4.572   3.933   0.924
 9923SOL     OW30667   6.430   2.102   6.606
 9923SOL    HW130668   6.364   2.027   6.607
 9923SOL    HW230669   6.494   2.092   6.682
 9924SOL     OW30670   6.765   0.632   3.401
 9924SOL    HW130671   6.781   0.730   3.405
 9924SOL    HW230672   6.698   0.607   3.471
 9925SOL     OW30673   2.321   2.704   5.064
 9925SOL    HW130674   2.239   2.654   5.037
 9925SOL    HW230675   2.314   2.799   5.033
 9926SOL     OW30676   1.488   1.101   0.402
 9926SOL    HW130677   1.521   1.097   0.496
 9926SOL    HW230678   1.485   1.196   0.371
 9927SOL     OW30679   0.580   2.310   2.481
 9927SOL    HW130680   0.658   2.344   2.534
 9927SOL    HW230681   0.521   2.256   2.540
 9928SOL     OW30682   0.342   3.630   2.997
 9928SOL    HW130683   0.367   3.688   3.075
 9928SOL    HW230684   0.288   3.552   3.028
 9929SOL     OW30685   2.610   4.106   0.053
 9929SOL    HW130686   2.677   4.134   0.121
 9929SOL    HW230687   2.650   4.112   6.981
 9930SOL     OW30688   0.109   6.338   6.335
 9930SOL    HW130689   0.112   6.238   6.329
 9930SOL    HW230690   0.186   6.369   6.391
 9931SOL     OW30691   1.605   5.531   5.589
 9931SOL    HW130692   1.608   5.445   5.537
 9931SOL    HW230693   1.682   5.534   5.653
 9932SOL     OW30694   1.560   1.857   0.208
 9932SOL    HW130695   1.588   1.843   0.303
 9932SOL    HW230696   1.627   1.817   0.147
 9933SOL     OW30697   1.120   2.369   3.930
 9933SOL    HW130698   1.127   2.417   4.018
 9933SOL    HW230699   1.095   2.274   3.946
 9934SOL     OW30700   3.817   1.030   5.795
 9934SOL    HW130701   3.783   0.999   5.706
 9934SOL    HW230702   3.780   1.120   5.816
 9935SOL     OW30703   2.818   1.816   1.195
 9935SOL    HW130704   2.882   1.825   1.272
 9935SOL    HW230705   2.785   1.906   1.168
 9936SOL     OW30706   5.783   6.276   6.475
 9936SOL    HW130707   5.758   6.313   6.564
 9936SOL    HW230708   5.785   6.350   6.408
 9937SOL     OW30709   0.542   0.309   3.553
 9937SOL    HW130710   0.628   0.319   3.603
 9937SOL    HW230711   0.553   0.244   3.478
 9938SOL     OW30712   6.317   1.474   4.198
 9938SOL    HW130713   6.281   1.544   4.259
 9938SOL    HW230714   6.392   1.425   4.243
 9939SOL     OW30715   2.942   4.821   1.254
 9939SOL    HW130716   2.852   4.854   1.282
 9939SOL    HW230717   3.010   4.845   1.323
 9940SOL     OW30718   0.407   0.992   3.478
 9940SOL    HW130719   0.309   1.005   3.468
 9940SOL    HW230720   0.454   1.076   3.450
 9941SOL     OW30721   5.228   4.505   6.379
 9941SOL    HW130722   5.149   4.446   6.362
 9941SOL    HW230723   5.197   4.600   6.388
 9942SOL     OW30724   4.599   5.227   3.146
 9942SOL    HW130725   4.531   5.298   3.131
 9942SOL    HW230726   4.689   5.270   3.160
 9943SOL     OW30727   2.641   4.115   6.787
 9943SOL    HW130728   2.703   4.138   6.712
 9943SOL    HW230729   2.601   4.024   6.771
 9944SOL     OW30730   0.789   4.710   6.614
 9944SOL    HW130731   0.807   4.745   6.521
 9944SOL    HW230732   0.874   4.714   6.667
 9945SOL     OW30733   6.023   3.477   6.624
 9945SOL    HW130734   5.961   3.511   6.695
 9945SOL    HW230735   6.099   3.541   6.614
 9946SOL     OW30736   5.456   1.486   2.084
 9946SOL    HW130737   5.401   1.422   2.138
 9946SOL    HW230738   5.529   1.523   2.142
 9947SOL     OW30739   1.318   1.839   3.535
 9947SOL    HW130740   1.319   1.842   3.435
 9947SOL    HW230741   1.350   1.749   3.565
 9948SOL     OW30742   6.647   6.806   4.594
 9948SOL    HW130743   6.613   6.899   4.606
 9948SOL    HW230744   6.582   6.753   4.539
 9949SOL     OW30745   5.767   5.170   4.149
 9949SOL    HW130746   5.831   5.114   4.095
 9949SOL    HW230747   5.812   5.255   4.175
 9950SOL     OW30748   6.257   4.350   5.539
 9950SOL    HW130749   6.177   4.305   5.580
 9950SOL    HW230750   6.328   4.361   5.608
 9951SOL     OW30751   0.426   2.415   2.864
 9951SOL    HW130752   0.347   2.439   2.920
 9951SOL    HW230753   0.432   2.478   2.786
 9952SOL     OW30754   0.380   4.885   2.246
 9952SOL    HW130755   0.448   4.818   2.275
 9952SOL    HW230756   0.426   4.969   2.217
 9953SOL     OW30757   5.908   2.462   3.467
 9953SOL    HW130758   5.836   2.530   3.450
 9953SOL    HW230759   5.996   2.498   3.436
 9954SOL     OW30760   3.530   1.769   5.735
 9954SOL    HW130761   3.591   1.704   5.690
 9954SOL    HW230762   3.582   1.829   5.795
 9955SOL     OW30763   6.360   4.195   0.754
 9955SOL    HW130764   6.315   4.172   0.668
 9955SOL    HW230765   6.293   4.194   0.829
 9956SOL     OW30766   2.146   3.520   3.134
 9956SOL    HW130767   2.098   3.595   3.089
 9956SOL    HW230768   2.105   3.433   3.105
 9957SOL     OW30769   4.632   0.038   0.679
 9957SOL    HW130770   4.644   0.097   0.600
 9957SOL    HW230771   4.535   0.015   0.690
 9958SOL     OW30772   5.387   4.975   6.940
 9958SOL    HW130773   5.330   4.932   7.010
 9958SOL    HW230774   5.344   5.060   6.909
 9959SOL     OW30775   4.560   4.123   0.756
 9959SOL    HW130776   4.657   4.105   0.741
 9959SOL    HW230777   4.506   4.043   0.730
 9960SOL     OW30778   0.678   0.940   7.007
 9960SOL    HW130779   0.669   0.872   0.060
 9960SOL    HW230780   0.595   0.996   7.003
 9961SOL     OW30781   2.705   4.957   1.294
 9961SOL    HW130782   2.652   4.905   1.362
 9961SOL    HW230783   2.657   4.958   1.207
 9962SOL     OW30784   3.403   0.027   1.408
 9962SOL    HW130785   3.451   0.029   1.320
 9962SOL    HW230786   3.415   6.957   1.450
 9963SOL     OW30787   0.755   1.442   6.295
 9963SOL    HW130788   0.853   1.427   6.307
 9963SOL    HW230789   0.740   1.527   6.245
 9964SOL     OW30790   4.289   4.123   5.980
 9964SOL    HW130791   4.348   4.046   6.004
 9964SOL    HW230792   4.346   4.205   5.965
 9965SOL     OW30793   2.947   5.592   4.800
 9965SOL    HW130794   2.897   5.651   4.736
 9965SOL    HW230795   3.014   5.539   4.749
 9966SOL     OW30796   3.941   5.029   2.578
 9966SOL    HW130797   3.958   4.955   2.512
 9966SOL    HW230798   3.893   5.104   2.533
 9967SOL     OW30799   0.344   0.305   3.016
 9967SOL    HW130800   0.438   0.286   3.043
 9967SOL    HW230801   0.284   0.233   3.051
 9968SOL     OW30802   3.531   6.731   0.356
 9968SOL    HW130803   3.475   6.713   0.437
 9968SOL    HW230804   3.617   6.680   0.363
 9969SOL     OW30805   1.691   5.053   3.984
 9969SOL    HW130806   1.666   4.978   3.923
 9969SOL    HW230807   1.790   5.061   3.990
 9970SOL     OW30808   6.138   3.691   1.607
 9970SOL    HW130809   6.198   3.740   1.544
 9970SOL    HW230810   6.055   3.664   1.558
 9971SOL     OW30811   0.624   4.403   2.638
 9971SOL    HW130812   0.541   4.413   2.692
 9971SOL    HW230813   0.630   4.479   2.573
 9972SOL     OW30814   3.147   3.266   6.949
 9972SOL    HW130815   3.091   3.274   0.011
 9972SOL    HW230816   3.111   3.326   6.877
 9973SOL     OW30817   3.408   2.039   3.895
 9973SOL    HW130818   3.332   1.980   3.869
 9973SOL    HW230819   3.400   2.063   3.992
 9974SOL     OW30820   0.751   3.140   3.084
 9974SOL    HW130821   0.770   3.209   3.015
 9974SOL    HW230822   0.832   3.082   3.097
 9975SOL     OW30823   1.648   5.067   6.902
 9975SOL    HW130824   1.590   5.051   6.822
 9975SOL    HW230825   1.658   4.981   6.953
 9976SOL     OW30826   3.106   3.982   6.507
 9976SOL    HW130827   3.204   4.002   6.511
 9976SOL    HW230828   3.056   4.047   6.563
 9977SOL     OW30829   5.330   6.141   5.579
 9977SOL    HW130830   5.297   6.066   5.522
 9977SOL    HW230831   5.376   6.209   5.522
 9978SOL     OW30832   0.731   3.096   6.237
 9978SOL    HW130833   0.749   3.037   6.315
 9978SOL    HW230834   0.790   3.069   6.160
 9979SOL     OW30835   4.289   3.357   5.339
 9979SOL    HW130836   4.337   3.290   5.395
 9979SOL    HW230837   4.352   3.432   5.315
 9980SOL     OW30838   2.050   1.039   0.853
 9980SOL    HW130839   2.101   0.980   0.789
 9980SOL    HW230840   2.039   0.992   0.940
 9981SOL     OW30841   0.538   2.725   1.889
 9981SOL    HW130842   0.606   2.717   1.816
 9981SOL    HW230843   0.569   2.792   1.956
 9982SOL     OW30844   2.166   2.479   5.268
 9982SOL    HW130845   2.226   2.438   5.200
 9982SOL    HW230846   2.071   2.474   5.236
 9983SOL     OW30847   0.885   2.818   1.714
 9983SOL    HW130848   0.815   2.751   1.689
 9983SOL    HW230849   0.902   2.814   1.812
 9984SOL     OW30850   0.107   6.058   1.027
 9984SOL    HW130851   0.093   6.130   1.095
 9984SOL    HW230852   0.142   6.098   0.942
 9985SOL     OW30853   4.131   5.246   0.489
 9985SOL    HW130854   4.128   5.197   0.401
 9985SOL    HW230855   4.037   5.262   0.521
 9986SOL     OW30856   5.164   4.572   0.341
 9986SOL    HW130857   5.181   4.660   0.385
 9986SOL    HW230858   5.219   4.501   0.385
 9987SOL     OW30859   5.231   2.872   1.693
 9987SOL    HW130860   5.263   2.965   1.711
 9987SOL    HW230861   5.132   2.874   1.676
 9988SOL     OW30862   5.191   6.622   4.595
 9988SOL    HW130863   5.243   6.536   4.597
 9988SOL    HW230864   5.237   6.690   4.651
 9989SOL     OW30865   6.346   5.247   2.189
 9989SOL    HW130866   6.261   5.204   2.158
 9989SOL    HW230867   6.424   5.195   2.153
 9990SOL     OW30868   0.469   6.855   3.606
 9990SOL    HW130869   0.489   6.802   3.523
 9990SOL    HW230870   0.393   6.814   3.655
 9991SOL     OW30871   1.567   4.398   4.112
 9991SOL    HW130872   1.483   4.352   4.084
 9991SOL    HW230873   1.628   4.406   4.033
 9992SOL     OW30874   3.552   4.923   1.069
 9992SOL    HW130875   3.527   5.004   1.017
 9992SOL    HW230876   3.491   4.913   1.148
 9993SOL     OW30877   3.965   0.022   4.562
 9993SOL    HW130878   4.043   0.085   4.568
 9993SOL    HW230879   3.913   0.041   4.478
 9994SOL     OW30880   6.625   4.948   4.309
 9994SOL    HW130881   6.693   4.924   4.240
 9994SOL    HW230882   6.639   4.892   4.391
 9995SOL     OW30883   2.892   0.648   5.309
 9995SOL    HW130884   2.876   0.584   5.234
 9995SOL    HW230885   2.883   0.742   5.276
 9996SOL     OW30886   2.108   3.794   0.795
 9996SOL    HW130887   2.172   3.723   0.825
 9996SOL    HW230888   2.090   3.783   0.697
 9997SOL     OW30889   6.370   3.226   3.886
 9997SOL    HW130890   6.282   3.273   3.877
 9997SOL    HW230891   6.414   3.253   3.971
 9998SOL     OW30892   5.071   4.044   2.577
 9998SOL    HW130893   5.104   4.058   2.483
 9998SOL    HW230894   4.986   3.991   2.575
 9999SOL     OW30895   0.781   6.216   4.339
 9999SOL    HW130896   0.730   6.302   4.343
 9999SOL    HW230897   0.797   6.192   4.243
10000SOL     OW30898   5.390   1.828   1.654
10000SOL    HW130899   5.416   1.804   1.748
10000SOL    HW230900   5.310   1.887   1.656
10001SOL     OW30901   3.957   6.279   2.348
10001SOL    HW130902   4.021   6.230   2.289
10001SOL    HW230903   4.007   6.315   2.427
10002SOL     OW30904   2.928   0.811   1.931
10002SOL    HW130905   3.013   0.864   1.936
10002SOL    HW230906   2.939   0.736   1.866
10003SOL     OW30907   1.378   1.034   3.746
10003SOL    HW130908   1.477   1.043   3.744
10003SOL    HW230909   1.342   1.076   3.830
10004SOL     OW30910   6.544   4.592   4.865
10004SOL    HW130911   6.540   4.683   4.824
10004SOL    HW230912   6.609   4.536   4.814
10005SOL     OW30913   1.883   5.497   3.204
10005SOL    HW130914   1.878   5.561   3.127
10005SOL    HW230915   1.963   5.518   3.260
10006SOL     OW30916   5.115   0.439   5.766
10006SOL    HW130917   5.195   0.391   5.731
10006SOL    HW230918   5.056   0.466   5.690
10007SOL     OW30919   1.638   5.478   4.651
10007SOL    HW130920   1.618   5.433   4.738
10007SOL    HW230921   1.605   5.420   4.576
10008SOL     OW30922   4.007   1.816   5.873
10008SOL    HW130923   4.046   1.908   5.873
10008SOL    HW230924   4.072   1.752   5.913
10009SOL     OW30925   1.027   4.072   1.855
10009SOL    HW130926   0.949   4.104   1.803
10009SOL    HW230927   1.001   3.994   1.912
10010SOL     OW30928   1.958   4.904   6.835
10010SOL    HW130929   1.934   4.807   6.838
10010SOL    HW230930   1.911   4.947   6.758
10011SOL     OW30931   1.291   3.246   0.386
10011SOL    HW130932   1.333   3.332   0.415
10011SOL    HW230933   1.359   3.173   0.392
10012SOL     OW30934   4.927   1.258   2.000
10012SOL    HW130935   4.871   1.178   2.022
10012SOL    HW230936   5.016   1.227   1.966
10013SOL     OW30937   1.177   5.890   4.815
10013SOL    HW130938   1.168   5.820   4.744
10013SOL    HW230939   1.087   5.928   4.835
10014SOL     OW30940   0.851   6.898   3.203
10014SOL    HW130941   0.869   6.859   3.293
10014SOL    HW230942   0.836   6.996   3.212
10015SOL     OW30943   3.837   4.483   5.624
10015SOL    HW130944   3.834   4.464   5.526
10015SOL    HW230945   3.917   4.540   5.644
10016SOL     OW30946   2.426   6.536   3.121
10016SOL    HW130947   2.399   6.558   3.215
10016SOL    HW230948   2.432   6.621   3.068
10017SOL     OW30949   2.589   1.594   3.087
10017SOL    HW130950   2.564   1.509   3.133
10017SOL    HW230951   2.523   1.612   3.013
10018SOL     OW30952   6.345   3.190   6.025
10018SOL    HW130953   6.421   3.201   6.089
10018SOL    HW230954   6.371   3.125   5.954
10019SOL     OW30955   0.771   1.535   2.732
10019SOL    HW130956   0.870   1.531   2.742
10019SOL    HW230957   0.737   1.447   2.698
10020SOL     OW30958   6.547   0.371   1.916
10020SOL    HW130959   6.447   0.378   1.912
10020SOL    HW230960   6.572   0.287   1.964
10021SOL     OW30961   1.545   3.916   2.043
10021SOL    HW130962   1.563   3.834   2.097
10021SOL    HW230963   1.546   3.996   2.103
10022SOL     OW30964   2.745   6.077   0.172
10022SOL    HW130965   2.673   6.124   0.120
10022SOL    HW230966   2.754   5.983   0.140
10023SOL     OW30967   2.503   0.096   5.912
10023SOL    HW130968   2.456   0.092   6.000
10023SOL    HW230969   2.556   0.012   5.899
10024SOL     OW30970   1.788   4.521   3.132
10024SOL    HW130971   1.724   4.461   3.180
10024SOL    HW230972   1.763   4.616   3.147
10025SOL     OW30973   1.377   4.362   1.488
10025SOL    HW130974   1.339   4.418   1.561
10025SOL    HW230975   1.382   4.415   1.403
10026SOL     OW30976   5.049   1.522   3.352
10026SOL    HW130977   4.986   1.548   3.425
10026SOL    HW230978   5.143   1.530   3.384
10027SOL     OW30979   1.848   1.818   5.548
10027SOL    HW130980   1.830   1.882   5.473
10027SOL    HW230981   1.778   1.828   5.619
10028SOL     OW30982   4.355   0.711   1.621
10028SOL    HW130983   4.345   0.787   1.556
10028SOL    HW230984   4.435   0.656   1.595
10029SOL     OW30985   0.185   3.448   4.894
10029SOL    HW130986   0.139   3.363   4.920
10029SOL    HW230987   0.212   3.444   4.798
10030SOL     OW30988   2.583   6.776   4.651
10030SOL    HW130989   2.509   6.777   4.718
10030SOL    HW230990   2.564   6.705   4.582
10031SOL     OW30991   3.837   5.356   3.778
10031SOL    HW130992   3.867   5.449   3.800
10031SOL    HW230993   3.915   5.294   3.779
10032SOL     OW30994   3.094   6.046   5.080
10032SOL    HW130995   3.017   6.034   5.142
10032SOL    HW230996   3.087   5.980   5.005
10033SOL     OW30997   4.220   1.663   3.225
10033SOL    HW130998   4.190   1.642   3.132
10033SOL    HW230999   4.139   1.681   3.282
10034SOL     OW31000   2.360   0.466   3.327
10034SOL    HW131001   2.273   0.436   3.287
10034SOL    HW231002   2.427   0.480   3.254
10035SOL     OW31003   5.970   3.016   1.170
10035SOL    HW131004   5.901   2.944   1.159
10035SOL    HW231005   6.041   2.984   1.233
10036SOL     OW31006   6.146   0.480   6.884
10036SOL    HW131007   6.168   0.571   6.849
10036SOL    HW231008   6.094   0.488   6.969
10037SOL     OW31009   6.283   6.952   6.866
10037SOL    HW131010   6.305   6.920   6.774
10037SOL    HW231011   6.365   6.990   6.909
10038SOL     OW31012   4.498   0.163   0.098
10038SOL    HW131013   4.552   0.080   0.084
10038SOL    HW231014   4.556   0.235   0.136
10039SOL     OW31015   5.297   5.594   3.883
10039SOL    HW131016   5.272   5.678   3.930
10039SOL    HW231017   5.373   5.550   3.932
10040SOL     OW31018   3.770   0.413   0.310
10040SOL    HW131019   3.674   0.405   0.284
10040SOL    HW231020   3.777   0.455   0.400
10041SOL     OW31021   6.741   4.635   5.543
10041SOL    HW131022   6.686   4.552   5.538
10041SOL    HW231023   6.837   4.612   5.530
10042SOL     OW31024   0.753   0.851   5.253
10042SOL    HW131025   0.808   0.858   5.170
10042SOL    HW231026   0.660   0.884   5.234
10043SOL     OW31027   1.522   0.994   3.427
10043SOL    HW131028   1.425   0.971   3.419
10043SOL    HW231029   1.538   1.087   3.395
10044SOL     OW31030   2.231   1.020   5.153
10044SOL    HW131031   2.162   1.079   5.112
10044SOL    HW231032   2.219   0.926   5.119
10045SOL     OW31033   4.507   6.825   4.555
10045SOL    HW131034   4.606   6.843   4.555
10045SOL    HW231035   4.486   6.751   4.492
10046SOL     OW31036   0.151   2.459   1.727
10046SOL    HW131037   0.218   2.409   1.782
10046SOL    HW231038   0.071   2.480   1.783
10047SOL     OW31039   6.442   1.454   4.867
10047SOL    HW131040   6.512   1.446   4.796
10047SOL    HW231041   6.486   1.456   4.957
10048SOL     OW31042   3.587   1.557   1.788
10048SOL    HW131043   3.542   1.645   1.806
10048SOL    HW231044   3.558   1.490   1.855
10049SOL     OW31045   2.334   0.773   6.792
10049SOL    HW131046   2.384   0.854   6.821
10049SOL    HW231047   2.372   0.740   6.705
10050SOL     OW31048   5.147   2.880   4.641
10050SOL    HW131049   5.061   2.925   4.667
10050SOL    HW231050   5.221   2.915   4.699
10051SOL     OW31051   6.702   2.705   4.314
10051SOL    HW131052   6.691   2.755   4.400
10051SOL    HW231053   6.723   2.770   4.240
10052SOL     OW31054   1.796   3.616   2.000
10052SOL    HW131055   1.724   3.641   1.935
10052SOL    HW231056   1.783   3.522   2.030
10053SOL     OW31057   3.456   5.308   3.411
10053SOL    HW131058   3.530   5.306   3.478
10053SOL    HW231059   3.388   5.375   3.439
10054SOL     OW31060   4.187   5.561   6.042
10054SOL    HW131061   4.096   5.589   6.072
10054SOL    HW231062   4.250   5.638   6.052
10055SOL     OW31063   6.735   2.402   5.032
10055SOL    HW131064   6.709   2.314   5.071
10055SOL    HW231065   6.834   2.403   5.015
10056SOL     OW31066   6.375   4.881   1.317
10056SOL    HW131067   6.419   4.794   1.294
10056SOL    HW231068   6.433   4.932   1.380
10057SOL     OW31069   4.011   2.105   4.495
10057SOL    HW131070   4.036   2.014   4.526
10057SOL    HW231071   3.998   2.165   4.574
10058SOL     OW31072   6.463   5.326   3.477
10058SOL    HW131073   6.464   5.246   3.537
10058SOL    HW231074   6.484   5.298   3.383
10059SOL     OW31075   5.340   7.013   1.010
10059SOL    HW131076   5.282   0.065   1.050
10059SOL    HW231077   5.348   6.937   1.074
10060SOL     OW31078   2.699   2.152   1.966
10060SOL    HW131079   2.715   2.235   2.020
10060SOL    HW231080   2.770   2.143   1.897
10061SOL     OW31081   5.941   0.885   4.174
10061SOL    HW131082   5.985   0.816   4.117
10061SOL    HW231083   5.969   0.976   4.144
10062SOL     OW31084   5.812   6.081   3.639
10062SOL    HW131085   5.860   5.994   3.649
10062SOL    HW231086   5.809   6.127   3.728
10063SOL     OW31087   1.192   3.122   3.853
10063SOL    HW131088   1.177   3.213   3.813
10063SOL    HW231089   1.278   3.122   3.904
10064SOL     OW31090   5.023   5.639   4.548
10064SOL    HW131091   5.033   5.731   4.510
10064SOL    HW231092   5.012   5.573   4.473
10065SOL     OW31093   1.489   6.868   2.011
10065SOL    HW131094   1.449   6.794   1.957
10065SOL    HW231095   1.572   6.836   2.056
10066SOL     OW31096   0.341   0.341   4.096
10066SOL    HW131097   0.343   0.296   4.007
10066SOL    HW231098   0.428   0.326   4.143
10067SOL     OW31099   5.102   5.081   4.599
10067SOL    HW131100   5.111   5.008   4.667
10067SOL    HW231101   5.112   5.043   4.508
10068SOL     OW31102   5.703   3.040   4.378
10068SOL    HW131103   5.756   2.974   4.430
10068SOL    HW231104   5.720   3.132   4.413
10069SOL     OW31105   2.493   0.920   3.847
10069SOL    HW131106   2.519   0.840   3.900
10069SOL    HW231107   2.393   0.926   3.843
10070SOL     OW31108   0.350   6.247   4.937
10070SOL    HW131109   0.305   6.187   5.003
10070SOL    HW231110   0.444   6.264   4.966
10071SOL     OW31111   4.354   5.375   3.712
10071SOL    HW131112   4.412   5.450   3.679
10071SOL    HW231113   4.264   5.411   3.735
10072SOL     OW31114   0.795   6.113   3.610
10072SOL    HW131115   0.718   6.107   3.672
10072SOL    HW231116   0.822   6.208   3.598
10073SOL     OW31117   5.948   4.869   5.198
10073SOL    HW131118   5.987   4.956   5.228
10073SOL    HW231119   6.019   4.814   5.155
10074SOL     OW31120   1.525   6.584   5.884
10074SOL    HW131121   1.506   6.589   5.786
10074SOL    HW231122   1.491   6.496   5.919
10075SOL     OW31123   1.412   2.388   2.928
10075SOL    HW131124   1.331   2.440   2.900
10075SOL    HW231125   1.384   2.297   2.959
10076SOL     OW31126   4.803   0.198   4.467
10076SOL    HW131127   4.762   0.240   4.386
10076SOL    HW231128   4.879   0.254   4.500
10077SOL     OW31129   4.013   2.417   6.558
10077SOL    HW131130   4.025   2.460   6.647
10077SOL    HW231131   3.932   2.358   6.560
10078SOL     OW31132   6.195   6.371   4.755
10078SOL    HW131133   6.128   6.347   4.824
10078SOL    HW231134   6.251   6.447   4.788
10079SOL     OW31135   1.186   2.629   1.619
10079SOL    HW131136   1.176   2.728   1.612
10079SOL    HW231137   1.282   2.604   1.601
10080SOL     OW31138   2.107   2.499   0.690
10080SOL    HW131139   2.150   2.584   0.722
10080SOL    HW231140   2.142   2.476   0.600
10081SOL     OW31141   0.883   0.501   6.516
10081SOL    HW131142   0.943   0.526   6.439
10081SOL    HW231143   0.810   0.569   6.525
10082SOL     OW31144   6.386   2.229   1.577
10082SOL    HW131145   6.348   2.147   1.619
10082SOL    HW231146   6.323   2.264   1.508
10083SOL     OW31147   4.789   1.025   3.931
10083SOL    HW131148   4.749   1.030   3.839
10083SOL    HW231149   4.735   1.080   3.994
10084SOL     OW31150   3.285   0.930   6.324
10084SOL    HW131151   3.230   0.970   6.250
10084SOL    HW231152   3.252   0.838   6.344
10085SOL     OW31153   0.814   4.816   3.132
10085SOL    HW131154   0.833   4.776   3.042
10085SOL    HW231155   0.745   4.888   3.121
10086SOL     OW31156   6.225   5.027   2.529
10086SOL    HW131157   6.220   5.056   2.625
10086SOL    HW231158   6.298   5.077   2.483
10087SOL     OW31159   1.029   1.068   4.652
10087SOL    HW131160   1.072   1.130   4.586
10087SOL    HW231161   0.941   1.105   4.681
10088SOL     OW31162   0.068   0.208   5.207
10088SOL    HW131163   0.099   0.181   5.116
10088SOL    HW231164   0.146   0.215   5.269
10089SOL     OW31165   2.780   1.468   2.691
10089SOL    HW131166   2.725   1.477   2.608
10089SOL    HW231167   2.764   1.378   2.732
10090SOL     OW31168   1.229   4.335   0.772
10090SOL    HW131169   1.270   4.395   0.704
10090SOL    HW231170   1.142   4.299   0.737
10091SOL     OW31171   1.003   3.618   4.500
10091SOL    HW131172   0.968   3.605   4.407
10091SOL    HW231173   1.021   3.715   4.515
10092SOL     OW31174   1.996   3.901   5.430
10092SOL    HW131175   2.027   3.960   5.355
10092SOL    HW231176   1.967   3.813   5.392
10093SOL     OW31177   0.466   4.993   4.961
10093SOL    HW131178   0.493   4.913   5.013
10093SOL    HW231179   0.535   5.064   4.969
10094SOL     OW31180   2.381   0.361   2.497
10094SOL    HW131181   2.415   0.447   2.461
10094SOL    HW231182   2.454   0.314   2.547
10095SOL     OW31183   6.380   1.692   5.383
10095SOL    HW131184   6.406   1.777   5.338
10095SOL    HW231185   6.453   1.624   5.370
10096SOL     OW31186   6.552   5.305   2.803
10096SOL    HW131187   6.583   5.352   2.886
10096SOL    HW231188   6.464   5.342   2.775
10097SOL     OW31189   1.029   1.597   0.938
10097SOL    HW131190   1.008   1.509   0.894
10097SOL    HW231191   0.945   1.647   0.956
10098SOL     OW31192   1.681   5.908   5.808
10098SOL    HW131193   1.653   6.003   5.793
10098SOL    HW231194   1.675   5.858   5.722
10099SOL     OW31195   6.789   3.572   5.728
10099SOL    HW131196   6.766   3.647   5.666
10099SOL    HW231197   6.785   3.485   5.678
10100SOL     OW31198   4.611   0.556   5.057
10100SOL    HW131199   4.599   0.533   5.153
10100SOL    HW231200   4.653   0.647   5.050
10101SOL     OW31201   0.092   4.878   2.456
10101SOL    HW131202   0.121   4.865   2.362
10101SOL    HW231203   0.172   4.896   2.513
10102SOL     OW31204   3.372   1.126   2.516
10102SOL    HW131205   3.415   1.160   2.599
10102SOL    HW231206   3.430   1.054   2.476
10103SOL     OW31207   2.810   1.443   5.158
10103SOL    HW131208   2.849   1.532   5.177
10103SOL    HW231209   2.838   1.412   5.067
10104SOL     OW31210   0.677   4.432   5.708
10104SOL    HW131211   0.753   4.471   5.656
10104SOL    HW231212   0.591   4.468   5.674
10105SOL     OW31213   1.399   1.533   6.631
10105SOL    HW131214   1.423   1.606   6.566
10105SOL    HW231215   1.418   1.444   6.590
10106SOL     OW31216   5.136   5.045   0.590
10106SOL    HW131217   5.234   5.062   0.583
10106SOL    HW231218   5.089   5.131   0.611
10107SOL     OW31219   6.184   1.198   5.600
10107SOL    HW131220   6.277   1.216   5.635
10107SOL    HW231221   6.180   1.106   5.562
10108SOL     OW31222   6.474   6.395   0.058
10108SOL    HW131223   6.549   6.385   0.124
10108SOL    HW231224   6.504   6.453   7.002
10109SOL     OW31225   4.126   6.010   2.664
10109SOL    HW131226   4.073   5.927   2.648
10109SOL    HW231227   4.209   6.008   2.608
10110SOL     OW31228   3.499   6.629   5.283
10110SOL    HW131229   3.528   6.668   5.196
10110SOL    HW231230   3.511   6.530   5.281
10111SOL     OW31231   6.799   3.532   3.634
10111SOL    HW131232   6.714   3.487   3.661
10111SOL    HW231233   6.797   3.551   3.536
10112SOL     OW31234   5.572   3.814   5.493
10112SOL    HW131235   5.618   3.898   5.522
10112SOL    HW231236   5.554   3.817   5.395
10113SOL     OW31237   3.987   0.904   0.011
10113SOL    HW131238   3.931   0.823   0.026
10113SOL    HW231239   4.009   0.946   0.099
10114SOL     OW31240   5.698   1.565   0.528
10114SOL    HW131241   5.664   1.474   0.505
10114SOL    HW231242   5.718   1.569   0.626
10115SOL     OW31243   1.908   2.247   3.554
10115SOL    HW131244   1.851   2.329   3.546
10115SOL    HW231245   1.943   2.239   3.647
10116SOL     OW31246   1.012   6.511   0.872
10116SOL    HW131247   1.104   6.547   0.888
10116SOL    HW231248   0.945   6.581   0.892
10117SOL     OW31249   6.435   0.264   4.566
10117SOL    HW131250   6.345   0.270   4.609
10117SOL    HW231251   6.428   0.290   4.470
10118SOL     OW31252   0.279   4.826   3.012
10118SOL    HW131253   0.201   4.835   2.951
10118SOL    HW231254   0.364   4.835   2.960
10119SOL     OW31255   2.021   0.135   4.379
10119SOL    HW131256   2.053   0.094   4.294
10119SOL    HW231257   1.968   0.218   4.359
10120SOL     OW31258   0.809   3.554   4.051
10120SOL    HW131259   0.838   3.548   3.955
10120SOL    HW231260   0.781   3.463   4.083
10121SOL     OW31261   6.993   4.603   5.085
10121SOL    HW131262   0.010   4.666   5.154
10121SOL    HW231263   7.019   4.635   4.994
10122SOL     OW31264   5.726   3.055   6.944
10122SOL    HW131265   5.793   3.083   6.875
10122SOL    HW231266   5.697   3.135   6.998
10123SOL     OW31267   0.507   6.018   0.867
10123SOL    HW131268   0.443   5.954   0.909
10123SOL    HW231269   0.537   6.085   0.935
10124SOL     OW31270   2.407   4.430   0.058
10124SOL    HW131271   2.476   4.438   0.131
10124SOL    HW231272   2.451   4.394   6.995
10125SOL     OW31273   1.653   0.766   3.135
10125SOL    HW131274   1.706   0.791   3.216
10125SOL    HW231275   1.661   0.668   3.118
10126SOL     OW31276   5.861   5.690   6.550
10126SOL    HW131277   5.920   5.615   6.579
10126SOL    HW231278   5.846   5.752   6.627
10127SOL     OW31279   2.985   5.633   5.593
10127SOL    HW131280   2.897   5.658   5.552
10127SOL    HW231281   3.022   5.553   5.546
10128SOL     OW31282   0.394   1.493   1.179
10128SOL    HW131283   0.352   1.522   1.093
10128SOL    HW231284   0.467   1.557   1.203
10129SOL     OW31285   5.069   2.715   3.937
10129SOL    HW131286   5.108   2.651   4.004
10129SOL    HW231287   4.982   2.750   3.971
10130SOL     OW31288   1.511   5.305   2.819
10130SOL    HW131289   1.471   5.318   2.910
10130SOL    HW231290   1.453   5.243   2.766
10131SOL     OW31291   0.540   2.103   2.290
10131SOL    HW131292   0.556   2.179   2.353
10131SOL    HW231293   0.495   2.028   2.339
10132SOL     OW31294   3.130   6.532   2.763
10132SOL    HW131295   3.087   6.446   2.789
10132SOL    HW231296   3.062   6.605   2.761
10133SOL     OW31297   3.968   6.651   2.919
10133SOL    HW131298   3.999   6.622   2.829
10133SOL    HW231299   3.954   6.570   2.977
10134SOL     OW31300   6.317   0.329   3.922
10134SOL    HW131301   6.291   0.419   3.887
10134SOL    HW231302   6.410   0.308   3.892
10135SOL     OW31303   4.939   3.758   2.729
10135SOL    HW131304   4.873   3.822   2.688
10135SOL    HW231305   4.902   3.665   2.724
10136SOL     OW31306   5.831   6.995   3.304
10136SOL    HW131307   5.785   0.011   3.223
10136SOL    HW231308   5.917   6.952   3.277
10137SOL     OW31309   6.860   5.532   3.977
10137SOL    HW131310   6.932   5.513   3.910
10137SOL    HW231311   6.801   5.451   3.984
10138SOL     OW31312   5.259   2.267   0.471
10138SOL    HW131313   5.285   2.186   0.524
10138SOL    HW231314   5.297   2.349   0.514
10139SOL     OW31315   3.879   3.097   2.561
10139SOL    HW131316   3.803   3.032   2.561
10139SOL    HW231317   3.892   3.132   2.653
10140SOL     OW31318   6.361   5.842   5.821
10140SOL    HW131319   6.368   5.877   5.728
10140SOL    HW231320   6.282   5.780   5.828
10141SOL     OW31321   3.146   2.151   4.307
10141SOL    HW131322   3.058   2.199   4.300
10141SOL    HW231323   3.176   2.152   4.403
10142SOL     OW31324   5.117   6.717   5.585
10142SOL    HW131325   5.135   6.618   5.584
10142SOL    HW231326   5.201   6.766   5.605
10143SOL     OW31327   4.402   0.254   1.081
10143SOL    HW131328   4.459   0.307   1.019
10143SOL    HW231329   4.424   0.279   1.176
10144SOL     OW31330   4.086   6.017   5.624
10144SOL    HW131331   4.162   6.058   5.574
10144SOL    HW231332   4.016   6.086   5.642
10145SOL     OW31333   2.798   5.949   5.582
10145SOL    HW131334   2.717   5.988   5.626
10145SOL    HW231335   2.876   6.009   5.596
10146SOL     OW31336   3.904   5.043   5.301
10146SOL    HW131337   3.959   5.125   5.319
10146SOL    HW231338   3.950   4.986   5.233
10147SOL     OW31339   4.884   4.682   4.673
10147SOL    HW131340   4.827   4.724   4.602
10147SOL    HW231341   4.826   4.645   4.745
10148SOL     OW31342   6.000   5.676   0.038
10148SOL    HW131343   6.017   5.720   6.970
10148SOL    HW231344   6.045   5.587   0.040
10149SOL     OW31345   4.876   1.930   0.474
10149SOL    HW131346   4.831   1.863   0.533
10149SOL    HW231347   4.838   1.924   0.381
10150SOL     OW31348   4.810   4.178   0.858
10150SOL    HW131349   4.877   4.252   0.857
10150SOL    HW231350   4.719   4.215   0.876
10151SOL     OW31351   1.679   0.225   6.360
10151SOL    HW131352   1.613   0.156   6.390
10151SOL    HW231353   1.702   0.285   6.437
10152SOL     OW31354   1.475   5.603   3.902
10152SOL    HW131355   1.460   5.506   3.884
10152SOL    HW231356   1.419   5.657   3.840
10153SOL     OW31357   4.264   6.214   3.700
10153SOL    HW131358   4.186   6.267   3.667
10153SOL    HW231359   4.347   6.241   3.651
10154SOL     OW31360   6.172   6.326   5.817
10154SOL    HW131361   6.194   6.264   5.892
10154SOL    HW231362   6.165   6.420   5.852
10155SOL     OW31363   3.804   1.719   6.013
10155SOL    HW131364   3.802   1.723   6.113
10155SOL    HW231365   3.890   1.758   5.980
10156SOL     OW31366   6.123   6.642   1.957
10156SOL    HW131367   6.096   6.734   1.928
10156SOL    HW231368   6.071   6.574   1.905
10157SOL     OW31369   5.531   1.981   5.665
10157SOL    HW131370   5.617   1.981   5.715
10157SOL    HW231371   5.542   1.936   5.577
10158SOL     OW31372   4.826   3.921   7.007
10158SOL    HW131373   4.900   3.913   0.054
10158SOL    HW231374   4.800   3.830   6.975
10159SOL     OW31375   2.879   3.080   6.041
10159SOL    HW131376   2.890   3.177   6.062
10159SOL    HW231377   2.895   3.026   6.123
10160SOL     OW31378   1.278   4.340   2.632
10160SOL    HW131379   1.269   4.269   2.702
10160SOL    HW231380   1.193   4.392   2.626
10161SOL     OW31381   3.547   4.728   0.664
10161SOL    HW131382   3.571   4.676   0.746
10161SOL    HW231383   3.467   4.785   0.683
10162SOL     OW31384   2.935   4.065   0.393
10162SOL    HW131385   3.007   4.060   0.463
10162SOL    HW231386   2.947   4.148   0.339
10163SOL     OW31387   5.806   4.249   6.168
10163SOL    HW131388   5.877   4.308   6.204
10163SOL    HW231389   5.767   4.291   6.086
10164SOL     OW31390   6.176   3.035   5.000
10164SOL    HW131391   6.161   2.936   4.998
10164SOL    HW231392   6.273   3.055   4.986
10165SOL     OW31393   1.230   2.222   3.517
10165SOL    HW131394   1.300   2.162   3.556
10165SOL    HW231395   1.192   2.279   3.589
10166SOL     OW31396   3.443   0.818   1.921
10166SOL    HW131397   3.477   0.903   1.881
10166SOL    HW231398   3.517   0.774   1.972
10167SOL     OW31399   4.089   1.019   6.822
10167SOL    HW131400   4.027   0.980   6.890
10167SOL    HW231401   4.041   1.088   6.769
10168SOL     OW31402   6.671   3.738   4.608
10168SOL    HW131403   6.689   3.799   4.684
10168SOL    HW231404   6.755   3.688   4.585
10169SOL     OW31405   6.688   4.351   3.645
10169SOL    HW131406   6.621   4.331   3.574
10169SOL    HW231407   6.703   4.270   3.701
10170SOL     OW31408   0.673   4.153   5.788
10170SOL    HW131409   0.770   4.130   5.779
10170SOL    HW231410   0.660   4.251   5.772
10171SOL     OW31411   6.589   3.891   6.760
10171SOL    HW131412   6.571   3.809   6.704
10171SOL    HW231413   6.574   3.973   6.705
10172SOL     OW31414   6.273   0.284   3.470
10172SOL    HW131415   6.356   0.284   3.525
10172SOL    HW231416   6.209   0.351   3.506
10173SOL     OW31417   1.882   2.218   1.039
10173SOL    HW131418   1.825   2.299   1.052
10173SOL    HW231419   1.926   2.222   0.949
10174SOL     OW31420   5.837   5.051   2.011
10174SOL    HW131421   5.760   5.057   1.947
10174SOL    HW231422   5.861   4.955   2.024
10175SOL     OW31423   6.685   2.551   3.678
10175SOL    HW131424   6.767   2.502   3.708
10175SOL    HW231425   6.690   2.566   3.579
10176SOL     OW31426   1.190   3.070   5.716
10176SOL    HW131427   1.254   3.072   5.639
10176SOL    HW231428   1.099   3.096   5.684
10177SOL     OW31429   2.906   0.291   0.209
10177SOL    HW131430   2.986   0.350   0.207
10177SOL    HW231431   2.935   0.195   0.210
10178SOL     OW31432   6.444   3.085   4.974
10178SOL    HW131433   6.445   3.149   4.897
10178SOL    HW231434   6.478   3.131   5.056
10179SOL     OW31435   1.255   1.762   6.104
10179SOL    HW131436   1.295   1.714   6.182
10179SOL    HW231437   1.170   1.716   6.077
10180SOL     OW31438   3.475   5.462   6.356
10180SOL    HW131439   3.410   5.387   6.347
10180SOL    HW231440   3.556   5.442   6.300
10181SOL     OW31441   5.188   3.515   2.066
10181SOL    HW131442   5.128   3.443   2.102
10181SOL    HW231443   5.247   3.476   1.996
10182SOL     OW31444   5.668   1.756   1.634
10182SOL    HW131445   5.579   1.782   1.595
10182SOL    HW231446   5.691   1.817   1.710
10183SOL     OW31447   0.915   1.902   6.068
10183SOL    HW131448   0.892   1.930   5.975
10183SOL    HW231449   0.926   1.982   6.126
10184SOL     OW31450   4.780   1.754   5.905
10184SOL    HW131451   4.755   1.850   5.898
10184SOL    HW231452   4.722   1.700   5.845
10185SOL     OW31453   5.114   5.951   0.768
10185SOL    HW131454   5.142   5.921   0.859
10185SOL    HW231455   5.037   6.014   0.776
10186SOL     OW31456   5.656   3.328   3.488
10186SOL    HW131457   5.609   3.288   3.409
10186SOL    HW231458   5.723   3.263   3.523
10187SOL     OW31459   0.655   1.994   2.078
10187SOL    HW131460   0.618   2.030   2.164
10187SOL    HW231461   0.582   1.953   2.024
10188SOL     OW31462   3.489   6.367   6.984
10188SOL    HW131463   3.415   6.300   6.980
10188SOL    HW231464   3.577   6.320   6.986
10189SOL     OW31465   2.357   0.678   5.771
10189SOL    HW131466   2.437   0.619   5.767
10189SOL    HW231467   2.339   0.703   5.866
10190SOL     OW31468   5.074   2.886   1.116
10190SOL    HW131469   5.126   2.801   1.105
10190SOL    HW231470   5.041   2.893   1.210
10191SOL     OW31471   4.894   4.223   6.919
10191SOL    HW131472   4.863   4.220   6.824
10191SOL    HW231473   4.860   4.143   6.968
10192SOL     OW31474   4.513   0.854   4.894
10192SOL    HW131475   4.450   0.892   4.962
10192SOL    HW231476   4.603   0.842   4.934
10193SOL     OW31477   4.221   4.188   1.679
10193SOL    HW131478   4.315   4.182   1.713
10193SOL    HW231479   4.162   4.225   1.751
10194SOL     OW31480   6.137   5.007   4.928
10194SOL    HW131481   6.208   4.937   4.917
10194SOL    HW231482   6.180   5.094   4.955
10195SOL     OW31483   6.146   4.623   1.474
10195SOL    HW131484   6.072   4.566   1.438
10195SOL    HW231485   6.223   4.621   1.410
10196SOL     OW31486   5.623   1.619   4.722
10196SOL    HW131487   5.639   1.664   4.634
10196SOL    HW231488   5.611   1.688   4.793
10197SOL     OW31489   6.883   1.827   4.915
10197SOL    HW131490   6.834   1.914   4.926
10197SOL    HW231491   6.981   1.842   4.934
10198SOL     OW31492   3.604   0.634   2.065
10198SOL    HW131493   3.534   0.605   2.130
10198SOL    HW231494   3.690   0.648   2.113
10199SOL     OW31495   2.265   2.661   6.408
10199SOL    HW131496   2.195   2.616   6.463
10199SOL    HW231497   2.355   2.645   6.449
10200SOL     OW31498   4.848   2.267   1.378
10200SOL    HW131499   4.915   2.306   1.316
10200SOL    HW231500   4.774   2.226   1.326
10201SOL     OW31501   0.846   4.483   0.802
10201SOL    HW131502   0.878   4.452   0.892
10201SOL    HW231503   0.857   4.583   0.796
10202SOL     OW31504   3.919   2.451   6.190
10202SOL    HW131505   3.925   2.447   6.290
10202SOL    HW231506   3.824   2.435   6.162
10203SOL     OW31507   5.529   2.822   4.271
10203SOL    HW131508   5.447   2.791   4.317
10203SOL    HW231509   5.566   2.902   4.318
10204SOL     OW31510   5.483   6.780   6.975
10204SOL    HW131511   5.509   6.825   6.890
10204SOL    HW231512   5.498   6.682   6.967
10205SOL     OW31513   0.630   1.805   0.276
10205SOL    HW131514   0.715   1.854   0.257
10205SOL    HW231515   0.594   1.835   0.365
10206SOL     OW31516   0.808   1.302   5.947
10206SOL    HW131517   0.848   1.348   6.026
10206SOL    HW231518   0.856   1.216   5.930
10207SOL     OW31519   1.264   1.991   6.312
10207SOL    HW131520   1.204   1.945   6.377
10207SOL    HW231521   1.242   1.960   6.219
10208SOL     OW31522   5.823   5.430   4.291
10208SOL    HW131523   5.726   5.409   4.279
10208SOL    HW231524   5.837   5.469   4.382
10209SOL     OW31525   6.948   6.980   6.003
10209SOL    HW131526   6.993   6.937   5.925
10209SOL    HW231527   6.876   0.021   5.971
10210SOL     OW31528   4.324   6.630   1.079
10210SOL    HW131529   4.352   6.617   0.984
10210SOL    HW231530   4.387   6.693   1.124
10211SOL     OW31531   3.674   6.490   4.943
10211SOL    HW131532   3.740   6.465   5.014
10211SOL    HW231533   3.648   6.586   4.953
10212SOL     OW31534   0.970   6.943   5.229
10212SOL    HW131535   1.036   6.947   5.304
10212SOL    HW231536   0.988   7.016   5.164
10213SOL     OW31537   4.722   2.737   0.873
10213SOL    HW131538   4.819   2.763   0.874
10213SOL    HW231539   4.667   2.812   0.910
10214SOL     OW31540   1.221   1.507   1.529
10214SOL    HW131541   1.294   1.574   1.541
10214SOL    HW231542   1.151   1.519   1.599
10215SOL     OW31543   4.028   3.175   3.142
10215SOL    HW131544   3.984   3.099   3.095
10215SOL    HW231545   4.030   3.157   3.241
10216SOL     OW31546   6.033   0.755   1.609
10216SOL    HW131547   6.007   0.813   1.686
10216SOL    HW231548   6.114   0.793   1.565
10217SOL     OW31549   2.562   0.793   3.628
10217SOL    HW131550   2.548   0.856   3.704
10217SOL    HW231551   2.656   0.759   3.629
10218SOL     OW31552   0.938   2.551   1.511
10218SOL    HW131553   1.035   2.543   1.533
10218SOL    HW231554   0.901   2.633   1.555
10219SOL     OW31555   0.029   1.490   2.070
10219SOL    HW131556   0.113   1.544   2.062
10219SOL    HW231557   6.998   1.495   1.984
10220SOL     OW31558   3.600   2.975   1.030
10220SOL    HW131559   3.672   3.030   1.074
10220SOL    HW231560   3.587   2.891   1.082
10221SOL     OW31561   0.746   5.629   3.197
10221SOL    HW131562   0.790   5.704   3.246
10221SOL    HW231563   0.758   5.642   3.099
10222SOL     OW31564   2.896   3.343   4.722
10222SOL    HW131565   2.816   3.284   4.711
10222SOL    HW231566   2.957   3.333   4.643
10223SOL     OW31567   0.778   5.228   0.819
10223SOL    HW131568   0.776   5.273   0.730
10223SOL    HW231569   0.684   5.205   0.846
10224SOL     OW31570   6.198   3.408   3.761
10224SOL    HW131571   6.251   3.476   3.711
10224SOL    HW231572   6.186   3.327   3.703
10225SOL     OW31573   1.527   4.306   5.739
10225SOL    HW131574   1.490   4.237   5.801
10225SOL    HW231575   1.621   4.281   5.713
10226SOL     OW31576   3.606   1.809   6.784
10226SOL    HW131577   3.700   1.783   6.803
10226SOL    HW231578   3.577   1.881   6.847
10227SOL     OW31579   5.522   4.066   0.771
10227SOL    HW131580   5.572   4.046   0.687
10227SOL    HW231581   5.574   4.031   0.849
10228SOL     OW31582   6.320   0.621   0.453
10228SOL    HW131583   6.385   0.693   0.428
10228SOL    HW231584   6.330   0.544   0.390
10229SOL     OW31585   0.429   3.097   5.192
10229SOL    HW131586   0.389   3.188   5.202
10229SOL    HW231587   0.515   3.093   5.243
10230SOL     OW31588   6.732   5.677   2.114
10230SOL    HW131589   6.653   5.644   2.062
10230SOL    HW231590   6.701   5.728   2.194
10231SOL     OW31591   1.502   5.871   3.728
10231SOL    HW131592   1.513   5.942   3.659
10231SOL    HW231593   1.541   5.902   3.815
10232SOL     OW31594   3.310   0.621   3.380
10232SOL    HW131595   3.232   0.591   3.325
10232SOL    HW231596   3.340   0.546   3.439
10233SOL     OW31597   3.724   4.341   6.120
10233SOL    HW131598   3.768   4.338   6.030
10233SOL    HW231599   3.636   4.389   6.111
10234SOL     OW31600   5.982   0.659   1.300
10234SOL    HW131601   6.028   0.658   1.211
10234SOL    HW231602   6.047   0.639   1.372
10235SOL     OW31603   1.037   1.008   3.324
10235SOL    HW131604   0.974   0.932   3.311
10235SOL    HW231605   0.986   1.088   3.356
10236SOL     OW31606   2.929   6.584   0.061
10236SOL    HW131607   2.954   6.502   0.010
10236SOL    HW231608   2.935   6.664   0.001
10237SOL     OW31609   0.438   3.337   6.895
10237SOL    HW131610   0.422   3.430   6.862
10237SOL    HW231611   0.486   3.341   6.982
10238SOL     OW31612   4.042   4.920   1.218
10238SOL    HW131613   4.013   4.835   1.174
10238SOL    HW231614   4.103   4.900   1.294
10239SOL     OW31615   1.713   3.045   4.633
10239SOL    HW131616   1.628   3.020   4.586
10239SOL    HW231617   1.731   3.142   4.619
10240SOL     OW31618   2.326   0.034   1.637
10240SOL    HW131619   2.385   0.001   1.711
10240SOL    HW231620   2.246   6.995   1.629
10241SOL     OW31621   5.122   2.026   1.994
10241SOL    HW131622   5.047   2.076   2.037
10241SOL    HW231623   5.205   2.082   1.996
10242SOL     OW31624   0.570   2.366   0.807
10242SOL    HW131625   0.653   2.318   0.781
10242SOL    HW231626   0.490   2.310   0.785
10243SOL     OW31627   2.766   4.555   1.157
10243SOL    HW131628   2.757   4.474   1.099
10243SOL    HW231629   2.796   4.633   1.101
10244SOL     OW31630   2.426   3.720   1.483
10244SOL    HW131631   2.451   3.763   1.570
10244SOL    HW231632   2.487   3.642   1.465
10245SOL     OW31633   3.176   4.065   0.580
10245SOL    HW131634   3.153   4.010   0.660
10245SOL    HW231635   3.274   4.082   0.578
10246SOL     OW31636   3.400   2.943   4.433
10246SOL    HW131637   3.458   2.972   4.510
10246SOL    HW231638   3.312   2.992   4.438
10247SOL     OW31639   1.246   3.970   4.914
10247SOL    HW131640   1.328   4.026   4.925
10247SOL    HW231641   1.266   3.891   4.857
10248SOL     OW31642   1.446   0.067   3.608
10248SOL    HW131643   1.363   0.065   3.664
10248SOL    HW231644   1.425   0.104   3.517
10249SOL     OW31645   1.653   4.823   7.007
10249SOL    HW131646   1.597   4.804   0.068
10249SOL    HW231647   1.704   4.740   6.982
10250SOL     OW31648   5.505   2.993   0.303
10250SOL    HW131649   5.423   2.962   0.350
10250SOL    HW231650   5.562   2.914   0.279
10251SOL     OW31651   1.619   0.311   3.873
10251SOL    HW131652   1.648   0.289   3.780
10251SOL    HW231653   1.552   0.243   3.904
10252SOL     OW31654   4.582   3.734   5.567
10252SOL    HW131655   4.615   3.775   5.482
10252SOL    HW231656   4.557   3.639   5.551
10253SOL     OW31657   3.778   6.871   0.043
10253SOL    HW131658   3.747   6.957   0.083
10253SOL    HW231659   3.702   6.826   7.017
10254SOL     OW31660   5.239   1.931   4.925
10254SOL    HW131661   5.277   1.897   5.011
10254SOL    HW231662   5.170   1.867   4.891
10255SOL     OW31663   3.125   5.745   1.353
10255SOL    HW131664   3.076   5.802   1.288
10255SOL    HW231665   3.171   5.670   1.305
10256SOL     OW31666   5.305   0.898   1.820
10256SOL    HW131667   5.316   0.856   1.729
10256SOL    HW231668   5.369   0.974   1.829
10257SOL     OW31669   2.966   5.181   3.340
10257SOL    HW131670   3.015   5.207   3.257
10257SOL    HW231671   2.960   5.082   3.346
10258SOL     OW31672   2.981   1.983   2.961
10258SOL    HW131673   2.929   1.911   2.914
10258SOL    HW231674   3.039   2.030   2.896
10259SOL     OW31675   0.939   4.344   4.163
10259SOL    HW131676   0.869   4.405   4.125
10259SOL    HW231677   0.919   4.326   4.259
10260SOL     OW31678   1.474   1.297   3.649
10260SOL    HW131679   1.432   1.286   3.559
10260SOL    HW231680   1.407   1.273   3.720
10261SOL     OW31681   0.545   3.781   0.672
10261SOL    HW131682   0.496   3.757   0.589
10261SOL    HW231683   0.625   3.722   0.683
10262SOL     OW31684   3.693   0.882   6.752
10262SOL    HW131685   3.779   0.840   6.722
10262SOL    HW231686   3.636   0.902   6.672
10263SOL     OW31687   6.172   0.744   0.943
10263SOL    HW131688   6.195   0.711   0.851
10263SOL    HW231689   6.111   0.679   0.988
10264SOL     OW31690   6.334   4.821   6.566
10264SOL    HW131691   6.289   4.846   6.652
10264SOL    HW231692   6.266   4.816   6.493
10265SOL     OW31693   2.498   2.789   0.418
10265SOL    HW131694   2.555   2.853   0.367
10265SOL    HW231695   2.554   2.715   0.454
10266SOL     OW31696   3.184   3.096   2.749
10266SOL    HW131697   3.239   3.176   2.728
10266SOL    HW231698   3.128   3.114   2.830
10267SOL     OW31699   5.384   0.494   0.808
10267SOL    HW131700   5.385   0.437   0.891
10267SOL    HW231701   5.374   0.590   0.834
10268SOL     OW31702   5.471   0.107   1.313
10268SOL    HW131703   5.408   0.170   1.267
10268SOL    HW231704   5.523   0.156   1.383
10269SOL     OW31705   1.740   2.250   6.399
10269SOL    HW131706   1.668   2.181   6.407
10269SOL    HW231707   1.704   2.331   6.353
10270SOL     OW31708   3.440   6.096   2.338
10270SOL    HW131709   3.539   6.100   2.350
10270SOL    HW231710   3.413   6.152   2.259
10271SOL     OW31711   2.911   2.051   0.825
10271SOL    HW131712   2.916   1.995   0.742
10271SOL    HW231713   2.851   2.129   0.809
10272SOL     OW31714   6.726   1.009   4.354
10272SOL    HW131715   6.788   1.074   4.398
10272SOL    HW231716   6.768   0.918   4.352
10273SOL     OW31717   3.009   5.533   4.151
10273SOL    HW131718   3.101   5.503   4.125
10273SOL    HW231719   2.972   5.471   4.220
10274SOL     OW31720   0.184   4.922   5.591
10274SOL    HW131721   0.157   4.857   5.520
10274SOL    HW231722   0.169   4.882   5.681
10275SOL     OW31723   0.093   0.685   3.059
10275SOL    HW131724   0.070   0.654   3.151
10275SOL    HW231725   0.188   0.662   3.038
10276SOL     OW31726   4.788   5.574   5.437
10276SOL    HW131727   4.863   5.551   5.376
10276SOL    HW231728   4.823   5.585   5.530
10277SOL     OW31729   1.299   6.762   4.073
10277SOL    HW131730   1.385   6.761   4.022
10277SOL    HW231731   1.305   6.699   4.150
10278SOL     OW31732   0.424   0.423   4.911
10278SOL    HW131733   0.353   0.431   4.841
10278SOL    HW231734   0.427   0.507   4.965
10279SOL     OW31735   2.674   5.497   4.453
10279SOL    HW131736   2.652   5.589   4.422
10279SOL    HW231737   2.621   5.476   4.536
10280SOL     OW31738   5.390   3.770   0.851
10280SOL    HW131739   5.307   3.755   0.797
10280SOL    HW231740   5.451   3.831   0.801
10281SOL     OW31741   6.762   2.317   3.455
10281SOL    HW131742   6.770   2.259   3.374
10281SOL    HW231743   6.678   2.371   3.450
10282SOL     OW31744   4.942   3.395   2.943
10282SOL    HW131745   4.915   3.308   2.984
10282SOL    HW231746   4.932   3.389   2.844
10283SOL     OW31747   0.169   3.642   1.142
10283SOL    HW131748   0.169   3.592   1.056
10283SOL    HW231749   0.132   3.733   1.128
10284SOL     OW31750   0.376   2.346   3.778
10284SOL    HW131751   0.391   2.255   3.739
10284SOL    HW231752   0.456   2.403   3.762
10285SOL     OW31753   4.143   6.470   3.472
10285SOL    HW131754   4.076   6.460   3.546
10285SOL    HW231755   4.158   6.382   3.428
10286SOL     OW31756   2.981   0.972   3.681
10286SOL    HW131757   2.992   0.918   3.597
10286SOL    HW231758   3.046   0.940   3.750
10287SOL     OW31759   1.983   6.174   1.794
10287SOL    HW131760   2.027   6.210   1.876
10287SOL    HW231761   1.971   6.075   1.803
10288SOL     OW31762   3.389   6.909   4.875
10288SOL    HW131763   3.320   6.976   4.849
10288SOL    HW231764   3.344   6.828   4.912
10289SOL     OW31765   3.162   6.381   0.645
10289SOL    HW131766   3.147   6.300   0.703
10289SOL    HW231767   3.079   6.436   0.643
10290SOL     OW31768   2.957   3.249   2.325
10290SOL    HW131769   2.942   3.336   2.278
10290SOL    HW231770   2.960   3.265   2.424
10291SOL     OW31771   3.199   0.813   3.001
10291SOL    HW131772   3.201   0.717   3.028
10291SOL    HW231773   3.189   0.820   2.902
10292SOL     OW31774   7.014   0.759   6.357
10292SOL    HW131775   6.998   0.828   6.286
10292SOL    HW231776   0.092   0.753   6.375
10293SOL     OW31777   0.636   3.872   3.889
10293SOL    HW131778   0.656   3.809   3.964
10293SOL    HW231779   0.540   3.864   3.864
10294SOL     OW31780   3.614   2.071   3.022
10294SOL    HW131781   3.564   1.993   2.985
10294SOL    HW231782   3.710   2.067   2.994
10295SOL     OW31783   1.223   2.480   6.284
10295SOL    HW131784   1.211   2.574   6.254
10295SOL    HW231785   1.290   2.434   6.225
10296SOL     OW31786   5.705   1.163   5.753
10296SOL    HW131787   5.610   1.143   5.731
10296SOL    HW231788   5.764   1.119   5.685
10297SOL     OW31789   2.993   1.817   6.743
10297SOL    HW131790   2.922   1.885   6.761
10297SOL    HW231791   2.968   1.730   6.786
10298SOL     OW31792   1.211   4.240   1.991
10298SOL    HW131793   1.158   4.166   1.952
10298SOL    HW231794   1.153   4.295   2.052
10299SOL     OW31795   4.774   6.728   2.444
10299SOL    HW131796   4.874   6.720   2.446
10299SOL    HW231797   4.745   6.795   2.513
10300SOL     OW31798   1.138   4.111   2.332
10300SOL    HW131799   1.124   4.052   2.411
10300SOL    HW231800   1.224   4.161   2.341
10301SOL     OW31801   3.818   1.769   5.448
10301SOL    HW131802   3.783   1.737   5.360
10301SOL    HW231803   3.773   1.855   5.473
10302SOL     OW31804   2.864   6.508   4.312
10302SOL    HW131805   2.850   6.603   4.283
10302SOL    HW231806   2.864   6.503   4.411
10303SOL     OW31807   1.204   6.136   3.906
10303SOL    HW131808   1.152   6.117   3.823
10303SOL    HW231809   1.294   6.171   3.881
10304SOL     OW31810   6.295   0.122   0.363
10304SOL    HW131811   6.216   0.154   0.309
10304SOL    HW231812   6.279   0.028   0.392
10305SOL     OW31813   3.273   3.751   5.984
10305SOL    HW131814   3.194   3.712   5.936
10305SOL    HW231815   3.339   3.785   5.917
10306SOL     OW31816   5.866   6.695   0.955
10306SOL    HW131817   5.822   6.710   1.043
10306SOL    HW231818   5.796   6.679   0.885
10307SOL     OW31819   2.922   1.352   4.917
10307SOL    HW131820   2.978   1.297   4.856
10307SOL    HW231821   2.870   1.418   4.864
10308SOL     OW31822   2.317   4.561   2.876
10308SOL    HW131823   2.240   4.532   2.933
10308SOL    HW231824   2.342   4.487   2.814
10309SOL     OW31825   6.156   0.923   5.727
10309SOL    HW131826   6.062   0.898   5.704
10309SOL    HW231827   6.155   0.982   5.808
10310SOL     OW31828   2.631   3.832   6.980
10310SOL    HW131829   2.591   3.910   0.009
10310SOL    HW231830   2.717   3.860   6.938
10311SOL     OW31831   5.761   5.517   6.882
10311SOL    HW131832   5.672   5.491   6.918
10311SOL    HW231833   5.783   5.610   6.911
10312SOL     OW31834   4.383   0.207   1.744
10312SOL    HW131835   4.465   0.157   1.773
10312SOL    HW231836   4.351   0.265   1.818
10313SOL     OW31837   3.928   5.638   2.909
10313SOL    HW131838   3.996   5.632   2.835
10313SOL    HW231839   3.933   5.555   2.965
10314SOL     OW31840   0.448   0.526   6.805
10314SOL    HW131841   0.378   0.468   6.762
10314SOL    HW231842   0.484   0.590   6.737
10315SOL     OW31843   4.917   6.642   3.467
10315SOL    HW131844   5.011   6.645   3.435
10315SOL    HW231845   4.859   6.696   3.405
10316SOL     OW31846   6.745   1.958   6.133
10316SOL    HW131847   6.707   1.941   6.042
10316SOL    HW231848   6.670   1.976   6.197
10317SOL     OW31849   3.607   5.860   5.756
10317SOL    HW131850   3.657   5.796   5.814
10317SOL    HW231851   3.653   5.868   5.668
10318SOL     OW31852   5.003   0.181   6.415
10318SOL    HW131853   4.926   0.161   6.476
10318SOL    HW231854   5.089   0.158   6.460
10319SOL     OW31855   0.428   4.560   5.649
10319SOL    HW131856   0.487   4.641   5.646
10319SOL    HW231857   0.341   4.580   5.604
10320SOL     OW31858   0.001   6.994   3.452
10320SOL    HW131859   6.984   6.931   3.520
10320SOL    HW231860   6.946   0.011   3.397
10321SOL     OW31861   6.109   2.441   2.011
10321SOL    HW131862   6.098   2.342   2.017
10321SOL    HW231863   6.024   2.486   2.039
10322SOL     OW31864   4.180   4.837   4.644
10322SOL    HW131865   4.192   4.757   4.585
10322SOL    HW231866   4.198   4.812   4.739
10323SOL     OW31867   6.553   4.928   5.297
10323SOL    HW131868   6.644   4.892   5.276
10323SOL    HW231869   6.555   4.975   5.385
10324SOL     OW31870   2.949   3.488   2.552
10324SOL    HW131871   2.952   3.389   2.566
10324SOL    HW231872   2.932   3.508   2.455
10325SOL     OW31873   0.280   5.364   2.529
10325SOL    HW131874   0.378   5.372   2.516
10325SOL    HW231875   0.240   5.307   2.457
10326SOL     OW31876   5.667   3.655   6.736
10326SOL    HW131877   5.714   3.668   6.649
10326SOL    HW231878   5.733   3.624   6.805
10327SOL     OW31879   2.430   3.148   1.454
10327SOL    HW131880   2.527   3.133   1.468
10327SOL    HW231881   2.398   3.223   1.512
10328SOL     OW31882   6.442   2.952   2.186
10328SOL    HW131883   6.363   2.896   2.211
10328SOL    HW231884   6.428   3.045   2.221
10329SOL     OW31885   2.964   0.531   2.773
10329SOL    HW131886   2.933   0.438   2.794
10329SOL    HW231887   2.896   0.576   2.716
10330SOL     OW31888   4.540   0.478   0.999
10330SOL    HW131889   4.528   0.571   1.036
10330SOL    HW231890   4.638   0.457   0.995
10331SOL     OW31891   6.406   5.933   6.738
10331SOL    HW131892   6.333   5.894   6.682
10331SOL    HW231893   6.494   5.894   6.711
10332SOL     OW31894   0.983   0.633   6.729
10332SOL    HW131895   0.951   0.572   6.656
10332SOL    HW231896   0.914   0.703   6.746
10333SOL     OW31897   0.535   5.745   4.502
10333SOL    HW131898   0.523   5.692   4.586
10333SOL    HW231899   0.542   5.842   4.524
10334SOL     OW31900   3.043   0.104   4.131
10334SOL    HW131901   3.027   0.201   4.146
10334SOL    HW231902   3.074   0.089   4.037
10335SOL     OW31903   0.858   4.427   6.807
10335SOL    HW131904   0.799   4.388   6.737
10335SOL    HW231905   0.954   4.419   6.778
10336SOL     OW31906   6.517   6.810   2.000
10336SOL    HW131907   6.459   6.803   1.919
10336SOL    HW231908   6.463   6.846   2.077
10337SOL     OW31909   6.703   5.604   0.224
10337SOL    HW131910   6.738   5.544   0.296
10337SOL    HW231911   6.607   5.626   0.243
10338SOL     OW31912   1.595   6.685   2.227
10338SOL    HW131913   1.620   6.670   2.322
10338SOL    HW231914   1.676   6.705   2.173
10339SOL     OW31915   6.146   3.709   6.269
10339SOL    HW131916   6.051   3.739   6.260
10339SOL    HW231917   6.206   3.780   6.233
10340SOL     OW31918   2.096   2.519   6.556
10340SOL    HW131919   2.075   2.437   6.503
10340SOL    HW231920   2.015   2.548   6.607
10341SOL     OW31921   2.065   3.459   2.227
10341SOL    HW131922   1.974   3.419   2.213
10341SOL    HW231923   2.114   3.459   2.140
10342SOL     OW31924   1.813   0.494   3.343
10342SOL    HW131925   1.803   0.584   3.385
10342SOL    HW231926   1.898   0.452   3.373
10343SOL     OW31927   2.431   5.281   0.825
10343SOL    HW131928   2.462   5.250   0.735
10343SOL    HW231929   2.510   5.295   0.885
10344SOL     OW31930   3.587   4.033   6.851
10344SOL    HW131931   3.516   4.097   6.880
10344SOL    HW231932   3.621   4.060   6.761
10345SOL     OW31933   1.305   3.075   5.421
10345SOL    HW131934   1.360   3.144   5.467
10345SOL    HW231935   1.365   3.007   5.379
10346SOL     OW31936   0.158   5.250   1.735
10346SOL    HW131937   0.141   5.300   1.650
10346SOL    HW231938   0.155   5.152   1.717
10347SOL     OW31939   4.533   1.090   3.471
10347SOL    HW131940   4.492   1.116   3.383
10347SOL    HW231941   4.619   1.041   3.454
10348SOL     OW31942   6.069   2.754   0.440
10348SOL    HW131943   6.070   2.818   0.363
10348SOL    HW231944   6.155   2.760   0.491
10349SOL     OW31945   0.679   0.125   6.339
10349SOL    HW131946   0.718   0.199   6.394
10349SOL    HW231947   0.697   0.143   6.242
10350SOL     OW31948   2.912   6.034   5.296
10350SOL    HW131949   2.831   6.093   5.291
10350SOL    HW231950   2.958   6.048   5.383
10351SOL     OW31951   4.638   5.205   5.607
10351SOL    HW131952   4.715   5.149   5.577
10351SOL    HW231953   4.637   5.210   5.707
10352SOL     OW31954   3.481   1.119   6.261
10352SOL    HW131955   3.420   1.191   6.228
10352SOL    HW231956   3.428   1.037   6.281
10353SOL     OW31957   6.584   2.879   4.787
10353SOL    HW131958   6.581   2.782   4.812
10353SOL    HW231959   6.515   2.929   4.840
10354SOL     OW31960   5.379   0.934   1.314
10354SOL    HW131961   5.301   0.983   1.355
10354SOL    HW231962   5.440   1.001   1.271
10355SOL     OW31963   2.618   6.264   2.318
10355SOL    HW131964   2.701   6.319   2.319
10355SOL    HW231965   2.628   6.188   2.254
10356SOL     OW31966   0.131   3.790   6.027
10356SOL    HW131967   0.087   3.719   5.973
10356SOL    HW231968   0.150   3.756   6.119
10357SOL     OW31969   2.214   2.111   6.093
10357SOL    HW131970   2.203   2.071   6.002
10357SOL    HW231971   2.139   2.175   6.111
10358SOL     OW31972   0.128   2.801   2.968
10358SOL    HW131973   0.073   2.777   3.047
10358SOL    HW231974   0.072   2.797   2.885
10359SOL     OW31975   0.262   1.593   1.688
10359SOL    HW131976   0.359   1.616   1.693
10359SOL    HW231977   0.220   1.644   1.613
10360SOL     OW31978   4.695   5.863   2.853
10360SOL    HW131979   4.687   5.765   2.836
10360SOL    HW231980   4.625   5.892   2.919
10361SOL     OW31981   3.001   5.604   2.650
10361SOL    HW131982   2.973   5.671   2.581
10361SOL    HW231983   3.091   5.568   2.625
10362SOL     OW31984   2.306   5.081   4.832
10362SOL    HW131985   2.224   5.056   4.884
10362SOL    HW231986   2.285   5.158   4.772
10363SOL     OW31987   5.451   0.505   3.046
10363SOL    HW131988   5.529   0.460   3.002
10363SOL    HW231989   5.425   0.587   2.993
10364SOL     OW31990   2.520   4.052   1.151
10364SOL    HW131991   2.452   4.019   1.086
10364SOL    HW231992   2.610   4.058   1.107
10365SOL     OW31993   4.114   5.588   0.041
10365SOL    HW131994   4.014   5.582   0.050
10365SOL    HW231995   4.150   5.654   0.107
10366SOL     OW31996   2.452   6.564   3.855
10366SOL    HW131997   2.522   6.496   3.877
10366SOL    HW231998   2.495   6.645   3.815
10367SOL     OW31999   6.132   2.230   3.066
10367SOL    HW132000   6.044   2.201   3.028
10367SOL    HW232001   6.172   2.155   3.118
10368SOL     OW32002   2.391   1.010   2.278
10368SOL    HW132003   2.304   0.965   2.262
10368SOL    HW232004   2.381   1.076   2.353
10369SOL     OW32005   3.621   1.888   1.069
10369SOL    HW132006   3.678   1.843   1.001
10369SOL    HW232007   3.528   1.898   1.035
10370SOL     OW32008   3.947   1.025   5.065
10370SOL    HW132009   3.950   0.950   5.132
10370SOL    HW232010   3.965   0.989   4.974
10371SOL     OW32011   4.485   6.053   4.952
10371SOL    HW132012   4.395   6.027   4.987
10371SOL    HW232013   4.496   6.018   4.859
10372SOL     OW32014   2.424   0.970   4.478
10372SOL    HW132015   2.496   0.966   4.548
10372SOL    HW232016   2.344   0.920   4.511
10373SOL     OW32017   1.095   6.741   4.512
10373SOL    HW132018   1.153   6.734   4.593
10373SOL    HW232019   1.000   6.720   4.536
10374SOL     OW32020   2.971   1.524   3.259
10374SOL    HW132021   3.040   1.597   3.252
10374SOL    HW232022   2.985   1.474   3.344
10375SOL     OW32023   5.407   2.277   1.142
10375SOL    HW132024   5.477   2.255   1.074
10375SOL    HW232025   5.393   2.199   1.203
10376SOL     OW32026   0.429   1.261   3.984
10376SOL    HW132027   0.348   1.319   3.976
10376SOL    HW232028   0.403   1.165   3.971
10377SOL     OW32029   0.376   0.422   3.753
10377SOL    HW132030   0.319   0.347   3.788
10377SOL    HW232031   0.402   0.402   3.658
10378SOL     OW32032   6.368   0.545   5.761
10378SOL    HW132033   6.366   0.447   5.779
10378SOL    HW232034   6.283   0.573   5.717
10379SOL     OW32035   5.304   0.213   4.608
10379SOL    HW132036   5.375   0.236   4.541
10379SOL    HW232037   5.215   0.244   4.574
10380SOL     OW32038   5.745   0.562   2.811
10380SOL    HW132039   5.731   0.637   2.875
10380SOL    HW232040   5.716   0.589   2.720
10381SOL     OW32041   4.668   5.311   6.096
10381SOL    HW132042   4.729   5.389   6.083
10381SOL    HW232043   4.577   5.344   6.123
10382SOL     OW32044   2.462   5.804   6.079
10382SOL    HW132045   2.490   5.708   6.071
10382SOL    HW232046   2.540   5.859   6.110
10383SOL     OW32047   0.663   2.430   1.128
10383SOL    HW132048   0.720   2.434   1.210
10383SOL    HW232049   0.637   2.522   1.101
10384SOL     OW32050   6.723   6.864   0.391
10384SOL    HW132051   6.681   6.841   0.478
10384SOL    HW232052   6.806   6.810   0.378
10385SOL     OW32053   6.125   1.069   5.977
10385SOL    HW132054   6.033   1.100   6.001
10385SOL    HW232055   6.171   1.035   6.059
10386SOL     OW32056   6.482   2.690   5.210
10386SOL    HW132057   6.419   2.639   5.150
10386SOL    HW232058   6.551   2.627   5.246
10387SOL     OW32059   1.851   2.653   2.864
10387SOL    HW132060   1.818   2.747   2.862
10387SOL    HW232061   1.832   2.613   2.953
10388SOL     OW32062   1.751   4.767   3.228
10388SOL    HW132063   1.777   4.770   3.325
10388SOL    HW232064   1.796   4.840   3.179
10389SOL     OW32065   1.078   4.875   3.964
10389SOL    HW132066   1.159   4.896   3.910
10389SOL    HW232067   1.101   4.810   4.036
10390SOL     OW32068   1.323   3.102   3.211
10390SOL    HW132069   1.366   3.154   3.138
10390SOL    HW232070   1.271   3.026   3.171
10391SOL     OW32071   1.954   6.217   6.706
10391SOL    HW132072   1.932   6.255   6.617
10391SOL    HW232073   2.035   6.159   6.699
10392SOL     OW32074   6.317   4.940   0.512
10392SOL    HW132075   6.361   5.014   0.564
10392SOL    HW232076   6.231   4.916   0.556
10393SOL     OW32077   0.734   1.243   4.318
10393SOL    HW132078   0.772   1.329   4.284
10393SOL    HW232079   0.768   1.167   4.263
10394SOL     OW32080   2.712   6.432   0.197
10394SOL    HW132081   2.643   6.422   0.126
10394SOL    HW232082   2.787   6.488   0.163
10395SOL     OW32083   0.156   0.643   4.636
10395SOL    HW132084   0.204   0.728   4.612
10395SOL    HW232085   0.211   0.564   4.609
10396SOL     OW32086   1.051   0.397   4.425
10396SOL    HW132087   1.021   0.455   4.349
10396SOL    HW232088   1.151   0.397   4.429
10397SOL     OW32089   3.718   0.888   3.944
10397SOL    HW132090   3.740   0.790   3.942
10397SOL    HW232091   3.801   0.941   3.925
10398SOL     OW32092   6.098   2.727   1.678
10398SOL    HW132093   6.103   2.628   1.685
10398SOL    HW232094   6.088   2.753   1.582
10399SOL     OW32095   5.230   2.523   4.950
10399SOL    HW132096   5.139   2.559   4.972
10399SOL    HW232097   5.256   2.551   4.858
10400SOL     OW32098   2.534   5.266   2.448
10400SOL    HW132099   2.622   5.246   2.405
10400SOL    HW232100   2.549   5.298   2.541
10401SOL     OW32101   0.592   5.980   1.856
10401SOL    HW132102   0.581   5.933   1.769
10401SOL    HW232103   0.543   5.931   1.928
10402SOL     OW32104   0.813   3.634   4.754
10402SOL    HW132105   0.718   3.630   4.784
10402SOL    HW232106   0.830   3.722   4.709
10403SOL     OW32107   5.560   1.519   1.721
10403SOL    HW132108   5.620   1.459   1.774
10403SOL    HW232109   5.607   1.606   1.705
10404SOL     OW32110   0.612   6.986   4.138
10404SOL    HW132111   0.580   6.975   4.232
10404SOL    HW232112   0.551   6.938   4.075
10405SOL     OW32113   1.694   6.255   5.776
10405SOL    HW132114   1.624   6.326   5.774
10405SOL    HW232115   1.716   6.233   5.871
10406SOL     OW32116   2.444   4.010   6.057
10406SOL    HW132117   2.427   4.089   6.115
10406SOL    HW232118   2.445   4.039   5.961
10407SOL     OW32119   1.174   2.408   6.538
10407SOL    HW132120   1.187   2.422   6.440
10407SOL    HW232121   1.258   2.369   6.577
10408SOL     OW32122   4.307   4.901   3.255
10408SOL    HW132123   4.377   4.956   3.299
10408SOL    HW232124   4.295   4.930   3.160
10409SOL     OW32125   0.507   4.433   2.372
10409SOL    HW132126   0.525   4.511   2.313
10409SOL    HW232127   0.557   4.353   2.337
10410SOL     OW32128   4.750   0.585   1.338
10410SOL    HW132129   4.796   0.498   1.323
10410SOL    HW232130   4.683   0.601   1.265
10411SOL     OW32131   2.472   4.759   2.871
10411SOL    HW132132   2.437   4.830   2.932
10411SOL    HW232133   2.410   4.681   2.872
10412SOL     OW32134   1.179   2.007   0.292
10412SOL    HW132135   1.272   2.045   0.286
10412SOL    HW232136   1.180   1.912   0.262
10413SOL     OW32137   6.943   2.524   0.099
10413SOL    HW132138   6.887   2.476   0.166
10413SOL    HW232139   6.884   2.569   0.032
10414SOL     OW32140   5.583   6.095   6.443
10414SOL    HW132141   5.677   6.127   6.455
10414SOL    HW232142   5.519   6.168   6.467
10415SOL     OW32143   0.197   5.867   4.131
10415SOL    HW132144   0.291   5.856   4.101
10415SOL    HW232145   0.145   5.784   4.111
10416SOL     OW32146   5.611   1.861   4.879
10416SOL    HW132147   5.559   1.909   4.808
10416SOL    HW232148   5.660   1.928   4.935
10417SOL     OW32149   4.030   4.813   3.762
10417SOL    HW132150   4.102   4.809   3.693
10417SOL    HW232151   3.941   4.814   3.718
10418SOL     OW32152   6.792   4.236   6.860
10418SOL    HW132153   6.802   4.142   6.892
10418SOL    HW232154   6.696   4.264   6.869
10419SOL     OW32155   3.064   1.215   4.745
10419SOL    HW132156   2.982   1.208   4.688
10419SOL    HW232157   3.119   1.132   4.736
10420SOL     OW32158   0.081   3.543   3.447
10420SOL    HW132159   7.018   3.597   3.462
10420SOL    HW232160   0.099   3.535   3.349
10421SOL     OW32161   1.232   4.588   4.448
10421SOL    HW132162   1.184   4.552   4.528
10421SOL    HW232163   1.258   4.683   4.464
10422SOL     OW32164   6.568   3.540   4.762
10422SOL    HW132165   6.589   3.622   4.708
10422SOL    HW232166   6.518   3.567   4.845
10423SOL     OW32167   3.261   4.994   4.027
10423SOL    HW132168   3.205   5.076   4.020
10423SOL    HW232169   3.304   4.976   3.938
10424SOL     OW32170   3.286   1.087   0.406
10424SOL    HW132171   3.234   1.132   0.478
10424SOL    HW232172   3.307   0.993   0.435
10425SOL     OW32173   1.899   1.456   0.689
10425SOL    HW132174   1.823   1.431   0.630
10425SOL    HW232175   1.865   1.476   0.781
10426SOL     OW32176   6.280   2.151   6.368
10426SOL    HW132177   6.307   2.151   6.464
10426SOL    HW232178   6.181   2.141   6.361
10427SOL     OW32179   5.542   6.827   4.352
10427SOL    HW132180   5.476   6.885   4.303
10427SOL    HW232181   5.502   6.737   4.367
10428SOL     OW32182   2.062   1.012   4.083
10428SOL    HW132183   2.009   1.086   4.042
10428SOL    HW232184   1.999   0.943   4.119
10429SOL     OW32185   1.023   3.116   2.430
10429SOL    HW132186   1.013   3.123   2.529
10429SOL    HW232187   0.949   3.060   2.393
10430SOL     OW32188   2.699   0.382   3.672
10430SOL    HW132189   2.716   0.426   3.584
10430SOL    HW232190   2.646   0.444   3.731
10431SOL     OW32191   3.042   0.923   3.404
10431SOL    HW132192   2.960   0.954   3.355
10431SOL    HW232193   3.123   0.940   3.347
10432SOL     OW32194   0.718   5.265   5.619
10432SOL    HW132195   0.738   5.171   5.647
10432SOL    HW232196   0.722   5.325   5.699
10433SOL     OW32197   2.027   0.009   2.788
10433SOL    HW132198   1.928   0.002   2.793
10433SOL    HW232199   2.057   7.014   2.694
10434SOL     OW32200   4.359   6.565   5.473
10434SOL    HW132201   4.405   6.503   5.410
10434SOL    HW232202   4.396   6.554   5.565
10435SOL     OW32203   2.361   1.905   6.890
10435SOL    HW132204   2.274   1.935   6.929
10435SOL    HW232205   2.407   1.843   6.953
10436SOL     OW32206   6.343   3.858   4.835
10436SOL    HW132207   6.301   3.784   4.782
10436SOL    HW232208   6.276   3.896   4.898
10437SOL     OW32209   5.140   5.974   5.024
10437SOL    HW132210   5.216   5.917   5.051
10437SOL    HW232211   5.088   6.002   5.105
10438SOL     OW32212   6.725   6.213   6.747
10438SOL    HW132213   6.744   6.309   6.771
10438SOL    HW232214   6.668   6.172   6.818
10439SOL     OW32215   6.588   6.538   5.106
10439SOL    HW132216   6.589   6.500   5.014
10439SOL    HW232217   6.495   6.567   5.129
10440SOL     OW32218   0.070   2.184   0.154
10440SOL    HW132219   0.105   2.097   0.122
10440SOL    HW232220   6.990   2.178   0.166
10441SOL     OW32221   3.581   2.217   0.957
10441SOL    HW132222   3.536   2.303   0.981
10441SOL    HW232223   3.543   2.143   1.012
10442SOL     OW32224   2.490   1.601   5.988
10442SOL    HW132225   2.527   1.637   6.073
10442SOL    HW232226   2.563   1.554   5.938
10443SOL     OW32227   0.139   1.832   3.224
10443SOL    HW132228   0.133   1.771   3.145
10443SOL    HW232229   0.125   1.780   3.308
10444SOL     OW32230   3.879   5.716   4.025
10444SOL    HW132231   3.855   5.636   4.080
10444SOL    HW232232   3.908   5.790   4.086
10445SOL     OW32233   1.430   4.000   2.929
10445SOL    HW132234   1.497   4.054   2.981
10445SOL    HW232235   1.475   3.920   2.890
10446SOL     OW32236   1.516   4.179   6.052
10446SOL    HW132237   1.486   4.098   6.002
10446SOL    HW232238   1.614   4.193   6.037
10447SOL     OW32239   0.278   2.358   2.509
10447SOL    HW132240   0.184   2.346   2.541
10447SOL    HW232241   0.337   2.291   2.554
10448SOL     OW32242   2.236   5.981   2.807
10448SOL    HW132243   2.273   5.994   2.715
10448SOL    HW232244   2.297   6.025   2.874
10449SOL     OW32245   4.065   5.262   5.347
10449SOL    HW132246   4.143   5.299   5.296
10449SOL    HW232247   4.041   5.325   5.421
10450SOL     OW32248   0.203   0.867   5.968
10450SOL    HW132249   0.202   0.947   6.027
10450SOL    HW232250   0.228   0.786   6.021
10451SOL     OW32251   2.373   0.795   3.179
10451SOL    HW132252   2.340   0.741   3.101
10451SOL    HW232253   2.358   0.893   3.159
10452SOL     OW32254   0.209   3.644   4.398
10452SOL    HW132255   0.153   3.562   4.390
10452SOL    HW232256   0.165   3.720   4.349
10453SOL     OW32257   3.922   5.744   3.453
10453SOL    HW132258   3.958   5.709   3.540
10453SOL    HW232259   3.863   5.675   3.412
10454SOL     OW32260   6.763   0.175   5.967
10454SOL    HW132261   6.678   0.226   5.975
10454SOL    HW232262   6.840   0.239   5.969
10455SOL     OW32263   6.044   6.368   3.624
10455SOL    HW132264   6.034   6.378   3.723
10455SOL    HW232265   6.135   6.334   3.603
10456SOL     OW32266   0.963   5.350   0.015
10456SOL    HW132267   0.895   5.368   0.086
10456SOL    HW232268   1.023   5.275   0.043
10457SOL     OW32269   3.837   2.522   6.855
10457SOL    HW132270   3.863   2.585   6.782
10457SOL    HW232271   3.745   2.544   6.887
10458SOL     OW32272   6.831   5.839   6.092
10458SOL    HW132273   6.836   5.780   6.011
10458SOL    HW232274   6.909   5.819   6.152
10459SOL     OW32275   0.226   5.230   0.058
10459SOL    HW132276   0.180   5.253   6.992
10459SOL    HW232277   0.205   5.135   0.082
10460SOL     OW32278   0.803   2.245   0.690
10460SOL    HW132279   0.816   2.309   0.614
10460SOL    HW232280   0.803   2.152   0.654
10461SOL     OW32281   6.960   5.034   5.495
10461SOL    HW132282   6.941   5.124   5.534
10461SOL    HW232283   0.023   4.996   5.536
10462SOL     OW32284   4.330   1.937   0.714
10462SOL    HW132285   4.235   1.943   0.683
10462SOL    HW232286   4.391   1.951   0.637
10463SOL     OW32287   4.895   2.473   6.103
10463SOL    HW132288   4.948   2.395   6.137
10463SOL    HW232289   4.798   2.451   6.104
10464SOL     OW32290   6.659   4.833   2.659
10464SOL    HW132291   6.620   4.898   2.724
10464SOL    HW232292   6.715   4.881   2.592
10465SOL     OW32293   5.131   4.570   1.969
10465SOL    HW132294   5.203   4.504   1.948
10465SOL    HW232295   5.053   4.524   2.011
10466SOL     OW32296   6.069   4.824   6.765
10466SOL    HW132297   5.984   4.813   6.817
10466SOL    HW232298   6.135   4.877   6.818
10467SOL     OW32299   1.983   2.747   6.949
10467SOL    HW132300   1.962   2.747   6.851
10467SOL    HW232301   1.976   2.840   6.985
10468SOL     OW32302   2.967   5.312   3.693
10468SOL    HW132303   3.043   5.261   3.652
10468SOL    HW232304   2.899   5.248   3.729
10469SOL     OW32305   6.285   1.409   4.636
10469SOL    HW132306   6.277   1.309   4.641
10469SOL    HW232307   6.324   1.443   4.722
10470SOL     OW32308   2.457   2.666   3.905
10470SOL    HW132309   2.423   2.759   3.924
10470SOL    HW232310   2.464   2.653   3.806
10471SOL     OW32311   3.478   6.996   0.302
10471SOL    HW132312   3.473   6.896   0.307
10471SOL    HW232313   3.392   0.016   0.333
10472SOL     OW32314   2.986   4.930   0.036
10472SOL    HW132315   3.005   4.890   6.967
10472SOL    HW232316   2.893   4.967   0.037
10473SOL     OW32317   5.227   5.226   6.950
10473SOL    HW132318   5.226   5.322   6.923
10473SOL    HW232319   5.170   5.214   0.011
10474SOL     OW32320   4.957   1.105   3.324
10474SOL    HW132321   5.042   1.155   3.339
10474SOL    HW232322   4.884   1.170   3.302
10475SOL     OW32323   1.118   0.058   1.132
10475SOL    HW132324   1.175   0.053   1.049
10475SOL    HW232325   1.160   0.003   1.204
10476SOL     OW32326   3.348   6.077   6.912
10476SOL    HW132327   3.278   6.082   6.983
10476SOL    HW232328   3.385   5.984   6.908
10477SOL     OW32329   6.355   5.936   3.618
10477SOL    HW132330   6.384   5.945   3.523
10477SOL    HW232331   6.256   5.951   3.625
10478SOL     OW32332   5.821   0.583   6.924
10478SOL    HW132333   5.879   0.664   6.913
10478SOL    HW232334   5.802   0.544   6.834
10479SOL     OW32335   0.607   2.452   2.024
10479SOL    HW132336   0.565   2.492   1.942
10479SOL    HW232337   0.652   2.366   1.999
10480SOL     OW32338   1.740   0.104   2.469
10480SOL    HW132339   1.705   0.132   2.380
10480SOL    HW232340   1.780   0.182   2.516
10481SOL     OW32341   0.031   0.895   2.831
10481SOL    HW132342   0.027   0.796   2.845
10481SOL    HW232343   0.060   0.939   2.916
10482SOL     OW32344   5.349   3.963   4.150
10482SOL    HW132345   5.422   3.972   4.218
10482SOL    HW232346   5.387   3.924   4.066
10483SOL     OW32347   6.153   5.671   0.408
10483SOL    HW132348   6.079   5.684   0.475
10483SOL    HW232349   6.149   5.578   0.372
10484SOL     OW32350   6.393   1.156   2.073
10484SOL    HW132351   6.374   1.064   2.038
10484SOL    HW232352   6.328   1.221   2.033
10485SOL     OW32353   5.489   3.398   5.573
10485SOL    HW132354   5.469   3.342   5.654
10485SOL    HW232355   5.531   3.340   5.502
10486SOL     OW32356   5.752   2.817   1.774
10486SOL    HW132357   5.733   2.824   1.676
10486SOL    HW232358   5.666   2.823   1.824
10487SOL     OW32359   6.080   6.844   1.735
10487SOL    HW132360   6.032   6.821   1.650
10487SOL    HW232361   6.018   6.897   1.794
10488SOL     OW32362   2.691   2.382   6.123
10488SOL    HW132363   2.642   2.344   6.045
10488SOL    HW232364   2.790   2.370   6.110
10489SOL     OW32365   0.272   5.764   6.195
10489SOL    HW132366   0.239   5.827   6.124
10489SOL    HW232367   0.196   5.715   6.235
10490SOL     OW32368   6.906   1.006   3.586
10490SOL    HW132369   6.947   1.042   3.670
10490SOL    HW232370   6.896   0.907   3.593
10491SOL     OW32371   1.712   4.815   6.085
10491SOL    HW132372   1.624   4.856   6.109
10491SOL    HW232373   1.697   4.724   6.048
10492SOL     OW32374   4.926   3.405   5.167
10492SOL    HW132375   4.863   3.383   5.241
10492SOL    HW232376   4.888   3.478   5.111
10493SOL     OW32377   3.601   1.030   1.282
10493SOL    HW132378   3.694   1.065   1.292
10493SOL    HW232379   3.569   0.994   1.369
10494SOL     OW32380   5.696   1.753   4.488
10494SOL    HW132381   5.676   1.840   4.534
10494SOL    HW232382   5.780   1.762   4.435
10495SOL     OW32383   1.477   6.769   0.802
10495SOL    HW132384   1.558   6.723   0.839
10495SOL    HW232385   1.438   6.713   0.729
10496SOL     OW32386   0.062   6.791   6.416
10496SOL    HW132387   0.132   6.735   6.460
10496SOL    HW232388   0.091   6.887   6.416
10497SOL     OW32389   1.215   0.820   1.005
10497SOL    HW132390   1.264   0.896   1.047
10497SOL    HW232391   1.230   0.821   0.906
10498SOL     OW32392   1.962   6.516   6.007
10498SOL    HW132393   2.021   6.576   6.060
10498SOL    HW232394   1.891   6.478   6.066
10499SOL     OW32395   3.273   5.776   3.410
10499SOL    HW132396   3.195   5.740   3.462
10499SOL    HW232397   3.291   5.715   3.332
10500SOL     OW32398   1.228   1.949   5.887
10500SOL    HW132399   1.134   1.981   5.873
10500SOL    HW232400   1.227   1.863   5.937
10501SOL     OW32401   1.798   3.795   2.687
10501SOL    HW132402   1.829   3.861   2.755
10501SOL    HW232403   1.760   3.844   2.609
10502SOL     OW32404   3.217   6.224   6.707
10502SOL    HW132405   3.198   6.184   6.617
10502SOL    HW232406   3.275   6.161   6.760
10503SOL     OW32407   3.349   2.895   0.048
10503SOL    HW132408   3.295   2.852   0.120
10503SOL    HW232409   3.291   2.915   6.989
10504SOL     OW32410   3.026   3.193   1.044
10504SOL    HW132411   3.043   3.146   1.131
10504SOL    HW232412   3.020   3.292   1.060
10505SOL     OW32413   6.513   5.842   1.536
10505SOL    HW132414   6.517   5.887   1.447
10505SOL    HW232415   6.605   5.828   1.571
10506SOL     OW32416   0.635   3.877   5.762
10506SOL    HW132417   0.631   3.968   5.804
10506SOL    HW232418   0.637   3.807   5.834
10507SOL     OW32419   1.029   0.569   6.267
10507SOL    HW132420   0.939   0.606   6.241
10507SOL    HW232421   1.101   0.625   6.226
10508SOL     OW32422   5.496   4.514   3.433
10508SOL    HW132423   5.427   4.571   3.389
10508SOL    HW232424   5.557   4.476   3.363
10509SOL     OW32425   1.204   6.853   6.502
10509SOL    HW132426   1.272   6.897   6.561
10509SOL    HW232427   1.151   6.923   6.455
10510SOL     OW32428   6.289   5.442   6.824
10510SOL    HW132429   6.346   5.522   6.841
10510SOL    HW232430   6.330   5.386   6.751
10511SOL     OW32431   4.475   2.685   0.366
10511SOL    HW132432   4.395   2.742   0.386
10511SOL    HW232433   4.447   2.606   0.312
10512SOL     OW32434   4.225   0.158   5.946
10512SOL    HW132435   4.180   0.097   5.881
10512SOL    HW232436   4.181   0.248   5.942
10513SOL     OW32437   0.619   2.276   6.165
10513SOL    HW132438   0.695   2.274   6.229
10513SOL    HW232439   0.539   2.316   6.210
10514SOL     OW32440   0.080   4.492   0.314
10514SOL    HW132441   0.141   4.557   0.270
10514SOL    HW232442   0.109   4.477   0.408
10515SOL     OW32443   6.581   2.010   3.605
10515SOL    HW132444   6.513   1.979   3.538
10515SOL    HW232445   6.583   2.110   3.606
10516SOL     OW32446   4.265   0.843   5.965
10516SOL    HW132447   4.214   0.925   5.940
10516SOL    HW232448   4.258   0.828   6.063
10517SOL     OW32449   6.276   1.759   2.117
10517SOL    HW132450   6.272   1.819   2.038
10517SOL    HW232451   6.189   1.764   2.167
10518SOL     OW32452   1.189   6.033   0.930
10518SOL    HW132453   1.243   5.956   0.894
10518SOL    HW232454   1.115   5.997   0.988
10519SOL     OW32455   3.027   3.340   6.289
10519SOL    HW132456   3.049   3.330   6.192
10519SOL    HW232457   2.967   3.419   6.301
10520SOL     OW32458   3.523   2.697   6.993
10520SOL    HW132459   3.474   2.780   0.001
10520SOL    HW232460   3.462   2.637   6.942
10521SOL     OW32461   6.540   5.875   1.273
10521SOL    HW132462   6.568   5.817   1.197
10521SOL    HW232463   6.567   5.970   1.254
10522SOL     OW32464   6.934   0.544   0.900
10522SOL    HW132465   6.944   0.635   0.860
10522SOL    HW232466   7.019   0.518   0.946
10523SOL     OW32467   0.277   5.632   5.922
10523SOL    HW132468   0.293   5.678   6.009
10523SOL    HW232469   0.221   5.691   5.864
10524SOL     OW32470   1.985   0.558   4.447
10524SOL    HW132471   1.958   0.477   4.395
10524SOL    HW232472   2.059   0.605   4.400
10525SOL     OW32473   1.915   6.712   5.238
10525SOL    HW132474   1.864   6.707   5.152
10525SOL    HW232475   1.973   6.793   5.237
10526SOL     OW32476   0.070   1.026   2.161
10526SOL    HW132477   7.006   0.978   2.189
10526SOL    HW232478   0.075   1.114   2.207
10527SOL     OW32479   0.753   2.842   4.504
10527SOL    HW132480   0.680   2.896   4.547
10527SOL    HW232481   0.801   2.789   4.574
10528SOL     OW32482   6.832   5.194   5.093
10528SOL    HW132483   6.899   5.165   5.162
10528SOL    HW232484   6.741   5.194   5.133
10529SOL     OW32485   6.478   7.018   3.547
10529SOL    HW132486   6.470   6.933   3.495
10529SOL    HW232487   6.492   0.074   3.484
10530SOL     OW32488   2.779   2.115   5.577
10530SOL    HW132489   2.715   2.040   5.560
10530SOL    HW232490   2.794   2.125   5.675
10531SOL     OW32491   1.415   3.285   4.540
10531SOL    HW132492   1.327   3.330   4.556
10531SOL    HW232493   1.475   3.347   4.490
10532SOL     OW32494   4.148   2.648   6.267
10532SOL    HW132495   4.155   2.694   6.179
10532SOL    HW232496   4.080   2.576   6.262
10533SOL     OW32497   2.741   0.881   5.660
10533SOL    HW132498   2.750   0.945   5.583
10533SOL    HW232499   2.741   0.932   5.746
10534SOL     OW32500   0.319   5.671   0.520
10534SOL    HW132501   0.261   5.699   0.596
10534SOL    HW232502   0.375   5.748   0.490
10535SOL     OW32503   0.686   1.317   2.291
10535SOL    HW132504   0.676   1.312   2.191
10535SOL    HW232505   0.693   1.413   2.318
10536SOL     OW32506   4.405   0.741   2.752
10536SOL    HW132507   4.476   0.799   2.711
10536SOL    HW232508   4.315   0.777   2.729
10537SOL     OW32509   2.428   5.065   2.275
10537SOL    HW132510   2.469   5.137   2.331
10537SOL    HW232511   2.330   5.082   2.264
10538SOL     OW32512   4.093   4.068   0.330
10538SOL    HW132513   4.040   4.139   0.284
10538SOL    HW232514   4.191   4.084   0.314
10539SOL     OW32515   0.508   3.233   6.324
10539SOL    HW132516   0.434   3.168   6.303
10539SOL    HW232517   0.576   3.231   6.250
10540SOL     OW32518   1.941   0.505   6.048
10540SOL    HW132519   1.869   0.522   5.981
10540SOL    HW232520   1.948   0.583   6.111
10541SOL     OW32521   4.066   3.379   0.213
10541SOL    HW132522   4.156   3.400   0.175
10541SOL    HW232523   4.074   3.359   0.310
10542SOL     OW32524   6.955   2.616   0.442
10542SOL    HW132525   6.952   2.659   0.532
10542SOL    HW232526   0.027   2.624   0.404
10543SOL     OW32527   0.445   1.644   5.745
10543SOL    HW132528   0.362   1.648   5.801
10543SOL    HW232529   0.422   1.656   5.649
10544SOL     OW32530   2.309   2.044   2.446
10544SOL    HW132531   2.324   2.007   2.538
10544SOL    HW232532   2.324   2.143   2.447
10545SOL     OW32533   0.046   0.416   2.215
10545SOL    HW132534   0.007   0.493   2.265
10545SOL    HW232535   0.139   0.399   2.247
10546SOL     OW32536   2.601   7.011   4.504
10546SOL    HW132537   2.598   6.918   4.542
10546SOL    HW232538   2.509   0.030   4.506
10547SOL     OW32539   4.383   1.506   1.217
10547SOL    HW132540   4.412   1.475   1.127
10547SOL    HW232541   4.352   1.428   1.271
10548SOL     OW32542   5.262   4.090   4.757
10548SOL    HW132543   5.359   4.115   4.752
10548SOL    HW232544   5.253   3.997   4.793
10549SOL     OW32545   1.209   0.444   2.169
10549SOL    HW132546   1.293   0.472   2.121
10549SOL    HW232547   1.215   0.347   2.193
10550SOL     OW32548   5.706   0.490   3.849
10550SOL    HW132549   5.686   0.542   3.766
10550SOL    HW232550   5.718   0.393   3.826
10551SOL     OW32551   1.160   2.054   5.537
10551SOL    HW132552   1.193   2.130   5.593
10551SOL    HW232553   1.069   2.075   5.502
10552SOL     OW32554   3.285   2.634   5.735
10552SOL    HW132555   3.196   2.637   5.691
10552SOL    HW232556   3.327   2.725   5.734
10553SOL     OW32557   0.840   5.871   6.986
10553SOL    HW132558   0.937   5.892   6.991
10553SOL    HW232559   0.826   5.773   7.006
10554SOL     OW32560   6.710   4.767   6.969
10554SOL    HW132561   6.752   4.682   7.001
10554SOL    HW232562   6.744   4.789   6.878
10555SOL     OW32563   3.499   1.532   2.388
10555SOL    HW132564   3.484   1.628   2.412
10555SOL    HW232565   3.433   1.506   2.317
10556SOL     OW32566   2.099   3.223   5.313
10556SOL    HW132567   2.197   3.233   5.330
10556SOL    HW232568   2.066   3.137   5.354
10557SOL     OW32569   6.985   2.730   3.205
10557SOL    HW132570   6.980   2.639   3.164
10557SOL    HW232571   7.007   2.721   3.302
10558SOL     OW32572   4.787   6.513   5.361
10558SOL    HW132573   4.805   6.599   5.408
10558SOL    HW232574   4.689   6.505   5.343
10559SOL     OW32575   4.980   1.870   0.875
10559SOL    HW132576   4.984   1.969   0.874
10559SOL    HW232577   4.884   1.841   0.876
10560SOL     OW32578   1.484   4.131   4.916
10560SOL    HW132579   1.571   4.087   4.939
10560SOL    HW232580   1.501   4.225   4.888
10561SOL     OW32581   1.844   4.658   6.850
10561SOL    HW132582   1.801   4.675   6.761
10561SOL    HW232583   1.902   4.577   6.845
10562SOL     OW32584   4.405   1.271   0.645
10562SOL    HW132585   4.354   1.313   0.570
10562SOL    HW232586   4.424   1.176   0.624
10563SOL     OW32587   1.789   2.244   5.241
10563SOL    HW132588   1.796   2.217   5.337
10563SOL    HW232589   1.846   2.325   5.225
10564SOL     OW32590   5.480   1.485   1.437
10564SOL    HW132591   5.507   1.460   1.344
10564SOL    HW232592   5.526   1.425   1.503
10565SOL     OW32593   5.956   1.139   5.332
10565SOL    HW132594   6.055   1.134   5.318
10565SOL    HW232595   5.915   1.050   5.309
10566SOL     OW32596   3.514   4.164   6.267
10566SOL    HW132597   3.610   4.136   6.259
10566SOL    HW232598   3.461   4.124   6.192
10567SOL     OW32599   1.810   3.550   4.084
10567SOL    HW132600   1.904   3.552   4.049
10567SOL    HW232601   1.796   3.627   4.147
10568SOL     OW32602   5.487   1.112   2.331
10568SOL    HW132603   5.489   1.015   2.353
10568SOL    HW232604   5.577   1.142   2.300
10569SOL     OW32605   6.037   2.872   3.252
10569SOL    HW132606   6.045   2.777   3.224
10569SOL    HW232607   5.950   2.910   3.220
10570SOL     OW32608   2.126   4.513   2.520
10570SOL    HW132609   2.106   4.514   2.422
10570SOL    HW232610   2.190   4.587   2.541
10571SOL     OW32611   6.584   5.948   2.690
10571SOL    HW132612   6.523   5.904   2.624
10571SOL    HW232613   6.675   5.908   2.682
10572SOL     OW32614   5.797   3.744   2.366
10572SOL    HW132615   5.856   3.696   2.301
10572SOL    HW232616   5.705   3.753   2.327
10573SOL     OW32617   6.409   5.494   3.933
10573SOL    HW132618   6.430   5.584   3.969
10573SOL    HW232619   6.324   5.498   3.880
10574SOL     OW32620   0.765   1.974   3.522
10574SOL    HW132621   0.689   1.942   3.578
10574SOL    HW232622   0.803   1.898   3.470
10575SOL     OW32623   0.963   0.873   5.079
10575SOL    HW132624   1.028   0.899   5.007
10575SOL    HW232625   0.958   0.946   5.147
10576SOL     OW32626   1.805   5.684   4.790
10576SOL    HW132627   1.805   5.586   4.807
10576SOL    HW232628   1.750   5.704   4.709
10577SOL     OW32629   1.993   3.020   6.059
10577SOL    HW132630   1.896   3.027   6.033
10577SOL    HW232631   2.000   2.990   6.154
10578SOL     OW32632   5.659   0.011   5.319
10578SOL    HW132633   5.709   6.989   5.244
10578SOL    HW232634   5.625   6.960   5.380
10579SOL     OW32635   4.690   1.718   0.564
10579SOL    HW132636   4.685   1.709   0.663
10579SOL    HW232637   4.719   1.631   0.524
10580SOL     OW32638   0.141   6.459   6.840
10580SOL    HW132639   0.100   6.550   6.847
10580SOL    HW232640   0.076   6.397   6.795
10581SOL     OW32641   5.475   0.779   3.608
10581SOL    HW132642   5.387   0.761   3.564
10581SOL    HW232643   5.523   0.692   3.622
10582SOL     OW32644   3.830   5.193   6.535
10582SOL    HW132645   3.900   5.147   6.589
10582SOL    HW232646   3.862   5.285   6.511
10583SOL     OW32647   3.635   0.900   0.228
10583SOL    HW132648   3.593   0.811   0.244
10583SOL    HW232649   3.581   0.950   0.160
10584SOL     OW32650   5.424   6.550   1.558
10584SOL    HW132651   5.482   6.479   1.517
10584SOL    HW232652   5.329   6.533   1.536
10585SOL     OW32653   0.889   2.811   6.454
10585SOL    HW132654   0.800   2.836   6.492
10585SOL    HW232655   0.876   2.743   6.381
10586SOL     OW32656   2.640   5.927   5.844
10586SOL    HW132657   2.733   5.933   5.880
10586SOL    HW232658   2.612   5.831   5.838
10587SOL     OW32659   6.318   3.780   0.599
10587SOL    HW132660   6.277   3.724   0.527
10587SOL    HW232661   6.303   3.736   0.688
10588SOL     OW32662   1.149   4.747   2.821
10588SOL    HW132663   1.149   4.774   2.918
10588SOL    HW232664   1.110   4.821   2.766
10589SOL     OW32665   5.626   2.495   4.317
10589SOL    HW132666   5.627   2.469   4.221
10589SOL    HW232667   5.715   2.532   4.343
10590SOL     OW32668   1.127   0.540   3.639
10590SOL    HW132669   1.078   0.457   3.665
10590SOL    HW232670   1.218   0.539   3.679
10591SOL     OW32671   1.188   1.769   6.732
10591SOL    HW132672   1.171   1.728   6.822
10591SOL    HW232673   1.286   1.784   6.720
10592SOL     OW32674   6.581   1.411   0.237
10592SOL    HW132675   6.589   1.376   0.330
10592SOL    HW232676   6.528   1.497   0.238
10593SOL     OW32677   2.175   5.474   1.528
10593SOL    HW132678   2.150   5.566   1.501
10593SOL    HW232679   2.176   5.467   1.628
10594SOL     OW32680   5.973   1.624   4.080
10594SOL    HW132681   5.876   1.645   4.064
10594SOL    HW232682   5.990   1.528   4.058
10595SOL     OW32683   3.742   6.570   6.288
10595SOL    HW132684   3.760   6.540   6.382
10595SOL    HW232685   3.829   6.575   6.238
10596SOL     OW32686   3.978   6.668   2.448
10596SOL    HW132687   3.887   6.686   2.412
10596SOL    HW232688   4.031   6.615   2.382
10597SOL     OW32689   2.213   0.741   5.124
10597SOL    HW132690   2.279   0.702   5.060
10597SOL    HW232691   2.147   0.671   5.150
10598SOL     OW32692   2.232   2.289   6.912
10598SOL    HW132693   2.165   2.221   6.883
10598SOL    HW232694   2.306   2.244   6.961
10599SOL     OW32695   6.027   0.506   0.100
10599SOL    HW132696   6.052   0.417   0.138
10599SOL    HW232697   5.928   0.517   0.102
10600SOL     OW32698   2.602   2.888   5.901
10600SOL    HW132699   2.676   2.908   5.837
10600SOL    HW232700   2.556   2.803   5.874
10601SOL     OW32701   2.741   6.488   6.217
10601SOL    HW132702   2.714   6.564   6.158
10601SOL    HW232703   2.663   6.460   6.273
10602SOL     OW32704   4.791   1.672   1.318
10602SOL    HW132705   4.845   1.589   1.306
10602SOL    HW232706   4.716   1.655   1.381
10603SOL     OW32707   1.967   5.065   3.929
10603SOL    HW132708   2.032   5.140   3.942
10603SOL    HW232709   2.016   4.978   3.927
10604SOL     OW32710   6.693   4.267   4.042
10604SOL    HW132711   6.767   4.238   4.102
10604SOL    HW232712   6.651   4.350   4.078
10605SOL     OW32713   0.795   5.261   6.845
10605SOL    HW132714   0.713   5.276   6.899
10605SOL    HW232715   0.875   5.295   6.895
10606SOL     OW32716   0.235   0.499   1.490
10606SOL    HW132717   0.200   0.530   1.402
10606SOL    HW232718   0.324   0.456   1.477
10607SOL     OW32719   4.883   4.556   6.488
10607SOL    HW132720   4.935   4.502   6.421
10607SOL    HW232721   4.797   4.587   6.446
10608SOL     OW32722   5.591   1.633   4.276
10608SOL    HW132723   5.637   1.655   4.361
10608SOL    HW232724   5.507   1.582   4.295
10609SOL     OW32725   4.201   6.335   0.596
10609SOL    HW132726   4.170   6.424   0.564
10609SOL    HW232727   4.289   6.313   0.555
10610SOL     OW32728   1.501   3.391   5.935
10610SOL    HW132729   1.439   3.313   5.922
10610SOL    HW232730   1.586   3.359   5.976
10611SOL     OW32731   5.557   2.569   6.137
10611SOL    HW132732   5.544   2.633   6.061
10611SOL    HW232733   5.467   2.539   6.170
10612SOL     OW32734   2.569   0.051   6.869
10612SOL    HW132735   2.557   0.103   6.954
10612SOL    HW232736   2.557   0.112   6.791
10613SOL     OW32737   0.196   6.693   6.014
10613SOL    HW132738   0.251   6.737   6.084
10613SOL    HW232739   0.153   6.610   6.052
10614SOL     OW32740   6.265   1.164   4.275
10614SOL    HW132741   6.289   1.103   4.199
10614SOL    HW232742   6.329   1.150   4.350
10615SOL     OW32743   5.121   5.336   5.039
10615SOL    HW132744   5.117   5.242   5.072
10615SOL    HW232745   5.174   5.391   5.103
10616SOL     OW32746   3.245   6.436   0.181
10616SOL    HW132747   3.186   6.425   0.261
10616SOL    HW232748   3.324   6.375   0.190
10617SOL     OW32749   2.461   2.224   0.778
10617SOL    HW132750   2.397   2.151   0.805
10617SOL    HW232751   2.414   2.288   0.717
10618SOL     OW32752   6.040   3.169   0.007
10618SOL    HW132753   6.000   3.079   0.024
10618SOL    HW232754   5.977   3.240   0.037
10619SOL     OW32755   0.871   4.256   3.710
10619SOL    HW132756   0.862   4.163   3.675
10619SOL    HW232757   0.951   4.300   3.670
10620SOL     OW32758   1.579   6.079   4.705
10620SOL    HW132759   1.659   6.019   4.700
10620SOL    HW232760   1.607   6.173   4.685
10621SOL     OW32761   1.786   6.291   6.975
10621SOL    HW132762   1.864   6.312   6.915
10621SOL    HW232763   1.774   6.365   0.021
10622SOL     OW32764   3.652   0.265   1.495
10622SOL    HW132765   3.710   0.242   1.573
10622SOL    HW232766   3.659   0.363   1.476
10623SOL     OW32767   6.251   2.347   3.934
10623SOL    HW132768   6.255   2.289   3.852
10623SOL    HW232769   6.276   2.441   3.909
10624SOL     OW32770   1.543   0.956   4.414
10624SOL    HW132771   1.571   1.051   4.425
10624SOL    HW232772   1.491   0.927   4.495
10625SOL     OW32773   0.749   3.055   6.756
10625SOL    HW132774   0.731   3.099   6.844
10625SOL    HW232775   0.717   3.113   6.682
10626SOL     OW32776   0.583   1.573   2.073
10626SOL    HW132777   0.624   1.489   2.040
10626SOL    HW232778   0.588   1.577   2.172
10627SOL     OW32779   6.387   6.316   2.802
10627SOL    HW132780   6.304   6.324   2.746
10627SOL    HW232781   6.363   6.326   2.898
10628SOL     OW32782   6.319   5.606   5.617
10628SOL    HW132783   6.366   5.519   5.600
10628SOL    HW232784   6.374   5.681   5.581
10629SOL     OW32785   2.804   5.295   5.716
10629SOL    HW132786   2.785   5.242   5.634
10629SOL    HW232787   2.820   5.390   5.691
10630SOL     OW32788   6.219   1.767   3.569
10630SOL    HW132789   6.177   1.685   3.532
10630SOL    HW232790   6.176   1.848   3.529
10631SOL     OW32791   0.683   6.729   3.765
10631SOL    HW132792   0.615   6.789   3.720
10631SOL    HW232793   0.756   6.785   3.803
10632SOL     OW32794   6.643   1.973   4.659
10632SOL    HW132795   6.638   2.056   4.604
10632SOL    HW232796   6.564   1.915   4.639
10633SOL     OW32797   2.496   5.841   1.443
10633SOL    HW132798   2.494   5.887   1.532
10633SOL    HW232799   2.507   5.742   1.457
10634SOL     OW32800   3.588   6.056   1.053
10634SOL    HW132801   3.601   6.143   1.006
10634SOL    HW232802   3.523   6.068   1.128
10635SOL     OW32803   2.316   0.392   1.389
10635SOL    HW132804   2.234   0.446   1.371
10635SOL    HW232805   2.292   0.295   1.388
10636SOL     OW32806   0.703   1.831   1.103
10636SOL    HW132807   0.744   1.805   1.190
10636SOL    HW232808   0.741   1.917   1.072
10637SOL     OW32809   3.413   4.181   4.539
10637SOL    HW132810   3.461   4.232   4.610
10637SOL    HW232811   3.315   4.183   4.557
10638SOL     OW32812   6.600   6.418   4.866
10638SOL    HW132813   6.689   6.461   4.876
10638SOL    HW232814   6.591   6.382   4.773
10639SOL     OW32815   1.708   1.024   4.974
10639SOL    HW132816   1.708   0.967   5.057
10639SOL    HW232817   1.646   1.101   4.987
10640SOL     OW32818   5.127   1.463   0.101
10640SOL    HW132819   5.088   1.414   0.023
10640SOL    HW232820   5.218   1.497   0.078
10641SOL     OW32821   5.817   1.629   6.995
10641SOL    HW132822   5.761   1.687   6.936
10641SOL    HW232823   5.811   1.661   0.070
10642SOL     OW32824   0.306   2.298   1.947
10642SOL    HW132825   0.396   2.259   1.930
10642SOL    HW232826   0.291   2.305   2.046
10643SOL     OW32827   2.683   3.461   5.590
10643SOL    HW132828   2.693   3.402   5.510
10643SOL    HW232829   2.668   3.556   5.560
10644SOL     OW32830   4.536   1.667   3.979
10644SOL    HW132831   4.586   1.580   3.981
10644SOL    HW232832   4.523   1.696   3.884
10645SOL     OW32833   2.190   0.183   4.894
10645SOL    HW132834   2.168   0.121   4.819
10645SOL    HW232835   2.131   0.264   4.890
10646SOL     OW32836   1.290   3.198   5.941
10646SOL    HW132837   1.260   3.135   5.869
10646SOL    HW232838   1.212   3.223   5.999
10647SOL     OW32839   6.715   5.152   0.580
10647SOL    HW132840   6.803   5.195   0.558
10647SOL    HW232841   6.681   5.104   0.499
10648SOL     OW32842   4.800   2.772   0.032
10648SOL    HW132843   4.731   2.761   0.104
10648SOL    HW232844   4.762   2.740   6.965
10649SOL     OW32845   6.696   4.843   5.735
10649SOL    HW132846   6.701   4.778   5.659
10649SOL    HW232847   6.777   4.833   5.793
10650SOL     OW32848   2.569   6.139   3.886
10650SOL    HW132849   2.514   6.114   3.966
10650SOL    HW232850   2.511   6.138   3.804
10651SOL     OW32851   4.821   6.700   5.785
10651SOL    HW132852   4.757   6.773   5.761
10651SOL    HW232853   4.908   6.740   5.815
10652SOL     OW32854   3.645   0.510   6.153
10652SOL    HW132855   3.735   0.474   6.179
10652SOL    HW232856   3.591   0.438   6.111
10653SOL     OW32857   5.434   4.528   4.316
10653SOL    HW132858   5.393   4.550   4.227
10653SOL    HW232859   5.426   4.607   4.376
10654SOL     OW32860   3.965   1.092   0.690
10654SOL    HW132861   3.880   1.097   0.742
10654SOL    HW232862   4.028   1.163   0.721
10655SOL     OW32863   2.950   5.936   1.209
10655SOL    HW132864   2.863   5.984   1.211
10655SOL    HW232865   2.948   5.866   1.138
10656SOL     OW32866   6.520   2.514   0.067
10656SOL    HW132867   6.469   2.586   0.113
10656SOL    HW232868   6.496   2.425   0.107
10657SOL     OW32869   5.814   0.886   1.356
10657SOL    HW132870   5.872   0.810   1.328
10657SOL    HW232871   5.758   0.858   1.434
10658SOL     OW32872   0.340   5.276   4.286
10658SOL    HW132873   0.341   5.374   4.308
10658SOL    HW232874   0.255   5.254   4.239
10659SOL     OW32875   6.088   0.361   0.605
10659SOL    HW132876   6.000   0.379   0.562
10659SOL    HW232877   6.121   0.445   0.651
10660SOL     OW32878   4.493   5.017   5.487
10660SOL    HW132879   4.510   4.938   5.545
10660SOL    HW232880   4.548   5.094   5.519
10661SOL     OW32881   0.381   6.706   2.827
10661SOL    HW132882   0.311   6.681   2.894
10661SOL    HW232883   0.337   6.743   2.745
10662SOL     OW32884   6.133   1.380   0.709
10662SOL    HW132885   6.075   1.329   0.646
10662SOL    HW232886   6.114   1.350   0.803
10663SOL     OW32887   6.743   0.205   0.119
10663SOL    HW132888   6.680   0.179   0.193
10663SOL    HW232889   6.777   0.298   0.135
10664SOL     OW32890   2.249   5.429   0.281
10664SOL    HW132891   2.213   5.516   0.317
10664SOL    HW232892   2.252   5.361   0.354
10665SOL     OW32893   6.375   1.614   0.898
10665SOL    HW132894   6.324   1.546   0.951
10665SOL    HW232895   6.415   1.681   0.960
10666SOL     OW32896   2.019   6.485   0.084
10666SOL    HW132897   2.023   6.493   7.004
10666SOL    HW232898   2.033   6.575   0.125
10667SOL     OW32899   3.183   2.192   5.933
10667SOL    HW132900   3.128   2.112   5.959
10667SOL    HW232901   3.147   2.231   5.849
10668SOL     OW32902   1.769   1.482   6.463
10668SOL    HW132903   1.726   1.478   6.373
10668SOL    HW232904   1.867   1.462   6.455
10669SOL     OW32905   1.603   0.086   0.024
10669SOL    HW132906   1.517   0.101   6.994
10669SOL    HW232907   1.603   7.013   0.061
10670SOL     OW32908   6.071   4.482   5.888
10670SOL    HW132909   6.044   4.531   5.805
10670SOL    HW232910   6.169   4.494   5.903
10671SOL     OW32911   2.685   1.574   3.398
10671SOL    HW132912   2.598   1.537   3.428
10671SOL    HW232913   2.672   1.623   3.311
10672SOL     OW32914   6.926   3.059   1.398
10672SOL    HW132915   6.982   3.031   1.476
10672SOL    HW232916   6.938   2.993   1.323
10673SOL     OW32917   2.670   3.123   5.323
10673SOL    HW132918   2.585   3.101   5.275
10673SOL    HW232919   2.651   3.136   5.420
10674SOL     OW32920   3.858   3.428   1.451
10674SOL    HW132921   3.760   3.439   1.461
10674SOL    HW232922   3.906   3.490   1.513
10675SOL     OW32923   0.110   0.287   5.647
10675SOL    HW132924   0.165   0.263   5.567
10675SOL    HW232925   0.055   0.368   5.628
10676SOL     OW32926   6.162   6.950   6.426
10676SOL    HW132927   6.238   6.951   6.491
10676SOL    HW232928   6.162   0.015   6.373
10677SOL     OW32929   0.258   0.490   0.911
10677SOL    HW132930   0.349   0.528   0.929
10677SOL    HW232931   0.227   0.520   0.820
10678SOL     OW32932   2.379   6.055   2.552
10678SOL    HW132933   2.371   6.102   2.465
10678SOL    HW232934   2.381   5.956   2.536
10679SOL     OW32935   5.269   5.221   4.770
10679SOL    HW132936   5.215   5.162   4.710
10679SOL    HW232937   5.227   5.312   4.774
10680SOL     OW32938   1.493   3.094   2.596
10680SOL    HW132939   1.516   2.996   2.600
10680SOL    HW232940   1.394   3.105   2.607
10681SOL     OW32941   6.754   1.751   5.898
10681SOL    HW132942   6.819   1.735   5.972
10681SOL    HW232943   6.726   1.663   5.859
10682SOL     OW32944   0.039   1.604   3.047
10682SOL    HW132945   6.993   1.633   3.117
10682SOL    HW232946   7.016   1.605   2.957
10683SOL     OW32947   1.694   1.643   4.944
10683SOL    HW132948   1.640   1.593   5.011
10683SOL    HW232949   1.768   1.692   4.990
10684SOL     OW32950   5.696   4.154   0.002
10684SOL    HW132951   5.712   4.117   6.930
10684SOL    HW232952   5.614   4.211   0.001
10685SOL     OW32953   0.276   3.020   3.057
10685SOL    HW132954   0.229   2.932   3.064
10685SOL    HW232955   0.340   3.029   3.133
10686SOL     OW32956   3.370   5.358   0.059
10686SOL    HW132957   3.350   5.331   6.985
10686SOL    HW232958   3.459   5.403   0.062
10687SOL     OW32959   0.354   4.816   3.282
10687SOL    HW132960   0.420   4.744   3.304
10687SOL    HW232961   0.352   4.831   3.183
10688SOL     OW32962   6.534   5.026   1.820
10688SOL    HW132963   6.550   4.927   1.818
10688SOL    HW232964   6.440   5.044   1.846
10689SOL     OW32965   0.786   1.261   2.617
10689SOL    HW132966   0.775   1.191   2.546
10689SOL    HW232967   0.875   1.250   2.661
10690SOL     OW32968   4.142   5.003   1.768
10690SOL    HW132969   4.058   4.982   1.818
10690SOL    HW232970   4.186   4.919   1.739
10691SOL     OW32971   6.920   1.466   1.567
10691SOL    HW132972   6.990   1.457   1.496
10691SOL    HW232973   6.907   1.378   1.613
10692SOL     OW32974   3.649   6.078   3.536
10692SOL    HW132975   3.677   6.100   3.443
10692SOL    HW232976   3.600   5.990   3.536
10693SOL     OW32977   6.756   1.798   1.910
10693SOL    HW132978   6.848   1.812   1.872
10693SOL    HW232979   6.743   1.701   1.929
10694SOL     OW32980   4.036   6.550   0.444
10694SOL    HW132981   4.016   6.611   0.367
10694SOL    HW232982   3.980   6.468   0.438
10695SOL     OW32983   0.138   3.061   3.959
10695SOL    HW132984   0.064   2.993   3.964
10695SOL    HW232985   0.204   3.035   3.889
10696SOL     OW32986   0.143   6.213   1.971
10696SOL    HW132987   0.227   6.164   1.947
10696SOL    HW232988   0.075   6.148   2.006
10697SOL     OW32989   2.379   5.398   3.462
10697SOL    HW132990   2.370   5.494   3.436
10697SOL    HW232991   2.409   5.392   3.558
10698SOL     OW32992   2.818   6.447   3.479
10698SOL    HW132993   2.908   6.489   3.490
10698SOL    HW232994   2.829   6.349   3.464
10699SOL     OW32995   2.594   2.337   2.655
10699SOL    HW132996   2.682   2.291   2.643
10699SOL    HW232997   2.530   2.304   2.586
10700SOL     OW32998   6.790   6.722   1.063
10700SOL    HW132999   6.807   6.821   1.064
10700SOL    HW233000   6.698   6.704   1.029
10701SOL     OW33001   2.968   6.300   1.085
10701SOL    HW133002   2.913   6.284   1.003
10701SOL    HW233003   2.998   6.395   1.086
10702SOL     OW33004   6.334   3.192   1.253
10702SOL    HW133005   6.282   3.141   1.320
10702SOL    HW233006   6.403   3.132   1.212
10703SOL     OW33007   3.831   3.667   3.902
10703SOL    HW133008   3.827   3.661   3.802
10703SOL    HW233009   3.738   3.667   3.939
10704SOL     OW33010   5.168   6.938   2.348
10704SOL    HW133011   5.075   6.934   2.311
10704SOL    HW233012   5.178   0.001   2.404
10705SOL     OW33013   0.387   2.690   6.268
10705SOL    HW133014   0.475   2.732   6.244
10705SOL    HW233015   0.359   2.722   6.359
10706SOL     OW33016   3.417   1.179   2.007
10706SOL    HW133017   3.367   1.198   2.091
10706SOL    HW233018   3.488   1.248   1.994
10707SOL     OW33019   5.861   0.040   6.092
10707SOL    HW133020   5.832   6.968   6.120
10707SOL    HW233021   5.828   0.107   6.158
10708SOL     OW33022   5.272   1.362   1.181
10708SOL    HW133023   5.281   1.441   1.241
10708SOL    HW233024   5.247   1.392   1.089
10709SOL     OW33025   6.624   6.055   5.814
10709SOL    HW133026   6.720   6.051   5.783
10709SOL    HW233027   6.586   5.963   5.819
10710SOL     OW33028   5.963   5.325   3.426
10710SOL    HW133029   6.007   5.378   3.353
10710SOL    HW233030   5.896   5.383   3.474
10711SOL     OW33031   1.453   6.308   3.870
10711SOL    HW133032   1.465   6.307   3.771
10711SOL    HW233033   1.438   6.402   3.901
10712SOL     OW33034   3.362   1.508   4.818
10712SOL    HW133035   3.404   1.590   4.856
10712SOL    HW233036   3.307   1.533   4.738
10713SOL     OW33037   0.751   6.209   1.373
10713SOL    HW133038   0.651   6.208   1.369
10713SOL    HW233039   0.787   6.130   1.323
10714SOL     OW33040   6.863   5.145   5.924
10714SOL    HW133041   6.874   5.056   5.879
10714SOL    HW233042   6.782   5.143   5.983
10715SOL     OW33043   5.708   1.245   4.296
10715SOL    HW133044   5.670   1.318   4.240
10715SOL    HW233045   5.807   1.256   4.302
10716SOL     OW33046   6.024   0.115   3.674
10716SOL    HW133047   6.021   0.017   3.653
10716SOL    HW233048   6.075   0.130   3.758
10717SOL     OW33049   0.047   6.986   1.137
10717SOL    HW133050   0.114   0.038   1.114
10717SOL    HW233051   0.094   6.898   1.144
10718SOL     OW33052   0.045   4.787   6.918
10718SOL    HW133053   0.137   4.794   6.956
10718SOL    HW233054   0.009   4.695   6.935
10719SOL     OW33055   5.423   0.670   2.008
10719SOL    HW133056   5.390   0.656   2.101
10719SOL    HW233057   5.400   0.762   1.977
10720SOL     OW33058   0.407   3.618   6.918
10720SOL    HW133059   0.356   3.683   6.861
10720SOL    HW233060   0.391   3.639   7.014
10721SOL     OW33061   4.851   2.536   4.070
10721SOL    HW133062   4.775   2.474   4.051
10721SOL    HW233063   4.816   2.620   4.112
10722SOL     OW33064   0.485   3.983   0.287
10722SOL    HW133065   0.529   3.975   0.377
10722SOL    HW233066   0.485   4.079   0.259
10723SOL     OW33067   6.418   4.280   0.190
10723SOL    HW133068   6.508   4.253   0.225
10723SOL    HW233069   6.400   4.375   0.217
10724SOL     OW33070   3.709   6.490   5.912
10724SOL    HW133071   3.757   6.566   5.868
10724SOL    HW233072   3.655   6.441   5.843
10725SOL     OW33073   6.638   5.836   4.598
10725SOL    HW133074   6.711   5.903   4.588
10725SOL    HW233075   6.610   5.803   4.508
10726SOL     OW33076   5.576   0.606   4.072
10726SOL    HW133077   5.497   0.666   4.075
10726SOL    HW233078   5.600   0.587   3.977
10727SOL     OW33079   2.178   5.915   6.336
10727SOL    HW133080   2.177   5.926   6.237
10727SOL    HW233081   2.233   5.835   6.360
10728SOL     OW33082   4.888   5.707   3.060
10728SOL    HW133083   4.881   5.777   2.989
10728SOL    HW233084   4.955   5.638   3.033
10729SOL     OW33085   6.107   3.184   3.613
10729SOL    HW133086   6.143   3.094   3.590
10729SOL    HW233087   6.086   3.234   3.528
10730SOL     OW33088   1.968   6.049   2.908
10730SOL    HW133089   1.977   6.148   2.912
10730SOL    HW233090   2.053   6.008   2.874
10731SOL     OW33091   4.686   6.654   6.348
10731SOL    HW133092   4.630   6.575   6.374
10731SOL    HW233093   4.769   6.623   6.303
10732SOL     OW33094   6.213   5.735   3.171
10732SOL    HW133095   6.177   5.781   3.252
10732SOL    HW233096   6.228   5.638   3.192
10733SOL     OW33097   0.483   0.774   6.375
10733SOL    HW133098   0.546   0.848   6.350
10733SOL    HW233099   0.481   0.705   6.302
10734SOL     OW33100   1.556   1.247   5.148
10734SOL    HW133101   1.485   1.190   5.190
10734SOL    HW233102   1.535   1.344   5.164
10735SOL     OW33103   0.802   5.699   2.217
10735SOL    HW133104   0.899   5.711   2.194
10735SOL    HW233105   0.791   5.615   2.269
10736SOL     OW33106   5.687   6.479   3.811
10736SOL    HW133107   5.726   6.490   3.902
10736SOL    HW233108   5.759   6.485   3.742
10737SOL     OW33109   6.401   1.532   2.181
10737SOL    HW133110   6.329   1.480   2.226
10737SOL    HW233111   6.375   1.629   2.177
10738SOL     OW33112   3.601   1.035   1.793
10738SOL    HW133113   3.693   1.033   1.833
10738SOL    HW233114   3.578   1.129   1.768
10739SOL     OW33115   5.358   2.539   3.538
10739SOL    HW133116   5.312   2.621   3.570
10739SOL    HW233117   5.295   2.461   3.543
10740SOL     OW33118   1.911   6.932   6.008
10740SOL    HW133119   2.010   6.919   6.018
10740SOL    HW233120   1.878   6.992   6.080
10741SOL     OW33121   2.478   2.264   3.580
10741SOL    HW133122   2.520   2.345   3.539
10741SOL    HW233123   2.488   2.267   3.679
10742SOL     OW33124   6.463   6.291   2.526
10742SOL    HW133125   6.515   6.206   2.538
10742SOL    HW233126   6.453   6.336   2.615
10743SOL     OW33127   3.165   1.196   5.885
10743SOL    HW133128   3.132   1.284   5.920
10743SOL    HW233129   3.098   1.157   5.822
10744SOL     OW33130   2.204   0.881   1.282
10744SOL    HW133131   2.213   0.807   1.348
10744SOL    HW233132   2.115   0.877   1.238
10745SOL     OW33133   1.171   4.913   2.063
10745SOL    HW133134   1.153   4.815   2.068
10745SOL    HW233135   1.270   4.928   2.052
10746SOL     OW33136   1.992   5.971   6.506
10746SOL    HW133137   2.012   5.949   6.602
10746SOL    HW233138   2.066   5.938   6.448
10747SOL     OW33139   5.930   1.174   5.015
10747SOL    HW133140   5.899   1.243   4.950
10747SOL    HW233141   5.896   1.195   5.106
10748SOL     OW33142   4.067   6.170   1.047
10748SOL    HW133143   3.985   6.215   1.084
10748SOL    HW233144   4.144   6.234   1.051
10749SOL     OW33145   5.609   5.228   2.271
10749SOL    HW133146   5.694   5.268   2.308
10749SOL    HW233147   5.590   5.142   2.318
10750SOL     OW33148   5.227   2.342   3.863
10750SOL    HW133149   5.287   2.278   3.815
10750SOL    HW233150   5.162   2.292   3.920
10751SOL     OW33151   0.175   4.619   5.556
10751SOL    HW133152   0.175   4.665   5.467
10751SOL    HW233153   0.084   4.582   5.575
10752SOL     OW33154   6.339   6.492   0.475
10752SOL    HW133155   6.307   6.398   0.492
10752SOL    HW233156   6.327   6.514   0.378
10753SOL     OW33157   4.652   6.635   4.021
10753SOL    HW133158   4.690   6.589   4.102
10753SOL    HW233159   4.569   6.587   3.992
10754SOL     OW33160   0.739   3.950   1.994
10754SOL    HW133161   0.668   4.018   2.014
10754SOL    HW233162   0.808   3.951   2.067
10755SOL     OW33163   6.164   3.151   1.483
10755SOL    HW133164   6.078   3.114   1.517
10755SOL    HW233165   6.236   3.134   1.551
10756SOL     OW33166   0.601   1.536   0.381
10756SOL    HW133167   0.586   1.620   0.329
10756SOL    HW233168   0.692   1.500   0.360
10757SOL     OW33169   0.547   4.233   1.640
10757SOL    HW133170   0.635   4.239   1.688
10757SOL    HW233171   0.564   4.208   1.544
10758SOL     OW33172   0.588   0.135   6.724
10758SOL    HW133173   0.649   0.162   6.650
10758SOL    HW233174   0.622   0.172   6.810
10759SOL     OW33175   2.716   2.107   6.148
10759SOL    HW133176   2.766   2.074   6.228
10759SOL    HW233177   2.686   2.202   6.163
10760SOL     OW33178   1.071   5.578   0.204
10760SOL    HW133179   1.042   5.623   0.288
10760SOL    HW233180   1.113   5.490   0.227
10761SOL     OW33181   0.396   1.047   5.865
10761SOL    HW133182   0.332   0.976   5.895
10761SOL    HW233183   0.365   1.136   5.899
10762SOL     OW33184   3.087   6.185   6.455
10762SOL    HW133185   3.003   6.187   6.401
10762SOL    HW233186   3.153   6.124   6.412
10763SOL     OW33187   5.164   6.778   3.491
10763SOL    HW133188   5.209   6.701   3.536
10763SOL    HW233189   5.117   6.833   3.560
10764SOL     OW33190   4.439   0.768   4.290
10764SOL    HW133191   4.470   0.775   4.195
10764SOL    HW233192   4.340   0.773   4.293
10765SOL     OW33193   6.613   2.200   2.481
10765SOL    HW133194   6.580   2.213   2.388
10765SOL    HW233195   6.701   2.152   2.480
10766SOL     OW33196   1.715   5.499   6.537
10766SOL    HW133197   1.779   5.551   6.481
10766SOL    HW233198   1.659   5.561   6.591
10767SOL     OW33199   1.486   5.380   0.534
10767SOL    HW133200   1.527   5.454   0.588
10767SOL    HW233201   1.550   5.303   0.530
10768SOL     OW33202   5.484   6.049   0.459
10768SOL    HW133203   5.564   6.019   0.406
10768SOL    HW233204   5.415   5.977   0.459
10769SOL     OW33205   3.387   3.271   4.745
10769SOL    HW133206   3.293   3.280   4.776
10769SOL    HW233207   3.401   3.327   4.663
10770SOL     OW33208   5.308   0.276   3.618
10770SOL    HW133209   5.248   0.282   3.538
10770SOL    HW233210   5.378   0.206   3.601
10771SOL     OW33211   4.779   5.976   5.612
10771SOL    HW133212   4.736   5.929   5.690
10771SOL    HW233213   4.751   5.931   5.527
10772SOL     OW33214   5.366   5.413   2.862
10772SOL    HW133215   5.284   5.367   2.828
10772SOL    HW233216   5.342   5.469   2.942
10773SOL     OW33217   0.037   3.474   1.521
10773SOL    HW133218   0.071   3.423   1.601
10773SOL    HW233219   0.115   3.510   1.470
10774SOL     OW33220   0.936   2.836   0.582
10774SOL    HW133221   0.863   2.866   0.643
10774SOL    HW233222   1.020   2.888   0.602
10775SOL     OW33223   1.494   4.226   0.297
10775SOL    HW133224   1.454   4.142   0.332
10775SOL    HW233225   1.550   4.269   0.368
10776SOL     OW33226   0.860   2.700   3.602
10776SOL    HW133227   0.832   2.737   3.513
10776SOL    HW233228   0.858   2.600   3.600
10777SOL     OW33229   3.421   1.498   2.134
10777SOL    HW133230   3.410   1.597   2.147
10777SOL    HW233231   3.354   1.465   2.068
10778SOL     OW33232   6.538   6.831   3.093
10778SOL    HW133233   6.519   6.782   3.007
10778SOL    HW233234   6.506   6.925   3.085
10779SOL     OW33235   5.247   3.822   4.826
10779SOL    HW133236   5.180   3.822   4.901
10779SOL    HW233237   5.336   3.790   4.861
10780SOL     OW33238   1.591   5.771   5.118
10780SOL    HW133239   1.570   5.861   5.078
10780SOL    HW233240   1.667   5.780   5.182
10781SOL     OW33241   5.972   2.183   5.334
10781SOL    HW133242   5.879   2.190   5.299
10781SOL    HW233243   6.024   2.118   5.277
10782SOL     OW33244   1.435   2.461   4.874
10782SOL    HW133245   1.428   2.555   4.908
10782SOL    HW233246   1.349   2.435   4.831
10783SOL     OW33247   1.166   2.503   2.841
10783SOL    HW133248   1.174   2.599   2.869
10783SOL    HW233249   1.086   2.462   2.884
10784SOL     OW33250   3.554   5.796   2.598
10784SOL    HW133251   3.507   5.882   2.618
10784SOL    HW233252   3.614   5.808   2.519
10785SOL     OW33253   1.996   5.644   2.244
10785SOL    HW133254   1.992   5.707   2.322
10785SOL    HW233255   1.951   5.687   2.165
10786SOL     OW33256   4.043   1.312   2.048
10786SOL    HW133257   3.984   1.393   2.053
10786SOL    HW233258   3.992   1.236   2.007
10787SOL     OW33259   3.842   0.624   3.162
10787SOL    HW133260   3.751   0.592   3.187
10787SOL    HW233261   3.867   0.702   3.219
10788SOL     OW33262   1.342   4.576   0.567
10788SOL    HW133263   1.347   4.556   0.469
10788SOL    HW233264   1.420   4.632   0.594
10789SOL     OW33265   6.488   1.328   1.578
10789SOL    HW133266   6.476   1.427   1.568
10789SOL    HW233267   6.549   1.309   1.655
10790SOL     OW33268   0.466   1.738   4.847
10790SOL    HW133269   0.533   1.774   4.912
10790SOL    HW233270   0.375   1.740   4.888
10791SOL     OW33271   1.254   1.887   3.849
10791SOL    HW133272   1.320   1.919   3.780
10791SOL    HW233273   1.279   1.794   3.877
10792SOL     OW33274   4.218   1.613   1.501
10792SOL    HW133275   4.235   1.705   1.466
10792SOL    HW233276   4.228   1.546   1.427
10793SOL     OW33277   4.208   2.013   4.809
10793SOL    HW133278   4.177   1.958   4.731
10793SOL    HW233279   4.293   2.059   4.784
10794SOL     OW33280   4.617   2.491   0.791
10794SOL    HW133281   4.690   2.471   0.725
10794SOL    HW233282   4.644   2.570   0.847
10795SOL     OW33283   6.952   3.766   3.429
10795SOL    HW133284   6.858   3.801   3.432
10795SOL    HW233285   6.991   3.767   3.521
10796SOL     OW33286   0.348   6.784   6.228
10796SOL    HW133287   0.402   6.841   6.291
10796SOL    HW233288   0.359   6.688   6.252
10797SOL     OW33289   4.112   3.940   6.982
10797SOL    HW133290   4.201   3.977   7.007
10797SOL    HW233291   4.069   4.001   6.915
10798SOL     OW33292   2.212   0.270   0.147
10798SOL    HW133293   2.235   0.326   0.068
10798SOL    HW233294   2.129   0.218   0.128
10799SOL     OW33295   2.456   1.103   2.911
10799SOL    HW133296   2.376   1.081   2.967
10799SOL    HW233297   2.524   1.029   2.919
10800SOL     OW33298   1.959   0.145   5.772
10800SOL    HW133299   1.952   0.076   5.844
10800SOL    HW233300   1.911   0.114   5.690
10801SOL     OW33301   2.581   6.711   6.059
10801SOL    HW133302   2.541   6.663   5.981
10801SOL    HW233303   2.630   6.792   6.027
10802SOL     OW33304   0.816   4.875   4.791
10802SOL    HW133305   0.796   4.873   4.693
10802SOL    HW233306   0.820   4.970   4.822
10803SOL     OW33307   0.342   4.116   4.774
10803SOL    HW133308   0.335   4.179   4.698
10803SOL    HW233309   0.437   4.086   4.785
10804SOL     OW33310   5.238   4.836   0.951
10804SOL    HW133311   5.204   4.904   1.016
10804SOL    HW233312   5.193   4.749   0.968
10805SOL     OW33313   4.269   6.872   0.282
10805SOL    HW133314   4.259   6.788   0.228
10805SOL    HW233315   4.189   6.930   0.267
10806SOL     OW33316   5.480   3.611   0.108
10806SOL    HW133317   5.566   3.645   0.073
10806SOL    HW233318   5.424   3.687   0.141
10807SOL     OW33319   4.811   0.048   3.477
10807SOL    HW133320   4.735   0.001   3.522
10807SOL    HW233321   4.813   0.143   3.508
10808SOL     OW33322   0.045   2.647   6.634
10808SOL    HW133323   0.073   2.729   6.583
10808SOL    HW233324   7.009   2.589   6.575
10809SOL     OW33325   2.775   1.259   3.292
10809SOL    HW133326   2.779   1.359   3.295
10809SOL    HW233327   2.769   1.223   3.386
10810SOL     OW33328   0.527   1.687   6.125
10810SOL    HW133329   0.540   1.595   6.089
10810SOL    HW233330   0.615   1.724   6.157
10811SOL     OW33331   4.652   4.796   5.602
10811SOL    HW133332   4.743   4.819   5.566
10811SOL    HW233333   4.628   4.702   5.577
10812SOL     OW33334   6.732   2.115   3.283
10812SOL    HW133335   6.766   2.040   3.340
10812SOL    HW233336   6.651   2.084   3.232
10813SOL     OW33337   2.378   6.038   2.183
10813SOL    HW133338   2.477   6.025   2.185
10813SOL    HW233339   2.334   5.962   2.230
10814SOL     OW33340   1.682   6.650   5.061
10814SOL    HW133341   1.716   6.607   4.977
10814SOL    HW233342   1.620   6.724   5.037
10815SOL     OW33343   5.061   2.490   2.642
10815SOL    HW133344   4.962   2.487   2.659
10815SOL    HW233345   5.097   2.578   2.670
10816SOL     OW33346   1.893   1.805   2.306
10816SOL    HW133347   1.973   1.854   2.270
10816SOL    HW233348   1.911   1.778   2.401
10817SOL     OW33349   4.940   6.945   2.156
10817SOL    HW133350   4.865   6.894   2.199
10817SOL    HW233351   4.905   0.011   2.118
10818SOL     OW33352   5.037   3.116   6.764
10818SOL    HW133353   5.028   3.042   6.698
10818SOL    HW233354   5.112   3.177   6.737
10819SOL     OW33355   0.550   3.500   5.791
10819SOL    HW133356   0.594   3.571   5.846
10819SOL    HW233357   0.607   3.480   5.711
10820SOL     OW33358   0.255   6.764   4.460
10820SOL    HW133359   0.200   6.681   4.456
10820SOL    HW233360   0.201   6.841   4.424
10821SOL     OW33361   6.719   0.099   0.485
10821SOL    HW133362   6.799   0.157   0.497
10821SOL    HW233363   6.748   0.004   0.473
10822SOL     OW33364   1.471   4.729   1.170
10822SOL    HW133365   1.503   4.697   1.081
10822SOL    HW233366   1.448   4.826   1.164
10823SOL     OW33367   1.439   1.043   1.581
10823SOL    HW133368   1.481   1.099   1.509
10823SOL    HW233369   1.492   0.959   1.594
10824SOL     OW33370   5.636   0.328   2.897
10824SOL    HW133371   5.688   0.409   2.871
10824SOL    HW233372   5.699   0.258   2.932
10825SOL     OW33373   3.369   1.523   1.105
10825SOL    HW133374   3.398   1.427   1.104
10825SOL    HW233375   3.426   1.574   1.170
10826SOL     OW33376   6.586   2.969   1.573
10826SOL    HW133377   6.522   2.897   1.546
10826SOL    HW233378   6.667   2.928   1.615
10827SOL     OW33379   0.237   2.686   4.364
10827SOL    HW133380   0.204   2.725   4.278
10827SOL    HW233381   0.335   2.673   4.359
10828SOL     OW33382   1.245   5.933   0.259
10828SOL    HW133383   1.168   5.966   0.313
10828SOL    HW233384   1.288   6.009   0.210
10829SOL     OW33385   2.536   3.465   1.414
10829SOL    HW133386   2.608   3.401   1.387
10829SOL    HW233387   2.496   3.435   1.500
10830SOL     OW33388   4.803   1.749   3.801
10830SOL    HW133389   4.816   1.678   3.731
10830SOL    HW233390   4.746   1.822   3.764
10831SOL     OW33391   5.513   2.328   3.444
10831SOL    HW133392   5.482   2.401   3.504
10831SOL    HW233393   5.547   2.252   3.499
10832SOL     OW33394   0.062   2.188   1.521
10832SOL    HW133395   0.003   2.222   1.594
10832SOL    HW233396   0.157   2.211   1.542
10833SOL     OW33397   3.160   6.534   4.349
10833SOL    HW133398   3.060   6.528   4.346
10833SOL    HW233399   3.191   6.507   4.440
10834SOL     OW33400   0.856   1.062   5.810
10834SOL    HW133401   0.830   1.071   5.714
10834SOL    HW233402   0.903   0.975   5.824
10835SOL     OW33403   6.656   1.756   2.311
10835SOL    HW133404   6.625   1.809   2.232
10835SOL    HW233405   6.756   1.752   2.311
10836SOL     OW33406   2.004   2.290   6.400
10836SOL    HW133407   2.050   2.233   6.468
10836SOL    HW233408   1.906   2.270   6.401
10837SOL     OW33409   0.854   5.613   1.381
10837SOL    HW133410   0.784   5.571   1.439
10837SOL    HW233411   0.922   5.658   1.439
10838SOL     OW33412   6.271   6.574   0.779
10838SOL    HW133413   6.240   6.649   0.838
10838SOL    HW233414   6.314   6.612   0.697
10839SOL     OW33415   2.249   2.065   0.927
10839SOL    HW133416   2.278   1.970   0.918
10839SOL    HW233417   2.149   2.069   0.934
10840SOL     OW33418   3.603   4.974   2.622
10840SOL    HW133419   3.599   5.068   2.655
10840SOL    HW233420   3.629   4.914   2.698
10841SOL     OW33421   4.196   4.438   6.078
10841SOL    HW133422   4.134   4.370   6.038
10841SOL    HW233423   4.286   4.428   6.036
10842SOL     OW33424   6.328   3.077   1.686
10842SOL    HW133425   6.391   3.020   1.634
10842SOL    HW233426   6.369   3.103   1.773
10843SOL     OW33427   0.367   0.886   1.875
10843SOL    HW133428   0.314   0.953   1.927
10843SOL    HW233429   0.323   0.872   1.786
10844SOL     OW33430   3.525   6.299   3.679
10844SOL    HW133431   3.510   6.277   3.776
10844SOL    HW233432   3.541   6.215   3.628
10845SOL     OW33433   2.222   2.880   0.446
10845SOL    HW133434   2.211   2.892   0.545
10845SOL    HW233435   2.319   2.872   0.424
10846SOL     OW33436   3.235   2.099   1.992
10846SOL    HW133437   3.151   2.128   2.039
10846SOL    HW233438   3.309   2.093   2.058
10847SOL     OW33439   4.146   2.812   6.011
10847SOL    HW133440   4.201   2.803   5.928
10847SOL    HW233441   4.054   2.774   5.994
10848SOL     OW33442   1.712   1.433   0.049
10848SOL    HW133443   1.723   1.426   0.148
10848SOL    HW233444   1.662   1.353   0.016
10849SOL     OW33445   2.812   4.790   4.383
10849SOL    HW133446   2.893   4.799   4.440
10849SOL    HW233447   2.760   4.875   4.385
10850SOL     OW33448   5.730   0.327   1.178
10850SOL    HW133449   5.802   0.345   1.112
10850SOL    HW233450   5.701   0.232   1.172
10851SOL     OW33451   4.221   2.231   6.498
10851SOL    HW133452   4.190   2.172   6.424
10851SOL    HW233453   4.167   2.315   6.498
10852SOL     OW33454   0.755   6.805   6.563
10852SOL    HW133455   0.767   6.706   6.575
10852SOL    HW233456   0.726   6.845   6.650
10853SOL     OW33457   2.183   1.567   4.746
10853SOL    HW133458   2.089   1.538   4.763
10853SOL    HW233459   2.214   1.625   4.822
10854SOL     OW33460   0.258   6.653   0.217
10854SOL    HW133461   0.230   6.599   0.297
10854SOL    HW233462   0.182   6.658   0.153
10855SOL     OW33463   1.160   6.102   1.257
10855SOL    HW133464   1.134   6.169   1.188
10855SOL    HW233465   1.135   6.137   1.348
10856SOL     OW33466   6.057   0.190   6.524
10856SOL    HW133467   6.069   0.285   6.495
10856SOL    HW233468   6.027   0.187   6.620
10857SOL     OW33469   6.207   0.275   4.716
10857SOL    HW133470   6.148   0.323   4.651
10857SOL    HW233471   6.192   0.309   4.808
10858SOL     OW33472   2.349   1.612   0.613
10858SOL    HW133473   2.431   1.591   0.665
10858SOL    HW233474   2.268   1.600   0.671
10859SOL     OW33475   0.760   5.267   2.083
10859SOL    HW133476   0.739   5.241   1.989
10859SOL    HW233477   0.839   5.215   2.116
10860SOL     OW33478   5.923   2.613   0.617
10860SOL    HW133479   5.871   2.663   0.686
10860SOL    HW233480   5.981   2.676   0.566
10861SOL     OW33481   3.402   2.887   2.268
10861SOL    HW133482   3.502   2.882   2.280
10861SOL    HW233483   3.360   2.918   2.353
10862SOL     OW33484   3.923   3.176   5.687
10862SOL    HW133485   3.937   3.273   5.707
10862SOL    HW233486   3.827   3.153   5.697
10863SOL     OW33487   2.143   1.728   2.829
10863SOL    HW133488   2.210   1.800   2.810
10863SOL    HW233489   2.053   1.769   2.841
10864SOL     OW33490   3.057   4.857   1.933
10864SOL    HW133491   3.033   4.883   1.839
10864SOL    HW233492   2.976   4.823   1.980
10865SOL     OW33493   3.221   1.404   2.869
10865SOL    HW133494   3.137   1.430   2.917
10865SOL    HW233495   3.297   1.462   2.900
10866SOL     OW33496   6.684   3.770   3.421
10866SOL    HW133497   6.658   3.678   3.394
10866SOL    HW233498   6.691   3.828   3.340
10867SOL     OW33499   4.386   3.637   0.544
10867SOL    HW133500   4.324   3.614   0.619
10867SOL    HW233501   4.478   3.650   0.579
10868SOL     OW33502   1.410   0.899   4.972
10868SOL    HW133503   1.389   0.842   5.051
10868SOL    HW233504   1.508   0.915   4.968
10869NA      NA33505   6.779   1.837   5.652
10870NA      NA33506   4.454   4.567   5.222
10871NA      NA33507   1.578   4.846   2.923
10872NA      NA33508   5.967   3.924   3.540
10873NA      NA33509   3.640   2.268   5.479
10874NA      NA33510   2.294   4.939   0.291
10875NA      NA33511   1.415   5.611   6.898
10876NA      NA33512   3.547   4.406   0.951
10877NA      NA33513   4.329   5.129   0.589
10878NA      NA33514   3.400   1.100   6.532
10879NA      NA33515   5.523   6.919   1.874
10880NA      NA33516   2.052   6.559   5.370
10881NA      NA33517   4.037   5.376   1.514
10882NA      NA33518   3.642   3.581   6.711
   7.01993   7.01993   7.01993
