Generated by trjconv : CNT in water t= 162.00000
33518
    1C        C    1   2.839   2.769   4.746
    1C        C    2   2.895   2.718   4.865
    1C        C    3   2.844   2.777   4.981
    1C        C    4   2.849   2.774   4.261
    1C        C    5   2.899   2.726   4.384
    1C        C    6   2.845   2.776   4.505
    1C        C    7   3.013   2.642   4.625
    1C        C    8   2.899   2.726   4.625
    1C        C    9   3.076   2.605   4.746
    1C        C   10   3.010   2.636   4.867
    1C        C   11   3.183   2.504   4.978
    1C        C   12   3.061   2.571   4.980
    1C        C   13   2.850   2.775   3.773
    1C        C   14   2.900   2.724   3.895
    1C        C   15   2.849   2.777   4.016
    1C        C   16   3.019   2.650   4.138
    1C        C   17   2.903   2.731   4.138
    1C        C   18   3.081   2.619   4.261
    1C        C   19   3.020   2.652   4.384
    1C        C   20   3.211   2.557   4.503
    1C        C   21   3.080   2.611   4.505
    1C        C   22   3.277   2.537   4.625
    1C        C   23   3.208   2.554   4.748
    1C        C   24   3.413   2.482   4.867
    1C        C   25   3.272   2.507   4.866
    1C        C   26   3.488   2.472   4.985
    1C        C   27   2.852   2.768   3.284
    1C        C   28   2.909   2.726   3.407
    1C        C   29   2.852   2.772   3.528
    1C        C   30   3.021   2.648   3.650
    1C        C   31   2.906   2.731   3.652
    1C        C   32   3.082   2.612   3.773
    1C        C   33   3.019   2.647   3.894
    1C        C   34   3.211   2.556   4.017
    1C        C   35   3.080   2.611   4.016
    1C        C   36   3.278   2.536   4.139
    1C        C   37   3.211   2.564   4.260
    1C        C   38   3.419   2.513   4.383
    1C        C   39   3.281   2.540   4.381
    1C        C   40   3.487   2.504   4.506
    1C        C   41   3.416   2.512   4.628
    1C        C   42   3.631   2.488   4.746
    1C        C   43   3.489   2.487   4.747
    1C        C   44   3.705   2.489   4.866
    1C        C   45   3.627   2.476   4.982
    1C        C   46   2.837   2.751   2.794
    1C        C   47   2.896   2.716   2.918
    1C        C   48   2.844   2.761   3.041
    1C        C   49   3.023   2.643   3.161
    1C        C   50   2.904   2.719   3.162
    1C        C   51   3.084   2.609   3.284
    1C        C   52   3.021   2.641   3.407
    1C        C   53   3.210   2.548   3.525
    1C        C   54   3.081   2.605   3.530
    1C        C   55   3.276   2.529   3.649
    1C        C   56   3.210   2.553   3.771
    1C        C   57   3.416   2.508   3.897
    1C        C   58   3.277   2.533   3.894
    1C        C   59   3.487   2.500   4.019
    1C        C   60   3.416   2.506   4.140
    1C        C   61   3.631   2.503   4.261
    1C        C   62   3.490   2.503   4.261
    1C        C   63   3.701   2.513   4.383
    1C        C   64   3.628   2.508   4.505
    1C        C   65   3.837   2.548   4.625
    1C        C   66   3.701   2.511   4.626
    1C        C   67   3.908   2.565   4.746
    1C        C   68   3.840   2.530   4.865
    1C        C   69   4.053   2.586   4.982
    1C        C   70   3.923   2.535   4.978
    1C        C   71   2.824   2.733   2.309
    1C        C   72   2.886   2.693   2.430
    1C        C   73   2.837   2.748   2.551
    1C        C   74   3.007   2.622   2.673
    1C        C   75   2.889   2.699   2.673
    1C        C   76   3.075   2.599   2.795
    1C        C   77   3.014   2.639   2.916
    1C        C   78   3.210   2.554   3.039
    1C        C   79   3.080   2.608   3.037
    1C        C   80   3.279   2.530   3.160
    1C        C   81   3.211   2.547   3.283
    1C        C   82   3.418   2.500   3.404
    1C        C   83   3.278   2.522   3.405
    1C        C   84   3.485   2.496   3.528
    1C        C   85   3.416   2.506   3.651
    1C        C   86   3.627   2.503   3.771
    1C        C   87   3.485   2.500   3.774
    1C        C   88   3.697   2.514   3.893
    1C        C   89   3.629   2.503   4.016
    1C        C   90   3.837   2.544   4.139
    1C        C   91   3.700   2.511   4.138
    1C        C   92   3.907   2.571   4.259
    1C        C   93   3.838   2.544   4.380
    1C        C   94   4.032   2.630   4.501
    1C        C   95   3.905   2.569   4.502
    1C        C   96   4.092   2.673   4.622
    1C        C   97   4.034   2.630   4.744
    1C        C   98   4.190   2.768   4.864
    1C        C   99   4.099   2.658   4.867
    1C        C  100   4.216   2.845   4.979
    1C        C  101   2.824   2.732   2.071
    1C        C  102   2.992   2.594   2.191
    1C        C  103   2.879   2.681   2.189
    1C        C  104   3.065   2.576   2.312
    1C        C  105   3.007   2.622   2.432
    1C        C  106   3.200   2.529   2.554
    1C        C  107   3.070   2.585   2.553
    1C        C  108   3.271   2.516   2.675
    1C        C  109   3.204   2.542   2.797
    1C        C  110   3.415   2.500   2.915
    1C        C  111   3.276   2.525   2.918
    1C        C  112   3.485   2.493   3.037
    1C        C  113   3.417   2.501   3.161
    1C        C  114   3.631   2.498   3.281
    1C        C  115   3.489   2.494   3.282
    1C        C  116   3.697   2.508   3.405
    1C        C  117   3.626   2.498   3.527
    1C        C  118   3.834   2.544   3.648
    1C        C  119   3.698   2.509   3.649
    1C        C  120   3.899   2.572   3.770
    1C        C  121   3.833   2.553   3.894
    1C        C  122   4.023   2.642   4.014
    1C        C  123   3.901   2.571   4.016
    1C        C  124   4.087   2.678   4.135
    1C        C  125   4.030   2.639   4.259
    1C        C  126   4.195   2.770   4.380
    1C        C  127   4.093   2.672   4.381
    1C        C  128   4.242   2.824   4.501
    1C        C  129   4.193   2.772   4.623
    1C        C  130   4.328   2.938   4.743
    1C        C  131   4.243   2.823   4.744
    1C        C  132   4.356   3.006   4.864
    1C        C  133   4.285   2.965   4.978
    1C        C  134   3.176   2.469   2.080
    1C        C  135   3.041   2.507   2.088
    1C        C  136   3.260   2.481   2.192
    1C        C  137   3.195   2.519   2.312
    1C        C  138   3.408   2.483   2.429
    1C        C  139   3.269   2.507   2.432
    1C        C  140   3.482   2.482   2.549
    1C        C  141   3.410   2.493   2.671
    1C        C  142   3.624   2.495   2.792
    1C        C  143   3.483   2.490   2.792
    1C        C  144   3.696   2.502   2.914
    1C        C  145   3.626   2.495   3.037
    1C        C  146   3.835   2.541   3.157
    1C        C  147   3.700   2.501   3.157
    1C        C  148   3.899   2.568   3.280
    1C        C  149   3.833   2.545   3.403
    1C        C  150   4.025   2.633   3.526
    1C        C  151   3.900   2.567   3.525
    1C        C  152   4.084   2.673   3.648
    1C        C  153   4.024   2.638   3.771
    1C        C  154   4.194   2.768   3.889
    1C        C  155   4.084   2.679   3.892
    1C        C  156   4.247   2.813   4.012
    1C        C  157   4.200   2.762   4.136
    1C        C  158   4.339   2.924   4.255
    1C        C  159   4.248   2.817   4.257
    1C        C  160   4.377   2.985   4.377
    1C        C  161   4.331   2.934   4.500
    1C        C  162   4.440   3.118   4.621
    1C        C  163   4.371   2.994   4.621
    1C        C  164   4.476   3.182   4.742
    1C        C  165   4.438   3.120   4.863
    1C        C  166   4.529   3.318   4.973
    1C        C  167   4.479   3.189   4.978
    1C        C  168   3.477   2.436   2.075
    1C        C  169   3.399   2.460   2.189
    1C        C  170   3.618   2.465   2.310
    1C        C  171   3.476   2.465   2.307
    1C        C  172   3.697   2.483   2.426
    1C        C  173   3.623   2.488   2.546
    1C        C  174   3.827   2.542   2.668
    1C        C  175   3.692   2.501   2.669
    1C        C  176   3.894   2.566   2.790
    1C        C  177   3.832   2.539   2.914
    1C        C  178   4.028   2.628   3.033
    1C        C  179   3.903   2.561   3.034
    1C        C  180   4.087   2.664   3.157
    1C        C  181   4.025   2.632   3.279
    1C        C  182   4.195   2.756   3.399
    1C        C  183   4.083   2.671   3.402
    1C        C  184   4.249   2.803   3.521
    1C        C  185   4.197   2.758   3.645
    1C        C  186   4.336   2.920   3.766
    1C        C  187   4.246   2.812   3.766
    1C        C  188   4.378   2.978   3.888
    1C        C  189   4.338   2.920   4.011
    1C        C  190   4.446   3.105   4.134
    1C        C  191   4.380   2.980   4.132
    1C        C  192   4.468   3.175   4.254
    1C        C  193   4.436   3.114   4.378
    1C        C  194   4.507   3.316   4.493
    1C        C  195   4.463   3.182   4.498
    1C        C  196   4.530   3.387   4.613
    1C        C  197   4.518   3.317   4.735
    1C        C  198   4.550   3.535   4.854
    1C        C  199   4.539   3.392   4.855
    1C        C  200   4.579   3.618   4.966
    1C        C  201   3.616   2.419   2.073
    1C        C  202   3.825   2.512   2.185
    1C        C  203   3.691   2.463   2.187
    1C        C  204   3.900   2.542   2.302
    1C        C  205   3.833   2.522   2.425
    1C        C  206   4.023   2.619   2.544
    1C        C  207   3.897   2.555   2.546
    1C        C  208   4.083   2.660   2.665
    1C        C  209   4.022   2.626   2.788
    1C        C  210   4.197   2.750   2.907
    1C        C  211   4.083   2.667   2.909
    1C        C  212   4.251   2.797   3.028
    1C        C  213   4.199   2.750   3.151
    1C        C  214   4.333   2.911   3.272
    1C        C  215   4.246   2.800   3.275
    1C        C  216   4.367   2.973   3.394
    1C        C  217   4.336   2.914   3.519
    1C        C  218   4.434   3.103   3.640
    1C        C  219   4.372   2.976   3.641
    1C        C  220   4.461   3.170   3.762
    1C        C  221   4.438   3.106   3.886
    1C        C  222   4.500   3.306   4.007
    1C        C  223   4.466   3.169   4.009
    1C        C  224   4.513   3.381   4.126
    1C        C  225   4.504   3.311   4.249
    1C        C  226   4.528   3.525   4.369
    1C        C  227   4.520   3.384   4.369
    1C        C  228   4.522   3.597   4.489
    1C        C  229   4.532   3.528   4.612
    1C        C  230   4.498   3.742   4.729
    1C        C  231   4.533   3.605   4.731
    1C        C  232   4.492   3.819   4.847
    1C        C  233   4.541   3.753   4.961
    1C        C  234   4.017   2.615   2.065
    1C        C  235   3.897   2.546   2.069
    1C        C  236   4.086   2.650   2.182
    1C        C  237   4.024   2.610   2.303
    1C        C  238   4.203   2.734   2.421
    1C        C  239   4.089   2.649   2.422
    1C        C  240   4.256   2.784   2.542
    1C        C  241   4.199   2.740   2.664
    1C        C  242   4.334   2.909   2.786
    1C        C  243   4.250   2.796   2.784
    1C        C  244   4.377   2.968   2.907
    1C        C  245   4.337   2.909   3.028
    1C        C  246   4.435   3.098   3.150
    1C        C  247   4.373   2.970   3.150
    1C        C  248   4.455   3.165   3.273
    1C        C  249   4.429   3.100   3.395
    1C        C  250   4.497   3.303   3.515
    1C        C  251   4.458   3.167   3.516
    1C        C  252   4.516   3.371   3.637
    1C        C  253   4.500   3.305   3.761
    1C        C  254   4.525   3.515   3.880
    1C        C  255   4.511   3.374   3.884
    1C        C  256   4.524   3.590   3.999
    1C        C  257   4.523   3.522   4.123
    1C        C  258   4.494   3.731   4.241
    1C        C  259   4.521   3.592   4.245
    1C        C  260   4.468   3.801   4.361
    1C        C  261   4.486   3.734   4.484
    1C        C  262   4.424   3.939   4.604
    1C        C  263   4.470   3.805   4.605
    1C        C  264   4.395   4.008   4.724
    1C        C  265   4.425   3.943   4.845
    1C        C  266   4.323   4.133   4.961
    1C        C  267   4.392   4.012   4.962
    1C        C  268   4.269   2.770   2.063
    1C        C  269   4.198   2.736   2.179
    1C        C  270   4.345   2.893   2.301
    1C        C  271   4.253   2.784   2.300
    1C        C  272   4.380   2.956   2.422
    1C        C  273   4.341   2.897   2.544
    1C        C  274   4.451   3.084   2.660
    1C        C  275   4.379   2.962   2.663
    1C        C  276   4.478   3.153   2.780
    1C        C  277   4.448   3.090   2.903
    1C        C  278   4.510   3.291   3.027
    1C        C  279   4.471   3.155   3.026
    1C        C  280   4.515   3.366   3.147
    1C        C  281   4.497   3.299   3.270
    1C        C  282   4.528   3.510   3.392
    1C        C  283   4.513   3.370   3.391
    1C        C  284   4.524   3.582   3.514
    1C        C  285   4.525   3.512   3.637
    1C        C  286   4.492   3.724   3.756
    1C        C  287   4.520   3.585   3.758
    1C        C  288   4.476   3.795   3.876
    1C        C  289   4.496   3.729   3.999
    1C        C  290   4.428   3.933   4.118
    1C        C  291   4.474   3.800   4.120
    1C        C  292   4.399   4.002   4.238
    1C        C  293   4.425   3.936   4.360
    1C        C  294   4.326   4.126   4.482
    1C        C  295   4.396   4.003   4.481
    1C        C  296   4.283   4.188   4.601
    1C        C  297   4.329   4.134   4.723
    1C        C  298   4.205   4.315   4.842
    1C        C  299   4.286   4.198   4.842
    1C        C  300   4.168   4.402   4.950
    1C        C  301   4.356   2.879   2.065
    1C        C  302   4.468   3.072   2.177
    1C        C  303   4.397   2.947   2.180
    1C        C  304   4.485   3.144   2.298
    1C        C  305   4.450   3.079   2.419
    1C        C  306   4.510   3.288   2.537
    1C        C  307   4.476   3.151   2.538
    1C        C  308   4.522   3.359   2.659
    1C        C  309   4.512   3.291   2.782
    1C        C  310   4.532   3.501   2.900
    1C        C  311   4.524   3.360   2.904
    1C        C  312   4.526   3.575   3.020
    1C        C  313   4.525   3.507   3.144
    1C        C  314   4.494   3.715   3.266
    1C        C  315   4.523   3.576   3.267
    1C        C  316   4.473   3.785   3.387
    1C        C  317   4.496   3.720   3.511
    1C        C  318   4.428   3.923   3.631
    1C        C  319   4.476   3.790   3.632
    1C        C  320   4.393   3.987   3.752
    1C        C  321   4.422   3.926   3.876
    1C        C  322   4.313   4.111   3.992
    1C        C  323   4.393   3.995   3.996
    1C        C  324   4.275   4.171   4.115
    1C        C  325   4.321   4.120   4.238
    1C        C  326   4.183   4.283   4.356
    1C        C  327   4.279   4.180   4.359
    1C        C  328   4.138   4.341   4.476
    1C        C  329   4.188   4.293   4.599
    1C        C  330   4.027   4.434   4.716
    1C        C  331   4.142   4.351   4.719
    1C        C  332   3.970   4.489   4.833
    1C        C  333   4.054   4.482   4.945
    1C        C  334   4.556   3.268   2.064
    1C        C  335   4.534   3.130   2.064
    1C        C  336   4.538   3.352   2.175
    1C        C  337   4.518   3.282   2.296
    1C        C  338   4.529   3.499   2.416
    1C        C  339   4.524   3.358   2.415
    1C        C  340   4.529   3.574   2.536
    1C        C  341   4.533   3.499   2.656
    1C        C  342   4.503   3.710   2.778
    1C        C  343   4.530   3.571   2.777
    1C        C  344   4.480   3.782   2.897
    1C        C  345   4.495   3.713   3.020
    1C        C  346   4.420   3.911   3.142
    1C        C  347   4.470   3.778   3.142
    1C        C  348   4.388   3.975   3.263
    1C        C  349   4.423   3.917   3.387
    1C        C  350   4.314   4.100   3.504
    1C        C  351   4.393   3.983   3.508
    1C        C  352   4.270   4.160   3.624
    1C        C  353   4.317   4.106   3.746
    1C        C  354   4.171   4.262   3.868
    1C        C  355   4.273   4.163   3.868
    1C        C  356   4.120   4.314   3.989
    1C        C  357   4.177   4.272   4.111
    1C        C  358   4.011   4.403   4.233
    1C        C  359   4.129   4.325   4.232
    1C        C  360   3.952   4.446   4.354
    1C        C  361   4.018   4.417   4.475
    1C        C  362   3.830   4.520   4.595
    1C        C  363   3.958   4.460   4.595
    1C        C  364   3.762   4.549   4.716
    1C        C  365   3.838   4.539   4.834
    1C        C  366   3.632   4.592   4.951
    1C        C  367   3.771   4.578   4.951
    1C        C  368   4.516   3.568   2.056
    1C        C  369   4.524   3.492   2.173
    1C        C  370   4.505   3.707   2.290
    1C        C  371   4.525   3.567   2.292
    1C        C  372   4.484   3.778   2.410
    1C        C  373   4.508   3.713   2.533
    1C        C  374   4.429   3.909   2.650
    1C        C  375   4.484   3.779   2.656
    1C        C  376   4.395   3.973   2.771
    1C        C  377   4.424   3.911   2.895
    1C        C  378   4.313   4.090   3.015
    1C        C  379   4.392   3.973   3.018
    1C        C  380   4.266   4.147   3.136
    1C        C  381   4.308   4.092   3.259
    1C        C  382   4.171   4.254   3.377
    1C        C  383   4.269   4.152   3.381
    1C        C  384   4.120   4.307   3.498
    1C        C  385   4.171   4.261   3.621
    1C        C  386   4.005   4.389   3.744
    1C        C  387   4.119   4.306   3.745
    1C        C  388   3.947   4.432   3.865
    1C        C  389   4.008   4.401   3.989
    1C        C  390   3.820   4.496   4.111
    1C        C  391   3.950   4.439   4.111
    1C        C  392   3.751   4.516   4.233
    1C        C  393   3.823   4.504   4.354
    1C        C  394   3.618   4.560   4.478
    1C        C  395   3.757   4.534   4.475
    1C        C  396   3.548   4.566   4.600
    1C        C  397   3.621   4.565   4.720
    1C        C  398   3.409   4.554   4.841
    1C        C  399   3.548   4.577   4.840
    1C        C  400   3.342   4.521   4.959
    1C        C  401   4.507   3.707   2.056
    1C        C  402   4.463   3.921   2.169
    1C        C  403   4.498   3.785   2.172
    1C        C  404   4.415   3.981   2.288
    1C        C  405   4.431   3.909   2.409
    1C        C  406   4.325   4.096   2.527
    1C        C  407   4.396   3.974   2.529
    1C        C  408   4.275   4.147   2.648
    1C        C  409   4.316   4.090   2.771
    1C        C  410   4.167   4.243   2.890
    1C        C  411   4.269   4.144   2.892
    1C        C  412   4.117   4.292   3.012
    1C        C  413   4.172   4.252   3.136
    1C        C  414   3.994   4.373   3.254
    1C        C  415   4.114   4.299   3.256
    1C        C  416   3.934   4.410   3.377
    1C        C  417   3.998   4.379   3.499
    1C        C  418   3.812   4.479   3.623
    1C        C  419   3.940   4.417   3.622
    1C        C  420   3.748   4.507   3.745
    1C        C  421   3.816   4.487   3.867
    1C        C  422   3.613   4.542   3.987
    1C        C  423   3.751   4.513   3.989
    1C        C  424   3.544   4.545   4.110
    1C        C  425   3.612   4.542   4.233
    1C        C  426   3.404   4.552   4.357
    1C        C  427   3.545   4.560   4.357
    1C        C  428   3.333   4.552   4.479
    1C        C  429   3.406   4.565   4.599
    1C        C  430   3.196   4.523   4.723
    1C        C  431   3.335   4.556   4.721
    1C        C  432   3.124   4.498   4.843
    1C        C  433   3.204   4.506   4.959
    1C        C  434   4.387   4.128   2.052
    1C        C  435   4.447   4.002   2.055
    1C        C  436   4.303   4.164   2.163
    1C        C  437   4.334   4.097   2.284
    1C        C  438   4.180   4.248   2.402
    1C        C  439   4.284   4.153   2.404
    1C        C  440   4.121   4.290   2.523
    1C        C  441   4.175   4.247   2.646
    1C        C  442   4.002   4.374   2.767
    1C        C  443   4.116   4.291   2.767
    1C        C  444   3.939   4.410   2.888
    1C        C  445   4.000   4.370   3.009
    1C        C  446   3.812   4.474   3.129
    1C        C  447   3.937   4.409   3.130
    1C        C  448   3.745   4.496   3.252
    1C        C  449   3.808   4.474   3.376
    1C        C  450   3.609   4.533   3.498
    1C        C  451   3.747   4.504   3.500
    1C        C  452   3.541   4.551   3.621
    1C        C  453   3.610   4.541   3.743
    1C        C  454   3.399   4.548   3.867
    1C        C  455   3.540   4.550   3.866
    1C        C  456   3.332   4.535   3.990
    1C        C  457   3.403   4.545   4.112
    1C        C  458   3.197   4.504   4.239
    1C        C  459   3.333   4.541   4.235
    1C        C  460   3.130   4.487   4.362
    1C        C  461   3.196   4.517   4.483
    1C        C  462   2.996   4.441   4.602
    1C        C  463   3.125   4.501   4.603
    1C        C  464   2.931   4.405   4.722
    1C        C  465   2.991   4.446   4.844
    1C        C  466   2.802   4.342   4.961
    1C        C  467   2.910   4.432   4.961
    1C        C  468   4.126   4.288   2.039
    1C        C  469   4.189   4.251   2.159
    1C        C  470   4.007   4.370   2.280
    1C        C  471   4.126   4.293   2.279
    1C        C  472   3.941   4.402   2.401
    1C        C  473   4.002   4.366   2.523
    1C        C  474   3.814   4.468   2.643
    1C        C  475   3.943   4.410   2.644
    1C        C  476   3.745   4.497   2.763
    1C        C  477   3.811   4.471   2.885
    1C        C  478   3.605   4.522   3.010
    1C        C  479   3.744   4.497   3.007
    1C        C  480   3.535   4.535   3.132
    1C        C  481   3.607   4.527   3.253
    1C        C  482   3.397   4.544   3.378
    1C        C  483   3.538   4.535   3.376
    1C        C  484   3.328   4.541   3.501
    1C        C  485   3.399   4.552   3.622
    1C        C  486   3.193   4.509   3.746
    1C        C  487   3.328   4.549   3.745
    1C        C  488   3.131   4.476   3.869
    1C        C  489   3.196   4.497   3.993
    1C        C  490   3.001   4.422   4.117
    1C        C  491   3.131   4.477   4.117
    1C        C  492   2.940   4.388   4.241
    1C        C  493   3.002   4.426   4.361
    1C        C  494   2.832   4.301   4.483
    1C        C  495   2.937   4.395   4.483
    1C        C  496   2.779   4.254   4.606
    1C        C  497   2.823   4.312   4.727
    1C        C  498   2.671   4.164   4.845
    1C        C  499   2.759   4.274   4.846
    1C        C  500   2.595   4.120   4.954
    1C        C  501   4.010   4.364   2.040
    1C        C  502   3.816   4.460   2.156
    1C        C  503   3.944   4.402   2.158
    1C        C  504   3.745   4.482   2.277
    1C        C  505   3.811   4.458   2.399
    1C        C  506   3.608   4.518   2.520
    1C        C  507   3.747   4.490   2.521
    1C        C  508   3.536   4.528   2.641
    1C        C  509   3.607   4.524   2.764
    1C        C  510   3.396   4.534   2.888
    1C        C  511   3.537   4.531   2.887
    1C        C  512   3.323   4.531   3.009
    1C        C  513   3.394   4.538   3.131
    1C        C  514   3.190   4.497   3.257
    1C        C  515   3.327   4.531   3.256
    1C        C  516   3.124   4.476   3.380
    1C        C  517   3.190   4.510   3.500
    1C        C  518   3.004   4.416   3.626
    1C        C  519   3.126   4.487   3.624
    1C        C  520   2.948   4.377   3.750
    1C        C  521   3.005   4.413   3.874
    1C        C  522   2.840   4.281   3.996
    1C        C  523   2.945   4.375   3.996
    1C        C  524   2.791   4.234   4.120
    1C        C  525   2.834   4.295   4.239
    1C        C  526   2.696   4.136   4.364
    1C        C  527   2.782   4.248   4.362
    1C        C  528   2.655   4.077   4.486
    1C        C  529   2.689   4.146   4.604
    1C        C  530   2.588   3.961   4.730
    1C        C  531   2.643   4.092   4.727
    1C        C  532   2.549   3.899   4.852
    1C        C  533   2.535   3.994   4.959
    1C        C  534   3.622   4.560   2.043
    1C        C  535   3.753   4.510   2.041
    1C        C  536   3.536   4.543   2.157
    1C        C  537   3.606   4.512   2.277
    1C        C  538   3.395   4.522   2.402
    1C        C  539   3.536   4.522   2.399
    1C        C  540   3.323   4.516   2.524
    1C        C  541   3.395   4.522   2.645
    1C        C  542   3.187   4.485   2.767
    1C        C  543   3.325   4.516   2.767
    1C        C  544   3.120   4.468   2.891
    1C        C  545   3.187   4.492   3.013
    1C        C  546   2.998   4.403   3.134
    1C        C  547   3.122   4.471   3.136
    1C        C  548   2.947   4.363   3.260
    1C        C  549   3.003   4.403   3.383
    1C        C  550   2.836   4.279   3.510
    1C        C  551   2.943   4.371   3.507
    1C        C  552   2.788   4.230   3.634
    1C        C  553   2.839   4.287   3.753
    1C        C  554   2.703   4.121   3.877
    1C        C  555   2.788   4.234   3.873
    1C        C  556   2.660   4.064   3.999
    1C        C  557   2.699   4.127   4.120
    1C        C  558   2.600   3.944   4.246
    1C        C  559   2.658   4.072   4.244
    1C        C  560   2.567   3.881   4.368
    1C        C  561   2.599   3.947   4.489
    1C        C  562   2.533   3.749   4.614
    1C        C  563   2.570   3.885   4.612
    1C        C  564   2.517   3.682   4.737
    1C        C  565   2.522   3.759   4.857
    1C        C  566   2.531   3.547   4.979
    1C        C  567   2.528   3.686   4.977
    1C        C  568   3.329   4.479   2.043
    1C        C  569   3.397   4.513   2.161
    1C        C  570   3.184   4.474   2.279
    1C        C  571   3.322   4.509   2.282
    1C        C  572   3.120   4.455   2.404
    1C        C  573   3.186   4.483   2.525
    1C        C  574   2.988   4.405   2.647
    1C        C  575   3.117   4.462   2.647
    1C        C  576   2.932   4.364   2.770
    1C        C  577   2.993   4.406   2.891
    1C        C  578   2.826   4.276   3.018
    1C        C  579   2.935   4.365   3.013
    1C        C  580   2.783   4.223   3.142
    1C        C  581   2.835   4.277   3.263
    1C        C  582   2.704   4.116   3.387
    1C        C  583   2.788   4.230   3.387
    1C        C  584   2.669   4.056   3.510
    1C        C  585   2.706   4.115   3.633
    1C        C  586   2.599   3.934   3.754
    1C        C  587   2.664   4.060   3.756
    1C        C  588   2.571   3.872   3.878
    1C        C  589   2.601   3.936   4.001
    1C        C  590   2.539   3.738   4.128
    1C        C  591   2.579   3.873   4.126
    1C        C  592   2.523   3.671   4.251
    1C        C  593   2.531   3.744   4.371
    1C        C  594   2.511   3.534   4.498
    1C        C  595   2.520   3.675   4.494
    1C        C  596   2.514   3.466   4.621
    1C        C  597   2.516   3.540   4.742
    1C        C  598   2.534   3.328   4.867
    1C        C  599   2.528   3.469   4.863
    1C        C  600   2.532   3.252   4.985
    1C        C  601   3.196   4.441   2.041
    1C        C  602   2.985   4.393   2.157
    1C        C  603   3.118   4.445   2.157
    1C        C  604   2.931   4.353   2.283
    1C        C  605   2.991   4.397   2.403
    1C        C  606   2.824   4.269   2.529
    1C        C  607   2.930   4.363   2.525
    1C        C  608   2.776   4.220   2.652
    1C        C  609   2.828   4.268   2.774
    1C        C  610   2.695   4.107   2.895
    1C        C  611   2.776   4.223   2.897
    1C        C  612   2.659   4.052   3.020
    1C        C  613   2.697   4.112   3.142
    1C        C  614   2.597   3.929   3.267
    1C        C  615   2.660   4.055   3.267
    1C        C  616   2.576   3.863   3.390
    1C        C  617   2.604   3.931   3.511
    1C        C  618   2.534   3.731   3.638
    1C        C  619   2.574   3.866   3.633
    1C        C  620   2.522   3.664   3.762
    1C        C  621   2.532   3.737   3.883
    1C        C  622   2.508   3.528   4.009
    1C        C  623   2.523   3.668   4.006
    1C        C  624   2.514   3.457   4.132
    1C        C  625   2.512   3.530   4.253
    1C        C  626   2.540   3.322   4.381
    1C        C  627   2.519   3.461   4.377
    1C        C  628   2.557   3.255   4.505
    1C        C  629   2.533   3.326   4.625
    1C        C  630   2.594   3.122   4.746
    1C        C  631   2.547   3.256   4.746
    1C        C  632   2.615   3.053   4.869
    1C        C  633   2.556   3.114   4.984
    1C        C  634   2.784   4.306   2.054
    1C        C  635   2.891   4.396   2.049
    1C        C  636   2.751   4.232   2.168
    1C        C  637   2.816   4.270   2.287
    1C        C  638   2.682   4.106   2.409
    1C        C  639   2.767   4.219   2.410
    1C        C  640   2.643   4.048   2.532
    1C        C  641   2.684   4.113   2.652
    1C        C  642   2.588   3.923   2.778
    1C        C  643   2.653   4.048   2.773
    1C        C  644   2.566   3.857   2.901
    1C        C  645   2.595   3.926   3.021
    1C        C  646   2.539   3.725   3.149
    1C        C  647   2.574   3.862   3.145
    1C        C  648   2.522   3.658   3.272
    1C        C  649   2.534   3.728   3.394
    1C        C  650   2.509   3.519   3.521
    1C        C  651   2.518   3.660   3.517
    1C        C  652   2.514   3.452   3.645
    1C        C  653   2.508   3.523   3.767
    1C        C  654   2.532   3.314   3.887
    1C        C  655   2.504   3.453   3.890
    1C        C  656   2.553   3.251   4.012
    1C        C  657   2.536   3.318   4.135
    1C        C  658   2.605   3.121   4.261
    1C        C  659   2.552   3.252   4.259
    1C        C  660   2.632   3.056   4.383
    1C        C  661   2.595   3.119   4.504
    1C        C  662   2.711   2.942   4.627
    1C        C  663   2.626   3.055   4.626
    1C        C  664   2.748   2.878   4.748
    1C        C  665   2.696   2.934   4.868
    1C        C  666   2.747   2.877   4.985
    1C        C  667   2.688   4.022   2.054
    1C        C  668   2.686   4.106   2.166
    1C        C  669   2.592   3.914   2.292
    1C        C  670   2.647   4.045   2.287
    1C        C  671   2.563   3.848   2.414
    1C        C  672   2.590   3.918   2.534
    1C        C  673   2.528   3.717   2.659
    1C        C  674   2.565   3.853   2.657
    1C        C  675   2.515   3.650   2.783
    1C        C  676   2.530   3.720   2.905
    1C        C  677   2.503   3.512   3.032
    1C        C  678   2.519   3.653   3.029
    1C        C  679   2.507   3.444   3.155
    1C        C  680   2.506   3.518   3.276
    1C        C  681   2.528   3.308   3.398
    1C        C  682   2.506   3.448   3.399
    1C        C  683   2.548   3.242   3.522
    1C        C  684   2.532   3.312   3.644
    1C        C  685   2.599   3.112   3.771
    1C        C  686   2.545   3.243   3.766
    1C        C  687   2.633   3.053   3.894
    1C        C  688   2.602   3.118   4.016
    1C        C  689   2.711   2.937   4.142
    1C        C  690   2.638   3.058   4.139
    1C        C  691   2.757   2.881   4.263
    1C        C  692   2.714   2.941   4.383
    1C        C  693   2.756   2.885   4.506
    1C        C  694   2.636   3.892   2.058
    1C        C  695   2.537   3.702   2.176
    1C        C  696   2.584   3.835   2.175
    1C        C  697   2.513   3.635   2.298
    1C        C  698   2.527   3.712   2.416
    1C        C  699   2.495   3.504   2.542
    1C        C  700   2.511   3.644   2.539
    1C        C  701   2.506   3.437   2.666
    1C        C  702   2.506   3.509   2.787
    1C        C  703   2.530   3.301   2.914
    1C        C  704   2.509   3.441   2.910
    1C        C  705   2.549   3.232   3.036
    1C        C  706   2.535   3.306   3.156
    1C        C  707   2.605   3.107   3.280
    1C        C  708   2.549   3.237   3.278
    1C        C  709   2.639   3.048   3.404
    1C        C  710   2.602   3.112   3.525
    1C        C  711   2.707   2.931   3.651
    1C        C  712   2.628   3.048   3.648
    1C        C  713   2.758   2.882   3.774
    1C        C  714   2.714   2.938   3.896
    1C        C  715   2.753   2.880   4.019
    1C        C  716   2.455   3.497   2.062
    1C        C  717   2.494   3.631   2.063
    1C        C  718   2.463   3.420   2.182
    1C        C  719   2.484   3.496   2.301
    1C        C  720   2.523   3.290   2.424
    1C        C  721   2.490   3.427   2.424
    1C        C  722   2.539   3.224   2.548
    1C        C  723   2.531   3.298   2.668
    1C        C  724   2.588   3.096   2.792
    1C        C  725   2.546   3.231   2.792
    1C        C  726   2.619   3.031   2.914
    1C        C  727   2.594   3.098   3.035
    1C        C  728   2.712   2.925   3.161
    1C        C  729   2.632   3.041   3.158
    1C        C  730   2.760   2.875   3.284
    1C        C  731   2.714   2.929   3.407
    1C        C  732   2.756   2.875   3.531
    1C        C  733   2.494   3.196   2.072
    1C        C  734   2.488   3.279   2.185
    1C        C  735   2.576   3.081   2.309
    1C        C  736   2.528   3.215   2.305
    1C        C  737   2.618   3.021   2.429
    1C        C  738   2.588   3.091   2.548
    1C        C  739   2.698   2.913   2.672
    1C        C  740   2.618   3.030   2.672
    1C        C  741   2.746   2.859   2.793
    1C        C  742   2.703   2.917   2.915
    1C        C  743   2.750   2.866   3.038
    1C        C  744   2.547   3.067   2.072
    1C        C  745   2.681   2.895   2.188
    1C        C  746   2.604   3.013   2.188
    1C        C  747   2.728   2.838   2.308
    1C        C  748   2.689   2.898   2.430
    1C        C  749   2.741   2.851   2.552
    1C        C  750   2.735   2.839   2.071
    1C        C  751   3.669   2.329   1.967
    1C        O  752   3.674   2.208   2.001
    1C        O  753   3.636   2.354   1.834
    1C        C  754   4.621   3.061   1.965
    1C        O  755   4.647   3.110   1.852
    1C        O  756   4.732   2.994   2.018
    1C        C  757   4.473   4.230   1.988
    1C        O  758   4.556   4.287   2.064
    1C        O  759   4.507   4.244   1.853
    1C        C  760   3.600   4.672   1.949
    1C        O  761   3.676   4.772   1.948
    1C        O  762   3.537   4.651   1.825
    1C        C  763   2.864   4.509   1.957
    1C        O  764   2.889   4.509   1.834
    1C        O  765   2.806   4.630   1.998
    1C        C  766   2.347   3.471   1.963
    1C        O  767   2.366   3.433   1.844
    1C        O  768   2.211   3.473   1.994
    1C        C  769   4.676   3.581   5.072
    1C        O  770   4.648   3.530   5.184
    1C        O  771   4.814   3.591   5.051
    1C        C  772   4.268   4.439   5.053
    1C        O  773   4.258   4.398   5.172
    1C        O  774   4.314   4.569   5.073
    1C        C  775   4.147   2.518   5.074
    1C        O  776   4.142   2.393   5.066
    1C        O  777   4.147   2.562   5.207
    1C        C  778   2.872   4.546   5.047
    1C        O  779   2.827   4.657   5.009
    1C        O  780   2.942   4.570   5.166
    1C        C  781   2.467   3.042   5.077
    1C        O  782   2.379   2.963   5.034
    1C        O  783   2.518   3.021   5.205
    1C        C  784   2.403   3.991   5.027
    1C        O  785   2.292   4.011   4.970
    1C        O  786   2.391   4.030   5.161
    1C        C  787   2.952   2.402   2.035
    1C        O  788   2.967   2.354   1.919
    1C        O  789   2.855   2.339   2.113
    1C        C  790   3.180   2.386   5.069
    1C        O  791   3.148   2.270   5.032
    1C        O  792   3.207   2.401   5.205
    1C        H  793   4.239   3.039   5.040
    1C        H  794   4.185   2.812   5.076
    1C        H  795   4.486   3.132   5.069
    1C        H  796   4.604   3.338   5.047
    1C        H  797   4.523   3.797   5.058
    1C        H  798   4.401   3.964   5.057
    1C        H  799   4.329   4.197   5.046
    1C        H  800   4.049   4.573   5.002
    1C        H  801   3.826   4.633   5.024
    1C        H  802   3.595   4.629   5.044
    1C        H  803   3.395   4.511   5.052
    1C        H  804   3.155   4.544   5.046
    1C        H  805   3.875   2.524   5.073
    1C        H  806   3.677   2.421   5.059
    1C        H  807   2.989   2.555   5.057
    1C        H  808   3.442   2.439   5.076
    1C        H  809   2.900   2.765   5.072
    1C        H  810   2.686   2.884   5.073
    1C        H  811   2.485   3.292   5.072
    1C        H  812   2.503   3.503   5.072
    1C        H  813   2.536   3.736   5.071
    1C        H  814   2.558   4.192   5.024
    1C        H  815   2.764   4.319   5.058
    1C        H  816   2.721   2.889   1.978
    1C        H  817   2.873   2.713   1.977
    1C        H  818   3.214   2.413   1.997
    1C        H  819   3.432   2.430   1.978
    1C        H  820   3.849   2.529   1.975
    1C        H  821   4.028   2.672   1.975
    1C        H  822   4.311   2.685   2.014
    1C        H  823   4.373   2.921   1.968
    1C        H  824   4.632   3.303   1.997
    1C        H  825   4.531   3.519   1.962
    1C        H  826   4.501   3.755   1.960
    1C        H  827   3.795   4.499   1.944
    1C        H  828   3.972   4.397   1.946
    1C        H  829   4.144   4.224   1.955
    1C        H  830   4.469   3.959   1.960
    1C        H  831   2.609   3.855   1.961
    1C        H  832   2.740   4.048   1.965
    1C        H  833   2.724   4.300   1.966
    1C        H  834   3.365   4.531   1.958
    1C        H  835   3.168   4.374   1.962
    1C        H  836   2.532   3.003   1.989
    1C        H  837   2.430   3.218   1.989
    1C        H  838   2.463   3.691   1.979
    2V3OU   H29  839   2.801   3.546   1.740
    2V3OU   C27  840   2.778   3.503   1.841
    2V3OU   H27  841   2.726   3.578   1.907
    2V3OU   H28  842   2.724   3.406   1.833
    2V3OU   O11  843   2.907   3.476   1.896
    2V3OU   C15  844   2.923   3.397   2.008
    2V3OU   C13  845   3.050   3.372   2.064
    2V3OU   C14  846   3.077   3.268   2.154
    2V3OU   C16  847   2.975   3.185   2.201
    2V3OU    H6  848   2.996   3.103   2.271
    2V3OU   C12  849   3.212   3.229   2.198
    2V3OU    O2  850   3.231   3.131   2.274
    2V3OU   C10  851   3.327   3.306   2.149
    2V3OU    C8  852   3.458   3.270   2.182
    2V3OU   O10  853   3.490   3.157   2.249
    2V3OU   H26  854   3.406   3.121   2.283
    2V3OU    C6  855   3.564   3.356   2.139
    2V3OU    C5  856   3.535   3.467   2.061
    2V3OU    C4  857   3.702   3.298   2.132
    2V3OU    H4  858   3.722   3.230   2.220
    2V3OU    H5  859   3.710   3.236   2.038
    2V3OU    C2  860   3.816   3.400   2.133
    2V3OU    O6  861   3.812   3.474   2.255
    2V3OU   H21  862   3.770   3.553   2.217
    2V3OU    C3  863   3.786   3.498   2.020
    2V3OU    H2  864   3.869   3.572   2.015
    2V3OU    H3  865   3.785   3.446   1.921
    2V3OU   C25  866   3.950   3.326   2.123
    2V3OU    O7  867   4.004   3.297   2.017
    2V3OU   C26  868   4.032   3.292   2.246
    2V3OU   H22  869   4.070   3.379   2.305
    2V3OU   H23  870   4.117   3.225   2.217
    2V3OU    O8  871   3.962   3.206   2.334
    2V3OU   H24  872   3.925   3.260   2.405
    2V3OU    C1  873   3.649   3.562   2.037
    2V3OU    H1  874   3.624   3.620   1.943
    2V3OU    O3  875   3.653   3.652   2.148
    2V3OU   C19  876   3.620   3.791   2.143
    2V3OU    H9  877   3.523   3.811   2.088
    2V3OU    O4  878   3.717   3.851   2.060
    2V3OU   C20  879   3.847   3.876   2.112
    2V3OU   H10  880   3.894   3.776   2.133
    2V3OU   C24  881   3.614   3.854   2.282
    2V3OU   H16  882   3.547   3.792   2.347
    2V3OU   H17  883   3.568   3.954   2.263
    2V3OU   C23  884   3.752   3.877   2.344
    2V3OU   H15  885   3.796   3.774   2.364
    2V3OU    N1  886   3.735   3.954   2.465
    2V3OU   H19  887   3.812   3.930   2.524
    2V3OU   H20  888   3.647   3.941   2.513
    2V3OU   C21  889   3.848   3.951   2.246
    2V3OU   H11  890   3.950   3.938   2.293
    2V3OU    O5  891   3.824   4.090   2.241
    2V3OU   H18  892   3.775   4.107   2.323
    2V3OU   C22  893   3.917   3.952   2.000
    2V3OU   H12  894   3.864   4.050   1.981
    2V3OU   H13  895   3.908   3.896   1.903
    2V3OU   H14  896   4.027   3.956   2.020
    2V3OU   C11  897   3.160   3.468   2.052
    2V3OU    O1  898   3.136   3.586   2.019
    2V3OU    C9  899   3.299   3.423   2.074
    2V3OU    C7  900   3.402   3.501   2.022
    2V3OU    O9  901   3.385   3.622   1.958
    2V3OU   H25  902   3.289   3.628   1.969
    2V3OU   C17  903   2.823   3.317   2.066
    2V3OU    H7  904   2.719   3.345   2.044
    2V3OU   C18  905   2.847   3.218   2.161
    2V3OU    H8  906   2.774   3.164   2.222
    3SOL     OW  907   2.728   4.356   0.751
    3SOL    HW1  908   2.785   4.302   0.689
    3SOL    HW2  909   2.747   4.329   0.846
    4SOL     OW  910   6.734   5.543   2.065
    4SOL    HW1  911   6.667   5.481   2.024
    4SOL    HW2  912   6.792   5.492   2.128
    5SOL     OW  913   3.470   0.935   2.803
    5SOL    HW1  914   3.390   0.881   2.829
    5SOL    HW2  915   3.469   1.023   2.851
    6SOL     OW  916   4.273   1.291   1.827
    6SOL    HW1  917   4.223   1.235   1.761
    6SOL    HW2  918   4.215   1.367   1.856
    7SOL     OW  919   6.191   3.125   2.014
    7SOL    HW1  920   6.277   3.154   2.055
    7SOL    HW2  921   6.115   3.144   2.078
    8SOL     OW  922   2.517   0.094   5.208
    8SOL    HW1  923   2.477   0.146   5.133
    8SOL    HW2  924   2.451   0.088   5.283
    9SOL     OW  925   1.059   5.515   6.061
    9SOL    HW1  926   1.065   5.605   6.017
    9SOL    HW2  927   0.983   5.515   6.127
   10SOL     OW  928   1.319   4.761   5.801
   10SOL    HW1  929   1.251   4.716   5.743
   10SOL    HW2  930   1.302   4.859   5.801
   11SOL     OW  931   2.656   0.067   0.217
   11SOL    HW1  932   2.696   0.130   0.283
   11SOL    HW2  933   2.560   0.052   0.240
   12SOL     OW  934   3.865   5.870   4.528
   12SOL    HW1  935   3.789   5.935   4.525
   12SOL    HW2  936   3.839   5.790   4.582
   13SOL     OW  937   3.478   5.971   4.047
   13SOL    HW1  938   3.380   5.949   4.049
   13SOL    HW2  939   3.527   5.914   4.113
   14SOL     OW  940   4.843   5.534   6.559
   14SOL    HW1  941   4.764   5.482   6.592
   14SOL    HW2  942   4.887   5.580   6.636
   15SOL     OW  943   1.429   5.202   0.990
   15SOL    HW1  944   1.369   5.262   1.043
   15SOL    HW2  945   1.491   5.258   0.935
   16SOL     OW  946   5.817   2.474   5.776
   16SOL    HW1  947   5.789   2.409   5.846
   16SOL    HW2  948   5.906   2.447   5.739
   17SOL     OW  949   6.118   6.108   4.835
   17SOL    HW1  950   6.115   6.088   4.933
   17SOL    HW2  951   6.050   6.053   4.787
   18SOL     OW  952   3.007   1.033   6.760
   18SOL    HW1  953   3.070   1.102   6.725
   18SOL    HW2  954   2.941   1.076   6.822
   19SOL     OW  955   0.490   0.249   3.114
   19SOL    HW1  956   0.516   0.167   3.063
   19SOL    HW2  957   0.570   0.285   3.162
   20SOL     OW  958   3.768   1.796   3.869
   20SOL    HW1  959   3.815   1.879   3.897
   20SOL    HW2  960   3.744   1.742   3.950
   21SOL     OW  961   3.223   2.086   2.080
   21SOL    HW1  962   3.219   2.120   2.174
   21SOL    HW2  963   3.130   2.076   2.044
   22SOL     OW  964   2.372   0.413   0.138
   22SOL    HW1  965   2.392   0.449   0.229
   22SOL    HW2  966   2.374   0.313   0.141
   23SOL     OW  967   4.279   6.894   3.421
   23SOL    HW1  968   4.216   6.828   3.461
   23SOL    HW2  969   4.370   6.853   3.413
   24SOL     OW  970   5.038   1.648   3.716
   24SOL    HW1  971   4.955   1.633   3.770
   24SOL    HW2  972   5.063   1.745   3.719
   25SOL     OW  973   3.238   6.066   5.611
   25SOL    HW1  974   3.142   6.091   5.621
   25SOL    HW2  975   3.262   5.999   5.681
   26SOL     OW  976   6.299   1.330   0.693
   26SOL    HW1  977   6.315   1.429   0.700
   26SOL    HW2  978   6.211   1.308   0.736
   27SOL     OW  979   0.270   1.460   1.744
   27SOL    HW1  980   0.323   1.440   1.826
   27SOL    HW2  981   0.320   1.429   1.663
   28SOL     OW  982   3.740   0.958   6.780
   28SOL    HW1  983   3.712   0.876   6.730
   28SOL    HW2  984   3.668   0.984   6.844
   29SOL     OW  985   5.604   2.514   1.931
   29SOL    HW1  986   5.608   2.463   2.017
   29SOL    HW2  987   5.639   2.607   1.946
   30SOL     OW  988   4.231   7.018   5.478
   30SOL    HW1  989   4.253   0.009   5.382
   30SOL    HW2  990   4.214   6.920   5.491
   31SOL     OW  991   0.606   2.231   5.866
   31SOL    HW1  992   0.680   2.292   5.894
   31SOL    HW2  993   0.630   2.186   5.780
   32SOL     OW  994   0.451   1.182   3.060
   32SOL    HW1  995   0.386   1.136   3.121
   32SOL    HW2  996   0.412   1.270   3.032
   33SOL     OW  997   2.380   3.489   0.147
   33SOL    HW1  998   2.285   3.463   0.131
   33SOL    HW2  999   2.440   3.412   0.124
   34SOL     OW 1000   2.004   1.105   3.839
   34SOL    HW1 1001   2.093   1.065   3.818
   34SOL    HW2 1002   2.015   1.179   3.905
   35SOL     OW 1003   3.812   1.741   6.905
   35SOL    HW1 1004   3.841   1.672   6.839
   35SOL    HW2 1005   3.786   1.825   6.856
   36SOL     OW 1006   0.424   0.837   6.402
   36SOL    HW1 1007   0.443   0.896   6.323
   36SOL    HW2 1008   0.428   0.741   6.373
   37SOL     OW 1009   1.884   1.137   6.989
   37SOL    HW1 1010   1.866   1.044   6.960
   37SOL    HW2 1011   1.947   1.136   0.041
   38SOL     OW 1012   0.383   5.012   2.614
   38SOL    HW1 1013   0.345   5.103   2.598
   38SOL    HW2 1014   0.308   4.947   2.629
   39SOL     OW 1015   6.253   4.454   6.635
   39SOL    HW1 1016   6.275   4.529   6.573
   39SOL    HW2 1017   6.197   4.386   6.588
   40SOL     OW 1018   5.973   2.453   1.219
   40SOL    HW1 1019   5.879   2.486   1.208
   40SOL    HW2 1020   6.036   2.514   1.170
   41SOL     OW 1021   0.463   6.575   4.328
   41SOL    HW1 1022   0.443   6.563   4.425
   41SOL    HW2 1023   0.512   6.495   4.294
   42SOL     OW 1024   2.845   6.187   6.297
   42SOL    HW1 1025   2.755   6.209   6.258
   42SOL    HW2 1026   2.836   6.175   6.396
   43SOL     OW 1027   5.971   6.334   5.735
   43SOL    HW1 1028   5.911   6.278   5.678
   43SOL    HW2 1029   6.059   6.345   5.690
   44SOL     OW 1030   6.135   2.458   6.173
   44SOL    HW1 1031   6.053   2.516   6.178
   44SOL    HW2 1032   6.215   2.516   6.159
   45SOL     OW 1033   3.208   0.275   3.167
   45SOL    HW1 1034   3.191   0.205   3.098
   45SOL    HW2 1035   3.298   0.259   3.209
   46SOL     OW 1036   1.377   3.488   4.438
   46SOL    HW1 1037   1.378   3.577   4.391
   46SOL    HW2 1038   1.391   3.502   4.536
   47SOL     OW 1039   5.261   4.193   3.079
   47SOL    HW1 1040   5.194   4.257   3.041
   47SOL    HW2 1041   5.214   4.109   3.105
   48SOL     OW 1042   0.183   2.957   5.314
   48SOL    HW1 1043   0.111   2.907   5.267
   48SOL    HW2 1044   0.272   2.932   5.276
   49SOL     OW 1045   4.647   4.018   1.753
   49SOL    HW1 1046   4.566   4.074   1.772
   49SOL    HW2 1047   4.686   4.045   1.664
   50SOL     OW 1048   6.553   2.980   5.720
   50SOL    HW1 1049   6.580   2.971   5.816
   50SOL    HW2 1050   6.456   2.959   5.711
   51SOL     OW 1051   3.312   6.147   3.309
   51SOL    HW1 1052   3.220   6.112   3.294
   51SOL    HW2 1053   3.310   6.247   3.309
   52SOL     OW 1054   5.130   2.906   3.385
   52SOL    HW1 1055   5.177   2.869   3.304
   52SOL    HW2 1056   5.125   2.836   3.456
   53SOL     OW 1057   4.517   0.476   4.719
   53SOL    HW1 1058   4.539   0.525   4.635
   53SOL    HW2 1059   4.447   0.407   4.700
   54SOL     OW 1060   4.019   4.939   0.666
   54SOL    HW1 1061   4.007   4.843   0.642
   54SOL    HW2 1062   3.954   4.995   0.614
   55SOL     OW 1063   3.532   1.235   6.232
   55SOL    HW1 1064   3.570   1.312   6.284
   55SOL    HW2 1065   3.544   1.250   6.134
   56SOL     OW 1066   1.187   0.657   1.710
   56SOL    HW1 1067   1.123   0.581   1.700
   56SOL    HW2 1068   1.169   0.726   1.640
   57SOL     OW 1069   5.402   0.844   1.155
   57SOL    HW1 1070   5.442   0.932   1.128
   57SOL    HW2 1071   5.475   0.776   1.163
   58SOL     OW 1072   6.839   6.517   5.310
   58SOL    HW1 1073   6.845   6.456   5.231
   58SOL    HW2 1074   6.930   6.534   5.347
   59SOL     OW 1075   1.803   1.331   5.951
   59SOL    HW1 1076   1.885   1.374   5.914
   59SOL    HW2 1077   1.829   1.264   6.021
   60SOL     OW 1078   6.037   1.147   6.039
   60SOL    HW1 1079   6.042   1.061   6.090
   60SOL    HW2 1080   6.068   1.133   5.945
   61SOL     OW 1081   5.050   1.628   4.503
   61SOL    HW1 1082   4.969   1.674   4.466
   61SOL    HW2 1083   5.049   1.635   4.602
   62SOL     OW 1084   0.746   0.526   3.752
   62SOL    HW1 1085   0.771   0.515   3.849
   62SOL    HW2 1086   0.661   0.577   3.745
   63SOL     OW 1087   6.676   1.413   3.730
   63SOL    HW1 1088   6.617   1.334   3.716
   63SOL    HW2 1089   6.688   1.462   3.644
   64SOL     OW 1090   0.421   4.005   6.464
   64SOL    HW1 1091   0.481   4.076   6.499
   64SOL    HW2 1092   0.465   3.916   6.473
   65SOL     OW 1093   6.736   4.517   5.405
   65SOL    HW1 1094   6.734   4.482   5.311
   65SOL    HW2 1095   6.683   4.456   5.464
   66SOL     OW 1096   3.463   0.328   6.544
   66SOL    HW1 1097   3.439   0.399   6.609
   66SOL    HW2 1098   3.560   0.337   6.519
   67SOL     OW 1099   5.634   4.888   5.465
   67SOL    HW1 1100   5.602   4.951   5.395
   67SOL    HW2 1101   5.727   4.858   5.444
   68SOL     OW 1102   5.838   0.587   6.587
   68SOL    HW1 1103   5.931   0.582   6.624
   68SOL    HW2 1104   5.777   0.625   6.656
   69SOL     OW 1105   1.633   3.781   6.682
   69SOL    HW1 1106   1.712   3.827   6.641
   69SOL    HW2 1107   1.617   3.818   6.774
   70SOL     OW 1108   6.686   4.757   3.608
   70SOL    HW1 1109   6.642   4.766   3.519
   70SOL    HW2 1110   6.654   4.831   3.668
   71SOL     OW 1111   3.824   1.933   2.610
   71SOL    HW1 1112   3.908   1.955   2.659
   71SOL    HW2 1113   3.843   1.929   2.512
   72SOL     OW 1114   2.907   5.741   4.613
   72SOL    HW1 1115   3.003   5.735   4.586
   72SOL    HW2 1116   2.902   5.759   4.712
   73SOL     OW 1117   3.379   1.642   0.746
   73SOL    HW1 1118   3.342   1.722   0.698
   73SOL    HW2 1119   3.476   1.657   0.765
   74SOL     OW 1120   5.430   6.284   6.293
   74SOL    HW1 1121   5.483   6.202   6.270
   74SOL    HW2 1122   5.417   6.339   6.211
   75SOL     OW 1123   3.567   6.725   6.411
   75SOL    HW1 1124   3.494   6.692   6.351
   75SOL    HW2 1125   3.589   6.820   6.386
   76SOL     OW 1126   1.983   2.794   1.400
   76SOL    HW1 1127   1.997   2.892   1.392
   76SOL    HW2 1128   1.890   2.776   1.434
   77SOL     OW 1129   5.383   6.294   4.431
   77SOL    HW1 1130   5.453   6.235   4.392
   77SOL    HW2 1131   5.394   6.297   4.531
   78SOL     OW 1132   5.720   0.570   5.500
   78SOL    HW1 1133   5.710   0.666   5.526
   78SOL    HW2 1134   5.733   0.515   5.582
   79SOL     OW 1135   3.397   0.173   0.595
   79SOL    HW1 1136   3.404   0.264   0.636
   79SOL    HW2 1137   3.301   0.149   0.584
   80SOL     OW 1138   5.358   1.490   4.754
   80SOL    HW1 1139   5.266   1.476   4.788
   80SOL    HW2 1140   5.370   1.439   4.668
   81SOL     OW 1141   2.257   7.003   2.750
   81SOL    HW1 1142   2.234   0.013   2.840
   81SOL    HW2 1143   2.306   6.916   2.760
   82SOL     OW 1144   6.660   5.642   0.481
   82SOL    HW1 1145   6.626   5.703   0.553
   82SOL    HW2 1146   6.697   5.559   0.523
   83SOL     OW 1147   6.155   0.551   0.628
   83SOL    HW1 1148   6.080   0.616   0.616
   83SOL    HW2 1149   6.182   0.548   0.724
   84SOL     OW 1150   4.932   3.364   3.463
   84SOL    HW1 1151   4.883   3.320   3.387
   84SOL    HW2 1152   4.975   3.294   3.519
   85SOL     OW 1153   1.527   2.038   5.357
   85SOL    HW1 1154   1.545   1.946   5.322
   85SOL    HW2 1155   1.534   2.104   5.281
   86SOL     OW 1156   0.833   0.498   5.688
   86SOL    HW1 1157   0.881   0.579   5.655
   86SOL    HW2 1158   0.784   0.520   5.772
   87SOL     OW 1159   4.874   3.719   0.455
   87SOL    HW1 1160   4.809   3.701   0.529
   87SOL    HW2 1161   4.856   3.657   0.379
   88SOL     OW 1162   4.192   1.844   6.483
   88SOL    HW1 1163   4.160   1.899   6.560
   88SOL    HW2 1164   4.199   1.901   6.402
   89SOL     OW 1165   1.155   2.956   6.444
   89SOL    HW1 1166   1.119   3.007   6.366
   89SOL    HW2 1167   1.211   3.016   6.501
   90SOL     OW 1168   4.114   6.188   3.913
   90SOL    HW1 1169   4.021   6.178   3.949
   90SOL    HW2 1170   4.115   6.171   3.815
   91SOL     OW 1171   4.809   4.073   4.262
   91SOL    HW1 1172   4.884   4.129   4.298
   91SOL    HW2 1173   4.846   3.990   4.220
   92SOL     OW 1174   3.201   4.131   0.544
   92SOL    HW1 1175   3.280   4.132   0.484
   92SOL    HW2 1176   3.129   4.073   0.505
   93SOL     OW 1177   2.313   4.287   6.958
   93SOL    HW1 1178   2.289   4.288   6.861
   93SOL    HW2 1179   2.399   4.238   6.971
   94SOL     OW 1180   2.609   6.303   6.211
   94SOL    HW1 1181   2.522   6.275   6.250
   94SOL    HW2 1182   2.620   6.263   6.120
   95SOL     OW 1183   0.848   1.137   2.703
   95SOL    HW1 1184   0.810   1.075   2.634
   95SOL    HW2 1185   0.799   1.126   2.789
   96SOL     OW 1186   3.069   0.030   5.325
   96SOL    HW1 1187   3.073   0.006   5.421
   96SOL    HW2 1188   2.973   0.037   5.296
   97SOL     OW 1189   1.005   3.683   5.676
   97SOL    HW1 1190   1.053   3.771   5.680
   97SOL    HW2 1191   1.054   3.617   5.733
   98SOL     OW 1192   6.528   3.817   0.087
   98SOL    HW1 1193   6.501   3.913   0.082
   98SOL    HW2 1194   6.458   3.760   0.043
   99SOL     OW 1195   4.516   3.907   0.866
   99SOL    HW1 1196   4.493   3.812   0.844
   99SOL    HW2 1197   4.580   3.910   0.942
  100SOL     OW 1198   0.359   0.129   5.793
  100SOL    HW1 1199   0.365   0.200   5.722
  100SOL    HW2 1200   0.412   0.158   5.872
  101SOL     OW 1201   1.557   5.592   2.787
  101SOL    HW1 1202   1.617   5.664   2.751
  101SOL    HW2 1203   1.595   5.502   2.763
  102SOL     OW 1204   4.357   0.822   2.447
  102SOL    HW1 1205   4.404   0.800   2.361
  102SOL    HW2 1206   4.260   0.803   2.437
  103SOL     OW 1207   3.538   0.970   2.324
  103SOL    HW1 1208   3.479   0.920   2.261
  103SOL    HW2 1209   3.633   0.939   2.313
  104SOL     OW 1210   6.951   5.275   2.470
  104SOL    HW1 1211   6.875   5.334   2.496
  104SOL    HW2 1212   6.937   5.184   2.510
  105SOL     OW 1213   6.413   2.285   6.315
  105SOL    HW1 1214   6.383   2.196   6.282
  105SOL    HW2 1215   6.364   2.308   6.399
  106SOL     OW 1216   3.353   6.454   4.714
  106SOL    HW1 1217   3.415   6.387   4.673
  106SOL    HW2 1218   3.261   6.416   4.718
  107SOL     OW 1219   1.548   2.271   1.959
  107SOL    HW1 1220   1.637   2.314   1.946
  107SOL    HW2 1221   1.478   2.323   1.910
  108SOL     OW 1222   3.775   5.332   6.110
  108SOL    HW1 1223   3.852   5.270   6.125
  108SOL    HW2 1224   3.776   5.364   6.016
  109SOL     OW 1225   0.780   1.338   1.576
  109SOL    HW1 1226   0.850   1.395   1.535
  109SOL    HW2 1227   0.707   1.322   1.509
  110SOL     OW 1228   3.771   6.419   5.275
  110SOL    HW1 1229   3.712   6.438   5.196
  110SOL    HW2 1230   3.758   6.324   5.304
  111SOL     OW 1231   3.318   0.437   5.240
  111SOL    HW1 1232   3.416   0.425   5.251
  111SOL    HW2 1233   3.277   0.354   5.202
  112SOL     OW 1234   6.097   6.531   6.225
  112SOL    HW1 1235   6.025   6.463   6.236
  112SOL    HW2 1236   6.163   6.499   6.157
  113SOL     OW 1237   6.473   4.900   3.309
  113SOL    HW1 1238   6.540   4.828   3.290
  113SOL    HW2 1239   6.520   4.984   3.337
  114SOL     OW 1240   0.940   0.523   1.629
  114SOL    HW1 1241   0.946   0.438   1.576
  114SOL    HW2 1242   0.872   0.512   1.701
  115SOL     OW 1243   3.463   1.504   3.586
  115SOL    HW1 1244   3.486   1.544   3.675
  115SOL    HW2 1245   3.394   1.433   3.597
  116SOL     OW 1246   6.096   5.248   2.057
  116SOL    HW1 1247   6.133   5.327   2.106
  116SOL    HW2 1248   6.122   5.164   2.104
  117SOL     OW 1249   1.305   1.413   6.485
  117SOL    HW1 1250   1.381   1.414   6.550
  117SOL    HW2 1251   1.241   1.339   6.510
  118SOL     OW 1252   1.688   1.492   2.935
  118SOL    HW1 1253   1.615   1.559   2.919
  118SOL    HW2 1254   1.748   1.525   3.008
  119SOL     OW 1255   1.169   1.724   6.223
  119SOL    HW1 1256   1.246   1.669   6.257
  119SOL    HW2 1257   1.179   1.738   6.124
  120SOL     OW 1258   6.239   6.931   0.386
  120SOL    HW1 1259   6.327   6.915   0.342
  120SOL    HW2 1260   6.231   0.002   0.410
  121SOL     OW 1261   2.385   3.911   6.830
  121SOL    HW1 1262   2.469   3.964   6.836
  121SOL    HW2 1263   2.380   3.847   6.907
  122SOL     OW 1264   1.784   4.726   0.044
  122SOL    HW1 1265   1.731   4.641   0.038
  122SOL    HW2 1266   1.835   4.740   6.986
  123SOL     OW 1267   0.560   2.207   1.577
  123SOL    HW1 1268   0.588   2.113   1.595
  123SOL    HW2 1269   0.468   2.207   1.538
  124SOL     OW 1270   5.256   3.383   0.402
  124SOL    HW1 1271   5.343   3.431   0.415
  124SOL    HW2 1272   5.201   3.390   0.485
  125SOL     OW 1273   2.620   1.604   2.044
  125SOL    HW1 1274   2.520   1.604   2.042
  125SOL    HW2 1275   2.653   1.696   2.066
  126SOL     OW 1276   2.738   4.021   1.052
  126SOL    HW1 1277   2.756   4.119   1.059
  126SOL    HW2 1278   2.655   4.006   0.997
  127SOL     OW 1279   0.023   5.750   5.922
  127SOL    HW1 1280   0.034   5.768   5.824
  127SOL    HW2 1281   0.029   5.652   5.939
  128SOL     OW 1282   4.500   2.475   1.604
  128SOL    HW1 1283   4.527   2.461   1.509
  128SOL    HW2 1284   4.480   2.386   1.646
  129SOL     OW 1285   3.530   3.127   6.062
  129SOL    HW1 1286   3.620   3.164   6.039
  129SOL    HW2 1287   3.493   3.078   5.983
  130SOL     OW 1288   0.506   1.276   4.461
  130SOL    HW1 1289   0.478   1.362   4.420
  130SOL    HW2 1290   0.432   1.240   4.517
  131SOL     OW 1291   5.304   1.429   2.534
  131SOL    HW1 1292   5.225   1.413   2.594
  131SOL    HW2 1293   5.272   1.443   2.440
  132SOL     OW 1294   2.352   3.033   0.644
  132SOL    HW1 1295   2.437   3.024   0.592
  132SOL    HW2 1296   2.370   3.078   0.731
  133SOL     OW 1297   4.634   6.556   3.974
  133SOL    HW1 1298   4.682   6.643   3.965
  133SOL    HW2 1299   4.557   6.553   3.911
  134SOL     OW 1300   5.796   1.481   2.521
  134SOL    HW1 1301   5.801   1.463   2.619
  134SOL    HW2 1302   5.708   1.524   2.500
  135SOL     OW 1303   5.506   3.185   2.266
  135SOL    HW1 1304   5.562   3.241   2.206
  135SOL    HW2 1305   5.472   3.241   2.341
  136SOL     OW 1306   3.299   3.739   6.399
  136SOL    HW1 1307   3.264   3.655   6.441
  136SOL    HW2 1308   3.293   3.733   6.300
  137SOL     OW 1309   5.306   0.776   4.886
  137SOL    HW1 1310   5.294   0.771   4.986
  137SOL    HW2 1311   5.377   0.712   4.858
  138SOL     OW 1312   0.610   4.505   3.459
  138SOL    HW1 1313   0.536   4.556   3.415
  138SOL    HW2 1314   0.592   4.407   3.451
  139SOL     OW 1315   2.804   6.611   4.976
  139SOL    HW1 1316   2.744   6.638   5.051
  139SOL    HW2 1317   2.783   6.665   4.895
  140SOL     OW 1318   0.315   5.679   3.435
  140SOL    HW1 1319   0.412   5.674   3.413
  140SOL    HW2 1320   0.292   5.773   3.461
  141SOL     OW 1321   6.035   3.520   5.017
  141SOL    HW1 1322   6.027   3.458   4.939
  141SOL    HW2 1323   6.126   3.510   5.058
  142SOL     OW 1324   1.979   4.777   0.780
  142SOL    HW1 1325   2.045   4.807   0.711
  142SOL    HW2 1326   1.886   4.789   0.745
  143SOL     OW 1327   5.782   4.420   1.639
  143SOL    HW1 1328   5.706   4.356   1.655
  143SOL    HW2 1329   5.844   4.380   1.571
  144SOL     OW 1330   1.551   6.487   6.693
  144SOL    HW1 1331   1.641   6.453   6.721
  144SOL    HW2 1332   1.492   6.495   6.774
  145SOL     OW 1333   0.516   5.094   0.316
  145SOL    HW1 1334   0.498   5.183   0.274
  145SOL    HW2 1335   0.514   5.023   0.246
  146SOL     OW 1336   4.863   0.083   6.155
  146SOL    HW1 1337   4.880   0.157   6.090
  146SOL    HW2 1338   4.945   0.067   6.209
  147SOL     OW 1339   5.722   3.055   6.761
  147SOL    HW1 1340   5.819   3.034   6.770
  147SOL    HW2 1341   5.702   3.140   6.809
  148SOL     OW 1342   0.480   4.846   6.735
  148SOL    HW1 1343   0.468   4.809   6.642
  148SOL    HW2 1344   0.577   4.862   6.752
  149SOL     OW 1345   3.092   2.021   4.607
  149SOL    HW1 1346   3.093   1.927   4.642
  149SOL    HW2 1347   3.077   2.084   4.682
  150SOL     OW 1348   5.656   5.601   6.051
  150SOL    HW1 1349   5.600   5.573   6.129
  150SOL    HW2 1350   5.636   5.696   6.027
  151SOL     OW 1351   3.359   2.343   0.996
  151SOL    HW1 1352   3.376   2.427   0.945
  151SOL    HW2 1353   3.331   2.366   1.090
  152SOL     OW 1354   1.800   1.807   3.579
  152SOL    HW1 1355   1.839   1.783   3.668
  152SOL    HW2 1356   1.849   1.758   3.507
  153SOL     OW 1357   2.857   0.402   1.509
  153SOL    HW1 1358   2.775   0.359   1.470
  153SOL    HW2 1359   2.924   0.331   1.531
  154SOL     OW 1360   0.645   2.057   3.142
  154SOL    HW1 1361   0.694   2.086   3.224
  154SOL    HW2 1362   0.646   2.131   3.075
  155SOL     OW 1363   0.242   1.139   3.217
  155SOL    HW1 1364   0.151   1.167   3.184
  155SOL    HW2 1365   0.237   1.047   3.254
  156SOL     OW 1366   6.994   1.943   0.917
  156SOL    HW1 1367   0.056   1.962   0.960
  156SOL    HW2 1368   6.924   2.004   0.954
  157SOL     OW 1369   5.997   3.121   1.799
  157SOL    HW1 1370   6.050   3.155   1.876
  157SOL    HW2 1371   6.048   3.133   1.715
  158SOL     OW 1372   2.755   6.231   1.898
  158SOL    HW1 1373   2.747   6.194   1.805
  158SOL    HW2 1374   2.665   6.234   1.941
  159SOL     OW 1375   4.729   4.304   1.693
  159SOL    HW1 1376   4.673   4.274   1.770
  159SOL    HW2 1377   4.796   4.372   1.724
  160SOL     OW 1378   6.409   5.337   0.359
  160SOL    HW1 1379   6.363   5.266   0.413
  160SOL    HW2 1380   6.508   5.330   0.374
  161SOL     OW 1381   2.001   5.272   5.014
  161SOL    HW1 1382   2.019   5.213   5.093
  161SOL    HW2 1383   2.080   5.331   4.997
  162SOL     OW 1384   3.929   6.803   0.119
  162SOL    HW1 1385   3.851   6.743   0.139
  162SOL    HW2 1386   3.956   6.792   0.023
  163SOL     OW 1387   5.379   5.655   1.135
  163SOL    HW1 1388   5.354   5.726   1.201
  163SOL    HW2 1389   5.468   5.617   1.159
  164SOL     OW 1390   6.244   5.025   0.768
  164SOL    HW1 1391   6.226   5.002   0.673
  164SOL    HW2 1392   6.236   4.943   0.825
  165SOL     OW 1393   5.464   3.062   1.388
  165SOL    HW1 1394   5.437   3.056   1.292
  165SOL    HW2 1395   5.393   3.021   1.445
  166SOL     OW 1396   0.055   5.070   3.206
  166SOL    HW1 1397   0.098   5.056   3.117
  166SOL    HW2 1398   0.013   5.161   3.209
  167SOL     OW 1399   5.740   2.345   0.252
  167SOL    HW1 1400   5.805   2.347   0.175
  167SOL    HW2 1401   5.765   2.416   0.318
  168SOL     OW 1402   2.510   3.519   1.248
  168SOL    HW1 1403   2.568   3.584   1.198
  168SOL    HW2 1404   2.494   3.554   1.340
  169SOL     OW 1405   3.848   0.253   2.249
  169SOL    HW1 1406   3.809   0.294   2.167
  169SOL    HW2 1407   3.793   0.279   2.328
  170SOL     OW 1408   0.625   1.067   3.610
  170SOL    HW1 1409   0.540   1.099   3.651
  170SOL    HW2 1410   0.695   1.138   3.620
  171SOL     OW 1411   3.921   4.406   0.478
  171SOL    HW1 1412   3.987   4.371   0.545
  171SOL    HW2 1413   3.901   4.335   0.411
  172SOL     OW 1414   6.627   2.151   4.204
  172SOL    HW1 1415   6.622   2.185   4.297
  172SOL    HW2 1416   6.556   2.082   4.190
  173SOL     OW 1417   6.453   1.937   4.121
  173SOL    HW1 1418   6.454   1.927   4.021
  173SOL    HW2 1419   6.535   1.896   4.160
  174SOL     OW 1420   3.472   5.576   4.052
  174SOL    HW1 1421   3.376   5.599   4.068
  174SOL    HW2 1422   3.480   5.479   4.033
  175SOL     OW 1423   2.379   7.013   2.194
  175SOL    HW1 1424   2.331   0.039   2.122
  175SOL    HW2 1425   2.339   6.922   2.201
  176SOL     OW 1426   0.894   4.197   1.509
  176SOL    HW1 1427   0.983   4.157   1.488
  176SOL    HW2 1428   0.869   4.172   1.603
  177SOL     OW 1429   5.718   2.855   2.699
  177SOL    HW1 1430   5.751   2.895   2.614
  177SOL    HW2 1431   5.742   2.759   2.703
  178SOL     OW 1432   3.606   2.492   6.374
  178SOL    HW1 1433   3.690   2.533   6.338
  178SOL    HW2 1434   3.627   2.440   6.457
  179SOL     OW 1435   2.318   1.774   6.020
  179SOL    HW1 1436   2.256   1.852   6.022
  179SOL    HW2 1437   2.331   1.738   6.112
  180SOL     OW 1438   1.447   0.038   6.322
  180SOL    HW1 1439   1.394   6.990   6.280
  180SOL    HW2 1440   1.520   7.024   6.378
  181SOL     OW 1441   3.539   1.723   6.420
  181SOL    HW1 1442   3.541   1.737   6.321
  181SOL    HW2 1443   3.456   1.764   6.458
  182SOL     OW 1444   3.665   2.156   4.271
  182SOL    HW1 1445   3.645   2.159   4.173
  182SOL    HW2 1446   3.586   2.189   4.322
  183SOL     OW 1447   3.599   2.153   3.457
  183SOL    HW1 1448   3.571   2.057   3.448
  183SOL    HW2 1449   3.519   2.212   3.444
  184SOL     OW 1450   1.792   6.350   4.402
  184SOL    HW1 1451   1.865   6.416   4.422
  184SOL    HW2 1452   1.707   6.381   4.445
  185SOL     OW 1453   1.033   2.021   6.306
  185SOL    HW1 1454   0.943   1.984   6.326
  185SOL    HW2 1455   1.095   1.947   6.281
  186SOL     OW 1456   6.353   1.168   3.486
  186SOL    HW1 1457   6.400   1.089   3.523
  186SOL    HW2 1458   6.297   1.141   3.408
  187SOL     OW 1459   4.723   0.735   3.121
  187SOL    HW1 1460   4.663   0.783   3.185
  187SOL    HW2 1461   4.746   0.645   3.158
  188SOL     OW 1462   6.491   1.812   2.205
  188SOL    HW1 1463   6.575   1.797   2.258
  188SOL    HW2 1464   6.511   1.800   2.108
  189SOL     OW 1465   2.007   5.436   2.282
  189SOL    HW1 1466   2.037   5.413   2.189
  189SOL    HW2 1467   2.075   5.403   2.348
  190SOL     OW 1468   4.385   1.373   4.381
  190SOL    HW1 1469   4.355   1.404   4.291
  190SOL    HW2 1470   4.483   1.385   4.389
  191SOL     OW 1471   5.571   5.854   5.968
  191SOL    HW1 1472   5.572   5.859   5.868
  191SOL    HW2 1473   5.491   5.803   5.998
  192SOL     OW 1474   7.009   6.142   2.040
  192SOL    HW1 1475   7.003   6.049   2.075
  192SOL    HW2 1476   0.078   6.174   2.045
  193SOL     OW 1477   4.494   2.283   5.407
  193SOL    HW1 1478   4.445   2.366   5.380
  193SOL    HW2 1479   4.436   2.229   5.468
  194SOL     OW 1480   3.197   0.353   2.814
  194SOL    HW1 1481   3.207   0.393   2.905
  194SOL    HW2 1482   3.103   0.323   2.801
  195SOL     OW 1483   1.827   6.699   4.250
  195SOL    HW1 1484   1.822   6.736   4.343
  195SOL    HW2 1485   1.921   6.699   4.219
  196SOL     OW 1486   2.728   1.570   6.624
  196SOL    HW1 1487   2.824   1.542   6.626
  196SOL    HW2 1488   2.702   1.604   6.715
  197SOL     OW 1489   2.151   0.958   0.388
  197SOL    HW1 1490   2.158   0.890   0.461
  197SOL    HW2 1491   2.057   0.960   0.354
  198SOL     OW 1492   4.855   1.431   3.012
  198SOL    HW1 1493   4.807   1.365   2.955
  198SOL    HW2 1494   4.794   1.507   3.034
  199SOL     OW 1495   1.193   2.152   4.236
  199SOL    HW1 1496   1.202   2.061   4.195
  199SOL    HW2 1497   1.268   2.166   4.301
  200SOL     OW 1498   1.274   3.690   0.815
  200SOL    HW1 1499   1.184   3.714   0.778
  200SOL    HW2 1500   1.269   3.684   0.914
  201SOL     OW 1501   0.534   6.221   5.604
  201SOL    HW1 1502   0.437   6.200   5.617
  201SOL    HW2 1503   0.578   6.229   5.694
  202SOL     OW 1504   3.772   1.840   6.493
  202SOL    HW1 1505   3.849   1.776   6.489
  202SOL    HW2 1506   3.688   1.793   6.466
  203SOL     OW 1507   6.308   2.019   5.043
  203SOL    HW1 1508   6.341   1.956   5.113
  203SOL    HW2 1509   6.210   2.035   5.057
  204SOL     OW 1510   0.910   6.818   4.238
  204SOL    HW1 1511   0.935   6.863   4.153
  204SOL    HW2 1512   0.820   6.774   4.228
  205SOL     OW 1513   1.603   2.558   2.920
  205SOL    HW1 1514   1.517   2.607   2.935
  205SOL    HW2 1515   1.587   2.479   2.860
  206SOL     OW 1516   0.812   3.788   1.096
  206SOL    HW1 1517   0.813   3.825   1.189
  206SOL    HW2 1518   0.736   3.724   1.086
  207SOL     OW 1519   5.788   0.866   3.822
  207SOL    HW1 1520   5.835   0.870   3.733
  207SOL    HW2 1521   5.700   0.913   3.816
  208SOL     OW 1522   0.280   3.588   5.984
  208SOL    HW1 1523   0.286   3.679   6.024
  208SOL    HW2 1524   0.334   3.585   5.900
  209SOL     OW 1525   6.689   4.749   3.301
  209SOL    HW1 1526   6.757   4.693   3.348
  209SOL    HW2 1527   6.732   4.832   3.265
  210SOL     OW 1528   4.662   2.062   0.603
  210SOL    HW1 1529   4.638   2.002   0.527
  210SOL    HW2 1530   4.661   2.157   0.572
  211SOL     OW 1531   1.115   6.557   2.401
  211SOL    HW1 1532   1.205   6.515   2.384
  211SOL    HW2 1533   1.127   6.655   2.419
  212SOL     OW 1534   1.218   3.524   2.566
  212SOL    HW1 1535   1.227   3.598   2.632
  212SOL    HW2 1536   1.208   3.437   2.614
  213SOL     OW 1537   1.799   6.101   1.126
  213SOL    HW1 1538   1.869   6.030   1.125
  213SOL    HW2 1539   1.711   6.061   1.154
  214SOL     OW 1540   3.533   5.223   2.948
  214SOL    HW1 1541   3.515   5.253   3.041
  214SOL    HW2 1542   3.555   5.302   2.891
  215SOL     OW 1543   2.993   3.942   0.904
  215SOL    HW1 1544   2.905   3.959   0.948
  215SOL    HW2 1545   3.025   3.850   0.927
  216SOL     OW 1546   0.828   6.244   2.959
  216SOL    HW1 1547   0.820   6.218   2.863
  216SOL    HW2 1548   0.743   6.287   2.989
  217SOL     OW 1549   1.294   2.308   4.807
  217SOL    HW1 1550   1.315   2.236   4.741
  217SOL    HW2 1551   1.264   2.267   4.893
  218SOL     OW 1552   0.735   2.567   4.182
  218SOL    HW1 1553   0.648   2.598   4.144
  218SOL    HW2 1554   0.784   2.645   4.222
  219SOL     OW 1555   4.266   0.236   0.380
  219SOL    HW1 1556   4.346   0.288   0.410
  219SOL    HW2 1557   4.291   0.172   0.308
  220SOL     OW 1558   2.627   0.217   0.962
  220SOL    HW1 1559   2.695   0.148   0.988
  220SOL    HW2 1560   2.626   0.290   1.030
  221SOL     OW 1561   5.951   4.277   1.448
  221SOL    HW1 1562   5.974   4.180   1.437
  221SOL    HW2 1563   6.030   4.333   1.423
  222SOL     OW 1564   1.642   4.544   5.610
  222SOL    HW1 1565   1.646   4.545   5.710
  222SOL    HW2 1566   1.718   4.596   5.572
  223SOL     OW 1567   6.892   3.430   5.830
  223SOL    HW1 1568   6.808   3.388   5.794
  223SOL    HW2 1569   6.971   3.383   5.792
  224SOL     OW 1570   3.326   1.202   6.428
  224SOL    HW1 1571   3.357   1.204   6.333
  224SOL    HW2 1572   3.384   1.139   6.480
  225SOL     OW 1573   4.427   3.967   6.386
  225SOL    HW1 1574   4.469   3.934   6.301
  225SOL    HW2 1575   4.474   3.925   6.464
  226SOL     OW 1576   0.642   1.620   6.136
  226SOL    HW1 1577   0.667   1.717   6.131
  226SOL    HW2 1578   0.722   1.566   6.160
  227SOL     OW 1579   1.908   4.455   2.212
  227SOL    HW1 1580   1.885   4.441   2.309
  227SOL    HW2 1581   1.907   4.366   2.165
  228SOL     OW 1582   2.030   0.226   2.415
  228SOL    HW1 1583   2.031   0.199   2.318
  228SOL    HW2 1584   1.950   0.282   2.433
  229SOL     OW 1585   5.257   5.511   5.694
  229SOL    HW1 1586   5.245   5.448   5.771
  229SOL    HW2 1587   5.167   5.547   5.666
  230SOL     OW 1588   4.444   5.772   4.332
  230SOL    HW1 1589   4.503   5.853   4.334
  230SOL    HW2 1590   4.363   5.791   4.277
  231SOL     OW 1591   6.158   1.438   6.335
  231SOL    HW1 1592   6.194   1.352   6.372
  231SOL    HW2 1593   6.189   1.514   6.392
  232SOL     OW 1594   0.395   3.360   6.708
  232SOL    HW1 1595   0.347   3.360   6.620
  232SOL    HW2 1596   0.447   3.444   6.717
  233SOL     OW 1597   4.383   1.338   2.954
  233SOL    HW1 1598   4.302   1.301   2.999
  233SOL    HW2 1599   4.356   1.409   2.889
  234SOL     OW 1600   5.562   0.809   6.974
  234SOL    HW1 1601   5.624   0.882   6.944
  234SOL    HW2 1602   5.579   0.727   6.920
  235SOL     OW 1603   4.794   2.825   2.228
  235SOL    HW1 1604   4.800   2.733   2.188
  235SOL    HW2 1605   4.763   2.890   2.158
  236SOL     OW 1606   5.161   2.893   6.759
  236SOL    HW1 1607   5.107   2.906   6.842
  236SOL    HW2 1608   5.255   2.870   6.784
  237SOL     OW 1609   0.115   4.166   1.932
  237SOL    HW1 1610   0.060   4.084   1.913
  237SOL    HW2 1611   0.057   4.236   1.973
  238SOL     OW 1612   6.123   1.693   0.395
  238SOL    HW1 1613   6.213   1.663   0.426
  238SOL    HW2 1614   6.133   1.745   0.310
  239SOL     OW 1615   0.817   4.743   0.301
  239SOL    HW1 1616   0.734   4.690   0.287
  239SOL    HW2 1617   0.880   4.729   0.224
  240SOL     OW 1618   1.030   3.148   3.558
  240SOL    HW1 1619   1.064   3.240   3.577
  240SOL    HW2 1620   0.932   3.145   3.576
  241SOL     OW 1621   3.038   2.208   4.784
  241SOL    HW1 1622   2.958   2.265   4.764
  241SOL    HW2 1623   3.080   2.239   4.870
  242SOL     OW 1624   3.377   3.623   3.810
  242SOL    HW1 1625   3.440   3.596   3.737
  242SOL    HW2 1626   3.286   3.585   3.791
  243SOL     OW 1627   5.105   1.499   0.447
  243SOL    HW1 1628   5.136   1.435   0.377
  243SOL    HW2 1629   5.024   1.548   0.414
  244SOL     OW 1630   5.915   3.896   5.466
  244SOL    HW1 1631   5.960   3.913   5.554
  244SOL    HW2 1632   5.821   3.931   5.469
  245SOL     OW 1633   4.404   2.130   4.101
  245SOL    HW1 1634   4.420   2.227   4.120
  245SOL    HW2 1635   4.308   2.107   4.119
  246SOL     OW 1636   4.750   1.892   3.412
  246SOL    HW1 1637   4.700   1.814   3.449
  246SOL    HW2 1638   4.757   1.963   3.483
  247SOL     OW 1639   2.623   1.782   0.935
  247SOL    HW1 1640   2.708   1.752   0.891
  247SOL    HW2 1641   2.545   1.745   0.884
  248SOL     OW 1642   3.112   1.370   3.110
  248SOL    HW1 1643   3.021   1.352   3.074
  248SOL    HW2 1644   3.180   1.344   3.041
  249SOL     OW 1645   5.459   6.733   5.118
  249SOL    HW1 1646   5.453   6.775   5.208
  249SOL    HW2 1647   5.376   6.756   5.066
  250SOL     OW 1648   4.684   3.128   0.499
  250SOL    HW1 1649   4.735   3.187   0.562
  250SOL    HW2 1650   4.686   3.167   0.407
  251SOL     OW 1651   4.434   3.443   5.329
  251SOL    HW1 1652   4.351   3.492   5.354
  251SOL    HW2 1653   4.487   3.496   5.263
  252SOL     OW 1654   6.881   6.353   4.840
  252SOL    HW1 1655   6.848   6.445   4.819
  252SOL    HW2 1656   6.852   6.290   4.768
  253SOL     OW 1657   3.493   5.380   6.829
  253SOL    HW1 1658   3.433   5.314   6.784
  253SOL    HW2 1659   3.529   5.444   6.761
  254SOL     OW 1660   6.290   2.104   3.577
  254SOL    HW1 1661   6.232   2.182   3.550
  254SOL    HW2 1662   6.378   2.111   3.531
  255SOL     OW 1663   2.285   4.809   5.449
  255SOL    HW1 1664   2.192   4.798   5.415
  255SOL    HW2 1665   2.348   4.761   5.388
  256SOL     OW 1666   5.793   3.576   5.865
  256SOL    HW1 1667   5.882   3.532   5.870
  256SOL    HW2 1668   5.803   3.674   5.881
  257SOL     OW 1669   5.206   0.073   3.310
  257SOL    HW1 1670   5.109   0.051   3.318
  257SOL    HW2 1671   5.226   0.101   3.216
  258SOL     OW 1672   2.454   4.093   5.594
  258SOL    HW1 1673   2.525   4.144   5.545
  258SOL    HW2 1674   2.401   4.039   5.529
  259SOL     OW 1675   6.228   0.745   2.529
  259SOL    HW1 1676   6.245   0.748   2.430
  259SOL    HW2 1677   6.201   0.652   2.555
  260SOL     OW 1678   4.308   5.735   3.193
  260SOL    HW1 1679   4.249   5.726   3.273
  260SOL    HW2 1680   4.380   5.803   3.212
  261SOL     OW 1681   5.989   3.030   0.819
  261SOL    HW1 1682   6.024   2.964   0.752
  261SOL    HW2 1683   5.897   3.058   0.794
  262SOL     OW 1684   1.314   4.261   0.467
  262SOL    HW1 1685   1.266   4.278   0.553
  262SOL    HW2 1686   1.261   4.296   0.390
  263SOL     OW 1687   1.984   0.193   4.742
  263SOL    HW1 1688   2.034   0.115   4.703
  263SOL    HW2 1689   1.895   0.162   4.776
  264SOL     OW 1690   6.021   2.750   6.881
  264SOL    HW1 1691   6.083   2.687   6.835
  264SOL    HW2 1692   5.995   2.823   6.818
  265SOL     OW 1693   5.055   6.558   2.792
  265SOL    HW1 1694   4.978   6.497   2.773
  265SOL    HW2 1695   5.033   6.618   2.869
  266SOL     OW 1696   4.364   2.818   5.715
  266SOL    HW1 1697   4.428   2.756   5.760
  266SOL    HW2 1698   4.403   2.910   5.713
  267SOL     OW 1699   0.902   1.801   6.051
  267SOL    HW1 1700   0.949   1.743   5.985
  267SOL    HW2 1701   0.937   1.782   6.143
  268SOL     OW 1702   3.120   0.914   6.047
  268SOL    HW1 1703   3.032   0.963   6.047
  268SOL    HW2 1704   3.134   0.871   5.958
  269SOL     OW 1705   1.704   3.859   1.324
  269SOL    HW1 1706   1.800   3.889   1.322
  269SOL    HW2 1707   1.686   3.801   1.245
  270SOL     OW 1708   1.413   6.083   0.649
  270SOL    HW1 1709   1.321   6.122   0.658
  270SOL    HW2 1710   1.421   6.037   0.561
  271SOL     OW 1711   6.890   1.094   6.132
  271SOL    HW1 1712   6.914   1.164   6.064
  271SOL    HW2 1713   6.931   1.116   6.220
  272SOL     OW 1714   3.825   6.370   4.113
  272SOL    HW1 1715   3.872   6.321   4.186
  272SOL    HW2 1716   3.846   6.327   4.025
  273SOL     OW 1717   2.256   4.748   4.344
  273SOL    HW1 1718   2.293   4.772   4.254
  273SOL    HW2 1719   2.276   4.653   4.365
  274SOL     OW 1720   4.070   1.349   3.056
  274SOL    HW1 1721   4.046   1.336   3.152
  274SOL    HW2 1722   4.042   1.441   3.027
  275SOL     OW 1723   6.477   5.927   3.702
  275SOL    HW1 1724   6.570   5.903   3.674
  275SOL    HW2 1725   6.466   5.910   3.800
  276SOL     OW 1726   0.254   6.645   2.954
  276SOL    HW1 1727   0.202   6.567   2.919
  276SOL    HW2 1728   0.196   6.726   2.958
  277SOL     OW 1729   1.789   4.321   0.821
  277SOL    HW1 1730   1.764   4.229   0.791
  277SOL    HW2 1731   1.798   4.322   0.921
  278SOL     OW 1732   6.963   3.885   1.188
  278SOL    HW1 1733   6.864   3.894   1.199
  278SOL    HW2 1734   6.991   3.791   1.212
  279SOL     OW 1735   5.755   3.082   4.335
  279SOL    HW1 1736   5.720   3.165   4.290
  279SOL    HW2 1737   5.708   3.068   4.422
  280SOL     OW 1738   2.597   5.850   2.810
  280SOL    HW1 1739   2.588   5.831   2.713
  280SOL    HW2 1740   2.692   5.835   2.839
  281SOL     OW 1741   2.807   4.716   1.678
  281SOL    HW1 1742   2.852   4.800   1.707
  281SOL    HW2 1743   2.830   4.642   1.742
  282SOL     OW 1744   3.599   1.421   5.597
  282SOL    HW1 1745   3.584   1.517   5.572
  282SOL    HW2 1746   3.544   1.398   5.677
  283SOL     OW 1747   5.969   2.647   6.564
  283SOL    HW1 1748   6.013   2.725   6.520
  283SOL    HW2 1749   5.931   2.586   6.494
  284SOL     OW 1750   1.520   3.680   3.642
  284SOL    HW1 1751   1.499   3.777   3.650
  284SOL    HW2 1752   1.457   3.628   3.700
  285SOL     OW 1753   5.698   5.561   4.236
  285SOL    HW1 1754   5.627   5.500   4.270
  285SOL    HW2 1755   5.695   5.563   4.136
  286SOL     OW 1756   3.597   4.969   6.661
  286SOL    HW1 1757   3.640   4.886   6.627
  286SOL    HW2 1758   3.503   4.975   6.627
  287SOL     OW 1759   1.247   3.637   1.103
  287SOL    HW1 1760   1.164   3.588   1.074
  287SOL    HW2 1761   1.285   3.592   1.183
  288SOL     OW 1762   3.752   1.503   0.005
  288SOL    HW1 1763   3.735   1.516   0.102
  288SOL    HW2 1764   3.782   1.589   6.990
  289SOL     OW 1765   2.265   4.151   5.785
  289SOL    HW1 1766   2.179   4.103   5.768
  289SOL    HW2 1767   2.330   4.131   5.711
  290SOL     OW 1768   6.470   2.027   4.808
  290SOL    HW1 1769   6.401   2.027   4.736
  290SOL    HW2 1770   6.426   2.029   4.898
  291SOL     OW 1771   0.536   1.858   4.651
  291SOL    HW1 1772   0.559   1.950   4.682
  291SOL    HW2 1773   0.448   1.860   4.603
  292SOL     OW 1774   2.140   1.860   2.889
  292SOL    HW1 1775   2.045   1.875   2.860
  292SOL    HW2 1776   2.180   1.786   2.834
  293SOL     OW 1777   4.443   5.860   3.471
  293SOL    HW1 1778   4.483   5.911   3.395
  293SOL    HW2 1779   4.345   5.879   3.476
  294SOL     OW 1780   7.007   6.245   0.106
  294SOL    HW1 1781   6.933   6.243   0.173
  294SOL    HW2 1782   0.052   6.308   0.137
  295SOL     OW 1783   3.767   1.097   3.212
  295SOL    HW1 1784   3.841   1.138   3.264
  295SOL    HW2 1785   3.786   1.105   3.114
  296SOL     OW 1786   3.137   1.488   2.817
  296SOL    HW1 1787   3.170   1.555   2.883
  296SOL    HW2 1788   3.208   1.471   2.748
  297SOL     OW 1789   2.391   4.284   4.299
  297SOL    HW1 1790   2.398   4.200   4.352
  297SOL    HW2 1791   2.331   4.269   4.221
  298SOL     OW 1792   4.323   6.027   1.843
  298SOL    HW1 1793   4.306   5.967   1.921
  298SOL    HW2 1794   4.236   6.050   1.800
  299SOL     OW 1795   4.991   3.664   5.698
  299SOL    HW1 1796   4.985   3.618   5.787
  299SOL    HW2 1797   4.910   3.643   5.645
  300SOL     OW 1798   6.381   0.283   2.277
  300SOL    HW1 1799   6.282   0.282   2.259
  300SOL    HW2 1800   6.396   0.290   2.376
  301SOL     OW 1801   5.058   3.616   0.793
  301SOL    HW1 1802   5.070   3.682   0.719
  301SOL    HW2 1803   5.140   3.560   0.802
  302SOL     OW 1804   1.244   0.318   3.066
  302SOL    HW1 1805   1.287   0.362   2.987
  302SOL    HW2 1806   1.311   0.259   3.111
  303SOL     OW 1807   5.840   0.394   2.359
  303SOL    HW1 1808   5.930   0.436   2.347
  303SOL    HW2 1809   5.793   0.390   2.271
  304SOL     OW 1810   1.932   0.323   3.481
  304SOL    HW1 1811   1.910   0.395   3.415
  304SOL    HW2 1812   2.015   0.348   3.530
  305SOL     OW 1813   0.660   3.425   6.500
  305SOL    HW1 1814   0.677   3.335   6.540
  305SOL    HW2 1815   0.594   3.416   6.425
  306SOL     OW 1816   1.444   1.144   3.521
  306SOL    HW1 1817   1.412   1.185   3.435
  306SOL    HW2 1818   1.471   1.049   3.504
  307SOL     OW 1819   4.941   6.711   1.244
  307SOL    HW1 1820   5.018   6.678   1.188
  307SOL    HW2 1821   4.868   6.642   1.243
  308SOL     OW 1822   6.980   4.456   4.561
  308SOL    HW1 1823   0.036   4.401   4.542
  308SOL    HW2 1824   6.935   4.420   4.643
  309SOL     OW 1825   3.720   4.538   5.458
  309SOL    HW1 1826   3.747   4.517   5.552
  309SOL    HW2 1827   3.736   4.459   5.399
  310SOL     OW 1828   6.461   6.741   5.846
  310SOL    HW1 1829   6.476   6.797   5.765
  310SOL    HW2 1830   6.546   6.698   5.874
  311SOL     OW 1831   6.692   4.975   1.589
  311SOL    HW1 1832   6.636   5.034   1.531
  311SOL    HW2 1833   6.664   4.986   1.685
  312SOL     OW 1834   4.850   1.580   5.967
  312SOL    HW1 1835   4.855   1.679   5.975
  312SOL    HW2 1836   4.773   1.554   5.910
  313SOL     OW 1837   2.555   4.255   1.681
  313SOL    HW1 1838   2.568   4.175   1.622
  313SOL    HW2 1839   2.485   4.234   1.749
  314SOL     OW 1840   3.359   6.032   0.431
  314SOL    HW1 1841   3.271   6.035   0.477
  314SOL    HW2 1842   3.348   6.057   0.335
  315SOL     OW 1843   0.601   1.993   3.674
  315SOL    HW1 1844   0.621   1.895   3.674
  315SOL    HW2 1845   0.604   2.029   3.581
  316SOL     OW 1846   2.304   2.797   4.503
  316SOL    HW1 1847   2.251   2.783   4.419
  316SOL    HW2 1848   2.326   2.708   4.543
  317SOL     OW 1849   0.551   1.449   6.855
  317SOL    HW1 1850   0.503   1.361   6.858
  317SOL    HW2 1851   0.597   1.459   6.767
  318SOL     OW 1852   1.002   4.816   1.102
  318SOL    HW1 1853   1.003   4.840   1.199
  318SOL    HW2 1854   0.937   4.875   1.054
  319SOL     OW 1855   0.614   0.490   2.172
  319SOL    HW1 1856   0.562   0.573   2.154
  319SOL    HW2 1857   0.703   0.514   2.211
  320SOL     OW 1858   5.521   2.545   0.131
  320SOL    HW1 1859   5.453   2.570   0.200
  320SOL    HW2 1860   5.600   2.502   0.175
  321SOL     OW 1861   2.102   1.706   2.496
  321SOL    HW1 1862   2.012   1.749   2.492
  321SOL    HW2 1863   2.172   1.771   2.467
  322SOL     OW 1864   3.220   2.974   4.393
  322SOL    HW1 1865   3.201   2.877   4.376
  322SOL    HW2 1866   3.178   3.029   4.320
  323SOL     OW 1867   1.015   4.157   0.007
  323SOL    HW1 1868   1.021   4.061   0.036
  323SOL    HW2 1869   1.056   4.167   6.942
  324SOL     OW 1870   1.261   2.738   4.165
  324SOL    HW1 1871   1.334   2.801   4.140
  324SOL    HW2 1872   1.213   2.709   4.082
  325SOL     OW 1873   2.106   3.010   1.097
  325SOL    HW1 1874   2.100   3.031   1.195
  325SOL    HW2 1875   2.187   2.954   1.080
  326SOL     OW 1876   1.952   6.141   0.223
  326SOL    HW1 1877   1.942   6.229   0.270
  326SOL    HW2 1878   1.869   6.087   0.237
  327SOL     OW 1879   0.929   4.893   4.118
  327SOL    HW1 1880   1.027   4.890   4.100
  327SOL    HW2 1881   0.907   4.836   4.197
  328SOL     OW 1882   3.073   5.370   2.663
  328SOL    HW1 1883   3.158   5.402   2.620
  328SOL    HW2 1884   3.093   5.290   2.720
  329SOL     OW 1885   3.270   3.923   3.623
  329SOL    HW1 1886   3.335   3.988   3.662
  329SOL    HW2 1887   3.310   3.881   3.542
  330SOL     OW 1888   3.566   6.403   1.941
  330SOL    HW1 1889   3.656   6.382   1.903
  330SOL    HW2 1890   3.499   6.406   1.866
  331SOL     OW 1891   4.729   5.143   6.387
  331SOL    HW1 1892   4.748   5.067   6.325
  331SOL    HW2 1893   4.800   5.213   6.377
  332SOL     OW 1894   3.800   2.087   3.895
  332SOL    HW1 1895   3.703   2.105   3.907
  332SOL    HW2 1896   3.849   2.109   3.979
  333SOL     OW 1897   4.075   0.255   6.867
  333SOL    HW1 1898   4.128   0.292   6.791
  333SOL    HW2 1899   4.044   0.330   6.925
  334SOL     OW 1900   3.092   6.739   1.957
  334SOL    HW1 1901   3.065   6.825   1.914
  334SOL    HW2 1902   3.138   6.758   2.043
  335SOL     OW 1903   3.229   5.913   3.793
  335SOL    HW1 1904   3.322   5.877   3.801
  335SOL    HW2 1905   3.232   6.005   3.752
  336SOL     OW 1906   2.292   1.123   3.451
  336SOL    HW1 1907   2.323   1.114   3.546
  336SOL    HW2 1908   2.371   1.122   3.390
  337SOL     OW 1909   0.271   3.604   1.104
  337SOL    HW1 1910   0.193   3.587   1.164
  337SOL    HW2 1911   0.324   3.681   1.139
  338SOL     OW 1912   3.025   3.296   1.649
  338SOL    HW1 1913   2.979   3.245   1.721
  338SOL    HW2 1914   3.060   3.382   1.686
  339SOL     OW 1915   3.790   0.035   3.459
  339SOL    HW1 1916   3.784   6.995   3.535
  339SOL    HW2 1917   3.824   0.122   3.493
  340SOL     OW 1918   5.103   4.131   5.096
  340SOL    HW1 1919   5.054   4.217   5.110
  340SOL    HW2 1920   5.079   4.092   5.006
  341SOL     OW 1921   6.160   6.217   3.806
  341SOL    HW1 1922   6.090   6.260   3.863
  341SOL    HW2 1923   6.245   6.269   3.815
  342SOL     OW 1924   5.674   4.450   0.132
  342SOL    HW1 1925   5.684   4.450   0.232
  342SOL    HW2 1926   5.755   4.410   0.090
  343SOL     OW 1927   2.990   6.397   1.562
  343SOL    HW1 1928   3.010   6.333   1.637
  343SOL    HW2 1929   3.076   6.429   1.522
  344SOL     OW 1930   2.196   5.228   0.843
  344SOL    HW1 1931   2.152   5.316   0.826
  344SOL    HW2 1932   2.150   5.157   0.788
  345SOL     OW 1933   0.275   0.669   5.827
  345SOL    HW1 1934   0.321   0.743   5.778
  345SOL    HW2 1935   0.194   0.639   5.776
  346SOL     OW 1936   1.436   0.214   2.346
  346SOL    HW1 1937   1.381   0.254   2.273
  346SOL    HW2 1938   1.384   0.216   2.432
  347SOL     OW 1939   5.654   6.964   6.782
  347SOL    HW1 1940   5.731   6.983   6.842
  347SOL    HW2 1941   5.654   0.004   6.706
  348SOL     OW 1942   4.145   5.057   1.621
  348SOL    HW1 1943   4.100   4.978   1.580
  348SOL    HW2 1944   4.077   5.128   1.640
  349SOL     OW 1945   6.973   4.570   2.380
  349SOL    HW1 1946   6.892   4.556   2.323
  349SOL    HW2 1947   7.021   4.652   2.349
  350SOL     OW 1948   3.661   3.761   1.692
  350SOL    HW1 1949   3.745   3.711   1.711
  350SOL    HW2 1950   3.586   3.695   1.678
  351SOL     OW 1951   2.648   2.200   0.539
  351SOL    HW1 1952   2.733   2.240   0.574
  351SOL    HW2 1953   2.604   2.146   0.611
  352SOL     OW 1954   3.719   0.868   4.833
  352SOL    HW1 1955   3.637   0.862   4.891
  352SOL    HW2 1956   3.693   0.899   4.742
  353SOL     OW 1957   2.172   0.196   0.383
  353SOL    HW1 1958   2.229   0.120   0.353
  353SOL    HW2 1959   2.090   0.201   0.325
  354SOL     OW 1960   4.186   2.456   0.795
  354SOL    HW1 1961   4.092   2.453   0.760
  354SOL    HW2 1962   4.223   2.548   0.783
  355SOL     OW 1963   6.595   3.188   2.626
  355SOL    HW1 1964   6.540   3.109   2.652
  355SOL    HW2 1965   6.568   3.268   2.680
  356SOL     OW 1966   4.432   5.659   4.964
  356SOL    HW1 1967   4.518   5.694   4.926
  356SOL    HW2 1968   4.368   5.735   4.976
  357SOL     OW 1969   0.247   6.178   5.485
  357SOL    HW1 1970   0.246   6.258   5.544
  357SOL    HW2 1971   0.204   6.200   5.398
  358SOL     OW 1972   6.233   0.056   1.211
  358SOL    HW1 1973   6.138   0.029   1.194
  358SOL    HW2 1974   6.253   0.048   1.309
  359SOL     OW 1975   1.623   2.420   2.361
  359SOL    HW1 1976   1.671   2.455   2.280
  359SOL    HW2 1977   1.548   2.482   2.385
  360SOL     OW 1978   2.970   6.290   6.065
  360SOL    HW1 1979   3.065   6.303   6.091
  360SOL    HW2 1980   2.920   6.249   6.142
  361SOL     OW 1981   5.799   5.779   3.374
  361SOL    HW1 1982   5.843   5.789   3.285
  361SOL    HW2 1983   5.868   5.780   3.446
  362SOL     OW 1984   3.125   4.398   0.151
  362SOL    HW1 1985   3.112   4.351   0.238
  362SOL    HW2 1986   3.195   4.468   0.162
  363SOL     OW 1987   3.456   4.863   4.009
  363SOL    HW1 1988   3.358   4.874   3.995
  363SOL    HW2 1989   3.488   4.785   3.955
  364SOL     OW 1990   0.659   6.024   5.460
  364SOL    HW1 1991   0.633   6.100   5.519
  364SOL    HW2 1992   0.738   6.050   5.404
  365SOL     OW 1993   4.586   6.323   3.247
  365SOL    HW1 1994   4.680   6.319   3.280
  365SOL    HW2 1995   4.587   6.327   3.147
  366SOL     OW 1996   5.771   0.990   6.867
  366SOL    HW1 1997   5.727   1.080   6.877
  366SOL    HW2 1998   5.839   0.978   6.939
  367SOL     OW 1999   4.952   3.072   0.917
  367SOL    HW1 2000   4.860   3.035   0.901
  367SOL    HW2 2001   4.969   3.079   1.015
  368SOL     OW 2002   1.554   4.674   4.916
  368SOL    HW1 2003   1.610   4.680   4.833
  368SOL    HW2 2004   1.476   4.613   4.900
  369SOL     OW 2005   6.249   4.351   1.666
  369SOL    HW1 2006   6.160   4.305   1.669
  369SOL    HW2 2007   6.238   4.447   1.692
  370SOL     OW 2008   2.612   0.783   5.044
  370SOL    HW1 2009   2.517   0.760   5.066
  370SOL    HW2 2010   2.629   0.765   4.947
  371SOL     OW 2011   2.358   3.770   0.034
  371SOL    HW1 2012   2.268   3.814   0.036
  371SOL    HW2 2013   2.356   3.686   0.088
  372SOL     OW 2014   0.221   0.326   5.075
  372SOL    HW1 2015   0.173   0.368   4.998
  372SOL    HW2 2016   0.170   0.246   5.107
  373SOL     OW 2017   0.253   6.504   6.302
  373SOL    HW1 2018   0.215   6.428   6.355
  373SOL    HW2 2019   0.347   6.522   6.332
  374SOL     OW 2020   4.255   6.985   2.260
  374SOL    HW1 2021   4.163   6.975   2.221
  374SOL    HW2 2022   4.269   6.919   2.333
  375SOL     OW 2023   6.951   4.825   4.191
  375SOL    HW1 2024   6.919   4.878   4.269
  375SOL    HW2 2025   7.022   4.761   4.221
  376SOL     OW 2026   1.474   2.864   4.070
  376SOL    HW1 2027   1.565   2.902   4.049
  376SOL    HW2 2028   1.480   2.764   4.076
  377SOL     OW 2029   5.296   2.539   2.766
  377SOL    HW1 2030   5.368   2.500   2.709
  377SOL    HW2 2031   5.238   2.599   2.711
  378SOL     OW 2032   4.022   3.040   5.744
  378SOL    HW1 2033   3.925   3.033   5.722
  378SOL    HW2 2034   4.038   3.124   5.797
  379SOL     OW 2035   5.964   3.221   1.199
  379SOL    HW1 2036   6.047   3.205   1.145
  379SOL    HW2 2037   5.885   3.229   1.138
  380SOL     OW 2038   2.090   1.689   1.176
  380SOL    HW1 2039   1.994   1.685   1.148
  380SOL    HW2 2040   2.124   1.597   1.193
  381SOL     OW 2041   2.376   4.924   1.918
  381SOL    HW1 2042   2.376   4.989   1.994
  381SOL    HW2 2043   2.451   4.859   1.930
  382SOL     OW 2044   3.574   6.256   0.355
  382SOL    HW1 2045   3.617   6.284   0.441
  382SOL    HW2 2046   3.483   6.298   0.348
  383SOL     OW 2047   6.305   2.824   6.664
  383SOL    HW1 2048   6.324   2.900   6.601
  383SOL    HW2 2049   6.339   2.846   6.755
  384SOL     OW 2050   1.084   4.844   5.421
  384SOL    HW1 2051   1.172   4.837   5.374
  384SOL    HW2 2052   1.097   4.891   5.509
  385SOL     OW 2053   5.116   6.484   6.930
  385SOL    HW1 2054   5.054   6.542   6.983
  385SOL    HW2 2055   5.206   6.484   6.972
  386SOL     OW 2056   4.032   6.780   5.276
  386SOL    HW1 2057   3.957   6.787   5.211
  386SOL    HW2 2058   4.065   6.686   5.280
  387SOL     OW 2059   0.269   0.001   3.940
  387SOL    HW1 2060   0.278   0.002   4.040
  387SOL    HW2 2061   0.173   7.010   3.916
  388SOL     OW 2062   6.888   2.453   5.277
  388SOL    HW1 2063   6.978   2.421   5.246
  388SOL    HW2 2064   6.817   2.421   5.215
  389SOL     OW 2065   4.360   4.428   1.724
  389SOL    HW1 2066   4.288   4.401   1.660
  389SOL    HW2 2067   4.402   4.346   1.763
  390SOL     OW 2068   3.625   1.193   0.662
  390SOL    HW1 2069   3.599   1.289   0.652
  390SOL    HW2 2070   3.557   1.135   0.619
  391SOL     OW 2071   2.950   4.139   5.665
  391SOL    HW1 2072   2.866   4.086   5.673
  391SOL    HW2 2073   2.976   4.146   5.569
  392SOL     OW 2074   1.627   3.636   2.330
  392SOL    HW1 2075   1.693   3.654   2.256
  392SOL    HW2 2076   1.636   3.542   2.361
  393SOL     OW 2077   0.563   4.671   1.025
  393SOL    HW1 2078   0.607   4.755   0.992
  393SOL    HW2 2079   0.577   4.662   1.123
  394SOL     OW 2080   6.789   3.238   0.164
  394SOL    HW1 2081   6.712   3.287   0.205
  394SOL    HW2 2082   6.755   3.158   0.115
  395SOL     OW 2083   4.775   4.485   2.020
  395SOL    HW1 2084   4.709   4.410   2.017
  395SOL    HW2 2085   4.816   4.497   1.930
  396SOL     OW 2086   2.967   2.056   1.965
  396SOL    HW1 2087   2.931   2.145   1.993
  396SOL    HW2 2088   2.932   2.032   1.875
  397SOL     OW 2089   4.532   1.305   5.425
  397SOL    HW1 2090   4.491   1.229   5.375
  397SOL    HW2 2091   4.564   1.273   5.514
  398SOL     OW 2092   0.845   0.459   4.564
  398SOL    HW1 2093   0.910   0.443   4.638
  398SOL    HW2 2094   0.840   0.377   4.506
  399SOL     OW 2095   5.506   5.961   3.921
  399SOL    HW1 2096   5.529   6.003   3.833
  399SOL    HW2 2097   5.442   5.886   3.907
  400SOL     OW 2098   6.440   0.444   4.711
  400SOL    HW1 2099   6.470   0.355   4.743
  400SOL    HW2 2100   6.357   0.434   4.657
  401SOL     OW 2101   6.625   0.363   5.532
  401SOL    HW1 2102   6.653   0.365   5.628
  401SOL    HW2 2103   6.683   0.424   5.478
  402SOL     OW 2104   6.313   0.294   2.558
  402SOL    HW1 2105   6.391   0.344   2.595
  402SOL    HW2 2106   6.258   0.257   2.632
  403SOL     OW 2107   2.823   0.620   5.870
  403SOL    HW1 2108   2.728   0.589   5.880
  403SOL    HW2 2109   2.859   0.587   5.783
  404SOL     OW 2110   3.683   6.410   5.838
  404SOL    HW1 2111   3.608   6.399   5.903
  404SOL    HW2 2112   3.682   6.503   5.801
  405SOL     OW 2113   1.822   3.770   3.375
  405SOL    HW1 2114   1.803   3.857   3.419
  405SOL    HW2 2115   1.920   3.749   3.384
  406SOL     OW 2116   0.922   5.442   5.473
  406SOL    HW1 2117   0.872   5.363   5.438
  406SOL    HW2 2118   1.020   5.431   5.454
  407SOL     OW 2119   1.469   3.317   3.479
  407SOL    HW1 2120   1.545   3.275   3.529
  407SOL    HW2 2121   1.491   3.412   3.457
  408SOL     OW 2122   3.365   1.711   2.551
  408SOL    HW1 2123   3.396   1.773   2.480
  408SOL    HW2 2124   3.287   1.751   2.599
  409SOL     OW 2125   1.138   3.754   2.434
  409SOL    HW1 2126   1.137   3.665   2.479
  409SOL    HW2 2127   1.098   3.823   2.494
  410SOL     OW 2128   1.536   2.791   0.902
  410SOL    HW1 2129   1.543   2.829   0.994
  410SOL    HW2 2130   1.511   2.694   0.908
  411SOL     OW 2131   0.446   1.788   1.942
  411SOL    HW1 2132   0.395   1.813   1.860
  411SOL    HW2 2133   0.421   1.850   2.016
  412SOL     OW 2134   2.459   4.913   2.952
  412SOL    HW1 2135   2.509   4.826   2.956
  412SOL    HW2 2136   2.487   4.971   3.028
  413SOL     OW 2137   3.845   5.166   2.246
  413SOL    HW1 2138   3.818   5.075   2.217
  413SOL    HW2 2139   3.944   5.176   2.238
  414SOL     OW 2140   2.628   6.911   3.793
  414SOL    HW1 2141   2.592   6.890   3.702
  414SOL    HW2 2142   2.634   7.011   3.805
  415SOL     OW 2143   6.732   1.312   0.615
  415SOL    HW1 2144   6.744   1.294   0.712
  415SOL    HW2 2145   6.728   1.411   0.599
  416SOL     OW 2146   5.012   3.740   5.123
  416SOL    HW1 2147   4.945   3.672   5.093
  416SOL    HW2 2148   5.000   3.760   5.220
  417SOL     OW 2149   2.921   2.331   6.791
  417SOL    HW1 2150   2.967   2.272   6.857
  417SOL    HW2 2151   2.915   2.285   6.703
  418SOL     OW 2152   3.548   0.092   4.323
  418SOL    HW1 2153   3.579   0.178   4.364
  418SOL    HW2 2154   3.510   0.110   4.233
  419SOL     OW 2155   0.738   6.871   1.710
  419SOL    HW1 2156   0.662   6.933   1.730
  419SOL    HW2 2157   0.793   6.908   1.636
  420SOL     OW 2158   5.585   0.405   6.670
  420SOL    HW1 2159   5.683   0.398   6.685
  420SOL    HW2 2160   5.561   0.369   6.580
  421SOL     OW 2161   5.060   4.212   4.347
  421SOL    HW1 2162   5.112   4.207   4.261
  421SOL    HW2 2163   5.122   4.197   4.424
  422SOL     OW 2164   5.002   2.155   1.355
  422SOL    HW1 2165   5.046   2.113   1.434
  422SOL    HW2 2166   4.988   2.253   1.373
  423SOL     OW 2167   2.981   1.584   6.018
  423SOL    HW1 2168   3.005   1.493   5.985
  423SOL    HW2 2169   2.964   1.645   5.940
  424SOL     OW 2170   1.493   4.261   3.027
  424SOL    HW1 2171   1.570   4.287   2.968
  424SOL    HW2 2172   1.497   4.315   3.111
  425SOL     OW 2173   4.190   0.415   5.258
  425SOL    HW1 2174   4.179   0.345   5.329
  425SOL    HW2 2175   4.171   0.374   5.168
  426SOL     OW 2176   2.492   2.023   4.932
  426SOL    HW1 2177   2.470   1.945   4.990
  426SOL    HW2 2178   2.500   2.105   4.988
  427SOL     OW 2179   4.027   1.887   3.491
  427SOL    HW1 2180   3.959   1.870   3.420
  427SOL    HW2 2181   4.067   1.800   3.520
  428SOL     OW 2182   3.063   1.177   5.181
  428SOL    HW1 2183   3.107   1.241   5.118
  428SOL    HW2 2184   3.052   1.220   5.270
  429SOL     OW 2185   1.422   5.744   3.223
  429SOL    HW1 2186   1.426   5.723   3.321
  429SOL    HW2 2187   1.434   5.843   3.210
  430SOL     OW 2188   1.770   0.236   3.976
  430SOL    HW1 2189   1.748   0.333   3.981
  430SOL    HW2 2190   1.867   0.223   3.994
  431SOL     OW 2191   2.665   2.280   1.236
  431SOL    HW1 2192   2.624   2.346   1.299
  431SOL    HW2 2193   2.604   2.268   1.157
  432SOL     OW 2194   4.270   2.192   1.571
  432SOL    HW1 2195   4.346   2.155   1.518
  432SOL    HW2 2196   4.255   2.288   1.547
  433SOL     OW 2197   2.283   6.926   6.781
  433SOL    HW1 2198   2.295   6.937   6.682
  433SOL    HW2 2199   2.353   6.864   6.816
  434SOL     OW 2200   4.243   6.788   3.901
  434SOL    HW1 2201   4.162   6.739   3.931
  434SOL    HW2 2202   4.307   6.796   3.978
  435SOL     OW 2203   3.545   1.784   6.154
  435SOL    HW1 2204   3.496   1.866   6.123
  435SOL    HW2 2205   3.591   1.741   6.077
  436SOL     OW 2206   3.895   6.633   3.746
  436SOL    HW1 2207   3.955   6.572   3.694
  436SOL    HW2 2208   3.799   6.610   3.726
  437SOL     OW 2209   0.375   0.535   4.250
  437SOL    HW1 2210   0.412   0.446   4.224
  437SOL    HW2 2211   0.432   0.574   4.323
  438SOL     OW 2212   0.980   4.632   2.960
  438SOL    HW1 2213   0.993   4.603   3.055
  438SOL    HW2 2214   0.932   4.561   2.910
  439SOL     OW 2215   5.642   0.396   2.989
  439SOL    HW1 2216   5.692   0.345   3.059
  439SOL    HW2 2217   5.617   0.486   3.025
  440SOL     OW 2218   4.821   0.848   6.866
  440SOL    HW1 2219   4.779   0.763   6.897
  440SOL    HW2 2220   4.752   0.921   6.867
  441SOL     OW 2221   0.037   4.593   2.858
  441SOL    HW1 2222   6.993   4.597   2.787
  441SOL    HW2 2223   0.061   4.498   2.876
  442SOL     OW 2224   5.825   3.616   5.422
  442SOL    HW1 2225   5.754   3.682   5.398
  442SOL    HW2 2226   5.910   3.641   5.376
  443SOL     OW 2227   5.416   4.274   3.304
  443SOL    HW1 2228   5.452   4.182   3.287
  443SOL    HW2 2229   5.318   4.275   3.283
  444SOL     OW 2230   3.783   1.151   1.207
  444SOL    HW1 2231   3.759   1.203   1.125
  444SOL    HW2 2232   3.875   1.176   1.237
  445SOL     OW 2233   1.906   5.400   2.559
  445SOL    HW1 2234   1.956   5.473   2.605
  445SOL    HW2 2235   1.817   5.433   2.528
  446SOL     OW 2236   6.007   6.437   2.733
  446SOL    HW1 2237   5.941   6.439   2.657
  446SOL    HW2 2238   6.079   6.371   2.713
  447SOL     OW 2239   5.926   3.692   0.097
  447SOL    HW1 2240   5.905   3.622   0.164
  447SOL    HW2 2241   5.897   3.662   0.006
  448SOL     OW 2242   2.914   0.688   2.322
  448SOL    HW1 2243   2.958   0.603   2.353
  448SOL    HW2 2244   2.955   0.717   2.236
  449SOL     OW 2245   1.950   2.607   4.248
  449SOL    HW1 2246   1.960   2.527   4.189
  449SOL    HW2 2247   1.866   2.655   4.224
  450SOL     OW 2248   1.297   4.280   2.815
  450SOL    HW1 2249   1.249   4.361   2.850
  450SOL    HW2 2250   1.380   4.265   2.869
  451SOL     OW 2251   0.899   2.107   3.336
  451SOL    HW1 2252   0.962   2.158   3.395
  451SOL    HW2 2253   0.934   2.016   3.320
  452SOL     OW 2254   4.044   6.471   3.602
  452SOL    HW1 2255   4.000   6.382   3.593
  452SOL    HW2 2256   4.098   6.490   3.521
  453SOL     OW 2257   4.326   6.723   0.032
  453SOL    HW1 2258   4.364   6.630   0.026
  453SOL    HW2 2259   4.240   6.727   7.007
  454SOL     OW 2260   6.949   4.635   6.557
  454SOL    HW1 2261   6.971   4.661   6.651
  454SOL    HW2 2262   6.916   4.715   6.507
  455SOL     OW 2263   6.459   4.733   5.934
  455SOL    HW1 2264   6.496   4.825   5.943
  455SOL    HW2 2265   6.370   4.728   5.980
  456SOL     OW 2266   2.930   1.227   2.439
  456SOL    HW1 2267   2.859   1.181   2.386
  456SOL    HW2 2268   2.889   1.301   2.493
  457SOL     OW 2269   2.605   6.595   5.975
  457SOL    HW1 2270   2.627   6.499   5.960
  457SOL    HW2 2271   2.610   6.616   6.072
  458SOL     OW 2272   1.948   1.681   3.400
  458SOL    HW1 2273   1.960   1.719   3.309
  458SOL    HW2 2274   1.957   1.582   3.396
  459SOL     OW 2275   1.978   6.902   4.835
  459SOL    HW1 2276   2.071   6.916   4.871
  459SOL    HW2 2277   1.983   6.855   4.747
  460SOL     OW 2278   1.501   1.644   4.855
  460SOL    HW1 2279   1.526   1.728   4.902
  460SOL    HW2 2280   1.487   1.571   4.922
  461SOL     OW 2281   0.920   4.720   5.852
  461SOL    HW1 2282   1.011   4.757   5.872
  461SOL    HW2 2283   0.916   4.692   5.756
  462SOL     OW 2284   3.490   3.552   4.529
  462SOL    HW1 2285   3.572   3.549   4.586
  462SOL    HW2 2286   3.412   3.583   4.584
  463SOL     OW 2287   6.298   6.574   2.338
  463SOL    HW1 2288   6.342   6.662   2.354
  463SOL    HW2 2289   6.317   6.544   2.244
  464SOL     OW 2290   3.398   6.279   6.349
  464SOL    HW1 2291   3.298   6.284   6.351
  464SOL    HW2 2292   3.431   6.226   6.427
  465SOL     OW 2293   1.422   2.537   0.412
  465SOL    HW1 2294   1.342   2.561   0.357
  465SOL    HW2 2295   1.445   2.441   0.398
  466SOL     OW 2296   3.521   5.878   4.708
  466SOL    HW1 2297   3.476   5.923   4.785
  466SOL    HW2 2298   3.482   5.787   4.695
  467SOL     OW 2299   6.396   0.985   2.542
  467SOL    HW1 2300   6.449   1.032   2.612
  467SOL    HW2 2301   6.377   0.891   2.572
  468SOL     OW 2302   3.763   0.326   6.563
  468SOL    HW1 2303   3.757   0.337   6.662
  468SOL    HW2 2304   3.831   0.390   6.527
  469SOL     OW 2305   2.621   4.962   6.024
  469SOL    HW1 2306   2.593   5.054   6.051
  469SOL    HW2 2307   2.721   4.955   6.028
  470SOL     OW 2308   2.537   4.977   3.276
  470SOL    HW1 2309   2.593   4.896   3.293
  470SOL    HW2 2310   2.596   5.057   3.266
  471SOL     OW 2311   3.044   2.206   4.042
  471SOL    HW1 2312   3.140   2.176   4.035
  471SOL    HW2 2313   3.011   2.232   3.952
  472SOL     OW 2314   6.290   4.046   6.029
  472SOL    HW1 2315   6.250   3.963   6.068
  472SOL    HW2 2316   6.330   4.025   5.940
  473SOL     OW 2317   6.998   2.229   2.572
  473SOL    HW1 2318   0.025   2.249   2.489
  473SOL    HW2 2319   7.015   2.134   2.600
  474SOL     OW 2320   6.242   6.638   4.652
  474SOL    HW1 2321   6.198   6.551   4.670
  474SOL    HW2 2322   6.174   6.705   4.623
  475SOL     OW 2323   6.001   1.349   0.800
  475SOL    HW1 2324   5.910   1.388   0.783
  475SOL    HW2 2325   6.044   1.396   0.877
  476SOL     OW 2326   0.666   4.034   1.738
  476SOL    HW1 2327   0.580   3.987   1.758
  476SOL    HW2 2328   0.646   4.127   1.707
  477SOL     OW 2329   1.584   4.805   3.820
  477SOL    HW1 2330   1.533   4.724   3.791
  477SOL    HW2 2331   1.642   4.782   3.898
  478SOL     OW 2332   4.647   5.706   2.334
  478SOL    HW1 2333   4.616   5.775   2.269
  478SOL    HW2 2334   4.648   5.745   2.426
  479SOL     OW 2335   4.057   3.718   3.822
  479SOL    HW1 2336   3.957   3.721   3.814
  479SOL    HW2 2337   4.086   3.781   3.894
  480SOL     OW 2338   1.574   7.019   2.670
  480SOL    HW1 2339   1.497   7.020   2.606
  480SOL    HW2 2340   1.639   6.948   2.643
  481SOL     OW 2341   0.403   6.646   0.431
  481SOL    HW1 2342   0.406   6.547   0.416
  481SOL    HW2 2343   0.421   6.667   0.527
  482SOL     OW 2344   5.231   4.586   2.088
  482SOL    HW1 2345   5.166   4.606   2.162
  482SOL    HW2 2346   5.278   4.670   2.062
  483SOL     OW 2347   6.371   2.146   3.268
  483SOL    HW1 2348   6.344   2.145   3.171
  483SOL    HW2 2349   6.290   2.138   3.325
  484SOL     OW 2350   2.228   4.005   4.253
  484SOL    HW1 2351   2.235   4.070   4.178
  484SOL    HW2 2352   2.191   3.918   4.219
  485SOL     OW 2353   5.316   3.046   2.673
  485SOL    HW1 2354   5.243   2.992   2.714
  485SOL    HW2 2355   5.319   3.029   2.575
  486SOL     OW 2356   6.539   6.166   5.857
  486SOL    HW1 2357   6.583   6.077   5.846
  486SOL    HW2 2358   6.444   6.160   5.825
  487SOL     OW 2359   0.190   6.366   4.527
  487SOL    HW1 2360   0.196   6.278   4.481
  487SOL    HW2 2361   0.147   6.433   4.466
  488SOL     OW 2362   1.531   6.098   3.416
  488SOL    HW1 2363   1.519   6.192   3.449
  488SOL    HW2 2364   1.497   6.090   3.323
  489SOL     OW 2365   0.242   5.607   5.742
  489SOL    HW1 2366   0.195   5.565   5.820
  489SOL    HW2 2367   0.268   5.536   5.677
  490SOL     OW 2368   1.569   4.742   5.886
  490SOL    HW1 2369   1.474   4.746   5.856
  490SOL    HW2 2370   1.610   4.833   5.880
  491SOL     OW 2371   0.421   2.589   0.764
  491SOL    HW1 2372   0.334   2.541   0.772
  491SOL    HW2 2373   0.496   2.524   0.777
  492SOL     OW 2374   1.701   1.620   5.522
  492SOL    HW1 2375   1.609   1.595   5.493
  492SOL    HW2 2376   1.735   1.553   5.588
  493SOL     OW 2377   2.264   6.484   4.840
  493SOL    HW1 2378   2.234   6.409   4.780
  493SOL    HW2 2379   2.362   6.473   4.859
  494SOL     OW 2380   2.369   0.185   5.015
  494SOL    HW1 2381   2.393   0.261   4.956
  494SOL    HW2 2382   2.312   0.218   5.091
  495SOL     OW 2383   4.212   6.052   5.510
  495SOL    HW1 2384   4.161   6.027   5.427
  495SOL    HW2 2385   4.234   5.969   5.562
  496SOL     OW 2386   5.315   1.757   2.860
  496SOL    HW1 2387   5.260   1.724   2.937
  496SOL    HW2 2388   5.325   1.856   2.866
  497SOL     OW 2389   3.049   1.008   6.354
  497SOL    HW1 2390   3.020   1.103   6.339
  497SOL    HW2 2391   2.996   0.968   6.428
  498SOL     OW 2392   0.599   6.082   1.857
  498SOL    HW1 2393   0.579   6.170   1.814
  498SOL    HW2 2394   0.545   6.010   1.813
  499SOL     OW 2395   3.533   5.782   6.874
  499SOL    HW1 2396   3.587   5.750   6.952
  499SOL    HW2 2397   3.454   5.721   6.861
  500SOL     OW 2398   5.810   1.789   0.164
  500SOL    HW1 2399   5.806   1.879   0.122
  500SOL    HW2 2400   5.744   1.728   0.121
  501SOL     OW 2401   0.679   0.241   2.884
  501SOL    HW1 2402   0.640   0.300   2.954
  501SOL    HW2 2403   0.778   0.238   2.895
  502SOL     OW 2404   2.053   5.117   0.099
  502SOL    HW1 2405   2.146   5.099   0.131
  502SOL    HW2 2406   2.045   5.089   0.003
  503SOL     OW 2407   3.632   5.605   0.020
  503SOL    HW1 2408   3.592   5.548   6.974
  503SOL    HW2 2409   3.584   5.589   0.107
  504SOL     OW 2410   5.897   6.372   2.278
  504SOL    HW1 2411   5.938   6.352   2.189
  504SOL    HW2 2412   5.803   6.339   2.279
  505SOL     OW 2413   4.960   6.565   5.289
  505SOL    HW1 2414   4.964   6.585   5.387
  505SOL    HW2 2415   5.044   6.518   5.261
  506SOL     OW 2416   3.557   5.470   2.831
  506SOL    HW1 2417   3.629   5.538   2.822
  506SOL    HW2 2418   3.468   5.516   2.834
  507SOL     OW 2419   3.623   0.952   1.127
  507SOL    HW1 2420   3.625   0.867   1.179
  507SOL    HW2 2421   3.695   1.013   1.160
  508SOL     OW 2422   0.623   4.708   4.348
  508SOL    HW1 2423   0.700   4.766   4.373
  508SOL    HW2 2424   0.537   4.757   4.362
  509SOL     OW 2425   4.559   0.223   6.240
  509SOL    HW1 2426   4.463   0.223   6.268
  509SOL    HW2 2427   4.566   0.199   6.144
  510SOL     OW 2428   6.771   4.548   6.843
  510SOL    HW1 2429   6.772   4.473   6.777
  510SOL    HW2 2430   6.862   4.589   6.848
  511SOL     OW 2431   0.843   1.610   0.346
  511SOL    HW1 2432   0.845   1.588   0.249
  511SOL    HW2 2433   0.752   1.644   0.371
  512SOL     OW 2434   6.430   2.116   6.827
  512SOL    HW1 2435   6.481   2.200   6.811
  512SOL    HW2 2436   6.335   2.140   6.849
  513SOL     OW 2437   5.449   0.080   2.964
  513SOL    HW1 2438   5.532   0.099   3.016
  513SOL    HW2 2439   5.410   7.019   2.994
  514SOL     OW 2440   6.555   6.924   4.287
  514SOL    HW1 2441   6.562   6.917   4.187
  514SOL    HW2 2442   6.475   6.874   4.318
  515SOL     OW 2443   3.370   6.660   0.074
  515SOL    HW1 2444   3.443   6.593   0.078
  515SOL    HW2 2445   3.324   6.655   7.011
  516SOL     OW 2446   2.389   5.505   1.446
  516SOL    HW1 2447   2.458   5.548   1.389
  516SOL    HW2 2448   2.418   5.506   1.541
  517SOL     OW 2449   3.134   5.136   2.360
  517SOL    HW1 2450   3.071   5.211   2.340
  517SOL    HW2 2451   3.200   5.127   2.285
  518SOL     OW 2452   2.086   2.980   3.448
  518SOL    HW1 2453   2.040   3.067   3.433
  518SOL    HW2 2454   2.105   2.970   3.546
  519SOL     OW 2455   0.491   6.493   3.446
  519SOL    HW1 2456   0.445   6.566   3.395
  519SOL    HW2 2457   0.586   6.486   3.416
  520SOL     OW 2458   1.520   2.812   0.083
  520SOL    HW1 2459   1.512   2.871   0.163
  520SOL    HW2 2460   1.431   2.772   0.061
  521SOL     OW 2461   4.867   4.891   4.870
  521SOL    HW1 2462   4.908   4.982   4.882
  521SOL    HW2 2463   4.823   4.862   4.955
  522SOL     OW 2464   4.129   3.746   1.264
  522SOL    HW1 2465   4.085   3.695   1.191
  522SOL    HW2 2466   4.200   3.805   1.225
  523SOL     OW 2467   7.008   6.657   1.517
  523SOL    HW1 2468   6.987   6.575   1.571
  523SOL    HW2 2469   0.078   6.653   1.487
  524SOL     OW 2470   6.904   2.641   2.198
  524SOL    HW1 2471   6.827   2.703   2.214
  524SOL    HW2 2472   6.889   2.591   2.113
  525SOL     OW 2473   1.519   3.543   6.703
  525SOL    HW1 2474   1.546   3.486   6.625
  525SOL    HW2 2475   1.545   3.638   6.685
  526SOL     OW 2476   3.022   0.406   4.526
  526SOL    HW1 2477   3.009   0.335   4.595
  526SOL    HW2 2478   3.075   0.482   4.565
  527SOL     OW 2479   1.232   2.141   6.726
  527SOL    HW1 2480   1.253   2.061   6.670
  527SOL    HW2 2481   1.136   2.166   6.714
  528SOL     OW 2482   7.008   2.983   4.065
  528SOL    HW1 2483   6.983   3.080   4.062
  528SOL    HW2 2484   0.008   2.959   4.159
  529SOL     OW 2485   2.515   0.156   5.553
  529SOL    HW1 2486   2.463   0.075   5.580
  529SOL    HW2 2487   2.508   0.225   5.625
  530SOL     OW 2488   3.766   3.437   1.625
  530SOL    HW1 2489   3.679   3.475   1.592
  530SOL    HW2 2490   3.750   3.346   1.664
  531SOL     OW 2491   2.429   0.784   2.139
  531SOL    HW1 2492   2.491   0.860   2.121
  531SOL    HW2 2493   2.373   0.805   2.219
  532SOL     OW 2494   3.121   2.831   0.267
  532SOL    HW1 2495   3.032   2.848   0.310
  532SOL    HW2 2496   3.110   2.765   0.193
  533SOL     OW 2497   4.018   0.424   3.727
  533SOL    HW1 2498   3.976   0.344   3.770
  533SOL    HW2 2499   4.039   0.493   3.796
  534SOL     OW 2500   0.607   5.573   1.289
  534SOL    HW1 2501   0.514   5.592   1.257
  534SOL    HW2 2502   0.667   5.559   1.211
  535SOL     OW 2503   5.471   4.014   3.286
  535SOL    HW1 2504   5.466   3.974   3.194
  535SOL    HW2 2505   5.567   4.021   3.313
  536SOL     OW 2506   6.402   6.259   3.243
  536SOL    HW1 2507   6.336   6.196   3.201
  536SOL    HW2 2508   6.450   6.212   3.317
  537SOL     OW 2509   3.170   0.478   3.962
  537SOL    HW1 2510   3.267   0.499   3.950
  537SOL    HW2 2511   3.143   0.407   3.897
  538SOL     OW 2512   2.440   5.171   5.714
  538SOL    HW1 2513   2.513   5.191   5.649
  538SOL    HW2 2514   2.354   5.160   5.666
  539SOL     OW 2515   1.050   5.869   0.497
  539SOL    HW1 2516   0.977   5.803   0.476
  539SOL    HW2 2517   1.012   5.961   0.497
  540SOL     OW 2518   1.167   0.632   3.308
  540SOL    HW1 2519   1.193   0.553   3.363
  540SOL    HW2 2520   1.079   0.668   3.341
  541SOL     OW 2521   3.978   6.565   4.330
  541SOL    HW1 2522   3.904   6.498   4.321
  541SOL    HW2 2523   4.033   6.566   4.247
  542SOL     OW 2524   2.942   6.488   6.844
  542SOL    HW1 2525   2.865   6.535   6.801
  542SOL    HW2 2526   2.975   6.543   6.921
  543SOL     OW 2527   6.150   2.578   4.042
  543SOL    HW1 2528   6.240   2.622   4.041
  543SOL    HW2 2529   6.158   2.490   4.090
  544SOL     OW 2530   0.225   4.828   0.003
  544SOL    HW1 2531   0.289   4.893   6.987
  544SOL    HW2 2532   0.175   4.874   0.076
  545SOL     OW 2533   5.272   1.526   1.589
  545SOL    HW1 2534   5.173   1.540   1.580
  545SOL    HW2 2535   5.299   1.448   1.533
  546SOL     OW 2536   0.502   4.307   2.284
  546SOL    HW1 2537   0.541   4.221   2.318
  546SOL    HW2 2538   0.508   4.309   2.185
  547SOL     OW 2539   3.915   1.227   0.092
  547SOL    HW1 2540   3.834   1.257   0.042
  547SOL    HW2 2541   3.919   1.127   0.091
  548SOL     OW 2542   4.003   2.848   6.937
  548SOL    HW1 2543   3.981   2.938   6.899
  548SOL    HW2 2544   4.018   2.783   6.862
  549SOL     OW 2545   6.273   2.110   0.656
  549SOL    HW1 2546   6.309   2.081   0.745
  549SOL    HW2 2547   6.208   2.041   0.623
  550SOL     OW 2548   6.954   4.692   3.085
  550SOL    HW1 2549   6.999   4.676   2.997
  550SOL    HW2 2550   7.001   4.639   3.156
  551SOL     OW 2551   6.805   1.065   0.050
  551SOL    HW1 2552   6.730   1.051   7.011
  551SOL    HW2 2553   6.772   1.047   0.143
  552SOL     OW 2554   5.684   5.676   5.514
  552SOL    HW1 2555   5.600   5.624   5.526
  552SOL    HW2 2556   5.703   5.689   5.417
  553SOL     OW 2557   3.426   1.362   5.801
  553SOL    HW1 2558   3.376   1.448   5.811
  553SOL    HW2 2559   3.362   1.286   5.789
  554SOL     OW 2560   5.670   5.815   1.062
  554SOL    HW1 2561   5.621   5.899   1.087
  554SOL    HW2 2562   5.673   5.807   0.963
  555SOL     OW 2563   2.594   5.251   5.526
  555SOL    HW1 2564   2.572   5.347   5.543
  555SOL    HW2 2565   2.555   5.223   5.438
  556SOL     OW 2566   4.979   2.160   3.905
  556SOL    HW1 2567   4.988   2.063   3.880
  556SOL    HW2 2568   5.038   2.179   3.983
  557SOL     OW 2569   6.931   5.155   5.822
  557SOL    HW1 2570   6.883   5.241   5.843
  557SOL    HW2 2571   6.983   5.166   5.737
  558SOL     OW 2572   3.728   3.652   2.870
  558SOL    HW1 2573   3.642   3.693   2.901
  558SOL    HW2 2574   3.730   3.555   2.895
  559SOL     OW 2575   6.234   6.381   5.655
  559SOL    HW1 2576   6.237   6.313   5.729
  559SOL    HW2 2577   6.241   6.472   5.695
  560SOL     OW 2578   6.755   2.650   3.243
  560SOL    HW1 2579   6.730   2.711   3.167
  560SOL    HW2 2580   6.816   2.579   3.209
  561SOL     OW 2581   0.356   3.236   6.427
  561SOL    HW1 2582   0.420   3.208   6.355
  561SOL    HW2 2583   0.292   3.302   6.390
  562SOL     OW 2584   4.656   6.459   5.806
  562SOL    HW1 2585   4.625   6.500   5.720
  562SOL    HW2 2586   4.719   6.521   5.852
  563SOL     OW 2587   1.923   2.002   4.324
  563SOL    HW1 2588   1.852   2.039   4.384
  563SOL    HW2 2589   1.906   2.031   4.229
  564SOL     OW 2590   0.311   1.357   5.581
  564SOL    HW1 2591   0.316   1.324   5.486
  564SOL    HW2 2592   0.403   1.358   5.620
  565SOL     OW 2593   3.304   2.977   3.866
  565SOL    HW1 2594   3.209   2.950   3.877
  565SOL    HW2 2595   3.361   2.928   3.932
  566SOL     OW 2596   3.200   5.344   3.056
  566SOL    HW1 2597   3.246   5.433   3.054
  566SOL    HW2 2598   3.223   5.293   2.973
  567SOL     OW 2599   2.519   2.800   6.666
  567SOL    HW1 2600   2.507   2.899   6.661
  567SOL    HW2 2601   2.431   2.757   6.685
  568SOL     OW 2602   5.874   6.964   0.517
  568SOL    HW1 2603   5.900   0.031   0.490
  568SOL    HW2 2604   5.951   6.921   0.564
  569SOL     OW 2605   0.117   2.186   6.948
  569SOL    HW1 2606   0.188   2.221   6.887
  569SOL    HW2 2607   0.028   2.214   6.914
  570SOL     OW 2608   2.921   0.558   6.158
  570SOL    HW1 2609   2.983   0.480   6.168
  570SOL    HW2 2610   2.884   0.560   6.065
  571SOL     OW 2611   2.811   4.712   3.304
  571SOL    HW1 2612   2.909   4.723   3.321
  571SOL    HW2 2613   2.780   4.781   3.238
  572SOL     OW 2614   1.622   6.110   4.408
  572SOL    HW1 2615   1.635   6.189   4.348
  572SOL    HW2 2616   1.612   6.141   4.502
  573SOL     OW 2617   6.403   2.224   5.761
  573SOL    HW1 2618   6.454   2.202   5.844
  573SOL    HW2 2619   6.362   2.140   5.724
  574SOL     OW 2620   3.180   1.821   5.106
  574SOL    HW1 2621   3.262   1.843   5.054
  574SOL    HW2 2622   3.120   1.901   5.109
  575SOL     OW 2623   3.584   3.333   0.609
  575SOL    HW1 2624   3.595   3.361   0.513
  575SOL    HW2 2625   3.551   3.410   0.663
  576SOL     OW 2626   2.067   3.130   2.905
  576SOL    HW1 2627   2.108   3.171   2.987
  576SOL    HW2 2628   1.973   3.163   2.896
  577SOL     OW 2629   0.789   1.116   2.207
  577SOL    HW1 2630   0.805   1.018   2.195
  577SOL    HW2 2631   0.841   1.167   2.139
  578SOL     OW 2632   1.765   5.454   0.317
  578SOL    HW1 2633   1.845   5.397   0.335
  578SOL    HW2 2634   1.705   5.407   0.253
  579SOL     OW 2635   2.764   5.005   2.568
  579SOL    HW1 2636   2.776   5.102   2.590
  579SOL    HW2 2637   2.853   4.960   2.568
  580SOL     OW 2638   4.177   5.133   5.176
  580SOL    HW1 2639   4.249   5.082   5.225
  580SOL    HW2 2640   4.198   5.133   5.078
  581SOL     OW 2641   1.005   2.750   3.442
  581SOL    HW1 2642   0.950   2.816   3.391
  581SOL    HW2 2643   1.047   2.797   3.520
  582SOL     OW 2644   5.583   5.135   3.588
  582SOL    HW1 2645   5.635   5.214   3.621
  582SOL    HW2 2646   5.517   5.164   3.519
  583SOL     OW 2647   3.172   4.932   5.610
  583SOL    HW1 2648   3.259   4.916   5.562
  583SOL    HW2 2649   3.098   4.885   5.562
  584SOL     OW 2650   3.407   0.157   6.180
  584SOL    HW1 2651   3.371   0.128   6.268
  584SOL    HW2 2652   3.434   0.076   6.127
  585SOL     OW 2653   2.642   0.038   1.661
  585SOL    HW1 2654   2.648   0.008   1.566
  585SOL    HW2 2655   2.584   7.001   1.712
  586SOL     OW 2656   4.375   0.388   1.486
  586SOL    HW1 2657   4.433   0.312   1.515
  586SOL    HW2 2658   4.329   0.427   1.566
  587SOL     OW 2659   5.292   2.191   1.964
  587SOL    HW1 2660   5.389   2.167   1.964
  587SOL    HW2 2661   5.253   2.171   1.874
  588SOL     OW 2662   1.301   5.400   1.124
  588SOL    HW1 2663   1.292   5.371   1.219
  588SOL    HW2 2664   1.218   5.448   1.096
  589SOL     OW 2665   3.294   6.293   1.233
  589SOL    HW1 2666   3.344   6.225   1.179
  589SOL    HW2 2667   3.198   6.293   1.207
  590SOL     OW 2668   6.020   1.946   0.920
  590SOL    HW1 2669   6.028   1.877   0.849
  590SOL    HW2 2670   6.006   2.036   0.878
  591SOL     OW 2671   4.217   5.540   4.423
  591SOL    HW1 2672   4.295   5.537   4.360
  591SOL    HW2 2673   4.156   5.614   4.395
  592SOL     OW 2674   5.077   1.682   4.126
  592SOL    HW1 2675   5.052   1.773   4.157
  592SOL    HW2 2676   4.994   1.632   4.099
  593SOL     OW 2677   4.004   2.142   5.043
  593SOL    HW1 2678   3.979   2.234   5.072
  593SOL    HW2 2679   4.102   2.139   5.023
  594SOL     OW 2680   5.684   1.741   1.351
  594SOL    HW1 2681   5.588   1.718   1.368
  594SOL    HW2 2682   5.738   1.658   1.345
  595SOL     OW 2683   5.134   6.262   2.716
  595SOL    HW1 2684   5.056   6.201   2.730
  595SOL    HW2 2685   5.189   6.266   2.800
  596SOL     OW 2686   6.946   4.334   4.254
  596SOL    HW1 2687   6.902   4.261   4.307
  596SOL    HW2 2688   7.004   4.390   4.313
  597SOL     OW 2689   2.991   6.721   5.609
  597SOL    HW1 2690   2.924   6.729   5.683
  597SOL    HW2 2691   3.081   6.701   5.647
  598SOL     OW 2692   2.918   3.529   4.793
  598SOL    HW1 2693   2.958   3.513   4.703
  598SOL    HW2 2694   2.819   3.539   4.784
  599SOL     OW 2695   1.938   6.148   1.986
  599SOL    HW1 2696   1.889   6.216   1.931
  599SOL    HW2 2697   1.880   6.067   1.996
  600SOL     OW 2698   0.075   4.103   4.981
  600SOL    HW1 2699   0.120   4.178   5.029
  600SOL    HW2 2700   0.021   4.050   5.047
  601SOL     OW 2701   1.000   0.673   4.946
  601SOL    HW1 2702   0.989   0.723   4.860
  601SOL    HW2 2703   1.097   0.667   4.969
  602SOL     OW 2704   2.621   6.923   5.055
  602SOL    HW1 2705   2.603   6.833   5.097
  602SOL    HW2 2706   2.574   6.994   5.108
  603SOL     OW 2707   1.500   1.344   4.978
  603SOL    HW1 2708   1.586   1.365   5.024
  603SOL    HW2 2709   1.429   1.327   5.047
  604SOL     OW 2710   0.244   2.270   1.520
  604SOL    HW1 2711   0.201   2.242   1.434
  604SOL    HW2 2712   0.181   2.255   1.596
  605SOL     OW 2713   0.008   4.300   2.287
  605SOL    HW1 2714   0.096   4.253   2.282
  605SOL    HW2 2715   0.021   4.389   2.332
  606SOL     OW 2716   3.883   6.859   4.862
  606SOL    HW1 2717   3.867   6.875   4.959
  606SOL    HW2 2718   3.808   6.805   4.824
  607SOL     OW 2719   1.563   4.988   6.268
  607SOL    HW1 2720   1.607   5.055   6.209
  607SOL    HW2 2721   1.576   5.013   6.364
  608SOL     OW 2722   3.971   0.036   6.780
  608SOL    HW1 2723   4.031   0.103   6.823
  608SOL    HW2 2724   3.932   0.075   6.697
  609SOL     OW 2725   3.726   2.352   1.417
  609SOL    HW1 2726   3.797   2.408   1.374
  609SOL    HW2 2727   3.759   2.318   1.505
  610SOL     OW 2728   4.702   2.345   0.266
  610SOL    HW1 2729   4.713   2.391   0.178
  610SOL    HW2 2730   4.663   2.410   0.332
  611SOL     OW 2731   3.807   6.760   2.499
  611SOL    HW1 2732   3.784   6.672   2.457
  611SOL    HW2 2733   3.770   6.763   2.592
  612SOL     OW 2734   3.431   5.147   5.681
  612SOL    HW1 2735   3.444   5.080   5.754
  612SOL    HW2 2736   3.369   5.110   5.612
  613SOL     OW 2737   5.392   5.754   4.668
  613SOL    HW1 2738   5.413   5.667   4.623
  613SOL    HW2 2739   5.475   5.788   4.713
  614SOL     OW 2740   5.072   5.221   5.097
  614SOL    HW1 2741   5.007   5.202   5.024
  614SOL    HW2 2742   5.137   5.290   5.066
  615SOL     OW 2743   0.143   4.547   0.786
  615SOL    HW1 2744   0.066   4.484   0.775
  615SOL    HW2 2745   0.221   4.515   0.731
  616SOL     OW 2746   6.566   2.811   3.366
  616SOL    HW1 2747   6.479   2.823   3.317
  616SOL    HW2 2748   6.609   2.726   3.337
  617SOL     OW 2749   2.686   5.557   5.954
  617SOL    HW1 2750   2.781   5.535   5.972
  617SOL    HW2 2751   2.644   5.595   6.037
  618SOL     OW 2752   2.089   1.800   1.545
  618SOL    HW1 2753   2.050   1.884   1.507
  618SOL    HW2 2754   2.028   1.724   1.527
  619SOL     OW 2755   1.620   2.091   6.688
  619SOL    HW1 2756   1.603   2.036   6.606
  619SOL    HW2 2757   1.618   2.032   6.769
  620SOL     OW 2758   4.739   2.652   0.859
  620SOL    HW1 2759   4.746   2.752   0.853
  620SOL    HW2 2760   4.653   2.622   0.819
  621SOL     OW 2761   5.868   5.196   0.104
  621SOL    HW1 2762   5.779   5.177   0.146
  621SOL    HW2 2763   5.910   5.110   0.074
  622SOL     OW 2764   1.891   1.401   6.934
  622SOL    HW1 2765   1.894   1.302   6.943
  622SOL    HW2 2766   1.838   1.440   7.009
  623SOL     OW 2767   0.984   5.074   6.067
  623SOL    HW1 2768   0.892   5.044   6.095
  623SOL    HW2 2769   1.033   5.108   6.147
  624SOL     OW 2770   0.424   2.512   2.551
  624SOL    HW1 2771   0.401   2.594   2.499
  624SOL    HW2 2772   0.365   2.436   2.522
  625SOL     OW 2773   2.621   1.685   2.574
  625SOL    HW1 2774   2.578   1.626   2.505
  625SOL    HW2 2775   2.682   1.630   2.631
  626SOL     OW 2776   1.966   6.190   3.424
  626SOL    HW1 2777   1.907   6.260   3.384
  626SOL    HW2 2778   2.047   6.178   3.366
  627SOL     OW 2779   5.425   0.920   0.669
  627SOL    HW1 2780   5.462   0.854   0.735
  627SOL    HW2 2781   5.418   0.877   0.579
  628SOL     OW 2782   4.951   5.269   4.652
  628SOL    HW1 2783   4.994   5.359   4.658
  628SOL    HW2 2784   4.910   5.258   4.562
  629SOL     OW 2785   0.420   0.315   1.391
  629SOL    HW1 2786   0.376   0.305   1.480
  629SOL    HW2 2787   0.495   0.249   1.383
  630SOL     OW 2788   4.602   1.792   1.992
  630SOL    HW1 2789   4.526   1.815   1.931
  630SOL    HW2 2790   4.647   1.709   1.960
  631SOL     OW 2791   2.822   0.147   5.261
  631SOL    HW1 2792   2.793   0.139   5.165
  631SOL    HW2 2793   2.743   0.175   5.317
  632SOL     OW 2794   2.106   1.188   0.627
  632SOL    HW1 2795   2.173   1.260   0.608
  632SOL    HW2 2796   2.112   1.118   0.556
  633SOL     OW 2797   3.332   5.611   0.735
  633SOL    HW1 2798   3.318   5.523   0.781
  633SOL    HW2 2799   3.343   5.595   0.637
  634SOL     OW 2800   4.368   5.495   1.498
  634SOL    HW1 2801   4.336   5.547   1.420
  634SOL    HW2 2802   4.438   5.430   1.469
  635SOL     OW 2803   3.439   0.184   3.213
  635SOL    HW1 2804   3.490   0.106   3.249
  635SOL    HW2 2805   3.502   0.249   3.171
  636SOL     OW 2806   5.020   5.227   6.611
  636SOL    HW1 2807   5.089   5.298   6.597
  636SOL    HW2 2808   5.032   5.155   6.543
  637SOL     OW 2809   5.070   4.747   1.898
  637SOL    HW1 2810   4.996   4.739   1.964
  637SOL    HW2 2811   5.136   4.816   1.930
  638SOL     OW 2812   4.976   1.066   2.103
  638SOL    HW1 2813   4.906   1.130   2.072
  638SOL    HW2 2814   5.039   1.113   2.165
  639SOL     OW 2815   4.564   4.640   1.778
  639SOL    HW1 2816   4.521   4.641   1.868
  639SOL    HW2 2817   4.530   4.562   1.726
  640SOL     OW 2818   2.277   4.060   6.087
  640SOL    HW1 2819   2.208   4.104   6.145
  640SOL    HW2 2820   2.253   4.075   5.991
  641SOL     OW 2821   0.730   5.548   4.685
  641SOL    HW1 2822   0.770   5.522   4.597
  641SOL    HW2 2823   0.794   5.528   4.759
  642SOL     OW 2824   0.354   4.711   5.136
  642SOL    HW1 2825   0.430   4.755   5.183
  642SOL    HW2 2826   0.380   4.693   5.041
  643SOL     OW 2827   6.791   6.027   5.106
  643SOL    HW1 2828   6.750   6.008   5.017
  643SOL    HW2 2829   6.827   5.942   5.145
  644SOL     OW 2830   1.099   6.423   2.897
  644SOL    HW1 2831   1.130   6.337   2.857
  644SOL    HW2 2832   1.060   6.406   2.987
  645SOL     OW 2833   4.653   2.588   4.470
  645SOL    HW1 2834   4.660   2.666   4.531
  645SOL    HW2 2835   4.687   2.506   4.516
  646SOL     OW 2836   1.821   1.425   3.748
  646SOL    HW1 2837   1.904   1.379   3.779
  646SOL    HW2 2838   1.841   1.479   3.666
  647SOL     OW 2839   6.141   2.922   0.022
  647SOL    HW1 2840   6.238   2.905   0.003
  647SOL    HW2 2841   6.086   2.851   7.003
  648SOL     OW 2842   5.661   3.571   2.397
  648SOL    HW1 2843   5.585   3.541   2.456
  648SOL    HW2 2844   5.648   3.535   2.305
  649SOL     OW 2845   3.882   4.397   0.986
  649SOL    HW1 2846   3.941   4.319   0.963
  649SOL    HW2 2847   3.866   4.399   1.085
  650SOL     OW 2848   4.561   4.819   0.691
  650SOL    HW1 2849   4.497   4.888   0.657
  650SOL    HW2 2850   4.654   4.846   0.668
  651SOL     OW 2851   0.454   6.197   1.160
  651SOL    HW1 2852   0.485   6.261   1.090
  651SOL    HW2 2853   0.508   6.211   1.243
  652SOL     OW 2854   4.384   0.005   2.850
  652SOL    HW1 2855   4.426   0.053   2.773
  652SOL    HW2 2856   4.338   6.948   2.816
  653SOL     OW 2857   3.382   5.123   4.132
  653SOL    HW1 2858   3.292   5.134   4.176
  653SOL    HW2 2859   3.381   5.040   4.076
  654SOL     OW 2860   6.850   5.733   6.421
  654SOL    HW1 2861   6.752   5.713   6.419
  654SOL    HW2 2862   6.864   5.832   6.430
  655SOL     OW 2863   0.651   0.217   1.556
  655SOL    HW1 2864   0.745   0.231   1.587
  655SOL    HW2 2865   0.653   0.174   1.465
  656SOL     OW 2866   2.315   5.913   2.147
  656SOL    HW1 2867   2.301   5.983   2.216
  656SOL    HW2 2868   2.258   5.933   2.067
  657SOL     OW 2869   2.512   1.781   1.198
  657SOL    HW1 2870   2.545   1.792   1.104
  657SOL    HW2 2871   2.554   1.851   1.256
  658SOL     OW 2872   3.407   3.980   6.903
  658SOL    HW1 2873   3.449   4.044   6.967
  658SOL    HW2 2874   3.391   4.026   6.815
  659SOL     OW 2875   2.393   6.768   6.331
  659SOL    HW1 2876   2.411   6.674   6.361
  659SOL    HW2 2877   2.375   6.826   6.410
  660SOL     OW 2878   4.119   5.994   2.055
  660SOL    HW1 2879   4.040   6.052   2.036
  660SOL    HW2 2880   4.116   5.913   1.997
  661SOL     OW 2881   4.732   5.588   3.619
  661SOL    HW1 2882   4.785   5.651   3.561
  661SOL    HW2 2883   4.792   5.516   3.653
  662SOL     OW 2884   3.673   0.994   5.544
  662SOL    HW1 2885   3.627   1.011   5.631
  662SOL    HW2 2886   3.665   1.075   5.486
  663SOL     OW 2887   1.888   4.299   4.724
  663SOL    HW1 2888   1.957   4.349   4.776
  663SOL    HW2 2889   1.805   4.355   4.717
  664SOL     OW 2890   0.540   6.206   6.281
  664SOL    HW1 2891   0.564   6.303   6.290
  664SOL    HW2 2892   0.591   6.165   6.206
  665SOL     OW 2893   3.807   5.358   3.480
  665SOL    HW1 2894   3.717   5.339   3.519
  665SOL    HW2 2895   3.829   5.288   3.411
  666SOL     OW 2896   3.885   0.919   2.535
  666SOL    HW1 2897   3.819   0.938   2.607
  666SOL    HW2 2898   3.925   1.004   2.502
  667SOL     OW 2899   0.673   5.234   1.821
  667SOL    HW1 2900   0.771   5.249   1.804
  667SOL    HW2 2901   0.625   5.322   1.817
  668SOL     OW 2902   5.418   4.535   6.296
  668SOL    HW1 2903   5.385   4.629   6.294
  668SOL    HW2 2904   5.502   4.529   6.350
  669SOL     OW 2905   5.581   1.148   3.044
  669SOL    HW1 2906   5.524   1.230   3.043
  669SOL    HW2 2907   5.560   1.093   3.125
  670SOL     OW 2908   2.233   1.843   3.177
  670SOL    HW1 2909   2.182   1.874   3.097
  670SOL    HW2 2910   2.224   1.743   3.185
  671SOL     OW 2911   2.882   6.671   1.599
  671SOL    HW1 2912   2.900   6.734   1.676
  671SOL    HW2 2913   2.899   6.577   1.628
  672SOL     OW 2914   0.330   5.888   2.002
  672SOL    HW1 2915   0.418   5.915   1.964
  672SOL    HW2 2916   0.303   5.800   1.964
  673SOL     OW 2917   5.204   6.757   0.770
  673SOL    HW1 2918   5.182   6.800   0.682
  673SOL    HW2 2919   5.296   6.717   0.765
  674SOL     OW 2920   6.825   1.815   4.816
  674SOL    HW1 2921   6.791   1.909   4.811
  674SOL    HW2 2922   6.758   1.757   4.864
  675SOL     OW 2923   6.199   2.232   2.082
  675SOL    HW1 2924   6.101   2.215   2.068
  675SOL    HW2 2925   6.237   2.163   2.143
  676SOL     OW 2926   2.531   4.581   4.727
  676SOL    HW1 2927   2.443   4.540   4.701
  676SOL    HW2 2928   2.547   4.565   4.825
  677SOL     OW 2929   4.840   1.023   1.686
  677SOL    HW1 2930   4.886   0.934   1.676
  677SOL    HW2 2931   4.898   1.085   1.738
  678SOL     OW 2932   2.840   4.505   5.414
  678SOL    HW1 2933   2.762   4.567   5.408
  678SOL    HW2 2934   2.886   4.502   5.325
  679SOL     OW 2935   5.580   1.938   4.893
  679SOL    HW1 2936   5.566   1.908   4.988
  679SOL    HW2 2937   5.547   1.867   4.831
  680SOL     OW 2938   5.459   6.327   4.104
  680SOL    HW1 2939   5.400   6.369   4.035
  680SOL    HW2 2940   5.420   6.238   4.130
  681SOL     OW 2941   4.992   5.501   2.468
  681SOL    HW1 2942   4.936   5.557   2.529
  681SOL    HW2 2943   4.976   5.528   2.373
  682SOL     OW 2944   0.070   1.371   2.030
  682SOL    HW1 2945   7.005   1.379   1.988
  682SOL    HW2 2946   0.111   1.284   2.004
  683SOL     OW 2947   4.225   3.114   1.439
  683SOL    HW1 2948   4.292   3.054   1.483
  683SOL    HW2 2949   4.237   3.208   1.472
  684SOL     OW 2950   6.229   0.433   6.864
  684SOL    HW1 2951   6.247   0.370   6.939
  684SOL    HW2 2952   6.280   0.405   6.783
  685SOL     OW 2953   3.399   1.184   3.416
  685SOL    HW1 2954   3.363   1.256   3.476
  685SOL    HW2 2955   3.323   1.127   3.383
  686SOL     OW 2956   4.413   1.371   3.742
  686SOL    HW1 2957   4.447   1.333   3.828
  686SOL    HW2 2958   4.404   1.471   3.751
  687SOL     OW 2959   0.966   1.983   4.394
  687SOL    HW1 2960   1.047   2.041   4.385
  687SOL    HW2 2961   0.993   1.887   4.387
  688SOL     OW 2962   0.182   1.047   6.161
  688SOL    HW1 2963   0.232   0.963   6.142
  688SOL    HW2 2964   0.242   1.126   6.147
  689SOL     OW 2965   1.134   4.603   5.669
  689SOL    HW1 2966   1.200   4.584   5.597
  689SOL    HW2 2967   1.116   4.519   5.721
  690SOL     OW 2968   6.273   3.475   3.115
  690SOL    HW1 2969   6.199   3.540   3.129
  690SOL    HW2 2970   6.261   3.428   3.028
  691SOL     OW 2971   4.375   1.582   0.826
  691SOL    HW1 2972   4.466   1.601   0.788
  691SOL    HW2 2973   4.312   1.558   0.752
  692SOL     OW 2974   3.535   1.679   5.520
  692SOL    HW1 2975   3.499   1.634   5.438
  692SOL    HW2 2976   3.495   1.770   5.528
  693SOL     OW 2977   4.170   6.156   3.637
  693SOL    HW1 2978   4.211   6.109   3.558
  693SOL    HW2 2979   4.231   6.229   3.667
  694SOL     OW 2980   3.636   6.557   4.350
  694SOL    HW1 2981   3.655   6.651   4.378
  694SOL    HW2 2982   3.651   6.548   4.251
  695SOL     OW 2983   3.308   5.823   4.369
  695SOL    HW1 2984   3.377   5.753   4.350
  695SOL    HW2 2985   3.222   5.778   4.396
  696SOL     OW 2986   5.165   4.309   3.503
  696SOL    HW1 2987   5.139   4.215   3.524
  696SOL    HW2 2988   5.087   4.370   3.520
  697SOL     OW 2989   0.900   3.896   1.765
  697SOL    HW1 2990   0.801   3.906   1.754
  697SOL    HW2 2991   0.928   3.806   1.733
  698SOL     OW 2992   4.819   6.486   0.942
  698SOL    HW1 2993   4.796   6.580   0.916
  698SOL    HW2 2994   4.785   6.467   1.034
  699SOL     OW 2995   2.304   3.263   6.453
  699SOL    HW1 2996   2.254   3.176   6.457
  699SOL    HW2 2997   2.336   3.280   6.360
  700SOL     OW 2998   3.362   0.003   2.515
  700SOL    HW1 2999   3.277   7.017   2.464
  700SOL    HW2 3000   3.355   0.083   2.574
  701SOL     OW 3001   6.013   4.827   0.907
  701SOL    HW1 3002   5.959   4.744   0.923
  701SOL    HW2 3003   6.095   4.826   0.965
  702SOL     OW 3004   2.612   0.395   4.391
  702SOL    HW1 3005   2.696   0.441   4.362
  702SOL    HW2 3006   2.535   0.428   4.336
  703SOL     OW 3007   3.020   3.408   5.703
  703SOL    HW1 3008   2.935   3.356   5.708
  703SOL    HW2 3009   3.084   3.375   5.773
  704SOL     OW 3010   1.408   3.000   6.115
  704SOL    HW1 3011   1.376   2.915   6.156
  704SOL    HW2 3012   1.354   3.020   6.033
  705SOL     OW 3013   6.856   6.381   4.195
  705SOL    HW1 3014   6.915   6.311   4.154
  705SOL    HW2 3015   6.906   6.467   4.200
  706SOL     OW 3016   4.381   1.068   5.404
  706SOL    HW1 3017   4.287   1.062   5.436
  706SOL    HW2 3018   4.397   0.999   5.334
  707SOL     OW 3019   3.996   5.520   3.049
  707SOL    HW1 3020   3.950   5.477   2.971
  707SOL    HW2 3021   3.930   5.571   3.103
  708SOL     OW 3022   2.701   1.200   3.583
  708SOL    HW1 3023   2.611   1.238   3.604
  708SOL    HW2 3024   2.704   1.171   3.488
  709SOL     OW 3025   1.778   6.612   1.563
  709SOL    HW1 3026   1.797   6.699   1.518
  709SOL    HW2 3027   1.844   6.544   1.532
  710SOL     OW 3028   4.797   2.565   1.641
  710SOL    HW1 3029   4.703   2.551   1.609
  710SOL    HW2 3030   4.829   2.656   1.612
  711SOL     OW 3031   6.956   2.848   6.025
  711SOL    HW1 3032   6.914   2.920   5.969
  711SOL    HW2 3033   0.012   2.883   6.069
  712SOL     OW 3034   4.667   2.758   1.278
  712SOL    HW1 3035   4.739   2.761   1.348
  712SOL    HW2 3036   4.591   2.817   1.307
  713SOL     OW 3037   4.291   2.729   5.337
  713SOL    HW1 3038   4.238   2.701   5.417
  713SOL    HW2 3039   4.246   2.697   5.254
  714SOL     OW 3040   6.331   5.236   3.843
  714SOL    HW1 3041   6.294   5.313   3.790
  714SOL    HW2 3042   6.409   5.197   3.794
  715SOL     OW 3043   6.284   4.928   5.636
  715SOL    HW1 3044   6.359   4.976   5.682
  715SOL    HW2 3045   6.308   4.832   5.624
  716SOL     OW 3046   2.232   0.807   2.813
  716SOL    HW1 3047   2.161   0.868   2.777
  716SOL    HW2 3048   2.249   0.734   2.746
  717SOL     OW 3049   5.938   4.755   4.512
  717SOL    HW1 3050   5.921   4.688   4.585
  717SOL    HW2 3051   5.919   4.713   4.423
  718SOL     OW 3052   4.706   2.800   4.297
  718SOL    HW1 3053   4.691   2.881   4.354
  718SOL    HW2 3054   4.681   2.718   4.348
  719SOL     OW 3055   6.749   0.390   2.398
  719SOL    HW1 3056   6.810   0.360   2.472
  719SOL    HW2 3057   6.803   0.437   2.328
  720SOL     OW 3058   2.128   0.767   6.014
  720SOL    HW1 3059   2.140   0.721   6.102
  720SOL    HW2 3060   2.216   0.775   5.968
  721SOL     OW 3061   0.633   2.064   2.010
  721SOL    HW1 3062   0.694   2.013   2.071
  721SOL    HW2 3063   0.548   2.013   1.999
  722SOL     OW 3064   4.241   0.482   6.310
  722SOL    HW1 3065   4.299   0.431   6.374
  722SOL    HW2 3066   4.170   0.530   6.361
  723SOL     OW 3067   2.410   5.654   3.751
  723SOL    HW1 3068   2.460   5.693   3.674
  723SOL    HW2 3069   2.335   5.598   3.717
  724SOL     OW 3070   0.505   0.421   3.374
  724SOL    HW1 3071   0.525   0.493   3.308
  724SOL    HW2 3072   0.440   0.357   3.335
  725SOL     OW 3073   2.515   4.596   2.100
  725SOL    HW1 3074   2.451   4.612   2.024
  725SOL    HW2 3075   2.599   4.556   2.064
  726SOL     OW 3076   2.654   5.114   0.813
  726SOL    HW1 3077   2.607   5.029   0.839
  726SOL    HW2 3078   2.712   5.096   0.733
  727SOL     OW 3079   4.439   5.412   6.585
  727SOL    HW1 3080   4.435   5.398   6.487
  727SOL    HW2 3081   4.387   5.340   6.632
  728SOL     OW 3082   0.091   2.952   4.326
  728SOL    HW1 3083   0.135   3.041   4.316
  728SOL    HW2 3084   0.014   2.960   4.389
  729SOL     OW 3085   6.898   3.185   0.745
  729SOL    HW1 3086   6.943   3.097   0.732
  729SOL    HW2 3087   6.966   3.254   0.768
  730SOL     OW 3088   5.420   0.455   2.588
  730SOL    HW1 3089   5.407   0.467   2.686
  730SOL    HW2 3090   5.509   0.412   2.571
  731SOL     OW 3091   4.687   4.262   6.353
  731SOL    HW1 3092   4.773   4.311   6.373
  731SOL    HW2 3093   4.683   4.178   6.407
  732SOL     OW 3094   5.144   2.117   2.399
  732SOL    HW1 3095   5.124   2.022   2.422
  732SOL    HW2 3096   5.233   2.143   2.437
  733SOL     OW 3097   5.698   6.787   4.160
  733SOL    HW1 3098   5.657   6.817   4.247
  733SOL    HW2 3099   5.702   6.865   4.098
  734SOL     OW 3100   6.501   4.239   2.579
  734SOL    HW1 3101   6.461   4.247   2.488
  734SOL    HW2 3102   6.456   4.304   2.641
  735SOL     OW 3103   5.447   0.569   1.458
  735SOL    HW1 3104   5.450   0.475   1.426
  735SOL    HW2 3105   5.354   0.605   1.448
  736SOL     OW 3106   1.560   1.635   4.259
  736SOL    HW1 3107   1.569   1.551   4.205
  736SOL    HW2 3108   1.638   1.641   4.322
  737SOL     OW 3109   5.929   1.762   5.717
  737SOL    HW1 3110   5.830   1.774   5.720
  737SOL    HW2 3111   5.957   1.742   5.623
  738SOL     OW 3112   3.034   4.332   0.819
  738SOL    HW1 3113   3.125   4.294   0.827
  738SOL    HW2 3114   2.981   4.308   0.901
  739SOL     OW 3115   3.318   6.986   5.059
  739SOL    HW1 3116   3.377   0.040   5.061
  739SOL    HW2 3117   3.233   7.008   5.013
  740SOL     OW 3118   5.705   2.329   2.479
  740SOL    HW1 3119   5.787   2.310   2.424
  740SOL    HW2 3120   5.730   2.332   2.576
  741SOL     OW 3121   1.911   0.818   4.803
  741SOL    HW1 3122   1.978   0.858   4.741
  741SOL    HW2 3123   1.835   0.881   4.815
  742SOL     OW 3124   1.424   6.260   1.179
  742SOL    HW1 3125   1.470   6.313   1.107
  742SOL    HW2 3126   1.406   6.168   1.145
  743SOL     OW 3127   0.469   6.275   3.592
  743SOL    HW1 3128   0.452   6.354   3.533
  743SOL    HW2 3129   0.567   6.259   3.600
  744SOL     OW 3130   6.810   1.248   0.863
  744SOL    HW1 3131   6.909   1.248   0.867
  744SOL    HW2 3132   6.776   1.154   0.869
  745SOL     OW 3133   1.875   5.731   5.207
  745SOL    HW1 3134   1.873   5.824   5.244
  745SOL    HW2 3135   1.950   5.723   5.141
  746SOL     OW 3136   5.414   4.120   5.206
  746SOL    HW1 3137   5.370   4.197   5.160
  746SOL    HW2 3138   5.391   4.035   5.159
  747SOL     OW 3139   5.176   5.198   3.773
  747SOL    HW1 3140   5.162   5.157   3.863
  747SOL    HW2 3141   5.210   5.129   3.709
  748SOL     OW 3142   5.212   4.768   2.831
  748SOL    HW1 3143   5.206   4.753   2.732
  748SOL    HW2 3144   5.121   4.790   2.866
  749SOL     OW 3145   4.938   3.642   3.425
  749SOL    HW1 3146   4.901   3.552   3.449
  749SOL    HW2 3147   4.945   3.650   3.326
  750SOL     OW 3148   2.829   1.204   1.352
  750SOL    HW1 3149   2.810   1.289   1.302
  750SOL    HW2 3150   2.925   1.202   1.380
  751SOL     OW 3151   5.074   2.620   0.710
  751SOL    HW1 3152   5.010   2.548   0.733
  751SOL    HW2 3153   5.024   2.700   0.675
  752SOL     OW 3154   3.608   2.164   6.051
  752SOL    HW1 3155   3.694   2.129   6.088
  752SOL    HW2 3156   3.626   2.247   5.998
  753SOL     OW 3157   3.001   3.761   4.908
  753SOL    HW1 3158   2.962   3.682   4.859
  753SOL    HW2 3159   2.995   3.745   5.006
  754SOL     OW 3160   5.898   0.889   6.656
  754SOL    HW1 3161   5.865   0.906   6.749
  754SOL    HW2 3162   5.820   0.884   6.594
  755SOL     OW 3163   3.085   4.367   5.261
  755SOL    HW1 3164   3.177   4.402   5.280
  755SOL    HW2 3165   3.038   4.431   5.199
  756SOL     OW 3166   3.382   4.973   6.930
  756SOL    HW1 3167   3.363   4.913   6.853
  756SOL    HW2 3168   3.436   4.924   6.999
  757SOL     OW 3169   2.093   6.867   2.410
  757SOL    HW1 3170   2.066   6.949   2.459
  757SOL    HW2 3171   2.087   6.788   2.471
  758SOL     OW 3172   3.992   1.364   3.892
  758SOL    HW1 3173   3.965   1.351   3.796
  758SOL    HW2 3174   4.082   1.408   3.896
  759SOL     OW 3175   0.205   2.422   3.202
  759SOL    HW1 3176   0.213   2.385   3.294
  759SOL    HW2 3177   0.293   2.460   3.173
  760SOL     OW 3178   6.748   6.553   3.869
  760SOL    HW1 3179   6.813   6.491   3.912
  760SOL    HW2 3180   6.663   6.554   3.921
  761SOL     OW 3181   5.520   4.337   5.648
  761SOL    HW1 3182   5.423   4.312   5.643
  761SOL    HW2 3183   5.560   4.298   5.731
  762SOL     OW 3184   2.890   6.345   5.440
  762SOL    HW1 3185   2.840   6.399   5.507
  762SOL    HW2 3186   2.935   6.268   5.486
  763SOL     OW 3187   5.160   0.338   6.508
  763SOL    HW1 3188   5.190   0.382   6.593
  763SOL    HW2 3189   5.060   0.332   6.507
  764SOL     OW 3190   6.040   1.136   5.756
  764SOL    HW1 3191   6.099   1.058   5.735
  764SOL    HW2 3192   5.944   1.107   5.750
  765SOL     OW 3193   0.823   6.729   0.863
  765SOL    HW1 3194   0.770   6.670   0.925
  765SOL    HW2 3195   0.921   6.709   0.874
  766SOL     OW 3196   2.242   2.523   5.494
  766SOL    HW1 3197   2.281   2.592   5.433
  766SOL    HW2 3198   2.249   2.433   5.451
  767SOL     OW 3199   0.033   6.682   3.407
  767SOL    HW1 3200   7.019   6.771   3.431
  767SOL    HW2 3201   0.127   6.678   3.440
  768SOL     OW 3202   2.262   6.211   2.841
  768SOL    HW1 3203   2.208   6.158   2.907
  768SOL    HW2 3204   2.354   6.226   2.878
  769SOL     OW 3205   3.519   1.796   5.184
  769SOL    HW1 3206   3.530   1.701   5.211
  769SOL    HW2 3207   3.476   1.800   5.094
  770SOL     OW 3208   1.572   5.055   4.029
  770SOL    HW1 3209   1.549   4.961   4.004
  770SOL    HW2 3210   1.650   5.055   4.092
  771SOL     OW 3211   1.429   5.079   3.255
  771SOL    HW1 3212   1.500   5.148   3.241
  771SOL    HW2 3213   1.380   5.064   3.169
  772SOL     OW 3214   5.423   5.076   6.888
  772SOL    HW1 3215   5.347   5.073   6.823
  772SOL    HW2 3216   5.453   4.983   6.908
  773SOL     OW 3217   1.013   3.402   3.313
  773SOL    HW1 3218   0.967   3.421   3.399
  773SOL    HW2 3219   1.110   3.386   3.329
  774SOL     OW 3220   2.381   1.900   4.009
  774SOL    HW1 3221   2.436   1.855   4.079
  774SOL    HW2 3222   2.440   1.955   3.951
  775SOL     OW 3223   2.009   3.832   3.928
  775SOL    HW1 3224   1.932   3.779   3.892
  775SOL    HW2 3225   2.094   3.797   3.890
  776SOL     OW 3226   0.877   6.979   6.463
  776SOL    HW1 3227   0.966   6.970   6.417
  776SOL    HW2 3228   0.805   6.988   6.395
  777SOL     OW 3229   1.457   3.566   0.394
  777SOL    HW1 3230   1.447   3.498   0.322
  777SOL    HW2 3231   1.374   3.621   0.399
  778SOL     OW 3232   2.880   6.991   1.757
  778SOL    HW1 3233   2.799   7.002   1.700
  778SOL    HW2 3234   2.958   6.966   1.699
  779SOL     OW 3235   0.512   2.678   1.678
  779SOL    HW1 3236   0.580   2.652   1.747
  779SOL    HW2 3237   0.423   2.640   1.703
  780SOL     OW 3238   1.418   2.215   4.513
  780SOL    HW1 3239   1.495   2.276   4.495
  780SOL    HW2 3240   1.447   2.120   4.499
  781SOL     OW 3241   6.935   4.373   0.372
  781SOL    HW1 3242   6.857   4.390   0.433
  781SOL    HW2 3243   6.908   4.393   0.278
  782SOL     OW 3244   2.126   3.910   5.875
  782SOL    HW1 3245   2.088   3.821   5.903
  782SOL    HW2 3246   2.053   3.966   5.835
  783SOL     OW 3247   5.348   4.809   6.297
  783SOL    HW1 3248   5.387   4.884   6.243
  783SOL    HW2 3249   5.348   4.834   6.394
  784SOL     OW 3250   2.712   5.863   1.764
  784SOL    HW1 3251   2.629   5.836   1.814
  784SOL    HW2 3252   2.786   5.800   1.786
  785SOL     OW 3253   0.849   0.391   4.012
  785SOL    HW1 3254   0.882   0.455   4.082
  785SOL    HW2 3255   0.750   0.383   4.019
  786SOL     OW 3256   6.047   0.615   3.525
  786SOL    HW1 3257   6.020   0.621   3.621
  786SOL    HW2 3258   6.127   0.555   3.517
  787SOL     OW 3259   2.344   0.798   0.247
  787SOL    HW1 3260   2.285   0.829   0.322
  787SOL    HW2 3261   2.291   0.794   0.163
  788SOL     OW 3262   3.849   3.077   1.476
  788SOL    HW1 3263   3.871   2.982   1.498
  788SOL    HW2 3264   3.904   3.107   1.398
  789SOL     OW 3265   4.558   5.274   2.067
  789SOL    HW1 3266   4.633   5.212   2.090
  789SOL    HW2 3267   4.563   5.356   2.124
  790SOL     OW 3268   0.675   2.721   1.291
  790SOL    HW1 3269   0.682   2.631   1.248
  790SOL    HW2 3270   0.687   2.712   1.390
  791SOL     OW 3271   2.903   5.804   5.306
  791SOL    HW1 3272   2.954   5.884   5.274
  791SOL    HW2 3273   2.922   5.727   5.245
  792SOL     OW 3274   0.505   1.561   0.329
  792SOL    HW1 3275   0.433   1.577   0.262
  792SOL    HW2 3276   0.482   1.606   0.415
  793SOL     OW 3277   4.401   5.514   4.238
  793SOL    HW1 3278   4.467   5.590   4.243
  793SOL    HW2 3279   4.338   5.530   4.162
  794SOL     OW 3280   3.394   3.446   4.113
  794SOL    HW1 3281   3.392   3.380   4.038
  794SOL    HW2 3282   3.304   3.489   4.121
  795SOL     OW 3283   3.790   0.506   6.033
  795SOL    HW1 3284   3.774   0.578   5.966
  795SOL    HW2 3285   3.758   0.418   5.996
  796SOL     OW 3286   1.397   2.814   6.474
  796SOL    HW1 3287   1.377   2.760   6.393
  796SOL    HW2 3288   1.323   2.880   6.490
  797SOL     OW 3289   4.338   0.490   1.073
  797SOL    HW1 3290   4.295   0.485   0.983
  797SOL    HW2 3291   4.433   0.521   1.063
  798SOL     OW 3292   2.720   6.340   1.501
  798SOL    HW1 3293   2.694   6.258   1.553
  798SOL    HW2 3294   2.817   6.358   1.514
  799SOL     OW 3295   0.503   2.185   6.410
  799SOL    HW1 3296   0.579   2.219   6.355
  799SOL    HW2 3297   0.445   2.261   6.438
  800SOL     OW 3298   5.966   1.316   1.835
  800SOL    HW1 3299   5.929   1.398   1.792
  800SOL    HW2 3300   6.062   1.306   1.809
  801SOL     OW 3301   1.976   5.359   5.777
  801SOL    HW1 3302   1.904   5.423   5.805
  801SOL    HW2 3303   2.065   5.403   5.788
  802SOL     OW 3304   5.473   2.096   6.763
  802SOL    HW1 3305   5.381   2.133   6.745
  802SOL    HW2 3306   5.482   2.008   6.717
  803SOL     OW 3307   2.959   0.438   5.656
  803SOL    HW1 3308   2.985   0.407   5.565
  803SOL    HW2 3309   3.004   0.380   5.724
  804SOL     OW 3310   6.121   0.197   1.659
  804SOL    HW1 3311   6.022   0.187   1.647
  804SOL    HW2 3312   6.141   0.210   1.756
  805SOL     OW 3313   2.757   0.640   3.483
  805SOL    HW1 3314   2.713   0.712   3.536
  805SOL    HW2 3315   2.835   0.604   3.534
  806SOL     OW 3316   0.785   0.082   5.592
  806SOL    HW1 3317   0.827   0.020   5.525
  806SOL    HW2 3318   0.758   0.030   5.673
  807SOL     OW 3319   0.748   6.417   4.677
  807SOL    HW1 3320   0.650   6.403   4.661
  807SOL    HW2 3321   0.800   6.364   4.610
  808SOL     OW 3322   5.857   2.839   0.415
  808SOL    HW1 3323   5.761   2.816   0.405
  808SOL    HW2 3324   5.894   2.794   0.496
  809SOL     OW 3325   0.342   5.114   6.956
  809SOL    HW1 3326   0.414   5.176   6.986
  809SOL    HW2 3327   0.253   5.149   6.986
  810SOL     OW 3328   2.476   3.126   0.286
  810SOL    HW1 3329   2.377   3.124   0.301
  810SOL    HW2 3330   2.522   3.145   0.373
  811SOL     OW 3331   5.123   5.058   4.722
  811SOL    HW1 3332   5.218   5.079   4.748
  811SOL    HW2 3333   5.067   5.140   4.733
  812SOL     OW 3334   0.764   2.297   1.996
  812SOL    HW1 3335   0.695   2.224   1.989
  812SOL    HW2 3336   0.839   2.266   2.055
  813SOL     OW 3337   2.110   0.934   4.654
  813SOL    HW1 3338   2.151   0.997   4.589
  813SOL    HW2 3339   2.158   0.846   4.649
  814SOL     OW 3340   6.912   5.814   2.902
  814SOL    HW1 3341   6.853   5.893   2.919
  814SOL    HW2 3342   6.977   5.804   2.976
  815SOL     OW 3343   5.101   2.344   3.615
  815SOL    HW1 3344   5.187   2.347   3.665
  815SOL    HW2 3345   5.027   2.379   3.674
  816SOL     OW 3346   4.572   4.027   0.288
  816SOL    HW1 3347   4.623   4.001   0.370
  816SOL    HW2 3348   4.632   4.016   0.208
  817SOL     OW 3349   0.853   5.287   1.211
  817SOL    HW1 3350   0.939   5.245   1.182
  817SOL    HW2 3351   0.855   5.385   1.188
  818SOL     OW 3352   5.599   2.600   3.497
  818SOL    HW1 3353   5.672   2.574   3.560
  818SOL    HW2 3354   5.515   2.616   3.548
  819SOL     OW 3355   6.074   2.487   1.505
  819SOL    HW1 3356   6.101   2.578   1.472
  819SOL    HW2 3357   6.027   2.437   1.432
  820SOL     OW 3358   2.589   2.046   4.597
  820SOL    HW1 3359   2.552   1.997   4.518
  820SOL    HW2 3360   2.513   2.080   4.653
  821SOL     OW 3361   5.621   4.332   4.608
  821SOL    HW1 3362   5.645   4.310   4.513
  821SOL    HW2 3363   5.705   4.344   4.661
  822SOL     OW 3364   0.912   4.382   3.442
  822SOL    HW1 3365   0.912   4.294   3.396
  822SOL    HW2 3366   0.835   4.437   3.410
  823SOL     OW 3367   0.682   3.233   5.850
  823SOL    HW1 3368   0.721   3.155   5.900
  823SOL    HW2 3369   0.672   3.209   5.754
  824SOL     OW 3370   5.466   1.232   5.091
  824SOL    HW1 3371   5.464   1.254   5.188
  824SOL    HW2 3372   5.500   1.310   5.039
  825SOL     OW 3373   6.223   6.103   1.091
  825SOL    HW1 3374   6.231   6.200   1.068
  825SOL    HW2 3375   6.155   6.092   1.163
  826SOL     OW 3376   3.991   1.670   5.757
  826SOL    HW1 3377   4.055   1.620   5.814
  826SOL    HW2 3378   3.926   1.720   5.815
  827SOL     OW 3379   3.279   4.090   4.518
  827SOL    HW1 3380   3.241   4.144   4.593
  827SOL    HW2 3381   3.329   4.012   4.555
  828SOL     OW 3382   6.317   5.492   4.291
  828SOL    HW1 3383   6.361   5.582   4.293
  828SOL    HW2 3384   6.277   5.476   4.201
  829SOL     OW 3385   3.525   2.837   2.254
  829SOL    HW1 3386   3.603   2.842   2.192
  829SOL    HW2 3387   3.517   2.744   2.291
  830SOL     OW 3388   5.931   4.616   6.801
  830SOL    HW1 3389   5.950   4.665   6.715
  830SOL    HW2 3390   6.001   4.546   6.815
  831SOL     OW 3391   5.116   6.500   1.511
  831SOL    HW1 3392   5.102   6.419   1.454
  831SOL    HW2 3393   5.050   6.499   1.586
  832SOL     OW 3394   3.969   1.335   4.497
  832SOL    HW1 3395   3.945   1.282   4.578
  832SOL    HW2 3396   4.064   1.367   4.505
  833SOL     OW 3397   1.443   3.996   6.102
  833SOL    HW1 3398   1.381   3.929   6.063
  833SOL    HW2 3399   1.508   4.027   6.031
  834SOL     OW 3400   4.500   3.513   6.780
  834SOL    HW1 3401   4.551   3.553   6.856
  834SOL    HW2 3402   4.562   3.456   6.725
  835SOL     OW 3403   1.678   0.162   4.705
  835SOL    HW1 3404   1.691   0.064   4.689
  835SOL    HW2 3405   1.616   0.175   4.783
  836SOL     OW 3406   3.591   2.166   5.726
  836SOL    HW1 3407   3.503   2.208   5.707
  836SOL    HW2 3408   3.643   2.224   5.788
  837SOL     OW 3409   1.206   0.196   1.515
  837SOL    HW1 3410   1.166   0.213   1.425
  837SOL    HW2 3411   1.278   0.127   1.507
  838SOL     OW 3412   2.263   5.576   4.078
  838SOL    HW1 3413   2.358   5.582   4.049
  838SOL    HW2 3414   2.210   5.649   4.034
  839SOL     OW 3415   2.175   0.875   1.244
  839SOL    HW1 3416   2.140   0.915   1.159
  839SOL    HW2 3417   2.266   0.911   1.262
  840SOL     OW 3418   5.907   5.695   0.142
  840SOL    HW1 3419   5.910   5.634   0.063
  840SOL    HW2 3420   5.940   5.646   0.223
  841SOL     OW 3421   4.680   5.357   5.768
  841SOL    HW1 3422   4.599   5.312   5.732
  841SOL    HW2 3423   4.747   5.368   5.695
  842SOL     OW 3424   3.139   7.020   0.023
  842SOL    HW1 3425   3.174   0.088   0.019
  842SOL    HW2 3426   3.045   7.021   0.057
  843SOL     OW 3427   2.296   2.050   1.829
  843SOL    HW1 3428   2.232   1.974   1.838
  843SOL    HW2 3429   2.290   2.087   1.735
  844SOL     OW 3430   0.279   6.683   1.173
  844SOL    HW1 3431   0.225   6.644   1.099
  844SOL    HW2 3432   0.262   6.631   1.257
  845SOL     OW 3433   4.130   1.880   2.983
  845SOL    HW1 3434   4.075   1.932   2.917
  845SOL    HW2 3435   4.165   1.943   3.053
  846SOL     OW 3436   3.224   1.446   6.389
  846SOL    HW1 3437   3.264   1.357   6.409
  846SOL    HW2 3438   3.200   1.491   6.476
  847SOL     OW 3439   2.552   3.428   1.651
  847SOL    HW1 3440   2.495   3.461   1.726
  847SOL    HW2 3441   2.602   3.347   1.680
  848SOL     OW 3442   5.878   6.683   6.073
  848SOL    HW1 3443   5.866   6.701   6.171
  848SOL    HW2 3444   5.913   6.765   6.028
  849SOL     OW 3445   5.630   3.842   0.382
  849SOL    HW1 3446   5.534   3.853   0.359
  849SOL    HW2 3447   5.661   3.751   0.352
  850SOL     OW 3448   6.654   0.802   4.678
  850SOL    HW1 3449   6.558   0.823   4.696
  850SOL    HW2 3450   6.689   0.739   4.748
  851SOL     OW 3451   6.576   3.419   0.219
  851SOL    HW1 3452   6.554   3.365   0.301
  851SOL    HW2 3453   6.554   3.515   0.235
  852SOL     OW 3454   6.616   4.534   1.102
  852SOL    HW1 3455   6.605   4.631   1.126
  852SOL    HW2 3456   6.646   4.483   1.182
  853SOL     OW 3457   1.990   4.508   0.542
  853SOL    HW1 3458   2.054   4.493   0.617
  853SOL    HW2 3459   2.040   4.535   0.460
  854SOL     OW 3460   6.029   6.358   0.158
  854SOL    HW1 3461   6.012   6.442   0.106
  854SOL    HW2 3462   5.995   6.279   0.107
  855SOL     OW 3463   6.880   0.610   0.391
  855SOL    HW1 3464   6.781   0.612   0.374
  855SOL    HW2 3465   6.897   0.578   0.484
  856SOL     OW 3466   1.994   6.640   6.680
  856SOL    HW1 3467   2.058   6.565   6.667
  856SOL    HW2 3468   1.996   6.669   6.775
  857SOL     OW 3469   0.122   4.286   2.822
  857SOL    HW1 3470   0.210   4.243   2.843
  857SOL    HW2 3471   0.048   4.222   2.844
  858SOL     OW 3472   3.477   4.105   0.908
  858SOL    HW1 3473   3.431   4.194   0.912
  858SOL    HW2 3474   3.414   4.036   0.873
  859SOL     OW 3475   4.807   6.314   5.297
  859SOL    HW1 3476   4.752   6.299   5.215
  859SOL    HW2 3477   4.855   6.401   5.290
  860SOL     OW 3478   5.290   3.154   5.969
  860SOL    HW1 3479   5.226   3.077   5.973
  860SOL    HW2 3480   5.302   3.193   6.060
  861SOL     OW 3481   2.081   5.120   2.979
  861SOL    HW1 3482   2.145   5.160   2.914
  861SOL    HW2 3483   2.035   5.041   2.937
  862SOL     OW 3484   1.850   4.733   3.708
  862SOL    HW1 3485   1.869   4.738   3.610
  862SOL    HW2 3486   1.759   4.768   3.726
  863SOL     OW 3487   6.650   0.326   5.807
  863SOL    HW1 3488   6.570   0.313   5.865
  863SOL    HW2 3489   6.733   0.323   5.862
  864SOL     OW 3490   4.136   6.873   5.766
  864SOL    HW1 3491   4.075   6.900   5.840
  864SOL    HW2 3492   4.088   6.812   5.703
  865SOL     OW 3493   2.288   6.152   4.958
  865SOL    HW1 3494   2.340   6.177   4.876
  865SOL    HW2 3495   2.200   6.112   4.931
  866SOL     OW 3496   2.874   6.917   0.595
  866SOL    HW1 3497   2.969   6.901   0.621
  866SOL    HW2 3498   2.871   6.975   0.514
  867SOL     OW 3499   6.078   2.325   0.677
  867SOL    HW1 3500   6.008   2.268   0.634
  867SOL    HW2 3501   6.164   2.275   0.681
  868SOL     OW 3502   0.507   2.352   2.314
  868SOL    HW1 3503   0.587   2.410   2.298
  868SOL    HW2 3504   0.533   2.277   2.375
  869SOL     OW 3505   6.847   3.758   3.781
  869SOL    HW1 3506   6.771   3.753   3.846
  869SOL    HW2 3507   6.922   3.811   3.821
  870SOL     OW 3508   3.599   5.160   1.465
  870SOL    HW1 3509   3.504   5.191   1.474
  870SOL    HW2 3510   3.608   5.069   1.506
  871SOL     OW 3511   4.768   2.470   4.033
  871SOL    HW1 3512   4.801   2.461   3.939
  871SOL    HW2 3513   4.709   2.551   4.039
  872SOL     OW 3514   0.137   2.052   4.669
  872SOL    HW1 3515   0.041   2.078   4.665
  872SOL    HW2 3516   0.182   2.102   4.743
  873SOL     OW 3517   4.828   6.229   5.794
  873SOL    HW1 3518   4.865   6.244   5.886
  873SOL    HW2 3519   4.745   6.283   5.783
  874SOL     OW 3520   6.385   4.301   6.809
  874SOL    HW1 3521   6.343   4.362   6.742
  874SOL    HW2 3522   6.441   4.233   6.762
  875SOL     OW 3523   5.309   5.023   1.297
  875SOL    HW1 3524   5.358   5.078   1.365
  875SOL    HW2 3525   5.211   5.026   1.317
  876SOL     OW 3526   0.599   5.748   1.973
  876SOL    HW1 3527   0.674   5.703   2.021
  876SOL    HW2 3528   0.528   5.681   1.951
  877SOL     OW 3529   2.965   4.609   6.615
  877SOL    HW1 3530   2.888   4.550   6.636
  877SOL    HW2 3531   2.959   4.693   6.670
  878SOL     OW 3532   4.165   0.161   4.167
  878SOL    HW1 3533   4.165   0.096   4.242
  878SOL    HW2 3534   4.077   0.209   4.165
  879SOL     OW 3535   3.788   0.397   1.674
  879SOL    HW1 3536   3.781   0.451   1.590
  879SOL    HW2 3537   3.716   0.425   1.737
  880SOL     OW 3538   3.470   4.101   3.877
  880SOL    HW1 3539   3.566   4.074   3.884
  880SOL    HW2 3540   3.452   4.139   3.787
  881SOL     OW 3541   5.046   3.114   4.645
  881SOL    HW1 3542   5.061   3.048   4.719
  881SOL    HW2 3543   5.015   3.200   4.684
  882SOL     OW 3544   0.776   3.477   4.186
  882SOL    HW1 3545   0.764   3.475   4.087
  882SOL    HW2 3546   0.738   3.394   4.226
  883SOL     OW 3547   3.118   0.565   2.181
  883SOL    HW1 3548   3.174   0.621   2.119
  883SOL    HW2 3549   3.173   0.539   2.260
  884SOL     OW 3550   4.918   3.176   5.685
  884SOL    HW1 3551   4.893   3.086   5.650
  884SOL    HW2 3552   4.838   3.236   5.682
  885SOL     OW 3553   3.363   1.127   5.325
  885SOL    HW1 3554   3.329   1.190   5.255
  885SOL    HW2 3555   3.338   1.034   5.300
  886SOL     OW 3556   3.638   0.547   0.242
  886SOL    HW1 3557   3.691   0.503   0.314
  886SOL    HW2 3558   3.691   0.549   0.157
  887SOL     OW 3559   3.852   0.247   4.098
  887SOL    HW1 3560   3.851   0.263   3.999
  887SOL    HW2 3561   3.847   0.335   4.146
  888SOL     OW 3562   0.778   6.105   2.733
  888SOL    HW1 3563   0.705   6.036   2.733
  888SOL    HW2 3564   0.809   6.119   2.639
  889SOL     OW 3565   0.557   4.035   0.785
  889SOL    HW1 3566   0.627   4.074   0.844
  889SOL    HW2 3567   0.491   3.984   0.840
  890SOL     OW 3568   1.752   5.182   3.489
  890SOL    HW1 3569   1.782   5.100   3.538
  890SOL    HW2 3570   1.826   5.215   3.431
  891SOL     OW 3571   5.320   5.641   0.482
  891SOL    HW1 3572   5.344   5.635   0.579
  891SOL    HW2 3573   5.326   5.550   0.442
  892SOL     OW 3574   2.559   3.585   5.330
  892SOL    HW1 3575   2.620   3.662   5.347
  892SOL    HW2 3576   2.601   3.502   5.367
  893SOL     OW 3577   2.417   6.722   3.123
  893SOL    HW1 3578   2.371   6.647   3.075
  893SOL    HW2 3579   2.389   6.722   3.219
  894SOL     OW 3580   0.947   3.446   1.461
  894SOL    HW1 3581   0.957   3.350   1.487
  894SOL    HW2 3582   0.859   3.460   1.417
  895SOL     OW 3583   0.734   4.432   3.705
  895SOL    HW1 3584   0.712   4.489   3.626
  895SOL    HW2 3585   0.813   4.374   3.683
  896SOL     OW 3586   5.787   4.715   0.456
  896SOL    HW1 3587   5.692   4.706   0.427
  896SOL    HW2 3588   5.791   4.766   0.542
  897SOL     OW 3589   4.856   1.389   0.122
  897SOL    HW1 3590   4.770   1.385   0.071
  897SOL    HW2 3591   4.891   1.297   0.135
  898SOL     OW 3592   3.215   6.103   2.927
  898SOL    HW1 3593   3.163   6.187   2.943
  898SOL    HW2 3594   3.299   6.125   2.877
  899SOL     OW 3595   0.187   6.144   6.871
  899SOL    HW1 3596   0.166   6.085   6.949
  899SOL    HW2 3597   0.105   6.158   6.816
  900SOL     OW 3598   6.075   6.545   0.547
  900SOL    HW1 3599   6.094   6.607   0.472
  900SOL    HW2 3600   6.011   6.474   0.518
  901SOL     OW 3601   2.263   0.883   3.102
  901SOL    HW1 3602   2.219   0.810   3.050
  901SOL    HW2 3603   2.255   0.969   3.053
  902SOL     OW 3604   7.016   2.435   0.564
  902SOL    HW1 3605   0.037   2.508   0.515
  902SOL    HW2 3606   6.933   2.472   0.607
  903SOL     OW 3607   6.522   2.375   6.734
  903SOL    HW1 3608   6.584   2.375   6.656
  903SOL    HW2 3609   6.512   2.468   6.768
  904SOL     OW 3610   2.555   2.272   3.325
  904SOL    HW1 3611   2.496   2.305   3.399
  904SOL    HW2 3612   2.569   2.174   3.334
  905SOL     OW 3613   5.268   2.040   0.152
  905SOL    HW1 3614   5.220   2.071   0.070
  905SOL    HW2 3615   5.304   2.119   0.201
  906SOL     OW 3616   0.287   2.165   5.766
  906SOL    HW1 3617   0.361   2.169   5.699
  906SOL    HW2 3618   0.321   2.128   5.852
  907SOL     OW 3619   5.085   3.978   0.427
  907SOL    HW1 3620   4.994   4.005   0.460
  907SOL    HW2 3621   5.076   3.940   0.335
  908SOL     OW 3622   2.818   4.839   2.999
  908SOL    HW1 3623   2.748   4.784   2.953
  908SOL    HW2 3624   2.904   4.833   2.949
  909SOL     OW 3625   4.239   5.649   0.781
  909SOL    HW1 3626   4.181   5.695   0.849
  909SOL    HW2 3627   4.335   5.654   0.810
  910SOL     OW 3628   2.829   2.848   1.484
  910SOL    HW1 3629   2.859   2.942   1.468
  910SOL    HW2 3630   2.730   2.841   1.467
  911SOL     OW 3631   1.081   6.033   6.481
  911SOL    HW1 3632   1.058   5.983   6.565
  911SOL    HW2 3633   1.005   6.026   6.417
  912SOL     OW 3634   5.792   2.351   2.755
  912SOL    HW1 3635   5.881   2.307   2.744
  912SOL    HW2 3636   5.759   2.336   2.848
  913SOL     OW 3637   4.427   6.118   3.055
  913SOL    HW1 3638   4.359   6.045   3.059
  913SOL    HW2 3639   4.381   6.205   3.035
  914SOL     OW 3640   1.957   0.215   6.388
  914SOL    HW1 3641   2.013   0.185   6.311
  914SOL    HW2 3642   1.879   0.268   6.354
  915SOL     OW 3643   6.066   4.020   6.438
  915SOL    HW1 3644   6.020   4.035   6.350
  915SOL    HW2 3645   5.997   3.997   6.507
  916SOL     OW 3646   1.769   2.499   2.161
  916SOL    HW1 3647   1.773   2.595   2.190
  916SOL    HW2 3648   1.752   2.495   2.062
  917SOL     OW 3649   0.182   6.135   0.701
  917SOL    HW1 3650   0.216   6.227   0.715
  917SOL    HW2 3651   0.091   6.138   0.658
  918SOL     OW 3652   2.820   0.179   0.457
  918SOL    HW1 3653   2.917   0.182   0.433
  918SOL    HW2 3654   2.809   0.207   0.553
  919SOL     OW 3655   5.637   1.366   3.286
  919SOL    HW1 3656   5.698   1.396   3.214
  919SOL    HW2 3657   5.550   1.336   3.247
  920SOL     OW 3658   2.212   4.541   1.706
  920SOL    HW1 3659   2.194   4.635   1.737
  920SOL    HW2 3660   2.127   4.489   1.708
  921SOL     OW 3661   5.244   5.426   4.502
  921SOL    HW1 3662   5.335   5.432   4.542
  921SOL    HW2 3663   5.217   5.331   4.495
  922SOL     OW 3664   3.843   3.785   4.597
  922SOL    HW1 3665   3.814   3.867   4.645
  922SOL    HW2 3666   3.807   3.704   4.644
  923SOL     OW 3667   2.237   2.641   6.126
  923SOL    HW1 3668   2.202   2.651   6.033
  923SOL    HW2 3669   2.334   2.665   6.127
  924SOL     OW 3670   6.243   3.792   2.144
  924SOL    HW1 3671   6.195   3.712   2.179
  924SOL    HW2 3672   6.265   3.853   2.220
  925SOL     OW 3673   6.753   2.706   6.988
  925SOL    HW1 3674   6.709   2.670   0.044
  925SOL    HW2 3675   6.821   2.640   6.956
  926SOL     OW 3676   6.816   1.917   1.240
  926SOL    HW1 3677   6.799   1.843   1.306
  926SOL    HW2 3678   6.903   1.902   1.195
  927SOL     OW 3679   5.998   3.754   3.472
  927SOL    HW1 3680   6.082   3.702   3.487
  927SOL    HW2 3681   5.922   3.709   3.518
  928SOL     OW 3682   2.539   6.552   0.713
  928SOL    HW1 3683   2.493   6.574   0.799
  928SOL    HW2 3684   2.579   6.636   0.674
  929SOL     OW 3685   6.754   0.556   0.014
  929SOL    HW1 3686   6.691   0.490   0.054
  929SOL    HW2 3687   6.708   0.644   0.004
  930SOL     OW 3688   4.191   5.623   6.498
  930SOL    HW1 3689   4.101   5.638   6.458
  930SOL    HW2 3690   4.185   5.554   6.570
  931SOL     OW 3691   6.592   2.112   3.813
  931SOL    HW1 3692   6.671   2.055   3.831
  931SOL    HW2 3693   6.530   2.064   3.751
  932SOL     OW 3694   3.068   1.718   3.710
  932SOL    HW1 3695   3.072   1.657   3.631
  932SOL    HW2 3696   2.981   1.768   3.709
  933SOL     OW 3697   1.268   4.651   2.549
  933SOL    HW1 3698   1.319   4.594   2.486
  933SOL    HW2 3699   1.321   4.663   2.633
  934SOL     OW 3700   2.891   5.944   5.795
  934SOL    HW1 3701   2.800   5.968   5.831
  934SOL    HW2 3702   2.926   5.865   5.846
  935SOL     OW 3703   5.113   4.052   3.543
  935SOL    HW1 3704   5.157   4.063   3.632
  935SOL    HW2 3705   5.162   3.983   3.490
  936SOL     OW 3706   1.590   0.131   6.058
  936SOL    HW1 3707   1.532   0.107   6.135
  936SOL    HW2 3708   1.613   0.049   6.006
  937SOL     OW 3709   5.070   1.269   5.700
  937SOL    HW1 3710   5.044   1.355   5.744
  937SOL    HW2 3711   5.005   1.247   5.628
  938SOL     OW 3712   6.961   5.559   3.935
  938SOL    HW1 3713   6.904   5.492   3.887
  938SOL    HW2 3714   0.022   5.570   3.886
  939SOL     OW 3715   6.880   6.825   4.523
  939SOL    HW1 3716   6.972   6.803   4.557
  939SOL    HW2 3717   6.826   6.741   4.518
  940SOL     OW 3718   1.023   4.559   0.999
  940SOL    HW1 3719   0.981   4.545   0.909
  940SOL    HW2 3720   1.022   4.656   1.022
  941SOL     OW 3721   4.684   0.268   6.657
  941SOL    HW1 3722   4.686   0.198   6.586
  941SOL    HW2 3723   4.653   0.228   6.743
  942SOL     OW 3724   6.470   6.353   1.262
  942SOL    HW1 3725   6.541   6.324   1.198
  942SOL    HW2 3726   6.500   6.433   1.312
  943SOL     OW 3727   2.517   4.864   2.578
  943SOL    HW1 3728   2.604   4.908   2.555
  943SOL    HW2 3729   2.450   4.933   2.604
  944SOL     OW 3730   0.709   5.553   4.377
  944SOL    HW1 3731   0.784   5.609   4.413
  944SOL    HW2 3732   0.670   5.597   4.297
  945SOL     OW 3733   0.901   5.001   5.288
  945SOL    HW1 3734   0.978   4.997   5.353
  945SOL    HW2 3735   0.936   5.003   5.195
  946SOL     OW 3736   4.913   4.424   4.443
  946SOL    HW1 3737   4.972   4.353   4.404
  946SOL    HW2 3738   4.967   4.503   4.469
  947SOL     OW 3739   4.130   3.573   3.621
  947SOL    HW1 3740   4.225   3.548   3.634
  947SOL    HW2 3741   4.099   3.628   3.699
  948SOL     OW 3742   5.092   1.329   2.671
  948SOL    HW1 3743   5.086   1.318   2.770
  948SOL    HW2 3744   5.025   1.269   2.627
  949SOL     OW 3745   3.086   6.342   0.151
  949SOL    HW1 3746   3.075   6.253   0.108
  949SOL    HW2 3747   3.019   6.352   0.224
  950SOL     OW 3748   6.449   5.711   2.000
  950SOL    HW1 3749   6.458   5.611   2.008
  950SOL    HW2 3750   6.456   5.752   2.091
  951SOL     OW 3751   1.445   6.973   3.820
  951SOL    HW1 3752   1.533   6.952   3.776
  951SOL    HW2 3753   1.435   0.046   3.829
  952SOL     OW 3754   3.960   2.083   2.850
  952SOL    HW1 3755   3.905   2.118   2.926
  952SOL    HW2 3756   4.035   2.146   2.832
  953SOL     OW 3757   6.707   6.001   4.829
  953SOL    HW1 3758   6.751   5.978   4.743
  953SOL    HW2 3759   6.642   6.075   4.814
  954SOL     OW 3760   4.502   5.619   2.743
  954SOL    HW1 3761   4.454   5.540   2.704
  954SOL    HW2 3762   4.446   5.661   2.814
  955SOL     OW 3763   1.827   4.331   0.406
  955SOL    HW1 3764   1.880   4.397   0.458
  955SOL    HW2 3765   1.729   4.344   0.425
  956SOL     OW 3766   0.318   1.099   1.184
  956SOL    HW1 3767   0.276   1.140   1.264
  956SOL    HW2 3768   0.328   1.168   1.112
  957SOL     OW 3769   6.346   1.244   2.136
  957SOL    HW1 3770   6.278   1.228   2.064
  957SOL    HW2 3771   6.320   1.192   2.218
  958SOL     OW 3772   5.229   6.283   2.219
  958SOL    HW1 3773   5.135   6.260   2.194
  958SOL    HW2 3774   5.229   6.365   2.275
  959SOL     OW 3775   3.323   6.978   4.673
  959SOL    HW1 3776   3.318   6.880   4.655
  959SOL    HW2 3777   3.409   7.000   4.718
  960SOL     OW 3778   1.109   0.519   0.880
  960SOL    HW1 3779   1.105   0.598   0.941
  960SOL    HW2 3780   1.187   0.527   0.819
  961SOL     OW 3781   3.616   7.007   3.253
  961SOL    HW1 3782   3.672   7.020   3.335
  961SOL    HW2 3783   3.667   0.013   3.172
  962SOL     OW 3784   6.230   0.095   5.139
  962SOL    HW1 3785   6.232   0.156   5.060
  962SOL    HW2 3786   6.319   0.096   5.184
  963SOL     OW 3787   4.279   1.832   1.521
  963SOL    HW1 3788   4.303   1.755   1.463
  963SOL    HW2 3789   4.310   1.917   1.479
  964SOL     OW 3790   4.893   4.459   5.354
  964SOL    HW1 3791   4.875   4.549   5.315
  964SOL    HW2 3792   4.923   4.397   5.282
  965SOL     OW 3793   5.973   2.240   2.373
  965SOL    HW1 3794   5.954   2.160   2.317
  965SOL    HW2 3795   6.001   2.211   2.465
  966SOL     OW 3796   5.036   2.071   3.477
  966SOL    HW1 3797   4.983   2.043   3.396
  966SOL    HW2 3798   4.989   2.146   3.523
  967SOL     OW 3799   3.877   4.423   6.411
  967SOL    HW1 3800   3.882   4.479   6.328
  967SOL    HW2 3801   3.919   4.334   6.393
  968SOL     OW 3802   3.283   0.203   1.530
  968SOL    HW1 3803   3.266   0.300   1.511
  968SOL    HW2 3804   3.354   0.169   1.468
  969SOL     OW 3805   3.154   5.045   5.876
  969SOL    HW1 3806   3.246   5.011   5.892
  969SOL    HW2 3807   3.120   5.010   5.789
  970SOL     OW 3808   6.460   0.836   5.691
  970SOL    HW1 3809   6.467   0.890   5.607
  970SOL    HW2 3810   6.500   0.745   5.677
  971SOL     OW 3811   0.057   3.936   2.699
  971SOL    HW1 3812   6.993   3.979   2.691
  971SOL    HW2 3813   0.052   3.841   2.669
  972SOL     OW 3814   6.501   2.506   1.079
  972SOL    HW1 3815   6.500   2.408   1.098
  972SOL    HW2 3816   6.478   2.521   0.982
  973SOL     OW 3817   0.401   4.042   6.171
  973SOL    HW1 3818   0.315   4.088   6.147
  973SOL    HW2 3819   0.446   4.092   6.245
  974SOL     OW 3820   0.456   4.944   3.165
  974SOL    HW1 3821   0.482   5.037   3.140
  974SOL    HW2 3822   0.375   4.946   3.224
  975SOL     OW 3823   2.336   0.098   1.368
  975SOL    HW1 3824   2.366   0.180   1.416
  975SOL    HW2 3825   2.348   0.018   1.427
  976SOL     OW 3826   6.442   4.306   1.503
  976SOL    HW1 3827   6.375   4.332   1.573
  976SOL    HW2 3828   6.397   4.250   1.434
  977SOL     OW 3829   0.785   1.679   2.046
  977SOL    HW1 3830   0.774   1.602   2.110
  977SOL    HW2 3831   0.718   1.671   1.973
  978SOL     OW 3832   5.497   2.145   1.286
  978SOL    HW1 3833   5.563   2.104   1.223
  978SOL    HW2 3834   5.408   2.100   1.276
  979SOL     OW 3835   6.896   2.999   6.421
  979SOL    HW1 3836   6.838   3.077   6.399
  979SOL    HW2 3837   6.966   3.026   6.486
  980SOL     OW 3838   3.988   1.172   4.731
  980SOL    HW1 3839   3.910   1.202   4.786
  980SOL    HW2 3840   4.070   1.222   4.760
  981SOL     OW 3841   6.707   6.845   4.975
  981SOL    HW1 3842   6.764   6.869   5.054
  981SOL    HW2 3843   6.657   6.761   4.994
  982SOL     OW 3844   0.198   1.951   5.399
  982SOL    HW1 3845   0.258   1.872   5.406
  982SOL    HW2 3846   0.103   1.921   5.391
  983SOL     OW 3847   6.772   3.449   3.143
  983SOL    HW1 3848   6.672   3.441   3.138
  983SOL    HW2 3849   6.797   3.537   3.184
  984SOL     OW 3850   1.887   1.934   3.086
  984SOL    HW1 3851   1.862   1.987   3.167
  984SOL    HW2 3852   1.953   1.987   3.032
  985SOL     OW 3853   5.984   3.697   4.237
  985SOL    HW1 3854   6.053   3.705   4.165
  985SOL    HW2 3855   5.952   3.603   4.241
  986SOL     OW 3856   5.019   4.038   1.315
  986SOL    HW1 3857   4.979   4.116   1.363
  986SOL    HW2 3858   4.962   4.015   1.236
  987SOL     OW 3859   5.435   6.029   3.425
  987SOL    HW1 3860   5.384   5.954   3.383
  987SOL    HW2 3861   5.443   6.104   3.360
  988SOL     OW 3862   3.402   4.064   2.133
  988SOL    HW1 3863   3.490   4.110   2.140
  988SOL    HW2 3864   3.386   4.036   2.038
  989SOL     OW 3865   0.143   2.203   0.593
  989SOL    HW1 3866   0.106   2.117   0.629
  989SOL    HW2 3867   0.068   2.261   0.563
  990SOL     OW 3868   3.208   0.526   3.072
  990SOL    HW1 3869   3.148   0.589   3.121
  990SOL    HW2 3870   3.215   0.440   3.123
  991SOL     OW 3871   7.012   4.307   3.727
  991SOL    HW1 3872   6.943   4.237   3.711
  991SOL    HW2 3873   0.015   4.304   3.822
  992SOL     OW 3874   0.851   2.913   1.205
  992SOL    HW1 3875   0.944   2.891   1.232
  992SOL    HW2 3876   0.788   2.843   1.241
  993SOL     OW 3877   1.180   4.123   1.503
  993SOL    HW1 3878   1.229   4.126   1.416
  993SOL    HW2 3879   1.245   4.131   1.578
  994SOL     OW 3880   3.658   6.515   1.028
  994SOL    HW1 3881   3.625   6.424   1.005
  994SOL    HW2 3882   3.666   6.570   0.944
  995SOL     OW 3883   4.577   3.507   5.798
  995SOL    HW1 3884   4.636   3.453   5.737
  995SOL    HW2 3885   4.485   3.468   5.798
  996SOL     OW 3886   4.555   5.643   5.418
  996SOL    HW1 3887   4.471   5.672   5.371
  996SOL    HW2 3888   4.634   5.668   5.364
  997SOL     OW 3889   1.524   6.811   3.310
  997SOL    HW1 3890   1.558   6.743   3.375
  997SOL    HW2 3891   1.598   6.875   3.288
  998SOL     OW 3892   6.017   0.092   6.172
  998SOL    HW1 3893   5.949   0.023   6.151
  998SOL    HW2 3894   6.034   0.094   6.270
  999SOL     OW 3895   4.692   3.689   1.481
  999SOL    HW1 3896   4.632   3.714   1.558
  999SOL    HW2 3897   4.779   3.737   1.489
 1000SOL     OW 3898   3.995   1.472   1.461
 1000SOL    HW1 3899   3.959   1.535   1.392
 1000SOL    HW2 3900   4.062   1.519   1.518
 1001SOL     OW 3901   2.514   6.182   2.018
 1001SOL    HW1 3902   2.467   6.270   2.006
 1001SOL    HW2 3903   2.447   6.110   2.035
 1002SOL     OW 3904   5.102   2.056   1.603
 1002SOL    HW1 3905   5.050   2.014   1.677
 1002SOL    HW2 3906   5.144   2.140   1.635
 1003SOL     OW 3907   1.452   6.524   2.600
 1003SOL    HW1 3908   1.401   6.469   2.535
 1003SOL    HW2 3909   1.395   6.543   2.680
 1004SOL     OW 3910   6.482   1.283   2.498
 1004SOL    HW1 3911   6.408   1.341   2.463
 1004SOL    HW2 3912   6.445   1.219   2.565
 1005SOL     OW 3913   1.693   4.101   4.007
 1005SOL    HW1 3914   1.749   4.031   3.963
 1005SOL    HW2 3915   1.686   4.181   3.948
 1006SOL     OW 3916   2.337   4.009   0.539
 1006SOL    HW1 3917   2.332   4.021   0.440
 1006SOL    HW2 3918   2.258   3.955   0.570
 1007SOL     OW 3919   4.486   1.460   6.779
 1007SOL    HW1 3920   4.433   1.491   6.700
 1007SOL    HW2 3921   4.584   1.474   6.762
 1008SOL     OW 3922   0.797   3.808   5.388
 1008SOL    HW1 3923   0.875   3.820   5.449
 1008SOL    HW2 3924   0.808   3.723   5.336
 1009SOL     OW 3925   6.108   5.002   5.158
 1009SOL    HW1 3926   6.187   5.061   5.141
 1009SOL    HW2 3927   6.090   4.996   5.256
 1010SOL     OW 3928   2.364   2.353   1.811
 1010SOL    HW1 3929   2.361   2.397   1.901
 1010SOL    HW2 3930   2.403   2.262   1.820
 1011SOL     OW 3931   0.847   5.453   2.956
 1011SOL    HW1 3932   0.870   5.486   3.048
 1011SOL    HW2 3933   0.917   5.482   2.892
 1012SOL     OW 3934   6.743   6.908   2.312
 1012SOL    HW1 3935   6.697   6.996   2.298
 1012SOL    HW2 3936   6.812   6.917   2.383
 1013SOL     OW 3937   6.860   0.716   5.921
 1013SOL    HW1 3938   6.780   0.764   5.957
 1013SOL    HW2 3939   6.933   0.782   5.903
 1014SOL     OW 3940   1.132   4.528   4.560
 1014SOL    HW1 3941   1.182   4.600   4.609
 1014SOL    HW2 3942   1.124   4.447   4.618
 1015SOL     OW 3943   3.113   0.342   6.170
 1015SOL    HW1 3944   3.186   0.363   6.234
 1015SOL    HW2 3945   3.114   0.244   6.150
 1016SOL     OW 3946   4.917   4.310   1.082
 1016SOL    HW1 3947   4.928   4.385   1.017
 1016SOL    HW2 3948   5.006   4.288   1.123
 1017SOL     OW 3949   2.336   1.606   2.000
 1017SOL    HW1 3950   2.347   1.538   1.926
 1017SOL    HW2 3951   2.268   1.674   1.972
 1018SOL     OW 3952   6.760   4.597   3.895
 1018SOL    HW1 3953   6.824   4.621   3.822
 1018SOL    HW2 3954   6.808   4.545   3.966
 1019SOL     OW 3955   6.709   5.288   0.330
 1019SOL    HW1 3956   6.727   5.284   0.428
 1019SOL    HW2 3957   6.747   5.372   0.292
 1020SOL     OW 3958   6.621   0.476   1.248
 1020SOL    HW1 3959   6.609   0.425   1.163
 1020SOL    HW2 3960   6.630   0.573   1.227
 1021SOL     OW 3961   6.445   5.824   2.274
 1021SOL    HW1 3962   6.463   5.804   2.370
 1021SOL    HW2 3963   6.421   5.921   2.264
 1022SOL     OW 3964   2.951   6.160   5.646
 1022SOL    HW1 3965   2.943   6.078   5.702
 1022SOL    HW2 3966   2.933   6.241   5.703
 1023SOL     OW 3967   6.728   1.023   2.384
 1023SOL    HW1 3968   6.671   1.099   2.353
 1023SOL    HW2 3969   6.821   1.034   2.349
 1024SOL     OW 3970   0.792   1.232   4.479
 1024SOL    HW1 3971   0.834   1.212   4.568
 1024SOL    HW2 3972   0.696   1.258   4.494
 1025SOL     OW 3973   4.870   3.512   0.251
 1025SOL    HW1 3974   4.812   3.462   0.316
 1025SOL    HW2 3975   4.957   3.464   0.240
 1026SOL     OW 3976   2.961   2.632   1.712
 1026SOL    HW1 3977   2.957   2.532   1.716
 1026SOL    HW2 3978   2.868   2.669   1.707
 1027SOL     OW 3979   1.342   6.245   1.908
 1027SOL    HW1 3980   1.273   6.282   1.846
 1027SOL    HW2 3981   1.297   6.203   1.987
 1028SOL     OW 3982   1.299   6.277   3.141
 1028SOL    HW1 3983   1.240   6.307   3.216
 1028SOL    HW2 3984   1.354   6.354   3.110
 1029SOL     OW 3985   1.024   2.015   5.958
 1029SOL    HW1 3986   1.107   1.981   5.914
 1029SOL    HW2 3987   0.974   1.939   5.999
 1030SOL     OW 3988   3.342   3.326   1.688
 1030SOL    HW1 3989   3.264   3.387   1.677
 1030SOL    HW2 3990   3.315   3.246   1.740
 1031SOL     OW 3991   3.718   3.195   1.711
 1031SOL    HW1 3992   3.667   3.112   1.736
 1031SOL    HW2 3993   3.757   3.183   1.619
 1032SOL     OW 3994   2.477   1.284   5.212
 1032SOL    HW1 3995   2.397   1.328   5.174
 1032SOL    HW2 3996   2.513   1.217   5.147
 1033SOL     OW 3997   1.504   6.080   2.215
 1033SOL    HW1 3998   1.409   6.097   2.190
 1033SOL    HW2 3999   1.548   6.166   2.240
 1034SOL     OW 4000   2.465   6.149   4.304
 1034SOL    HW1 4001   2.459   6.154   4.404
 1034SOL    HW2 4002   2.559   6.167   4.275
 1035SOL     OW 4003   0.746   2.543   5.909
 1035SOL    HW1 4004   0.779   2.467   5.965
 1035SOL    HW2 4005   0.653   2.566   5.937
 1036SOL     OW 4006   4.843   1.324   1.308
 1036SOL    HW1 4007   4.883   1.395   1.251
 1036SOL    HW2 4008   4.754   1.299   1.272
 1037SOL     OW 4009   1.751   2.165   2.291
 1037SOL    HW1 4010   1.762   2.181   2.193
 1037SOL    HW2 4011   1.749   2.253   2.339
 1038SOL     OW 4012   1.788   1.291   6.672
 1038SOL    HW1 4013   1.879   1.253   6.655
 1038SOL    HW2 4014   1.777   1.309   6.770
 1039SOL     OW 4015   3.042   3.190   3.935
 1039SOL    HW1 4016   2.982   3.269   3.921
 1039SOL    HW2 4017   3.137   3.216   3.919
 1040SOL     OW 4018   5.051   0.607   3.401
 1040SOL    HW1 4019   5.148   0.608   3.377
 1040SOL    HW2 4020   5.016   0.700   3.404
 1041SOL     OW 4021   6.981   6.776   4.151
 1041SOL    HW1 4022   6.992   6.853   4.215
 1041SOL    HW2 4023   0.030   6.711   4.165
 1042SOL     OW 4024   4.980   4.882   2.889
 1042SOL    HW1 4025   4.912   4.942   2.847
 1042SOL    HW2 4026   4.971   4.885   2.989
 1043SOL     OW 4027   3.569   1.623   3.114
 1043SOL    HW1 4028   3.479   1.592   3.083
 1043SOL    HW2 4029   3.625   1.544   3.140
 1044SOL     OW 4030   6.308   5.823   1.396
 1044SOL    HW1 4031   6.306   5.766   1.314
 1044SOL    HW2 4032   6.295   5.919   1.370
 1045SOL     OW 4033   2.590   0.125   3.071
 1045SOL    HW1 4034   2.614   0.221   3.079
 1045SOL    HW2 4035   2.597   0.097   2.975
 1046SOL     OW 4036   2.638   1.045   1.005
 1046SOL    HW1 4037   2.553   1.061   1.054
 1046SOL    HW2 4038   2.695   1.128   1.008
 1047SOL     OW 4039   3.183   0.036   4.154
 1047SOL    HW1 4040   3.181   6.972   4.112
 1047SOL    HW2 4041   3.190   0.027   4.254
 1048SOL     OW 4042   2.707   5.841   2.472
 1048SOL    HW1 4043   2.782   5.906   2.460
 1048SOL    HW2 4044   2.620   5.890   2.473
 1049SOL     OW 4045   4.418   0.072   4.055
 1049SOL    HW1 4046   4.327   0.103   4.081
 1049SOL    HW2 4047   4.434   0.093   3.959
 1050SOL     OW 4048   3.798   5.341   2.930
 1050SOL    HW1 4049   3.789   5.340   3.029
 1050SOL    HW2 4050   3.707   5.348   2.888
 1051SOL     OW 4051   6.988   6.182   0.396
 1051SOL    HW1 4052   6.897   6.143   0.384
 1051SOL    HW2 4053   6.986   6.248   0.472
 1052SOL     OW 4054   4.078   0.399   5.698
 1052SOL    HW1 4055   4.158   0.458   5.708
 1052SOL    HW2 4056   4.081   0.355   5.608
 1053SOL     OW 4057   5.634   3.407   2.101
 1053SOL    HW1 4058   5.644   3.324   2.046
 1053SOL    HW2 4059   5.686   3.481   2.058
 1054SOL     OW 4060   3.119   3.704   0.970
 1054SOL    HW1 4061   3.219   3.695   0.966
 1054SOL    HW2 4062   3.083   3.643   1.040
 1055SOL     OW 4063   5.548   5.511   6.315
 1055SOL    HW1 4064   5.466   5.559   6.344
 1055SOL    HW2 4065   5.606   5.493   6.395
 1056SOL     OW 4066   1.861   3.935   0.742
 1056SOL    HW1 4067   1.852   3.838   0.717
 1056SOL    HW2 4068   1.786   3.961   0.802
 1057SOL     OW 4069   3.362   1.875   1.873
 1057SOL    HW1 4070   3.297   1.862   1.949
 1057SOL    HW2 4071   3.446   1.825   1.892
 1058SOL     OW 4072   4.060   2.242   3.285
 1058SOL    HW1 4073   4.104   2.275   3.368
 1058SOL    HW2 4074   3.983   2.183   3.310
 1059SOL     OW 4075   2.756   6.685   2.127
 1059SOL    HW1 4076   2.694   6.754   2.091
 1059SOL    HW2 4077   2.806   6.643   2.052
 1060SOL     OW 4078   0.456   5.169   4.433
 1060SOL    HW1 4079   0.524   5.165   4.360
 1060SOL    HW2 4080   0.463   5.257   4.481
 1061SOL     OW 4081   6.392   4.158   0.022
 1061SOL    HW1 4082   6.420   4.216   6.972
 1061SOL    HW2 4083   6.298   4.128   0.009
 1062SOL     OW 4084   4.462   6.586   5.019
 1062SOL    HW1 4085   4.446   6.626   5.110
 1062SOL    HW2 4086   4.395   6.514   5.002
 1063SOL     OW 4087   0.731   6.969   5.840
 1063SOL    HW1 4088   0.661   6.969   5.912
 1063SOL    HW2 4089   0.713   6.895   5.776
 1064SOL     OW 4090   0.636   4.539   1.662
 1064SOL    HW1 4091   0.687   4.624   1.672
 1064SOL    HW2 4092   0.545   4.559   1.626
 1065SOL     OW 4093   3.642   1.145   3.580
 1065SOL    HW1 4094   3.658   1.065   3.523
 1065SOL    HW2 4095   3.559   1.192   3.550
 1066SOL     OW 4096   5.054   6.686   2.292
 1066SOL    HW1 4097   4.965   6.666   2.334
 1066SOL    HW2 4098   5.047   6.670   2.193
 1067SOL     OW 4099   2.841   1.082   6.998
 1067SOL    HW1 4100   2.793   1.170   6.998
 1067SOL    HW2 4101   2.779   1.011   6.966
 1068SOL     OW 4102   6.265   4.171   1.312
 1068SOL    HW1 4103   6.181   4.155   1.261
 1068SOL    HW2 4104   6.331   4.218   1.254
 1069SOL     OW 4105   5.843   4.895   0.661
 1069SOL    HW1 4106   5.920   4.834   0.680
 1069SOL    HW2 4107   5.867   4.957   0.587
 1070SOL     OW 4108   2.479   0.064   2.450
 1070SOL    HW1 4109   2.408   0.128   2.477
 1070SOL    HW2 4110   2.460   0.029   2.358
 1071SOL     OW 4111   0.284   2.277   4.869
 1071SOL    HW1 4112   0.349   2.328   4.813
 1071SOL    HW2 4113   0.258   2.332   4.949
 1072SOL     OW 4114   2.169   0.486   1.653
 1072SOL    HW1 4115   2.120   0.457   1.735
 1072SOL    HW2 4116   2.184   0.585   1.656
 1073SOL     OW 4117   5.929   2.015   2.991
 1073SOL    HW1 4118   5.959   1.921   3.007
 1073SOL    HW2 4119   5.835   2.025   3.022
 1074SOL     OW 4120   2.745   5.273   2.343
 1074SOL    HW1 4121   2.740   5.183   2.299
 1074SOL    HW2 4122   2.777   5.262   2.437
 1075SOL     OW 4123   5.813   1.441   4.775
 1075SOL    HW1 4124   5.769   1.490   4.701
 1075SOL    HW2 4125   5.872   1.369   4.738
 1076SOL     OW 4126   2.182   3.629   5.499
 1076SOL    HW1 4127   2.099   3.577   5.482
 1076SOL    HW2 4128   2.228   3.649   5.413
 1077SOL     OW 4129   6.876   0.230   0.129
 1077SOL    HW1 4130   6.844   0.164   0.061
 1077SOL    HW2 4131   6.894   0.318   0.084
 1078SOL     OW 4132   6.621   0.088   3.316
 1078SOL    HW1 4133   6.587   0.036   3.394
 1078SOL    HW2 4134   6.717   0.063   3.299
 1079SOL     OW 4135   1.267   5.403   2.732
 1079SOL    HW1 4136   1.217   5.449   2.805
 1079SOL    HW2 4137   1.261   5.304   2.743
 1080SOL     OW 4138   2.269   5.805   5.377
 1080SOL    HW1 4139   2.346   5.867   5.386
 1080SOL    HW2 4140   2.302   5.714   5.350
 1081SOL     OW 4141   7.008   5.702   4.371
 1081SOL    HW1 4142   6.915   5.726   4.343
 1081SOL    HW2 4143   0.003   5.745   4.459
 1082SOL     OW 4144   6.145   1.417   6.058
 1082SOL    HW1 4145   6.147   1.325   6.018
 1082SOL    HW2 4146   6.150   1.410   6.158
 1083SOL     OW 4147   4.627   4.479   0.528
 1083SOL    HW1 4148   4.536   4.477   0.568
 1083SOL    HW2 4149   4.626   4.427   0.442
 1084SOL     OW 4150   6.323   6.671   6.613
 1084SOL    HW1 4151   6.260   6.709   6.546
 1084SOL    HW2 4152   6.277   6.597   6.664
 1085SOL     OW 4153   1.763   3.556   4.048
 1085SOL    HW1 4154   1.666   3.534   4.047
 1085SOL    HW2 4155   1.788   3.593   4.138
 1086SOL     OW 4156   6.857   4.362   6.242
 1086SOL    HW1 4157   6.897   4.277   6.206
 1086SOL    HW2 4158   6.834   4.422   6.165
 1087SOL     OW 4159   1.274   1.628   5.298
 1087SOL    HW1 4160   1.258   1.530   5.311
 1087SOL    HW2 4161   1.359   1.642   5.248
 1088SOL     OW 4162   0.312   5.184   3.324
 1088SOL    HW1 4163   0.322   5.185   3.423
 1088SOL    HW2 4164   0.217   5.203   3.299
 1089SOL     OW 4165   0.494   5.539   4.872
 1089SOL    HW1 4166   0.532   5.447   4.876
 1089SOL    HW2 4167   0.569   5.605   4.863
 1090SOL     OW 4168   5.820   2.121   3.404
 1090SOL    HW1 4169   5.869   2.142   3.489
 1090SOL    HW2 4170   5.729   2.163   3.407
 1091SOL     OW 4171   2.002   3.264   3.438
 1091SOL    HW1 4172   1.951   3.325   3.498
 1091SOL    HW2 4173   2.034   3.314   3.358
 1092SOL     OW 4174   0.701   4.933   1.495
 1092SOL    HW1 4175   0.747   5.022   1.499
 1092SOL    HW2 4176   0.602   4.947   1.497
 1093SOL     OW 4177   2.937   0.175   1.289
 1093SOL    HW1 4178   2.987   0.146   1.372
 1093SOL    HW2 4179   2.992   0.241   1.239
 1094SOL     OW 4180   0.646   6.823   2.717
 1094SOL    HW1 4181   0.558   6.855   2.752
 1094SOL    HW2 4182   0.645   6.723   2.710
 1095SOL     OW 4183   0.082   2.385   6.358
 1095SOL    HW1 4184   0.034   2.464   6.319
 1095SOL    HW2 4185   0.016   2.313   6.381
 1096SOL     OW 4186   2.921   5.466   0.831
 1096SOL    HW1 4187   2.940   5.391   0.894
 1096SOL    HW2 4188   2.961   5.446   0.741
 1097SOL     OW 4189   2.201   5.654   3.352
 1097SOL    HW1 4190   2.151   5.576   3.316
 1097SOL    HW2 4191   2.159   5.739   3.318
 1098SOL     OW 4192   6.029   4.091   6.798
 1098SOL    HW1 4193   6.094   4.079   6.873
 1098SOL    HW2 4194   6.013   4.004   6.753
 1099SOL     OW 4195   4.395   1.359   6.037
 1099SOL    HW1 4196   4.490   1.345   6.011
 1099SOL    HW2 4197   4.345   1.273   6.027
 1100SOL     OW 4198   3.618   1.482   3.881
 1100SOL    HW1 4199   3.579   1.574   3.892
 1100SOL    HW2 4200   3.647   1.447   3.970
 1101SOL     OW 4201   5.357   3.751   5.374
 1101SOL    HW1 4202   5.319   3.831   5.420
 1101SOL    HW2 4203   5.401   3.779   5.288
 1102SOL     OW 4204   2.422   0.792   4.702
 1102SOL    HW1 4205   2.390   0.857   4.771
 1102SOL    HW2 4206   2.348   0.727   4.681
 1103SOL     OW 4207   2.874   1.725   6.905
 1103SOL    HW1 4208   2.781   1.693   6.889
 1103SOL    HW2 4209   2.873   1.801   6.970
 1104SOL     OW 4210   1.164   4.127   3.246
 1104SOL    HW1 4211   1.083   4.159   3.294
 1104SOL    HW2 4212   1.141   4.102   3.152
 1105SOL     OW 4213   5.392   2.439   4.848
 1105SOL    HW1 4214   5.396   2.341   4.829
 1105SOL    HW2 4215   5.393   2.490   4.763
 1106SOL     OW 4216   0.413   1.286   0.328
 1106SOL    HW1 4217   0.398   1.383   0.347
 1106SOL    HW2 4218   0.459   1.243   0.406
 1107SOL     OW 4219   1.028   0.391   6.415
 1107SOL    HW1 4220   1.032   0.490   6.404
 1107SOL    HW2 4221   0.963   0.352   6.350
 1108SOL     OW 4222   3.736   6.616   4.065
 1108SOL    HW1 4223   3.798   6.685   4.028
 1108SOL    HW2 4224   3.787   6.532   4.083
 1109SOL     OW 4225   6.003   1.593   3.785
 1109SOL    HW1 4226   5.975   1.500   3.764
 1109SOL    HW2 4227   6.035   1.639   3.702
 1110SOL     OW 4228   3.460   1.141   2.980
 1110SOL    HW1 4229   3.386   1.198   2.944
 1110SOL    HW2 4230   3.432   1.101   3.067
 1111SOL     OW 4231   4.757   4.308   6.095
 1111SOL    HW1 4232   4.838   4.261   6.062
 1111SOL    HW2 4233   4.731   4.272   6.185
 1112SOL     OW 4234   6.177   6.751   3.652
 1112SOL    HW1 4235   6.087   6.707   3.648
 1112SOL    HW2 4236   6.246   6.691   3.612
 1113SOL     OW 4237   6.486   3.717   2.512
 1113SOL    HW1 4238   6.511   3.642   2.451
 1113SOL    HW2 4239   6.412   3.770   2.470
 1114SOL     OW 4240   4.125   2.109   5.949
 1114SOL    HW1 4241   4.116   2.058   5.863
 1114SOL    HW2 4242   4.072   2.194   5.942
 1115SOL     OW 4243   4.022   4.623   5.709
 1115SOL    HW1 4244   4.070   4.593   5.627
 1115SOL    HW2 4245   4.069   4.703   5.747
 1116SOL     OW 4246   5.061   0.876   0.161
 1116SOL    HW1 4247   5.143   0.869   0.104
 1116SOL    HW2 4248   5.014   0.787   0.163
 1117SOL     OW 4249   1.064   2.180   1.080
 1117SOL    HW1 4250   1.024   2.252   1.023
 1117SOL    HW2 4251   1.125   2.124   1.024
 1118SOL     OW 4252   2.394   5.786   6.442
 1118SOL    HW1 4253   2.425   5.701   6.401
 1118SOL    HW2 4254   2.365   5.769   6.536
 1119SOL     OW 4255   4.502   4.399   2.565
 1119SOL    HW1 4256   4.419   4.451   2.584
 1119SOL    HW2 4257   4.512   4.387   2.466
 1120SOL     OW 4258   6.592   5.758   1.311
 1120SOL    HW1 4259   6.685   5.757   1.348
 1120SOL    HW2 4260   6.542   5.679   1.347
 1121SOL     OW 4261   0.775   5.263   4.465
 1121SOL    HW1 4262   0.720   5.340   4.435
 1121SOL    HW2 4263   0.813   5.216   4.385
 1122SOL     OW 4264   5.951   2.860   1.873
 1122SOL    HW1 4265   5.985   2.952   1.857
 1122SOL    HW2 4266   6.028   2.800   1.898
 1123SOL     OW 4267   4.732   2.335   3.500
 1123SOL    HW1 4268   4.648   2.306   3.453
 1123SOL    HW2 4269   4.745   2.433   3.487
 1124SOL     OW 4270   1.584   3.433   5.003
 1124SOL    HW1 4271   1.503   3.485   5.030
 1124SOL    HW2 4272   1.576   3.340   5.038
 1125SOL     OW 4273   1.773   3.555   4.823
 1125SOL    HW1 4274   1.696   3.504   4.861
 1125SOL    HW2 4275   1.743   3.646   4.797
 1126SOL     OW 4276   4.127   5.790   5.605
 1126SOL    HW1 4277   4.091   5.808   5.696
 1126SOL    HW2 4278   4.196   5.718   5.610
 1127SOL     OW 4279   5.941   6.584   3.816
 1127SOL    HW1 4280   6.022   6.630   3.853
 1127SOL    HW2 4281   5.877   6.566   3.890
 1128SOL     OW 4282   5.969   1.134   4.441
 1128SOL    HW1 4283   5.884   1.157   4.393
 1128SOL    HW2 4284   5.973   1.186   4.527
 1129SOL     OW 4285   1.999   6.529   0.685
 1129SOL    HW1 4286   1.954   6.448   0.647
 1129SOL    HW2 4287   1.981   6.608   0.625
 1130SOL     OW 4288   1.491   5.503   1.932
 1130SOL    HW1 4289   1.503   5.429   1.998
 1130SOL    HW2 4290   1.396   5.532   1.930
 1131SOL     OW 4291   1.619   6.913   4.677
 1131SOL    HW1 4292   1.524   6.894   4.654
 1131SOL    HW2 4293   1.670   6.827   4.681
 1132SOL     OW 4294   4.672   0.709   2.510
 1132SOL    HW1 4295   4.582   0.703   2.468
 1132SOL    HW2 4296   4.741   0.726   2.440
 1133SOL     OW 4297   1.264   0.324   5.588
 1133SOL    HW1 4298   1.258   0.383   5.668
 1133SOL    HW2 4299   1.265   0.381   5.505
 1134SOL     OW 4300   5.223   6.743   1.912
 1134SOL    HW1 4301   5.148   6.796   1.952
 1134SOL    HW2 4302   5.215   6.647   1.941
 1135SOL     OW 4303   2.486   5.998   4.084
 1135SOL    HW1 4304   2.574   6.038   4.060
 1135SOL    HW2 4305   2.445   6.051   4.159
 1136SOL     OW 4306   3.433   5.906   3.361
 1136SOL    HW1 4307   3.400   5.997   3.338
 1136SOL    HW2 4308   3.393   5.877   3.449
 1137SOL     OW 4309   0.748   5.954   6.969
 1137SOL    HW1 4310   0.695   5.876   6.934
 1137SOL    HW2 4311   0.828   5.968   6.911
 1138SOL     OW 4312   1.506   2.888   5.242
 1138SOL    HW1 4313   1.468   2.898   5.150
 1138SOL    HW2 4314   1.563   2.967   5.263
 1139SOL     OW 4315   2.346   4.837   4.109
 1139SOL    HW1 4316   2.382   4.781   4.035
 1139SOL    HW2 4317   2.262   4.882   4.079
 1140SOL     OW 4318   1.967   1.032   1.992
 1140SOL    HW1 4319   1.875   1.052   1.958
 1140SOL    HW2 4320   2.035   1.078   1.935
 1141SOL     OW 4321   6.127   5.332   6.291
 1141SOL    HW1 4322   6.211   5.324   6.345
 1141SOL    HW2 4323   6.063   5.394   6.337
 1142SOL     OW 4324   2.486   6.860   3.525
 1142SOL    HW1 4325   2.462   6.957   3.513
 1142SOL    HW2 4326   2.542   6.830   3.448
 1143SOL     OW 4327   1.374   3.124   2.501
 1143SOL    HW1 4328   1.343   3.177   2.422
 1143SOL    HW2 4329   1.460   3.078   2.479
 1144SOL     OW 4330   5.554   4.199   2.935
 1144SOL    HW1 4331   5.494   4.179   3.012
 1144SOL    HW2 4332   5.572   4.115   2.884
 1145SOL     OW 4333   1.295   2.909   0.515
 1145SOL    HW1 4334   1.231   2.874   0.446
 1145SOL    HW2 4335   1.247   2.919   0.602
 1146SOL     OW 4336   0.721   1.713   0.857
 1146SOL    HW1 4337   0.641   1.763   0.888
 1146SOL    HW2 4338   0.794   1.777   0.833
 1147SOL     OW 4339   2.838   5.847   1.086
 1147SOL    HW1 4340   2.787   5.907   1.146
 1147SOL    HW2 4341   2.936   5.868   1.092
 1148SOL     OW 4342   4.278   6.343   1.847
 1148SOL    HW1 4343   4.259   6.287   1.766
 1148SOL    HW2 4344   4.342   6.415   1.823
 1149SOL     OW 4345   6.315   3.075   1.762
 1149SOL    HW1 4346   6.336   3.164   1.722
 1149SOL    HW2 4347   6.277   3.087   1.854
 1150SOL     OW 4348   1.024   4.445   7.009
 1150SOL    HW1 4349   1.008   4.373   0.051
 1150SOL    HW2 4350   1.120   4.446   6.983
 1151SOL     OW 4351   6.049   5.036   4.308
 1151SOL    HW1 4352   6.050   5.113   4.244
 1151SOL    HW2 4353   6.034   5.069   4.401
 1152SOL     OW 4354   4.611   0.071   0.366
 1152SOL    HW1 4355   4.703   0.106   0.380
 1152SOL    HW2 4356   4.610   0.011   0.286
 1153SOL     OW 4357   6.934   0.043   1.263
 1153SOL    HW1 4358   6.964   0.051   1.167
 1153SOL    HW2 4359   6.883   0.124   1.289
 1154SOL     OW 4360   0.921   3.666   2.175
 1154SOL    HW1 4361   0.949   3.609   2.097
 1154SOL    HW2 4362   1.001   3.710   2.215
 1155SOL     OW 4363   2.032   6.605   4.899
 1155SOL    HW1 4364   2.128   6.576   4.893
 1155SOL    HW2 4365   2.027   6.691   4.950
 1156SOL     OW 4366   4.509   1.913   5.082
 1156SOL    HW1 4367   4.554   1.974   5.147
 1156SOL    HW2 4368   4.576   1.882   5.014
 1157SOL     OW 4369   4.779   0.875   5.340
 1157SOL    HW1 4370   4.707   0.855   5.407
 1157SOL    HW2 4371   4.838   0.794   5.331
 1158SOL     OW 4372   5.639   6.420   4.294
 1158SOL    HW1 4373   5.564   6.402   4.229
 1158SOL    HW2 4374   5.665   6.335   4.340
 1159SOL     OW 4375   6.089   6.549   3.207
 1159SOL    HW1 4376   6.186   6.574   3.213
 1159SOL    HW2 4377   6.080   6.462   3.158
 1160SOL     OW 4378   4.453   6.430   1.182
 1160SOL    HW1 4379   4.493   6.507   1.133
 1160SOL    HW2 4380   4.361   6.413   1.148
 1161SOL     OW 4381   6.846   5.255   6.362
 1161SOL    HW1 4382   6.877   5.294   6.448
 1161SOL    HW2 4383   6.746   5.245   6.364
 1162SOL     OW 4384   2.150   2.920   5.785
 1162SOL    HW1 4385   2.203   2.913   5.701
 1162SOL    HW2 4386   2.123   2.829   5.816
 1163SOL     OW 4387   6.055   4.174   1.731
 1163SOL    HW1 4388   6.081   4.084   1.695
 1163SOL    HW2 4389   5.980   4.162   1.797
 1164SOL     OW 4390   5.457   2.164   4.763
 1164SOL    HW1 4391   5.513   2.083   4.780
 1164SOL    HW2 4392   5.364   2.136   4.742
 1165SOL     OW 4393   4.380   6.419   3.564
 1165SOL    HW1 4394   4.478   6.429   3.545
 1165SOL    HW2 4395   4.360   6.453   3.656
 1166SOL     OW 4396   1.792   6.380   7.001
 1166SOL    HW1 4397   1.824   6.360   0.068
 1166SOL    HW2 4398   1.781   6.478   6.990
 1167SOL     OW 4399   5.028   4.044   1.644
 1167SOL    HW1 4400   4.991   4.121   1.592
 1167SOL    HW2 4401   5.023   4.064   1.742
 1168SOL     OW 4402   6.310   2.021   2.246
 1168SOL    HW1 4403   6.360   1.951   2.196
 1168SOL    HW2 4404   6.371   2.066   2.311
 1169SOL     OW 4405   6.051   1.825   5.970
 1169SOL    HW1 4406   6.147   1.823   5.942
 1169SOL    HW2 4407   5.993   1.793   5.895
 1170SOL     OW 4408   4.507   0.162   2.668
 1170SOL    HW1 4409   4.517   0.256   2.634
 1170SOL    HW2 4410   4.520   0.098   2.592
 1171SOL     OW 4411   2.482   0.067   0.505
 1171SOL    HW1 4412   2.539   7.014   0.531
 1171SOL    HW2 4413   2.423   0.042   0.429
 1172SOL     OW 4414   5.123   3.337   1.113
 1172SOL    HW1 4415   5.057   3.266   1.137
 1172SOL    HW2 4416   5.183   3.355   1.192
 1173SOL     OW 4417   1.962   0.901   1.393
 1173SOL    HW1 4418   2.038   0.873   1.334
 1173SOL    HW2 4419   1.909   0.973   1.348
 1174SOL     OW 4420   3.524   4.033   1.845
 1174SOL    HW1 4421   3.587   3.955   1.835
 1174SOL    HW2 4422   3.566   4.101   1.906
 1175SOL     OW 4423   4.385   3.227   5.799
 1175SOL    HW1 4424   4.445   3.217   5.878
 1175SOL    HW2 4425   4.416   3.167   5.726
 1176SOL     OW 4426   4.532   3.190   6.034
 1176SOL    HW1 4427   4.611   3.249   6.051
 1176SOL    HW2 4428   4.506   3.143   6.118
 1177SOL     OW 4429   6.440   3.321   5.312
 1177SOL    HW1 4430   6.403   3.326   5.405
 1177SOL    HW2 4431   6.486   3.233   5.299
 1178SOL     OW 4432   2.715   3.461   0.648
 1178SOL    HW1 4433   2.627   3.508   0.654
 1178SOL    HW2 4434   2.732   3.435   0.552
 1179SOL     OW 4435   2.333   5.825   0.357
 1179SOL    HW1 4436   2.242   5.784   0.364
 1179SOL    HW2 4437   2.370   5.808   0.265
 1180SOL     OW 4438   2.869   5.982   2.731
 1180SOL    HW1 4439   2.837   6.073   2.707
 1180SOL    HW2 4440   2.870   5.972   2.831
 1181SOL     OW 4441   0.183   5.386   5.961
 1181SOL    HW1 4442   0.160   5.344   6.049
 1181SOL    HW2 4443   0.196   5.314   5.893
 1182SOL     OW 4444   4.154   5.631   3.414
 1182SOL    HW1 4445   4.057   5.654   3.415
 1182SOL    HW2 4446   4.192   5.639   3.506
 1183SOL     OW 4447   2.033   4.592   0.946
 1183SOL    HW1 4448   2.007   4.633   1.033
 1183SOL    HW2 4449   2.007   4.653   0.871
 1184SOL     OW 4450   0.666   0.657   4.686
 1184SOL    HW1 4451   0.638   0.618   4.773
 1184SOL    HW2 4452   0.752   0.616   4.656
 1185SOL     OW 4453   0.504   1.130   6.766
 1185SOL    HW1 4454   0.435   1.103   6.833
 1185SOL    HW2 4455   0.459   1.159   6.682
 1186SOL     OW 4456   4.962   5.923   5.209
 1186SOL    HW1 4457   4.897   5.932   5.284
 1186SOL    HW2 4458   5.043   5.873   5.241
 1187SOL     OW 4459   6.561   6.633   0.045
 1187SOL    HW1 4460   6.631   6.694   0.084
 1187SOL    HW2 4461   6.470   6.665   0.072
 1188SOL     OW 4462   3.572   6.515   4.883
 1188SOL    HW1 4463   3.553   6.608   4.915
 1188SOL    HW2 4464   3.518   6.496   4.802
 1189SOL     OW 4465   6.614   2.696   2.955
 1189SOL    HW1 4466   6.580   2.788   2.978
 1189SOL    HW2 4467   6.706   2.704   2.917
 1190SOL     OW 4468   2.184   6.003   3.686
 1190SOL    HW1 4469   2.177   6.008   3.786
 1190SOL    HW2 4470   2.181   5.907   3.657
 1191SOL     OW 4471   4.639   4.655   3.545
 1191SOL    HW1 4472   4.595   4.731   3.594
 1191SOL    HW2 4473   4.570   4.605   3.492
 1192SOL     OW 4474   3.662   5.400   3.186
 1192SOL    HW1 4475   3.583   5.414   3.246
 1192SOL    HW2 4476   3.696   5.489   3.156
 1193SOL     OW 4477   6.041   4.089   4.674
 1193SOL    HW1 4478   6.071   4.082   4.579
 1193SOL    HW2 4479   6.078   4.012   4.726
 1194SOL     OW 4480   5.429   6.918   1.481
 1194SOL    HW1 4481   5.369   6.965   1.416
 1194SOL    HW2 4482   5.392   6.827   1.501
 1195SOL     OW 4483   6.261   4.635   1.703
 1195SOL    HW1 4484   6.354   4.628   1.667
 1195SOL    HW2 4485   6.207   4.697   1.645
 1196SOL     OW 4486   0.075   5.850   3.091
 1196SOL    HW1 4487   0.073   5.818   3.185
 1196SOL    HW2 4488   0.168   5.842   3.055
 1197SOL     OW 4489   4.055   0.315   5.951
 1197SOL    HW1 4490   4.066   0.358   5.862
 1197SOL    HW2 4491   4.036   0.384   6.020
 1198SOL     OW 4492   1.295   3.357   1.653
 1198SOL    HW1 4493   1.351   3.387   1.730
 1198SOL    HW2 4494   1.342   3.283   1.605
 1199SOL     OW 4495   4.538   4.633   2.037
 1199SOL    HW1 4496   4.569   4.725   2.062
 1199SOL    HW2 4497   4.602   4.565   2.071
 1200SOL     OW 4498   3.297   3.512   3.437
 1200SOL    HW1 4499   3.255   3.448   3.373
 1200SOL    HW2 4500   3.371   3.466   3.486
 1201SOL     OW 4501   1.218   1.059   4.434
 1201SOL    HW1 4502   1.240   1.125   4.362
 1201SOL    HW2 4503   1.149   0.995   4.400
 1202SOL     OW 4504   1.083   5.551   6.414
 1202SOL    HW1 4505   1.047   5.599   6.334
 1202SOL    HW2 4506   1.156   5.605   6.456
 1203SOL     OW 4507   5.874   6.172   7.003
 1203SOL    HW1 4508   5.803   6.231   6.965
 1203SOL    HW2 4509   5.845   6.077   7.000
 1204SOL     OW 4510   3.191   6.938   1.051
 1204SOL    HW1 4511   3.167   0.009   1.038
 1204SOL    HW2 4512   3.118   6.880   1.015
 1205SOL     OW 4513   5.683   3.965   1.465
 1205SOL    HW1 4514   5.690   4.028   1.542
 1205SOL    HW2 4515   5.671   3.872   1.499
 1206SOL     OW 4516   3.273   2.813   5.298
 1206SOL    HW1 4517   3.205   2.839   5.229
 1206SOL    HW2 4518   3.226   2.779   5.380
 1207SOL     OW 4519   1.916   6.773   1.134
 1207SOL    HW1 4520   1.949   6.704   1.069
 1207SOL    HW2 4521   1.816   6.777   1.130
 1208SOL     OW 4522   3.448   3.718   0.533
 1208SOL    HW1 4523   3.403   3.717   0.444
 1208SOL    HW2 4524   3.538   3.761   0.525
 1209SOL     OW 4525   4.374   0.756   5.516
 1209SOL    HW1 4526   4.363   0.700   5.435
 1209SOL    HW2 4527   4.469   0.753   5.546
 1210SOL     OW 4528   2.587   0.368   2.834
 1210SOL    HW1 4529   2.645   0.385   2.913
 1210SOL    HW2 4530   2.614   0.429   2.759
 1211SOL     OW 4531   1.265   3.715   1.624
 1211SOL    HW1 4532   1.289   3.768   1.706
 1211SOL    HW2 4533   1.349   3.693   1.574
 1212SOL     OW 4534   6.367   0.153   6.456
 1212SOL    HW1 4535   6.457   0.136   6.497
 1212SOL    HW2 4536   6.346   0.079   6.392
 1213SOL     OW 4537   6.567   2.369   0.302
 1213SOL    HW1 4538   6.646   2.315   0.331
 1213SOL    HW2 4539   6.493   2.360   0.368
 1214SOL     OW 4540   7.014   2.906   0.358
 1214SOL    HW1 4541   0.066   2.953   0.400
 1214SOL    HW2 4542   6.930   2.933   0.405
 1215SOL     OW 4543   1.441   3.944   3.894
 1215SOL    HW1 4544   1.517   4.003   3.923
 1215SOL    HW2 4545   1.441   3.936   3.795
 1216SOL     OW 4546   5.146   0.904   1.323
 1216SOL    HW1 4547   5.112   0.998   1.330
 1216SOL    HW2 4548   5.227   0.902   1.265
 1217SOL     OW 4549   1.430   4.991   1.148
 1217SOL    HW1 4550   1.487   5.000   1.229
 1217SOL    HW2 4551   1.454   5.062   1.082
 1218SOL     OW 4552   1.962   4.688   4.533
 1218SOL    HW1 4553   1.956   4.649   4.441
 1218SOL    HW2 4554   2.042   4.746   4.541
 1219SOL     OW 4555   5.406   5.014   2.185
 1219SOL    HW1 4556   5.363   5.004   2.274
 1219SOL    HW2 4557   5.467   5.093   2.185
 1220SOL     OW 4558   0.655   5.160   3.454
 1220SOL    HW1 4559   0.599   5.224   3.508
 1220SOL    HW2 4560   0.626   5.163   3.359
 1221SOL     OW 4561   4.739   3.371   5.524
 1221SOL    HW1 4562   4.669   3.302   5.505
 1221SOL    HW2 4563   4.776   3.405   5.437
 1222SOL     OW 4564   6.612   6.539   6.823
 1222SOL    HW1 4565   6.613   6.574   6.917
 1222SOL    HW2 4566   6.540   6.584   6.771
 1223SOL     OW 4567   3.645   0.639   0.961
 1223SOL    HW1 4568   3.692   0.727   0.951
 1223SOL    HW2 4569   3.561   0.640   0.907
 1224SOL     OW 4570   2.390   6.329   0.620
 1224SOL    HW1 4571   2.313   6.366   0.568
 1224SOL    HW2 4572   2.444   6.404   0.660
 1225SOL     OW 4573   3.342   3.808   6.114
 1225SOL    HW1 4574   3.433   3.846   6.131
 1225SOL    HW2 4575   3.350   3.725   6.060
 1226SOL     OW 4576   2.669   5.286   1.037
 1226SOL    HW1 4577   2.662   5.239   1.125
 1226SOL    HW2 4578   2.658   5.221   0.963
 1227SOL     OW 4579   0.142   3.929   6.867
 1227SOL    HW1 4580   0.216   3.978   6.914
 1227SOL    HW2 4581   0.151   3.942   6.768
 1228SOL     OW 4582   4.003   2.549   6.831
 1228SOL    HW1 4583   4.034   2.469   6.781
 1228SOL    HW2 4584   3.952   2.520   6.912
 1229SOL     OW 4585   3.895   4.620   6.202
 1229SOL    HW1 4586   3.938   4.695   6.153
 1229SOL    HW2 4587   3.810   4.594   6.156
 1230SOL     OW 4588   4.341   0.750   3.966
 1230SOL    HW1 4589   4.433   0.745   3.927
 1230SOL    HW2 4590   4.324   0.844   3.997
 1231SOL     OW 4591   1.267   3.782   4.892
 1231SOL    HW1 4592   1.340   3.779   4.961
 1231SOL    HW2 4593   1.249   3.877   4.867
 1232SOL     OW 4594   1.262   1.663   5.571
 1232SOL    HW1 4595   1.259   1.576   5.619
 1232SOL    HW2 4596   1.270   1.647   5.473
 1233SOL     OW 4597   1.811   3.135   4.517
 1233SOL    HW1 4598   1.839   3.054   4.567
 1233SOL    HW2 4599   1.832   3.217   4.571
 1234SOL     OW 4600   6.695   3.958   4.931
 1234SOL    HW1 4601   6.709   3.933   5.026
 1234SOL    HW2 4602   6.622   3.901   4.892
 1235SOL     OW 4603   0.195   6.159   2.465
 1235SOL    HW1 4604   0.194   6.070   2.511
 1235SOL    HW2 4605   0.177   6.231   2.532
 1236SOL     OW 4606   5.343   0.775   6.551
 1236SOL    HW1 4607   5.262   0.833   6.554
 1236SOL    HW2 4608   5.386   0.783   6.461
 1237SOL     OW 4609   2.817   5.130   6.776
 1237SOL    HW1 4610   2.812   5.177   6.688
 1237SOL    HW2 4611   2.906   5.148   6.819
 1238SOL     OW 4612   1.873   0.993   0.876
 1238SOL    HW1 4613   1.782   1.032   0.891
 1238SOL    HW2 4614   1.865   0.911   0.819
 1239SOL     OW 4615   0.005   6.223   6.650
 1239SOL    HW1 4616   6.949   6.233   6.708
 1239SOL    HW2 4617   7.003   6.223   6.554
 1240SOL     OW 4618   5.666   5.886   2.202
 1240SOL    HW1 4619   5.751   5.838   2.221
 1240SOL    HW2 4620   5.655   5.896   2.103
 1241SOL     OW 4621   6.820   3.427   4.179
 1241SOL    HW1 4622   6.733   3.427   4.129
 1241SOL    HW2 4623   6.882   3.360   4.138
 1242SOL     OW 4624   1.839   3.642   1.049
 1242SOL    HW1 4625   1.816   3.545   1.045
 1242SOL    HW2 4626   1.758   3.696   1.025
 1243SOL     OW 4627   1.385   6.116   5.479
 1243SOL    HW1 4628   1.357   6.107   5.384
 1243SOL    HW2 4629   1.305   6.138   5.536
 1244SOL     OW 4630   0.454   6.237   3.278
 1244SOL    HW1 4631   0.371   6.277   3.317
 1244SOL    HW2 4632   0.534   6.280   3.320
 1245SOL     OW 4633   4.169   3.503   6.161
 1245SOL    HW1 4634   4.265   3.480   6.142
 1245SOL    HW2 4635   4.134   3.558   6.086
 1246SOL     OW 4636   2.203   6.262   2.056
 1246SOL    HW1 4637   2.128   6.327   2.050
 1246SOL    HW2 4638   2.187   6.199   2.132
 1247SOL     OW 4639   2.788   0.175   6.628
 1247SOL    HW1 4640   2.712   0.112   6.646
 1247SOL    HW2 4641   2.875   0.126   6.636
 1248SOL     OW 4642   2.162   0.019   3.901
 1248SOL    HW1 4643   2.139   6.956   3.861
 1248SOL    HW2 4644   2.131   0.021   3.997
 1249SOL     OW 4645   5.479   2.726   2.421
 1249SOL    HW1 4646   5.444   2.805   2.370
 1249SOL    HW2 4647   5.434   2.643   2.389
 1250SOL     OW 4648   0.574   4.628   4.777
 1250SOL    HW1 4649   0.580   4.576   4.692
 1250SOL    HW2 4650   0.519   4.576   4.843
 1251SOL     OW 4651   3.405   0.310   4.507
 1251SOL    HW1 4652   3.378   0.318   4.603
 1251SOL    HW2 4653   3.347   0.370   4.451
 1252SOL     OW 4654   3.321   3.615   5.886
 1252SOL    HW1 4655   3.343   3.519   5.906
 1252SOL    HW2 4656   3.371   3.645   5.805
 1253SOL     OW 4657   4.144   5.787   1.883
 1253SOL    HW1 4658   4.147   5.820   1.789
 1253SOL    HW2 4659   4.092   5.702   1.887
 1254SOL     OW 4660   6.389   2.978   2.460
 1254SOL    HW1 4661   6.451   3.001   2.385
 1254SOL    HW2 4662   6.295   2.995   2.432
 1255SOL     OW 4663   6.864   0.980   4.768
 1255SOL    HW1 4664   6.777   0.932   4.772
 1255SOL    HW2 4665   6.870   1.031   4.681
 1256SOL     OW 4666   6.917   0.018   3.224
 1256SOL    HW1 4667   6.943   0.071   3.142
 1256SOL    HW2 4668   6.977   0.044   3.300
 1257SOL     OW 4669   0.498   0.058   3.598
 1257SOL    HW1 4670   0.471   0.087   3.690
 1257SOL    HW2 4671   0.563   0.124   3.560
 1258SOL     OW 4672   0.539   5.327   3.645
 1258SOL    HW1 4673   0.441   5.315   3.637
 1258SOL    HW2 4674   0.578   5.251   3.696
 1259SOL     OW 4675   3.941   1.895   4.485
 1259SOL    HW1 4676   4.015   1.829   4.492
 1259SOL    HW2 4677   3.875   1.864   4.417
 1260SOL     OW 4678   0.966   1.589   6.912
 1260SOL    HW1 4679   0.909   1.517   6.952
 1260SOL    HW2 4680   1.059   1.555   6.900
 1261SOL     OW 4681   0.077   5.477   6.929
 1261SOL    HW1 4682   0.092   5.575   6.914
 1261SOL    HW2 4683   7.023   5.448   6.877
 1262SOL     OW 4684   5.245   5.378   2.299
 1262SOL    HW1 4685   5.303   5.335   2.369
 1262SOL    HW2 4686   5.216   5.469   2.331
 1263SOL     OW 4687   0.747   1.608   2.609
 1263SOL    HW1 4688   0.761   1.653   2.697
 1263SOL    HW2 4689   0.676   1.539   2.618
 1264SOL     OW 4690   1.119   3.952   5.758
 1264SOL    HW1 4691   1.216   3.971   5.744
 1264SOL    HW2 4692   1.068   3.983   5.678
 1265SOL     OW 4693   6.744   5.391   4.362
 1265SOL    HW1 4694   6.707   5.312   4.412
 1265SOL    HW2 4695   6.680   5.417   4.289
 1266SOL     OW 4696   0.628   0.881   4.402
 1266SOL    HW1 4697   0.595   0.962   4.355
 1266SOL    HW2 4698   0.554   0.841   4.457
 1267SOL     OW 4699   5.413   0.529   1.985
 1267SOL    HW1 4700   5.428   0.523   1.886
 1267SOL    HW2 4701   5.462   0.609   2.021
 1268SOL     OW 4702   3.691   2.467   5.629
 1268SOL    HW1 4703   3.722   2.399   5.563
 1268SOL    HW2 4704   3.752   2.546   5.627
 1269SOL     OW 4705   5.183   2.595   4.167
 1269SOL    HW1 4706   5.238   2.620   4.087
 1269SOL    HW2 4707   5.091   2.633   4.158
 1270SOL     OW 4708   1.863   5.078   2.193
 1270SOL    HW1 4709   1.830   5.106   2.103
 1270SOL    HW2 4710   1.963   5.083   2.194
 1271SOL     OW 4711   1.845   0.642   1.233
 1271SOL    HW1 4712   1.874   0.702   1.307
 1271SOL    HW2 4713   1.837   0.694   1.148
 1272SOL     OW 4714   6.413   3.540   6.378
 1272SOL    HW1 4715   6.337   3.601   6.358
 1272SOL    HW2 4716   6.380   3.445   6.381
 1273SOL     OW 4717   1.410   4.036   4.747
 1273SOL    HW1 4718   1.453   4.068   4.662
 1273SOL    HW2 4719   1.471   4.056   4.824
 1274SOL     OW 4720   0.364   4.580   1.493
 1274SOL    HW1 4721   0.316   4.662   1.525
 1274SOL    HW2 4722   0.298   4.505   1.485
 1275SOL     OW 4723   2.503   0.446   3.678
 1275SOL    HW1 4724   2.412   0.405   3.686
 1275SOL    HW2 4725   2.504   0.513   3.604
 1276SOL     OW 4726   5.543   4.669   4.473
 1276SOL    HW1 4727   5.540   4.590   4.534
 1276SOL    HW2 4728   5.583   4.643   4.385
 1277SOL     OW 4729   0.715   5.528   6.968
 1277SOL    HW1 4730   0.635   5.587   6.954
 1277SOL    HW2 4731   0.731   5.473   6.886
 1278SOL     OW 4732   1.031   6.864   3.488
 1278SOL    HW1 4733   1.021   6.804   3.567
 1278SOL    HW2 4734   1.099   6.827   3.425
 1279SOL     OW 4735   2.544   3.999   5.960
 1279SOL    HW1 4736   2.590   4.073   6.009
 1279SOL    HW2 4737   2.445   4.010   5.967
 1280SOL     OW 4738   3.119   0.906   3.526
 1280SOL    HW1 4739   3.021   0.914   3.546
 1280SOL    HW2 4740   3.166   0.988   3.558
 1281SOL     OW 4741   2.907   5.998   3.886
 1281SOL    HW1 4742   2.999   5.957   3.888
 1281SOL    HW2 4743   2.839   5.925   3.881
 1282SOL     OW 4744   6.527   2.917   0.611
 1282SOL    HW1 4745   6.479   2.930   0.524
 1282SOL    HW2 4746   6.461   2.917   0.686
 1283SOL     OW 4747   6.457   3.755   5.140
 1283SOL    HW1 4748   6.400   3.748   5.058
 1283SOL    HW2 4749   6.472   3.852   5.161
 1284SOL     OW 4750   3.655   0.946   1.446
 1284SOL    HW1 4751   3.648   0.867   1.385
 1284SOL    HW2 4752   3.686   1.026   1.395
 1285SOL     OW 4753   3.697   1.424   4.773
 1285SOL    HW1 4754   3.730   1.366   4.848
 1285SOL    HW2 4755   3.705   1.520   4.799
 1286SOL     OW 4756   4.877   2.783   1.508
 1286SOL    HW1 4757   4.962   2.825   1.475
 1286SOL    HW2 4758   4.820   2.854   1.550
 1287SOL     OW 4759   5.801   4.554   5.273
 1287SOL    HW1 4760   5.784   4.576   5.177
 1287SOL    HW2 4761   5.720   4.509   5.312
 1288SOL     OW 4762   4.382   4.634   6.264
 1288SOL    HW1 4763   4.432   4.714   6.295
 1288SOL    HW2 4764   4.446   4.568   6.224
 1289SOL     OW 4765   6.567   0.820   1.551
 1289SOL    HW1 4766   6.529   0.740   1.596
 1289SOL    HW2 4767   6.582   0.801   1.454
 1290SOL     OW 4768   1.506   0.688   0.209
 1290SOL    HW1 4769   1.442   0.696   0.285
 1290SOL    HW2 4770   1.543   0.595   0.206
 1291SOL     OW 4771   6.384   4.927   4.483
 1291SOL    HW1 4772   6.315   4.913   4.554
 1291SOL    HW2 4773   6.474   4.904   4.519
 1292SOL     OW 4774   0.094   5.640   2.558
 1292SOL    HW1 4775   0.122   5.565   2.618
 1292SOL    HW2 4776   0.134   5.627   2.467
 1293SOL     OW 4777   2.214   1.828   0.083
 1293SOL    HW1 4778   2.264   1.915   0.087
 1293SOL    HW2 4779   2.120   1.846   0.051
 1294SOL     OW 4780   2.038   4.633   6.605
 1294SOL    HW1 4781   2.044   4.599   6.512
 1294SOL    HW2 4782   2.122   4.609   6.655
 1295SOL     OW 4783   0.275   3.977   1.344
 1295SOL    HW1 4784   0.213   3.999   1.269
 1295SOL    HW2 4785   0.223   3.935   1.418
 1296SOL     OW 4786   5.106   6.817   5.656
 1296SOL    HW1 4787   5.125   6.891   5.592
 1296SOL    HW2 4788   5.044   6.751   5.614
 1297SOL     OW 4789   0.862   6.839   2.269
 1297SOL    HW1 4790   0.806   6.877   2.342
 1297SOL    HW2 4791   0.859   6.739   2.273
 1298SOL     OW 4792   4.924   5.698   3.219
 1298SOL    HW1 4793   4.953   5.772   3.159
 1298SOL    HW2 4794   4.904   5.617   3.164
 1299SOL     OW 4795   2.162   3.343   4.069
 1299SOL    HW1 4796   2.215   3.260   4.089
 1299SOL    HW2 4797   2.066   3.328   4.092
 1300SOL     OW 4798   2.264   3.486   1.122
 1300SOL    HW1 4799   2.213   3.572   1.125
 1300SOL    HW2 4800   2.362   3.504   1.131
 1301SOL     OW 4801   0.612   0.524   1.314
 1301SOL    HW1 4802   0.548   0.448   1.326
 1301SOL    HW2 4803   0.634   0.563   1.404
 1302SOL     OW 4804   5.530   0.140   5.450
 1302SOL    HW1 4805   5.619   0.095   5.445
 1302SOL    HW2 4806   5.537   0.232   5.413
 1303SOL     OW 4807   4.055   6.980   1.715
 1303SOL    HW1 4808   4.026   0.045   1.688
 1303SOL    HW2 4809   4.126   6.947   1.651
 1304SOL     OW 4810   1.157   1.233   1.129
 1304SOL    HW1 4811   1.080   1.187   1.173
 1304SOL    HW2 4812   1.242   1.207   1.174
 1305SOL     OW 4813   5.121   4.350   5.906
 1305SOL    HW1 4814   5.151   4.368   5.999
 1305SOL    HW2 4815   5.079   4.432   5.868
 1306SOL     OW 4816   0.712   5.685   4.937
 1306SOL    HW1 4817   0.670   5.726   5.018
 1306SOL    HW2 4818   0.775   5.612   4.966
 1307SOL     OW 4819   1.839   3.094   3.848
 1307SOL    HW1 4820   1.762   3.036   3.875
 1307SOL    HW2 4821   1.862   3.155   3.923
 1308SOL     OW 4822   6.326   5.985   6.561
 1308SOL    HW1 4823   6.243   6.038   6.543
 1308SOL    HW2 4824   6.302   5.900   6.607
 1309SOL     OW 4825   5.175   5.017   6.024
 1309SOL    HW1 4826   5.271   5.022   6.055
 1309SOL    HW2 4827   5.172   4.986   5.930
 1310SOL     OW 4828   0.650   3.772   3.939
 1310SOL    HW1 4829   0.741   3.753   3.976
 1310SOL    HW2 4830   0.597   3.821   4.009
 1311SOL     OW 4831   6.488   5.377   6.656
 1311SOL    HW1 4832   6.567   5.438   6.660
 1311SOL    HW2 4833   6.514   5.286   6.689
 1312SOL     OW 4834   1.106   0.957   5.906
 1312SOL    HW1 4835   1.121   0.860   5.926
 1312SOL    HW2 4836   1.187   1.010   5.933
 1313SOL     OW 4837   5.988   5.693   3.138
 1313SOL    HW1 4838   6.050   5.623   3.174
 1313SOL    HW2 4839   5.927   5.652   3.071
 1314SOL     OW 4840   3.194   1.757   4.721
 1314SOL    HW1 4841   3.291   1.749   4.746
 1314SOL    HW2 4842   3.159   1.669   4.690
 1315SOL     OW 4843   6.589   0.433   3.925
 1315SOL    HW1 4844   6.517   0.453   3.991
 1315SOL    HW2 4845   6.675   0.417   3.973
 1316SOL     OW 4846   4.081   0.238   5.441
 1316SOL    HW1 4847   4.116   0.151   5.476
 1316SOL    HW2 4848   3.982   0.240   5.446
 1317SOL     OW 4849   2.095   4.352   5.668
 1317SOL    HW1 4850   2.138   4.262   5.675
 1317SOL    HW2 4851   2.075   4.372   5.572
 1318SOL     OW 4852   2.338   3.193   6.814
 1318SOL    HW1 4853   2.305   3.171   6.906
 1318SOL    HW2 4854   2.268   3.247   6.766
 1319SOL     OW 4855   7.002   5.973   0.052
 1319SOL    HW1 4856   6.904   5.963   0.037
 1319SOL    HW2 4857   0.001   6.070   0.050
 1320SOL     OW 4858   3.246   2.889   6.545
 1320SOL    HW1 4859   3.323   2.827   6.529
 1320SOL    HW2 4860   3.178   2.844   6.603
 1321SOL     OW 4861   4.838   1.979   6.655
 1321SOL    HW1 4862   4.886   2.009   6.737
 1321SOL    HW2 4863   4.799   1.888   6.671
 1322SOL     OW 4864   3.319   1.352   5.138
 1322SOL    HW1 4865   3.403   1.305   5.112
 1322SOL    HW2 4866   3.251   1.345   5.065
 1323SOL     OW 4867   3.548   7.000   0.681
 1323SOL    HW1 4868   3.486   0.047   0.652
 1323SOL    HW2 4869   3.606   6.974   0.603
 1324SOL     OW 4870   1.239   3.791   0.390
 1324SOL    HW1 4871   1.225   3.889   0.374
 1324SOL    HW2 4872   1.150   3.746   0.399
 1325SOL     OW 4873   3.294   6.125   5.351
 1325SOL    HW1 4874   3.292   6.093   5.446
 1325SOL    HW2 4875   3.388   6.137   5.322
 1326SOL     OW 4876   4.694   4.253   5.062
 1326SOL    HW1 4877   4.711   4.245   4.964
 1326SOL    HW2 4878   4.692   4.161   5.102
 1327SOL     OW 4879   0.266   7.005   1.080
 1327SOL    HW1 4880   0.270   0.010   1.175
 1327SOL    HW2 4881   0.257   6.905   1.077
 1328SOL     OW 4882   1.509   3.172   5.897
 1328SOL    HW1 4883   1.565   3.252   5.919
 1328SOL    HW2 4884   1.556   3.089   5.928
 1329SOL     OW 4885   0.301   1.456   2.964
 1329SOL    HW1 4886   0.377   1.518   2.942
 1329SOL    HW2 4887   0.281   1.399   2.885
 1330SOL     OW 4888   0.409   2.035   0.739
 1330SOL    HW1 4889   0.423   1.975   0.660
 1330SOL    HW2 4890   0.397   2.129   0.707
 1331SOL     OW 4891   4.369   2.248   2.610
 1331SOL    HW1 4892   4.426   2.322   2.575
 1331SOL    HW2 4893   4.393   2.163   2.563
 1332SOL     OW 4894   1.763   0.369   0.474
 1332SOL    HW1 4895   1.803   0.457   0.500
 1332SOL    HW2 4896   1.821   0.294   0.508
 1333SOL     OW 4897   3.202   3.951   3.294
 1333SOL    HW1 4898   3.259   4.032   3.310
 1333SOL    HW2 4899   3.257   3.869   3.309
 1334SOL     OW 4900   6.944   1.772   3.360
 1334SOL    HW1 4901   7.010   1.776   3.435
 1334SOL    HW2 4902   6.948   1.683   3.315
 1335SOL     OW 4903   1.820   2.922   1.649
 1335SOL    HW1 4904   1.875   3.006   1.650
 1335SOL    HW2 4905   1.873   2.847   1.688
 1336SOL     OW 4906   4.154   1.168   5.487
 1336SOL    HW1 4907   4.062   1.187   5.523
 1336SOL    HW2 4908   4.194   1.252   5.451
 1337SOL     OW 4909   6.509   1.142   2.739
 1337SOL    HW1 4910   6.608   1.144   2.733
 1337SOL    HW2 4911   6.477   1.227   2.781
 1338SOL     OW 4912   6.387   4.061   4.302
 1338SOL    HW1 4913   6.337   4.136   4.344
 1338SOL    HW2 4914   6.443   4.096   4.227
 1339SOL     OW 4915   0.170   0.560   0.105
 1339SOL    HW1 4916   0.242   0.545   0.036
 1339SOL    HW2 4917   0.089   0.598   0.060
 1340SOL     OW 4918   5.020   1.880   2.484
 1340SOL    HW1 4919   5.025   1.781   2.495
 1340SOL    HW2 4920   4.939   1.903   2.430
 1341SOL     OW 4921   4.633   6.407   0.322
 1341SOL    HW1 4922   4.589   6.464   0.253
 1341SOL    HW2 4923   4.671   6.466   0.394
 1342SOL     OW 4924   3.332   5.540   0.116
 1342SOL    HW1 4925   3.397   5.557   0.191
 1342SOL    HW2 4926   3.244   5.513   0.154
 1343SOL     OW 4927   6.120   5.408   3.126
 1343SOL    HW1 4928   6.183   5.334   3.149
 1343SOL    HW2 4929   6.032   5.393   3.172
 1344SOL     OW 4930   0.589   6.351   4.230
 1344SOL    HW1 4931   0.673   6.308   4.195
 1344SOL    HW2 4932   0.515   6.284   4.226
 1345SOL     OW 4933   0.685   4.903   2.113
 1345SOL    HW1 4934   0.626   4.832   2.151
 1345SOL    HW2 4935   0.660   4.921   2.018
 1346SOL     OW 4936   1.848   5.354   6.162
 1346SOL    HW1 4937   1.845   5.376   6.260
 1346SOL    HW2 4938   1.933   5.388   6.123
 1347SOL     OW 4939   1.985   0.461   6.043
 1347SOL    HW1 4940   2.024   0.550   6.068
 1347SOL    HW2 4941   1.919   0.474   5.969
 1348SOL     OW 4942   0.405   5.947   5.496
 1348SOL    HW1 4943   0.499   5.980   5.484
 1348SOL    HW2 4944   0.341   6.019   5.470
 1349SOL     OW 4945   5.902   2.600   4.170
 1349SOL    HW1 4946   5.976   2.623   4.107
 1349SOL    HW2 4947   5.931   2.615   4.264
 1350SOL     OW 4948   3.857   4.628   0.166
 1350SOL    HW1 4949   3.947   4.609   0.127
 1350SOL    HW2 4950   3.786   4.601   0.102
 1351SOL     OW 4951   5.898   1.891   3.711
 1351SOL    HW1 4952   5.810   1.849   3.734
 1351SOL    HW2 4953   5.884   1.988   3.695
 1352SOL     OW 4954   0.145   7.024   2.327
 1352SOL    HW1 4955   0.065   7.019   2.387
 1352SOL    HW2 4956   0.114   0.007   2.232
 1353SOL     OW 4957   0.720   2.083   0.786
 1353SOL    HW1 4958   0.794   2.037   0.836
 1353SOL    HW2 4959   0.711   2.042   0.695
 1354SOL     OW 4960   6.880   3.801   2.088
 1354SOL    HW1 4961   6.812   3.834   2.154
 1354SOL    HW2 4962   6.960   3.767   2.138
 1355SOL     OW 4963   6.177   3.945   4.467
 1355SOL    HW1 4964   6.105   3.876   4.456
 1355SOL    HW2 4965   6.245   3.934   4.395
 1356SOL     OW 4966   3.888   2.963   2.268
 1356SOL    HW1 4967   3.975   2.915   2.281
 1356SOL    HW2 4968   3.894   3.054   2.310
 1357SOL     OW 4969   6.466   3.668   5.723
 1357SOL    HW1 4970   6.511   3.716   5.799
 1357SOL    HW2 4971   6.498   3.573   5.720
 1358SOL     OW 4972   6.137   0.050   0.130
 1358SOL    HW1 4973   6.177   0.033   0.220
 1358SOL    HW2 4974   6.156   6.999   0.069
 1359SOL     OW 4975   6.072   4.794   1.552
 1359SOL    HW1 4976   6.033   4.885   1.566
 1359SOL    HW2 4977   6.018   4.745   1.484
 1360SOL     OW 4978   3.580   3.405   0.056
 1360SOL    HW1 4979   3.595   3.496   0.018
 1360SOL    HW2 4980   3.555   3.413   0.152
 1361SOL     OW 4981   0.172   4.914   5.032
 1361SOL    HW1 4982   0.234   4.853   5.080
 1361SOL    HW2 4983   0.184   5.007   5.066
 1362SOL     OW 4984   4.109   3.544   2.628
 1362SOL    HW1 4985   4.052   3.467   2.656
 1362SOL    HW2 4986   4.131   3.600   2.707
 1363SOL     OW 4987   0.038   5.564   4.884
 1363SOL    HW1 4988   6.971   5.541   4.855
 1363SOL    HW2 4989   0.073   5.493   4.946
 1364SOL     OW 4990   4.369   4.900   6.750
 1364SOL    HW1 4991   4.465   4.894   6.720
 1364SOL    HW2 4992   4.314   4.837   6.696
 1365SOL     OW 4993   0.598   4.344   6.543
 1365SOL    HW1 4994   0.675   4.382   6.594
 1365SOL    HW2 4995   0.532   4.417   6.522
 1366SOL     OW 4996   1.852   6.777   5.428
 1366SOL    HW1 4997   1.816   6.729   5.348
 1366SOL    HW2 4998   1.940   6.819   5.405
 1367SOL     OW 4999   1.763   1.703   2.351
 1367SOL    HW1 5000   1.801   1.778   2.405
 1367SOL    HW2 5001   1.797   1.616   2.385
 1368SOL     OW 5002   5.830   6.576   4.623
 1368SOL    HW1 5003   5.760   6.607   4.559
 1368SOL    HW2 5004   5.788   6.518   4.692
 1369SOL     OW 5005   0.983   6.141   3.143
 1369SOL    HW1 5006   0.928   6.189   3.075
 1369SOL    HW2 5007   1.061   6.097   3.098
 1370SOL     OW 5008   3.124   0.741   1.273
 1370SOL    HW1 5009   3.136   0.836   1.242
 1370SOL    HW2 5010   3.094   0.741   1.368
 1371SOL     OW 5011   4.299   0.882   5.895
 1371SOL    HW1 5012   4.273   0.890   5.798
 1371SOL    HW2 5013   4.360   0.803   5.907
 1372SOL     OW 5014   1.911   2.440   0.996
 1372SOL    HW1 5015   1.960   2.466   1.079
 1372SOL    HW2 5016   1.941   2.498   0.920
 1373SOL     OW 5017   6.856   4.943   0.779
 1373SOL    HW1 5018   6.907   4.866   0.818
 1373SOL    HW2 5019   6.897   5.029   0.810
 1374SOL     OW 5020   3.805   1.969   1.116
 1374SOL    HW1 5021   3.866   2.041   1.081
 1374SOL    HW2 5022   3.710   1.997   1.105
 1375SOL     OW 5023   0.073   5.065   6.026
 1375SOL    HW1 5024   0.038   5.106   5.942
 1375SOL    HW2 5025   0.071   5.134   6.099
 1376SOL     OW 5026   5.079   2.725   3.573
 1376SOL    HW1 5027   5.084   2.764   3.665
 1376SOL    HW2 5028   4.999   2.666   3.566
 1377SOL     OW 5029   0.433   4.661   5.602
 1377SOL    HW1 5030   0.478   4.689   5.687
 1377SOL    HW2 5031   0.439   4.562   5.592
 1378SOL     OW 5032   1.126   2.571   6.646
 1378SOL    HW1 5033   1.140   2.481   6.685
 1378SOL    HW2 5034   1.028   2.593   6.644
 1379SOL     OW 5035   3.324   5.676   3.272
 1379SOL    HW1 5036   3.289   5.687   3.179
 1379SOL    HW2 5037   3.363   5.762   3.304
 1380SOL     OW 5038   6.672   6.779   2.680
 1380SOL    HW1 5039   6.585   6.749   2.642
 1380SOL    HW2 5040   6.746   6.756   2.616
 1381SOL     OW 5041   5.774   3.188   0.230
 1381SOL    HW1 5042   5.715   3.111   0.207
 1381SOL    HW2 5043   5.792   3.189   0.328
 1382SOL     OW 5044   5.879   5.178   6.229
 1382SOL    HW1 5045   5.843   5.122   6.155
 1382SOL    HW2 5046   5.972   5.208   6.206
 1383SOL     OW 5047   0.409   0.418   6.980
 1383SOL    HW1 5048   0.360   0.344   7.025
 1383SOL    HW2 5049   0.506   0.395   6.972
 1384SOL     OW 5050   4.224   1.050   3.215
 1384SOL    HW1 5051   4.317   1.083   3.231
 1384SOL    HW2 5052   4.159   1.125   3.230
 1385SOL     OW 5053   6.315   2.622   2.979
 1385SOL    HW1 5054   6.282   2.546   2.923
 1385SOL    HW2 5055   6.412   2.637   2.961
 1386SOL     OW 5056   2.219   3.114   4.275
 1386SOL    HW1 5057   2.220   3.067   4.363
 1386SOL    HW2 5058   2.279   3.066   4.210
 1387SOL     OW 5059   3.400   0.615   4.721
 1387SOL    HW1 5060   3.399   0.674   4.802
 1387SOL    HW2 5061   3.309   0.616   4.678
 1388SOL     OW 5062   6.576   0.943   4.262
 1388SOL    HW1 5063   6.583   0.918   4.166
 1388SOL    HW2 5064   6.666   0.933   4.305
 1389SOL     OW 5065   5.801   6.870   4.453
 1389SOL    HW1 5066   5.772   6.910   4.540
 1389SOL    HW2 5067   5.755   6.782   4.439
 1390SOL     OW 5068   3.983   1.784   1.533
 1390SOL    HW1 5069   4.078   1.809   1.513
 1390SOL    HW2 5070   3.922   1.831   1.469
 1391SOL     OW 5071   6.368   1.051   4.863
 1391SOL    HW1 5072   6.312   1.023   4.941
 1391SOL    HW2 5073   6.381   0.973   4.802
 1392SOL     OW 5074   4.795   5.771   6.880
 1392SOL    HW1 5075   4.708   5.751   6.924
 1392SOL    HW2 5076   4.867   5.715   6.921
 1393SOL     OW 5077   6.613   1.116   6.041
 1393SOL    HW1 5078   6.581   1.181   5.972
 1393SOL    HW2 5079   6.704   1.142   6.072
 1394SOL     OW 5080   3.816   6.895   3.659
 1394SOL    HW1 5081   3.803   6.796   3.656
 1394SOL    HW2 5082   3.763   6.933   3.735
 1395SOL     OW 5083   1.352   4.656   2.835
 1395SOL    HW1 5084   1.402   4.730   2.878
 1395SOL    HW2 5085   1.360   4.573   2.890
 1396SOL     OW 5086   2.516   1.219   4.601
 1396SOL    HW1 5087   2.420   1.215   4.628
 1396SOL    HW2 5088   2.523   1.242   4.504
 1397SOL     OW 5089   0.850   5.148   4.215
 1397SOL    HW1 5090   0.900   5.062   4.204
 1397SOL    HW2 5091   0.765   5.145   4.161
 1398SOL     OW 5092   1.004   1.691   0.764
 1398SOL    HW1 5093   1.098   1.708   0.734
 1398SOL    HW2 5094   0.982   1.751   0.840
 1399SOL     OW 5095   3.709   0.337   0.681
 1399SOL    HW1 5096   3.739   0.246   0.651
 1399SOL    HW2 5097   3.703   0.338   0.781
 1400SOL     OW 5098   6.158   0.845   4.264
 1400SOL    HW1 5099   6.233   0.876   4.323
 1400SOL    HW2 5100   6.088   0.800   4.320
 1401SOL     OW 5101   5.694   0.050   3.142
 1401SOL    HW1 5102   5.756   0.125   3.118
 1401SOL    HW2 5103   5.716   0.016   3.233
 1402SOL     OW 5104   6.291   3.785   1.648
 1402SOL    HW1 5105   6.390   3.800   1.642
 1402SOL    HW2 5106   6.243   3.857   1.598
 1403SOL     OW 5107   3.799   2.755   0.072
 1403SOL    HW1 5108   3.854   2.827   0.029
 1403SOL    HW2 5109   3.799   2.768   0.171
 1404SOL     OW 5110   4.683   6.984   0.791
 1404SOL    HW1 5111   4.614   7.009   0.723
 1404SOL    HW2 5112   4.697   0.034   0.854
 1405SOL     OW 5113   2.501   3.028   1.099
 1405SOL    HW1 5114   2.512   2.938   1.141
 1405SOL    HW2 5115   2.501   3.098   1.170
 1406SOL     OW 5116   2.964   3.345   1.397
 1406SOL    HW1 5117   2.979   3.340   1.496
 1406SOL    HW2 5118   3.049   3.326   1.349
 1407SOL     OW 5119   0.655   3.277   1.440
 1407SOL    HW1 5120   0.716   3.240   1.370
 1407SOL    HW2 5121   0.626   3.369   1.412
 1408SOL     OW 5122   5.907   6.066   6.642
 1408SOL    HW1 5123   5.829   6.102   6.590
 1408SOL    HW2 5124   5.919   5.969   6.620
 1409SOL     OW 5125   0.053   0.888   5.891
 1409SOL    HW1 5126   0.035   0.944   5.972
 1409SOL    HW2 5127   0.149   0.862   5.890
 1410SOL     OW 5128   3.440   2.309   6.206
 1410SOL    HW1 5129   3.484   2.245   6.141
 1410SOL    HW2 5130   3.511   2.362   6.252
 1411SOL     OW 5131   4.119   5.932   0.664
 1411SOL    HW1 5132   4.163   5.931   0.574
 1411SOL    HW2 5133   4.166   5.997   0.724
 1412SOL     OW 5134   1.654   2.437   0.840
 1412SOL    HW1 5135   1.673   2.512   0.775
 1412SOL    HW2 5136   1.734   2.424   0.899
 1413SOL     OW 5137   1.857   1.679   4.953
 1413SOL    HW1 5138   1.769   1.716   4.983
 1413SOL    HW2 5139   1.841   1.599   4.895
 1414SOL     OW 5140   1.251   3.694   2.061
 1414SOL    HW1 5141   1.311   3.665   2.136
 1414SOL    HW2 5142   1.213   3.613   2.016
 1415SOL     OW 5143   2.173   1.769   3.874
 1415SOL    HW1 5144   2.227   1.727   3.802
 1415SOL    HW2 5145   2.232   1.827   3.930
 1416SOL     OW 5146   4.124   6.997   6.035
 1416SOL    HW1 5147   4.200   0.029   6.006
 1416SOL    HW2 5148   4.160   6.914   6.078
 1417SOL     OW 5149   4.030   2.747   6.037
 1417SOL    HW1 5150   3.966   2.820   6.062
 1417SOL    HW2 5151   4.058   2.758   5.942
 1418SOL     OW 5152   3.729   4.196   6.947
 1418SOL    HW1 5153   3.717   4.186   6.848
 1418SOL    HW2 5154   3.821   4.228   6.966
 1419SOL     OW 5155   2.108   4.607   3.422
 1419SOL    HW1 5156   2.025   4.649   3.386
 1419SOL    HW2 5157   2.106   4.508   3.408
 1420SOL     OW 5158   3.396   5.411   3.307
 1420SOL    HW1 5159   3.331   5.352   3.356
 1420SOL    HW2 5160   3.356   5.502   3.295
 1421SOL     OW 5161   1.551   5.710   5.753
 1421SOL    HW1 5162   1.607   5.643   5.801
 1421SOL    HW2 5163   1.544   5.685   5.657
 1422SOL     OW 5164   2.709   3.366   5.950
 1422SOL    HW1 5165   2.740   3.351   5.856
 1422SOL    HW2 5166   2.787   3.393   6.007
 1423SOL     OW 5167   4.824   1.245   4.584
 1423SOL    HW1 5168   4.797   1.160   4.629
 1423SOL    HW2 5169   4.901   1.228   4.523
 1424SOL     OW 5170   5.621   2.697   6.565
 1424SOL    HW1 5171   5.713   2.684   6.602
 1424SOL    HW2 5172   5.602   2.795   6.558
 1425SOL     OW 5173   4.107   6.795   3.664
 1425SOL    HW1 5174   4.159   6.784   3.749
 1425SOL    HW2 5175   4.021   6.744   3.671
 1426SOL     OW 5176   2.792   1.962   0.006
 1426SOL    HW1 5177   2.703   1.981   0.046
 1426SOL    HW2 5178   2.785   1.966   6.932
 1427SOL     OW 5179   1.375   1.262   3.282
 1427SOL    HW1 5180   1.406   1.197   3.212
 1427SOL    HW2 5181   1.399   1.355   3.255
 1428SOL     OW 5182   6.864   3.760   3.461
 1428SOL    HW1 5183   6.923   3.679   3.457
 1428SOL    HW2 5184   6.834   3.775   3.556
 1429SOL     OW 5185   5.743   1.365   1.193
 1429SOL    HW1 5186   5.655   1.412   1.204
 1429SOL    HW2 5187   5.817   1.430   1.207
 1430SOL     OW 5188   1.826   3.469   3.530
 1430SOL    HW1 5189   1.864   3.553   3.568
 1430SOL    HW2 5190   1.766   3.491   3.453
 1431SOL     OW 5191   2.262   1.769   5.415
 1431SOL    HW1 5192   2.223   1.833   5.481
 1431SOL    HW2 5193   2.252   1.807   5.323
 1432SOL     OW 5194   2.572   1.563   1.687
 1432SOL    HW1 5195   2.577   1.509   1.603
 1432SOL    HW2 5196   2.662   1.600   1.708
 1433SOL     OW 5197   2.996   0.376   4.146
 1433SOL    HW1 5198   3.020   0.296   4.200
 1433SOL    HW2 5199   3.076   0.408   4.095
 1434SOL     OW 5200   0.097   3.389   6.777
 1434SOL    HW1 5201   0.195   3.393   6.796
 1434SOL    HW2 5202   0.046   3.414   6.859
 1435SOL     OW 5203   1.011   6.939   4.730
 1435SOL    HW1 5204   1.038   6.855   4.776
 1435SOL    HW2 5205   0.912   6.951   4.737
 1436SOL     OW 5206   5.676   1.774   1.030
 1436SOL    HW1 5207   5.773   1.756   1.042
 1436SOL    HW2 5208   5.655   1.867   1.059
 1437SOL     OW 5209   4.601   0.506   5.700
 1437SOL    HW1 5210   4.661   0.469   5.629
 1437SOL    HW2 5211   4.602   0.444   5.779
 1438SOL     OW 5212   2.548   0.712   1.757
 1438SOL    HW1 5213   2.519   0.676   1.845
 1438SOL    HW2 5214   2.468   0.731   1.700
 1439SOL     OW 5215   6.737   5.175   7.013
 1439SOL    HW1 5216   6.693   5.085   7.012
 1439SOL    HW2 5217   6.825   5.168   0.034
 1440SOL     OW 5218   2.950   3.331   3.368
 1440SOL    HW1 5219   2.934   3.424   3.334
 1440SOL    HW2 5220   2.985   3.274   3.294
 1441SOL     OW 5221   0.007   2.525   3.428
 1441SOL    HW1 5222   0.010   2.620   3.400
 1441SOL    HW2 5223   6.983   2.471   3.360
 1442SOL     OW 5224   4.843   4.620   0.642
 1442SOL    HW1 5225   4.775   4.569   0.590
 1442SOL    HW2 5226   4.808   4.711   0.662
 1443SOL     OW 5227   0.978   1.848   3.242
 1443SOL    HW1 5228   0.945   1.883   3.154
 1443SOL    HW2 5229   1.071   1.812   3.231
 1444SOL     OW 5230   4.118   1.118   3.534
 1444SOL    HW1 5231   4.152   1.052   3.601
 1444SOL    HW2 5232   4.189   1.187   3.517
 1445SOL     OW 5233   6.369   2.809   2.110
 1445SOL    HW1 5234   6.361   2.761   2.022
 1445SOL    HW2 5235   6.451   2.778   2.158
 1446SOL     OW 5236   3.478   1.929   1.544
 1446SOL    HW1 5237   3.577   1.920   1.540
 1446SOL    HW2 5238   3.454   2.015   1.589
 1447SOL     OW 5239   6.459   1.306   4.918
 1447SOL    HW1 5240   6.558   1.319   4.906
 1447SOL    HW2 5241   6.432   1.218   4.881
 1448SOL     OW 5242   5.613   1.168   6.075
 1448SOL    HW1 5243   5.692   1.229   6.083
 1448SOL    HW2 5244   5.594   1.151   5.979
 1449SOL     OW 5245   4.825   5.560   1.261
 1449SOL    HW1 5246   4.920   5.556   1.232
 1449SOL    HW2 5247   4.819   5.534   1.358
 1450SOL     OW 5248   5.784   2.666   3.231
 1450SOL    HW1 5249   5.768   2.708   3.142
 1450SOL    HW2 5250   5.715   2.596   3.248
 1451SOL     OW 5251   1.720   6.667   2.535
 1451SOL    HW1 5252   1.668   6.582   2.536
 1451SOL    HW2 5253   1.734   6.700   2.628
 1452SOL     OW 5254   4.913   0.647   5.390
 1452SOL    HW1 5255   4.970   0.615   5.315
 1452SOL    HW2 5256   4.937   0.598   5.473
 1453SOL     OW 5257   5.227   4.554   5.248
 1453SOL    HW1 5258   5.142   4.606   5.258
 1453SOL    HW2 5259   5.305   4.611   5.272
 1454SOL     OW 5260   4.759   3.351   1.715
 1454SOL    HW1 5261   4.810   3.305   1.642
 1454SOL    HW2 5262   4.715   3.282   1.773
 1455SOL     OW 5263   1.306   2.067   1.671
 1455SOL    HW1 5264   1.291   2.027   1.761
 1455SOL    HW2 5265   1.234   2.134   1.651
 1456SOL     OW 5266   6.457   6.433   4.326
 1456SOL    HW1 5267   6.426   6.527   4.338
 1456SOL    HW2 5268   6.377   6.373   4.313
 1457SOL     OW 5269   1.990   0.806   3.370
 1457SOL    HW1 5270   2.088   0.802   3.388
 1457SOL    HW2 5271   1.950   0.714   3.379
 1458SOL     OW 5272   5.855   6.089   6.269
 1458SOL    HW1 5273   5.922   6.027   6.227
 1458SOL    HW2 5274   5.865   6.180   6.229
 1459SOL     OW 5275   2.518   6.487   6.864
 1459SOL    HW1 5276   2.564   6.458   6.948
 1459SOL    HW2 5277   2.584   6.489   6.789
 1460SOL     OW 5278   1.470   0.121   7.010
 1460SOL    HW1 5279   1.461   0.044   6.947
 1460SOL    HW2 5280   1.457   0.207   6.960
 1461SOL     OW 5281   5.674   4.445   2.638
 1461SOL    HW1 5282   5.696   4.349   2.620
 1461SOL    HW2 5283   5.666   4.494   2.551
 1462SOL     OW 5284   5.813   0.742   0.326
 1462SOL    HW1 5285   5.759   0.808   0.273
 1462SOL    HW2 5286   5.795   0.649   0.291
 1463SOL     OW 5287   1.262   1.147   5.030
 1463SOL    HW1 5288   1.211   1.198   4.961
 1463SOL    HW2 5289   1.199   1.093   5.085
 1464SOL     OW 5290   0.134   6.316   0.970
 1464SOL    HW1 5291   0.230   6.288   0.980
 1464SOL    HW2 5292   0.126   6.414   0.990
 1465SOL     OW 5293   0.111   6.992   4.828
 1465SOL    HW1 5294   0.047   7.014   4.901
 1465SOL    HW2 5295   0.090   0.020   4.746
 1466SOL     OW 5296   5.886   5.196   3.476
 1466SOL    HW1 5297   5.811   5.212   3.540
 1466SOL    HW2 5298   5.946   5.125   3.512
 1467SOL     OW 5299   0.928   1.435   3.920
 1467SOL    HW1 5300   0.965   1.387   4.000
 1467SOL    HW2 5301   1.001   1.449   3.853
 1468SOL     OW 5302   5.521   5.789   3.249
 1468SOL    HW1 5303   5.579   5.757   3.323
 1468SOL    HW2 5304   5.425   5.773   3.271
 1469SOL     OW 5305   0.718   1.498   2.254
 1469SOL    HW1 5306   0.707   1.403   2.224
 1469SOL    HW2 5307   0.806   1.508   2.301
 1470SOL     OW 5308   1.448   1.128   3.047
 1470SOL    HW1 5309   1.479   1.146   2.954
 1470SOL    HW2 5310   1.358   1.084   3.044
 1471SOL     OW 5311   0.774   0.091   0.151
 1471SOL    HW1 5312   0.830   0.172   0.166
 1471SOL    HW2 5313   0.680   0.119   0.131
 1472SOL     OW 5314   4.876   0.285   5.970
 1472SOL    HW1 5315   4.892   0.361   6.033
 1472SOL    HW2 5316   4.948   0.282   5.901
 1473SOL     OW 5317   6.226   4.049   2.891
 1473SOL    HW1 5318   6.295   4.108   2.934
 1473SOL    HW2 5319   6.239   3.955   2.923
 1474SOL     OW 5320   5.761   5.822   4.344
 1474SOL    HW1 5321   5.736   5.730   4.313
 1474SOL    HW2 5322   5.731   5.890   4.277
 1475SOL     OW 5323   7.016   1.021   2.308
 1475SOL    HW1 5324   0.033   0.979   2.388
 1475SOL    HW2 5325   6.981   0.950   2.247
 1476SOL     OW 5326   0.408   2.268   2.056
 1476SOL    HW1 5327   0.436   2.308   2.143
 1476SOL    HW2 5328   0.459   2.310   1.981
 1477SOL     OW 5329   2.934   6.146   4.984
 1477SOL    HW1 5330   2.913   6.233   5.029
 1477SOL    HW2 5331   2.850   6.104   4.951
 1478SOL     OW 5332   6.143   4.816   0.380
 1478SOL    HW1 5333   6.070   4.765   0.336
 1478SOL    HW2 5334   6.231   4.773   0.360
 1479SOL     OW 5335   1.773   4.722   0.459
 1479SOL    HW1 5336   1.694   4.770   0.497
 1479SOL    HW2 5337   1.823   4.678   0.534
 1480SOL     OW 5338   2.678   1.230   0.571
 1480SOL    HW1 5339   2.639   1.227   0.663
 1480SOL    HW2 5340   2.700   1.324   0.546
 1481SOL     OW 5341   5.741   2.243   5.911
 1481SOL    HW1 5342   5.743   2.194   5.824
 1481SOL    HW2 5343   5.716   2.179   5.984
 1482SOL     OW 5344   6.108   0.550   6.639
 1482SOL    HW1 5345   6.134   0.496   6.719
 1482SOL    HW2 5346   6.184   0.608   6.611
 1483SOL     OW 5347   5.907   2.156   0.520
 1483SOL    HW1 5348   5.904   2.058   0.499
 1483SOL    HW2 5349   5.962   2.203   0.451
 1484SOL     OW 5350   6.685   5.396   3.147
 1484SOL    HW1 5351   6.659   5.408   3.051
 1484SOL    HW2 5352   6.783   5.376   3.152
 1485SOL     OW 5353   5.312   2.622   3.935
 1485SOL    HW1 5354   5.368   2.642   3.856
 1485SOL    HW2 5355   5.295   2.523   3.940
 1486SOL     OW 5356   4.442   1.680   2.536
 1486SOL    HW1 5357   4.450   1.640   2.444
 1486SOL    HW2 5358   4.524   1.660   2.588
 1487SOL     OW 5359   6.545   1.012   5.507
 1487SOL    HW1 5360   6.562   1.109   5.528
 1487SOL    HW2 5361   6.531   1.002   5.408
 1488SOL     OW 5362   4.744   1.158   2.987
 1488SOL    HW1 5363   4.675   1.101   2.942
 1488SOL    HW2 5364   4.829   1.106   2.995
 1489SOL     OW 5365   3.181   5.156   5.006
 1489SOL    HW1 5366   3.232   5.171   5.091
 1489SOL    HW2 5367   3.232   5.095   4.946
 1490SOL     OW 5368   1.470   2.977   0.329
 1490SOL    HW1 5369   1.394   2.961   0.392
 1490SOL    HW2 5370   1.505   3.070   0.343
 1491SOL     OW 5371   0.012   2.808   3.430
 1491SOL    HW1 5372   6.971   2.874   3.395
 1491SOL    HW2 5373   0.010   2.809   3.530
 1492SOL     OW 5374   4.816   1.801   1.384
 1492SOL    HW1 5375   4.851   1.739   1.315
 1492SOL    HW2 5376   4.872   1.793   1.467
 1493SOL     OW 5377   5.065   6.978   5.410
 1493SOL    HW1 5378   5.082   6.897   5.354
 1493SOL    HW2 5379   5.001   0.013   5.363
 1494SOL     OW 5380   4.050   2.306   5.549
 1494SOL    HW1 5381   4.088   2.372   5.614
 1494SOL    HW2 5382   4.060   2.214   5.587
 1495SOL     OW 5383   1.005   3.221   2.566
 1495SOL    HW1 5384   0.998   3.153   2.639
 1495SOL    HW2 5385   0.920   3.274   2.562
 1496SOL     OW 5386   0.367   0.189   2.733
 1496SOL    HW1 5387   0.420   0.189   2.648
 1496SOL    HW2 5388   0.350   0.284   2.762
 1497SOL     OW 5389   6.438   5.078   4.243
 1497SOL    HW1 5390   6.531   5.074   4.280
 1497SOL    HW2 5391   6.376   5.034   4.308
 1498SOL     OW 5392   2.042   5.392   0.029
 1498SOL    HW1 5393   2.120   5.442   0.067
 1498SOL    HW2 5394   2.044   5.298   0.062
 1499SOL     OW 5395   1.372   3.677   5.125
 1499SOL    HW1 5396   1.320   3.623   5.059
 1499SOL    HW2 5397   1.310   3.737   5.175
 1500SOL     OW 5398   5.301   6.636   0.389
 1500SOL    HW1 5399   5.293   6.732   0.413
 1500SOL    HW2 5400   5.211   6.601   0.362
 1501SOL     OW 5401   3.731   0.205   6.148
 1501SOL    HW1 5402   3.679   0.254   6.218
 1501SOL    HW2 5403   3.790   0.137   6.191
 1502SOL     OW 5404   6.529   6.379   0.520
 1502SOL    HW1 5405   6.485   6.392   0.609
 1502SOL    HW2 5406   6.486   6.303   0.472
 1503SOL     OW 5407   3.290   3.168   6.531
 1503SOL    HW1 5408   3.254   3.077   6.550
 1503SOL    HW2 5409   3.215   3.229   6.504
 1504SOL     OW 5410   3.442   6.686   4.614
 1504SOL    HW1 5411   3.408   6.702   4.521
 1504SOL    HW2 5412   3.412   6.596   4.646
 1505SOL     OW 5413   6.075   6.143   5.973
 1505SOL    HW1 5414   6.029   6.126   6.060
 1505SOL    HW2 5415   6.023   6.212   5.921
 1506SOL     OW 5416   1.022   5.946   4.585
 1506SOL    HW1 5417   0.978   6.018   4.531
 1506SOL    HW2 5418   1.115   5.975   4.608
 1507SOL     OW 5419   1.944   1.489   5.117
 1507SOL    HW1 5420   1.958   1.430   5.038
 1507SOL    HW2 5421   1.940   1.584   5.088
 1508SOL     OW 5422   4.728   6.732   0.594
 1508SOL    HW1 5423   4.743   6.778   0.681
 1508SOL    HW2 5424   4.781   6.778   0.523
 1509SOL     OW 5425   4.354   3.076   0.019
 1509SOL    HW1 5426   4.254   3.064   0.018
 1509SOL    HW2 5427   4.378   3.155   6.988
 1510SOL     OW 5428   0.048   1.852   3.783
 1510SOL    HW1 5429   0.067   1.864   3.686
 1510SOL    HW2 5430   0.109   1.911   3.836
 1511SOL     OW 5431   2.528   2.551   0.537
 1511SOL    HW1 5432   2.473   2.575   0.457
 1511SOL    HW2 5433   2.560   2.456   0.528
 1512SOL     OW 5434   0.157   1.198   1.383
 1512SOL    HW1 5435   0.174   1.106   1.417
 1512SOL    HW2 5436   0.176   1.265   1.455
 1513SOL     OW 5437   3.614   0.244   3.834
 1513SOL    HW1 5438   3.555   0.184   3.889
 1513SOL    HW2 5439   3.584   0.243   3.739
 1514SOL     OW 5440   6.415   1.667   4.700
 1514SOL    HW1 5441   6.440   1.733   4.629
 1514SOL    HW2 5442   6.332   1.618   4.673
 1515SOL     OW 5443   6.907   4.778   4.873
 1515SOL    HW1 5444   6.830   4.827   4.914
 1515SOL    HW2 5445   6.922   4.692   4.922
 1516SOL     OW 5446   0.584   1.330   0.636
 1516SOL    HW1 5447   0.679   1.364   0.635
 1516SOL    HW2 5448   0.582   1.236   0.604
 1517SOL     OW 5449   4.581   5.973   3.265
 1517SOL    HW1 5450   4.662   5.979   3.323
 1517SOL    HW2 5451   4.557   6.064   3.232
 1518SOL     OW 5452   6.856   4.262   1.017
 1518SOL    HW1 5453   6.786   4.242   0.948
 1518SOL    HW2 5454   6.933   4.200   1.005
 1519SOL     OW 5455   5.989   4.439   0.557
 1519SOL    HW1 5456   5.985   4.345   0.523
 1519SOL    HW2 5457   5.958   4.502   0.485
 1520SOL     OW 5458   2.162   3.846   2.616
 1520SOL    HW1 5459   2.254   3.880   2.637
 1520SOL    HW2 5460   2.148   3.758   2.662
 1521SOL     OW 5461   2.023   3.140   6.556
 1521SOL    HW1 5462   2.033   3.061   6.495
 1521SOL    HW2 5463   1.927   3.147   6.585
 1522SOL     OW 5464   5.934   1.759   6.573
 1522SOL    HW1 5465   5.911   1.748   6.669
 1522SOL    HW2 5466   5.934   1.856   6.549
 1523SOL     OW 5467   6.450   2.659   1.595
 1523SOL    HW1 5468   6.533   2.652   1.540
 1523SOL    HW2 5469   6.393   2.578   1.579
 1524SOL     OW 5470   6.897   1.102   1.601
 1524SOL    HW1 5471   6.946   1.065   1.522
 1524SOL    HW2 5472   6.936   1.191   1.626
 1525SOL     OW 5473   4.441   1.973   6.109
 1525SOL    HW1 5474   4.523   1.986   6.166
 1525SOL    HW2 5475   4.468   1.966   6.013
 1526SOL     OW 5476   6.950   2.630   1.529
 1526SOL    HW1 5477   6.989   2.714   1.567
 1526SOL    HW2 5478   7.009   2.594   1.457
 1527SOL     OW 5479   3.463   2.046   5.291
 1527SOL    HW1 5480   3.478   2.043   5.390
 1527SOL    HW2 5481   3.498   1.962   5.249
 1528SOL     OW 5482   4.655   6.258   3.554
 1528SOL    HW1 5483   4.681   6.185   3.492
 1528SOL    HW2 5484   4.709   6.252   3.638
 1529SOL     OW 5485   3.465   6.923   6.089
 1529SOL    HW1 5486   3.427   6.871   6.012
 1529SOL    HW2 5487   3.560   6.948   6.069
 1530SOL     OW 5488   3.390   6.419   2.187
 1530SOL    HW1 5489   3.365   6.468   2.104
 1530SOL    HW2 5490   3.308   6.384   2.232
 1531SOL     OW 5491   5.943   0.236   4.269
 1531SOL    HW1 5492   6.007   0.193   4.334
 1531SOL    HW2 5493   5.861   0.179   4.262
 1532SOL     OW 5494   3.283   2.241   5.383
 1532SOL    HW1 5495   3.343   2.175   5.340
 1532SOL    HW2 5496   3.243   2.301   5.314
 1533SOL     OW 5497   6.366   3.349   6.633
 1533SOL    HW1 5498   6.405   3.440   6.621
 1533SOL    HW2 5499   6.292   3.353   6.701
 1534SOL     OW 5500   0.849   5.873   1.102
 1534SOL    HW1 5501   0.812   5.867   1.194
 1534SOL    HW2 5502   0.949   5.865   1.105
 1535SOL     OW 5503   4.692   4.504   3.772
 1535SOL    HW1 5504   4.621   4.541   3.831
 1535SOL    HW2 5505   4.694   4.553   3.685
 1536SOL     OW 5506   2.856   5.738   4.871
 1536SOL    HW1 5507   2.847   5.652   4.922
 1536SOL    HW2 5508   2.903   5.806   4.928
 1537SOL     OW 5509   1.812   5.444   4.884
 1537SOL    HW1 5510   1.875   5.374   4.917
 1537SOL    HW2 5511   1.763   5.409   4.804
 1538SOL     OW 5512   2.668   4.940   6.933
 1538SOL    HW1 5513   2.697   4.894   7.017
 1538SOL    HW2 5514   2.745   4.987   6.892
 1539SOL     OW 5515   3.728   4.593   1.638
 1539SOL    HW1 5516   3.783   4.669   1.672
 1539SOL    HW2 5517   3.663   4.565   1.709
 1540SOL     OW 5518   0.885   0.123   5.228
 1540SOL    HW1 5519   0.833   0.048   5.269
 1540SOL    HW2 5520   0.883   0.115   5.128
 1541SOL     OW 5521   4.600   2.457   1.379
 1541SOL    HW1 5522   4.640   2.542   1.344
 1541SOL    HW2 5523   4.574   2.398   1.303
 1542SOL     OW 5524   0.305   6.473   1.380
 1542SOL    HW1 5525   0.384   6.415   1.360
 1542SOL    HW2 5526   0.311   6.508   1.473
 1543SOL     OW 5527   3.743   3.823   4.109
 1543SOL    HW1 5528   3.763   3.901   4.168
 1543SOL    HW2 5529   3.659   3.778   4.140
 1544SOL     OW 5530   3.191   4.061   2.631
 1544SOL    HW1 5531   3.118   4.051   2.564
 1544SOL    HW2 5532   3.158   4.032   2.721
 1545SOL     OW 5533   6.183   0.439   4.593
 1545SOL    HW1 5534   6.165   0.449   4.691
 1545SOL    HW2 5535   6.106   0.475   4.541
 1546SOL     OW 5536   6.665   5.845   6.169
 1546SOL    HW1 5537   6.762   5.853   6.144
 1546SOL    HW2 5538   6.650   5.888   6.258
 1547SOL     OW 5539   2.914   5.651   2.646
 1547SOL    HW1 5540   2.865   5.734   2.620
 1547SOL    HW2 5541   2.977   5.625   2.573
 1548SOL     OW 5542   4.800   4.293   4.777
 1548SOL    HW1 5543   4.744   4.315   4.697
 1548SOL    HW2 5544   4.837   4.378   4.816
 1549SOL     OW 5545   6.699   2.656   1.462
 1549SOL    HW1 5546   6.794   2.634   1.486
 1549SOL    HW2 5547   6.689   2.659   1.363
 1550SOL     OW 5548   1.954   6.100   4.436
 1550SOL    HW1 5549   1.911   6.187   4.413
 1550SOL    HW2 5550   1.891   6.025   4.417
 1551SOL     OW 5551   2.078   2.856   0.857
 1551SOL    HW1 5552   2.066   2.917   0.935
 1551SOL    HW2 5553   2.135   2.902   0.788
 1552SOL     OW 5554   1.277   0.894   1.172
 1552SOL    HW1 5555   1.277   0.803   1.130
 1552SOL    HW2 5556   1.219   0.893   1.253
 1553SOL     OW 5557   6.208   1.671   6.511
 1553SOL    HW1 5558   6.235   1.668   6.608
 1553SOL    HW2 5559   6.112   1.699   6.504
 1554SOL     OW 5560   3.706   1.773   1.962
 1554SOL    HW1 5561   3.671   1.850   1.909
 1554SOL    HW2 5562   3.786   1.734   1.916
 1555SOL     OW 5563   3.616   1.211   5.411
 1555SOL    HW1 5564   3.525   1.172   5.393
 1555SOL    HW2 5565   3.608   1.284   5.479
 1556SOL     OW 5566   3.818   0.599   0.594
 1556SOL    HW1 5567   3.786   0.527   0.655
 1556SOL    HW2 5568   3.864   0.558   0.516
 1557SOL     OW 5569   1.723   2.243   1.428
 1557SOL    HW1 5570   1.774   2.216   1.346
 1557SOL    HW2 5571   1.627   2.257   1.405
 1558SOL     OW 5572   6.053   3.362   5.512
 1558SOL    HW1 5573   5.971   3.320   5.471
 1558SOL    HW2 5574   6.059   3.458   5.483
 1559SOL     OW 5575   1.776   4.535   3.159
 1559SOL    HW1 5576   1.795   4.533   3.061
 1559SOL    HW2 5577   1.678   4.550   3.174
 1560SOL     OW 5578   3.587   1.360   1.311
 1560SOL    HW1 5579   3.656   1.290   1.297
 1560SOL    HW2 5580   3.542   1.346   1.399
 1561SOL     OW 5581   5.757   5.791   1.922
 1561SOL    HW1 5582   5.661   5.765   1.931
 1561SOL    HW2 5583   5.763   5.883   1.885
 1562SOL     OW 5584   3.586   6.939   2.430
 1562SOL    HW1 5585   3.649   6.880   2.480
 1562SOL    HW2 5586   3.502   6.950   2.483
 1563SOL     OW 5587   4.147   2.239   4.312
 1563SOL    HW1 5588   4.153   2.325   4.261
 1563SOL    HW2 5589   4.068   2.187   4.281
 1564SOL     OW 5590   0.921   2.184   2.169
 1564SOL    HW1 5591   0.916   2.233   2.256
 1564SOL    HW2 5592   0.856   2.108   2.170
 1565SOL     OW 5593   3.536   0.673   3.718
 1565SOL    HW1 5594   3.479   0.685   3.637
 1565SOL    HW2 5595   3.588   0.757   3.736
 1566SOL     OW 5596   4.596   4.370   2.819
 1566SOL    HW1 5597   4.631   4.288   2.864
 1566SOL    HW2 5598   4.580   4.351   2.722
 1567SOL     OW 5599   5.367   6.086   5.370
 1567SOL    HW1 5600   5.394   6.090   5.274
 1567SOL    HW2 5601   5.325   6.172   5.397
 1568SOL     OW 5602   1.844   6.425   2.797
 1568SOL    HW1 5603   1.835   6.523   2.814
 1568SOL    HW2 5604   1.940   6.398   2.808
 1569SOL     OW 5605   2.471   0.117   3.492
 1569SOL    HW1 5606   2.434   0.204   3.461
 1569SOL    HW2 5607   2.561   0.102   3.451
 1570SOL     OW 5608   3.347   6.917   0.390
 1570SOL    HW1 5609   3.329   6.914   0.291
 1570SOL    HW2 5610   3.441   6.946   0.406
 1571SOL     OW 5611   0.896   2.446   3.733
 1571SOL    HW1 5612   0.899   2.489   3.823
 1571SOL    HW2 5613   0.969   2.377   3.726
 1572SOL     OW 5614   1.340   5.050   2.016
 1572SOL    HW1 5615   1.321   5.076   1.922
 1572SOL    HW2 5616   1.318   4.953   2.030
 1573SOL     OW 5617   4.696   4.734   1.116
 1573SOL    HW1 5618   4.794   4.736   1.138
 1573SOL    HW2 5619   4.643   4.732   1.200
 1574SOL     OW 5620   6.982   3.528   2.471
 1574SOL    HW1 5621   6.910   3.574   2.419
 1574SOL    HW2 5622   6.945   3.447   2.516
 1575SOL     OW 5623   0.455   1.055   0.543
 1575SOL    HW1 5624   0.441   1.054   0.642
 1575SOL    HW2 5625   0.366   1.045   0.497
 1576SOL     OW 5626   0.316   6.674   2.074
 1576SOL    HW1 5627   0.259   6.754   2.055
 1576SOL    HW2 5628   0.401   6.703   2.118
 1577SOL     OW 5629   3.948   0.038   6.231
 1577SOL    HW1 5630   3.989   0.021   6.142
 1577SOL    HW2 5631   3.991   7.005   6.300
 1578SOL     OW 5632   4.900   0.635   0.442
 1578SOL    HW1 5633   4.876   0.720   0.488
 1578SOL    HW2 5634   4.833   0.564   0.466
 1579SOL     OW 5635   1.962   2.695   1.707
 1579SOL    HW1 5636   1.975   2.635   1.786
 1579SOL    HW2 5637   2.008   2.654   1.627
 1580SOL     OW 5638   3.305   4.145   3.050
 1580SOL    HW1 5639   3.370   4.132   2.974
 1580SOL    HW2 5640   3.245   4.222   3.029
 1581SOL     OW 5641   0.161   4.210   6.140
 1581SOL    HW1 5642   0.184   4.290   6.084
 1581SOL    HW2 5643   0.132   4.240   6.231
 1582SOL     OW 5644   4.626   6.188   6.427
 1582SOL    HW1 5645   4.627   6.168   6.525
 1582SOL    HW2 5646   4.719   6.210   6.396
 1583SOL     OW 5647   1.231   5.672   5.567
 1583SOL    HW1 5648   1.174   5.732   5.624
 1583SOL    HW2 5649   1.304   5.726   5.525
 1584SOL     OW 5650   0.793   5.252   6.445
 1584SOL    HW1 5651   0.693   5.255   6.445
 1584SOL    HW2 5652   0.824   5.163   6.411
 1585SOL     OW 5653   4.127   0.034   3.167
 1585SOL    HW1 5654   4.112   6.998   3.245
 1585SOL    HW2 5655   4.062   0.011   3.094
 1586SOL     OW 5656   3.182   5.593   4.127
 1586SOL    HW1 5657   3.206   5.532   4.202
 1586SOL    HW2 5658   3.087   5.623   4.137
 1587SOL     OW 5659   2.066   6.017   6.603
 1587SOL    HW1 5660   2.025   6.042   6.514
 1587SOL    HW2 5661   2.087   6.101   6.653
 1588SOL     OW 5662   6.179   0.177   2.785
 1588SOL    HW1 5663   6.241   0.107   2.823
 1588SOL    HW2 5664   6.085   0.145   2.794
 1589SOL     OW 5665   6.826   4.021   2.724
 1589SOL    HW1 5666   6.838   4.045   2.820
 1589SOL    HW2 5667   6.730   4.000   2.706
 1590SOL     OW 5668   6.901   1.466   3.170
 1590SOL    HW1 5669   6.918   1.367   3.161
 1590SOL    HW2 5670   6.944   1.513   3.093
 1591SOL     OW 5671   0.576   6.058   1.492
 1591SOL    HW1 5672   0.478   6.064   1.472
 1591SOL    HW2 5673   0.592   5.982   1.554
 1592SOL     OW 5674   1.176   4.024   0.261
 1592SOL    HW1 5675   1.236   4.062   0.190
 1592SOL    HW2 5676   1.119   4.097   0.299
 1593SOL     OW 5677   0.574   0.055   6.758
 1593SOL    HW1 5678   0.631   0.040   6.839
 1593SOL    HW2 5679   0.480   0.071   6.786
 1594SOL     OW 5680   6.565   0.265   1.657
 1594SOL    HW1 5681   6.633   0.196   1.631
 1594SOL    HW2 5682   6.603   0.325   1.728
 1595SOL     OW 5683   1.310   3.998   0.001
 1595SOL    HW1 5684   1.280   4.067   6.960
 1595SOL    HW2 5685   1.386   4.034   0.055
 1596SOL     OW 5686   5.704   4.413   2.245
 1596SOL    HW1 5687   5.747   4.323   2.257
 1596SOL    HW2 5688   5.730   4.449   2.155
 1597SOL     OW 5689   3.253   6.366   0.669
 1597SOL    HW1 5690   3.327   6.427   0.698
 1597SOL    HW2 5691   3.257   6.282   0.723
 1598SOL     OW 5692   1.713   5.743   7.012
 1598SOL    HW1 5693   1.804   5.750   6.972
 1598SOL    HW2 5694   1.705   5.657   0.037
 1599SOL     OW 5695   4.131   5.126   4.093
 1599SOL    HW1 5696   4.161   5.040   4.052
 1599SOL    HW2 5697   4.117   5.113   4.191
 1600SOL     OW 5698   3.330   6.891   2.728
 1600SOL    HW1 5699   3.330   6.916   2.631
 1600SOL    HW2 5700   3.416   6.919   2.770
 1601SOL     OW 5701   6.191   6.591   3.943
 1601SOL    HW1 5702   6.272   6.611   3.888
 1601SOL    HW2 5703   6.188   6.494   3.965
 1602SOL     OW 5704   4.428   5.166   3.971
 1602SOL    HW1 5705   4.333   5.198   3.969
 1602SOL    HW2 5706   4.488   5.238   3.936
 1603SOL     OW 5707   2.708   6.197   4.201
 1603SOL    HW1 5708   2.791   6.142   4.193
 1603SOL    HW2 5709   2.728   6.292   4.177
 1604SOL     OW 5710   3.774   4.908   2.156
 1604SOL    HW1 5711   3.737   4.843   2.090
 1604SOL    HW2 5712   3.770   4.869   2.248
 1605SOL     OW 5713   4.501   4.918   1.588
 1605SOL    HW1 5714   4.421   4.883   1.639
 1605SOL    HW2 5715   4.583   4.871   1.619
 1606SOL     OW 5716   4.430   6.357   4.514
 1606SOL    HW1 5717   4.477   6.301   4.445
 1606SOL    HW2 5718   4.391   6.438   4.469
 1607SOL     OW 5719   4.591   6.000   2.885
 1607SOL    HW1 5720   4.539   6.042   2.959
 1607SOL    HW2 5721   4.627   5.912   2.915
 1608SOL     OW 5722   6.694   0.299   2.874
 1608SOL    HW1 5723   6.729   0.215   2.833
 1608SOL    HW2 5724   6.605   0.281   2.916
 1609SOL     OW 5725   2.878   6.578   0.898
 1609SOL    HW1 5726   2.831   6.622   0.821
 1609SOL    HW2 5727   2.958   6.529   0.864
 1610SOL     OW 5728   4.475   6.889   0.209
 1610SOL    HW1 5729   4.568   6.853   0.202
 1610SOL    HW2 5730   4.416   6.840   0.145
 1611SOL     OW 5731   0.750   4.100   1.256
 1611SOL    HW1 5732   0.823   4.154   1.299
 1611SOL    HW2 5733   0.664   4.149   1.262
 1612SOL     OW 5734   3.052   6.306   1.141
 1612SOL    HW1 5735   3.025   6.236   1.075
 1612SOL    HW2 5736   2.971   6.351   1.178
 1613SOL     OW 5737   0.184   5.901   2.581
 1613SOL    HW1 5738   0.149   5.809   2.563
 1613SOL    HW2 5739   0.284   5.899   2.583
 1614SOL     OW 5740   5.615   2.732   6.964
 1614SOL    HW1 5741   5.671   2.670   6.909
 1614SOL    HW2 5742   5.549   2.678   7.017
 1615SOL     OW 5743   0.454   4.985   6.279
 1615SOL    HW1 5744   0.379   4.978   6.213
 1615SOL    HW2 5745   0.445   4.912   6.347
 1616SOL     OW 5746   2.818   1.359   5.239
 1616SOL    HW1 5747   2.849   1.353   5.144
 1616SOL    HW2 5748   2.796   1.454   5.261
 1617SOL     OW 5749   4.717   6.525   3.533
 1617SOL    HW1 5750   4.811   6.526   3.568
 1617SOL    HW2 5751   4.688   6.431   3.518
 1618SOL     OW 5752   2.440   6.007   3.192
 1618SOL    HW1 5753   2.412   5.972   3.102
 1618SOL    HW2 5754   2.530   5.971   3.215
 1619SOL     OW 5755   1.131   5.397   6.918
 1619SOL    HW1 5756   1.042   5.442   6.930
 1619SOL    HW2 5757   1.157   5.350   7.002
 1620SOL     OW 5758   3.489   5.075   0.898
 1620SOL    HW1 5759   3.532   4.987   0.919
 1620SOL    HW2 5760   3.552   5.149   0.923
 1621SOL     OW 5761   5.919   6.379   1.214
 1621SOL    HW1 5762   5.985   6.447   1.246
 1621SOL    HW2 5763   5.922   6.299   1.275
 1622SOL     OW 5764   1.052   3.721   4.730
 1622SOL    HW1 5765   1.117   3.744   4.802
 1622SOL    HW2 5766   0.978   3.789   4.729
 1623SOL     OW 5767   0.581   2.147   4.703
 1623SOL    HW1 5768   0.507   2.203   4.667
 1623SOL    HW2 5769   0.594   2.167   4.800
 1624SOL     OW 5770   4.258   1.131   0.945
 1624SOL    HW1 5771   4.191   1.190   0.901
 1624SOL    HW2 5772   4.301   1.179   1.021
 1625SOL     OW 5773   2.319   5.187   0.521
 1625SOL    HW1 5774   2.301   5.171   0.424
 1625SOL    HW2 5775   2.242   5.154   0.575
 1626SOL     OW 5776   2.956   2.420   1.438
 1626SOL    HW1 5777   2.935   2.393   1.344
 1626SOL    HW2 5778   2.875   2.406   1.496
 1627SOL     OW 5779   4.663   2.733   3.799
 1627SOL    HW1 5780   4.696   2.784   3.720
 1627SOL    HW2 5781   4.658   2.636   3.776
 1628SOL     OW 5782   5.322   5.964   6.426
 1628SOL    HW1 5783   5.301   5.998   6.334
 1628SOL    HW2 5784   5.246   5.986   6.487
 1629SOL     OW 5785   2.791   1.858   2.716
 1629SOL    HW1 5786   2.746   1.857   2.626
 1629SOL    HW2 5787   2.772   1.945   2.762
 1630SOL     OW 5788   0.771   4.282   0.411
 1630SOL    HW1 5789   0.788   4.292   0.313
 1630SOL    HW2 5790   0.674   4.261   0.426
 1631SOL     OW 5791   0.073   3.382   0.741
 1631SOL    HW1 5792   0.034   3.404   0.652
 1631SOL    HW2 5793   0.170   3.361   0.731
 1632SOL     OW 5794   6.017   4.353   2.605
 1632SOL    HW1 5795   6.075   4.425   2.568
 1632SOL    HW2 5796   5.946   4.394   2.663
 1633SOL     OW 5797   4.985   3.594   3.886
 1633SOL    HW1 5798   4.959   3.578   3.982
 1633SOL    HW2 5799   5.076   3.637   3.883
 1634SOL     OW 5800   4.813   0.597   4.515
 1634SOL    HW1 5801   4.839   0.513   4.563
 1634SOL    HW2 5802   4.875   0.671   4.542
 1635SOL     OW 5803   3.915   5.290   5.238
 1635SOL    HW1 5804   4.005   5.255   5.211
 1635SOL    HW2 5805   3.856   5.213   5.263
 1636SOL     OW 5806   4.982   5.546   1.549
 1636SOL    HW1 5807   5.013   5.481   1.619
 1636SOL    HW2 5808   4.883   5.557   1.556
 1637SOL     OW 5809   0.123   6.864   1.994
 1637SOL    HW1 5810   0.031   6.873   2.033
 1637SOL    HW2 5811   0.149   6.949   1.948
 1638SOL     OW 5812   6.612   3.326   1.807
 1638SOL    HW1 5813   6.522   3.340   1.766
 1638SOL    HW2 5814   6.681   3.317   1.734
 1639SOL     OW 5815   5.350   3.780   2.381
 1639SOL    HW1 5816   5.340   3.875   2.351
 1639SOL    HW2 5817   5.351   3.719   2.302
 1640SOL     OW 5818   6.426   0.102   0.741
 1640SOL    HW1 5819   6.357   0.096   0.814
 1640SOL    HW2 5820   6.433   0.014   0.694
 1641SOL     OW 5821   0.189   2.502   2.900
 1641SOL    HW1 5822   0.239   2.533   2.981
 1641SOL    HW2 5823   0.094   2.485   2.925
 1642SOL     OW 5824   5.793   2.758   5.659
 1642SOL    HW1 5825   5.772   2.660   5.659
 1642SOL    HW2 5826   5.744   2.802   5.735
 1643SOL     OW 5827   3.530   5.180   4.417
 1643SOL    HW1 5828   3.461   5.157   4.348
 1643SOL    HW2 5829   3.565   5.096   4.458
 1644SOL     OW 5830   5.909   3.104   0.504
 1644SOL    HW1 5831   5.897   3.012   0.468
 1644SOL    HW2 5832   5.855   3.115   0.588
 1645SOL     OW 5833   2.849   1.091   5.980
 1645SOL    HW1 5834   2.795   1.124   6.057
 1645SOL    HW2 5835   2.802   1.112   5.894
 1646SOL     OW 5836   0.880   5.491   0.318
 1646SOL    HW1 5837   0.977   5.473   0.298
 1646SOL    HW2 5838   0.824   5.417   0.281
 1647SOL     OW 5839   6.363   2.719   4.633
 1647SOL    HW1 5840   6.421   2.663   4.692
 1647SOL    HW2 5841   6.304   2.776   4.690
 1648SOL     OW 5842   5.296   6.051   0.635
 1648SOL    HW1 5843   5.355   6.098   0.700
 1648SOL    HW2 5844   5.200   6.067   0.659
 1649SOL     OW 5845   3.097   0.678   3.272
 1649SOL    HW1 5846   3.095   0.647   3.367
 1649SOL    HW2 5847   3.044   0.762   3.262
 1650SOL     OW 5848   2.623   5.412   6.554
 1650SOL    HW1 5849   2.660   5.486   6.498
 1650SOL    HW2 5850   2.693   5.343   6.569
 1651SOL     OW 5851   0.844   3.007   4.021
 1651SOL    HW1 5852   0.763   2.974   3.972
 1651SOL    HW2 5853   0.818   3.036   4.113
 1652SOL     OW 5854   1.014   2.727   1.371
 1652SOL    HW1 5855   1.045   2.817   1.402
 1652SOL    HW2 5856   0.939   2.695   1.430
 1653SOL     OW 5857   6.596   5.207   2.568
 1653SOL    HW1 5858   6.496   5.203   2.566
 1653SOL    HW2 5859   6.626   5.297   2.538
 1654SOL     OW 5860   0.492   3.128   1.908
 1654SOL    HW1 5861   0.566   3.078   1.953
 1654SOL    HW2 5862   0.523   3.161   1.819
 1655SOL     OW 5863   7.010   0.688   4.498
 1655SOL    HW1 5864   6.917   0.678   4.465
 1655SOL    HW2 5865   0.043   0.619   4.455
 1656SOL     OW 5866   2.212   5.426   4.410
 1656SOL    HW1 5867   2.163   5.480   4.342
 1656SOL    HW2 5868   2.310   5.432   4.394
 1657SOL     OW 5869   0.071   0.562   5.677
 1657SOL    HW1 5870   0.083   0.618   5.595
 1657SOL    HW2 5871   0.032   0.473   5.651
 1658SOL     OW 5872   6.804   6.977   0.529
 1658SOL    HW1 5873   6.770   6.887   0.556
 1658SOL    HW2 5874   6.756   0.022   0.581
 1659SOL     OW 5875   4.130   6.811   6.593
 1659SOL    HW1 5876   4.038   6.805   6.633
 1659SOL    HW2 5877   4.191   6.857   6.658
 1660SOL     OW 5878   1.818   6.646   1.984
 1660SOL    HW1 5879   1.858   6.723   2.034
 1660SOL    HW2 5880   1.770   6.680   1.903
 1661SOL     OW 5881   3.150   5.150   2.804
 1661SOL    HW1 5882   3.088   5.080   2.838
 1661SOL    HW2 5883   3.244   5.118   2.813
 1662SOL     OW 5884   6.959   1.497   5.423
 1662SOL    HW1 5885   6.880   1.551   5.451
 1662SOL    HW2 5886   0.013   1.527   5.475
 1663SOL     OW 5887   4.614   5.054   1.276
 1663SOL    HW1 5888   4.713   5.054   1.262
 1663SOL    HW2 5889   4.585   4.962   1.305
 1664SOL     OW 5890   0.520   7.011   5.236
 1664SOL    HW1 5891   0.559   0.077   5.230
 1664SOL    HW2 5892   0.433   7.007   5.188
 1665SOL     OW 5893   2.294   3.840   1.307
 1665SOL    HW1 5894   2.204   3.879   1.289
 1665SOL    HW2 5895   2.286   3.766   1.373
 1666SOL     OW 5896   5.466   0.298   6.409
 1666SOL    HW1 5897   5.522   0.350   6.346
 1666SOL    HW2 5898   5.376   0.281   6.368
 1667SOL     OW 5899   0.211   6.887   0.807
 1667SOL    HW1 5900   0.129   6.915   0.757
 1667SOL    HW2 5901   0.183   6.843   0.893
 1668SOL     OW 5902   5.126   4.609   3.716
 1668SOL    HW1 5903   5.161   4.580   3.805
 1668SOL    HW2 5904   5.195   4.592   3.646
 1669SOL     OW 5905   0.345   3.689   5.564
 1669SOL    HW1 5906   0.280   3.735   5.624
 1669SOL    HW2 5907   0.325   3.711   5.469
 1670SOL     OW 5908   2.007   4.714   6.108
 1670SOL    HW1 5909   1.921   4.748   6.144
 1670SOL    HW2 5910   1.990   4.655   6.029
 1671SOL     OW 5911   4.939   1.673   1.972
 1671SOL    HW1 5912   5.026   1.645   2.011
 1671SOL    HW2 5913   4.895   1.739   2.033
 1672SOL     OW 5914   0.570   3.019   0.190
 1672SOL    HW1 5915   0.503   2.973   0.133
 1672SOL    HW2 5916   0.594   3.108   0.150
 1673SOL     OW 5917   2.451   1.509   4.431
 1673SOL    HW1 5918   2.547   1.528   4.454
 1673SOL    HW2 5919   2.393   1.536   4.508
 1674SOL     OW 5920   4.970   2.847   2.459
 1674SOL    HW1 5921   4.933   2.845   2.366
 1674SOL    HW2 5922   5.057   2.796   2.461
 1675SOL     OW 5923   5.648   0.921   1.388
 1675SOL    HW1 5924   5.560   0.953   1.352
 1675SOL    HW2 5925   5.699   0.877   1.314
 1676SOL     OW 5926   2.112   2.154   3.067
 1676SOL    HW1 5927   2.184   2.159   3.136
 1676SOL    HW2 5928   2.085   2.246   3.040
 1677SOL     OW 5929   3.906   3.618   3.447
 1677SOL    HW1 5930   3.984   3.612   3.510
 1677SOL    HW2 5931   3.940   3.619   3.353
 1678SOL     OW 5932   0.421   6.378   0.950
 1678SOL    HW1 5933   0.393   6.402   0.857
 1678SOL    HW2 5934   0.481   6.449   0.985
 1679SOL     OW 5935   1.828   1.992   5.215
 1679SOL    HW1 5936   1.910   2.008   5.270
 1679SOL    HW2 5937   1.781   2.079   5.201
 1680SOL     OW 5938   5.113   2.997   4.407
 1680SOL    HW1 5939   5.208   2.996   4.439
 1680SOL    HW2 5940   5.057   3.050   4.469
 1681SOL     OW 5941   1.778   6.084   3.963
 1681SOL    HW1 5942   1.780   6.107   3.866
 1681SOL    HW2 5943   1.807   6.164   4.017
 1682SOL     OW 5944   2.655   6.666   5.205
 1682SOL    HW1 5945   2.732   6.692   5.263
 1682SOL    HW2 5946   2.601   6.595   5.251
 1683SOL     OW 5947   5.634   4.920   2.725
 1683SOL    HW1 5948   5.730   4.922   2.696
 1683SOL    HW2 5949   5.620   4.847   2.792
 1684SOL     OW 5950   1.599   4.951   1.865
 1684SOL    HW1 5951   1.655   4.879   1.825
 1684SOL    HW2 5952   1.539   4.913   1.935
 1685SOL     OW 5953   1.157   1.882   5.694
 1685SOL    HW1 5954   1.195   1.807   5.640
 1685SOL    HW2 5955   1.142   1.852   5.788
 1686SOL     OW 5956   4.720   5.008   3.350
 1686SOL    HW1 5957   4.774   4.950   3.412
 1686SOL    HW2 5958   4.743   4.985   3.255
 1687SOL     OW 5959   0.220   3.478   2.304
 1687SOL    HW1 5960   0.179   3.426   2.229
 1687SOL    HW2 5961   0.149   3.530   2.351
 1688SOL     OW 5962   2.310   2.264   3.805
 1688SOL    HW1 5963   2.388   2.328   3.807
 1688SOL    HW2 5964   2.233   2.305   3.854
 1689SOL     OW 5965   6.273   0.701   2.029
 1689SOL    HW1 5966   6.270   0.762   2.107
 1689SOL    HW2 5967   6.343   0.731   1.965
 1690SOL     OW 5968   0.534   3.878   4.356
 1690SOL    HW1 5969   0.505   3.942   4.426
 1690SOL    HW2 5970   0.539   3.786   4.394
 1691SOL     OW 5971   5.286   3.192   4.571
 1691SOL    HW1 5972   5.347   3.219   4.646
 1691SOL    HW2 5973   5.192   3.190   4.604
 1692SOL     OW 5974   5.856   5.160   2.177
 1692SOL    HW1 5975   5.886   5.079   2.226
 1692SOL    HW2 5976   5.928   5.229   2.181
 1693SOL     OW 5977   6.815   0.956   5.607
 1693SOL    HW1 5978   6.818   0.998   5.697
 1693SOL    HW2 5979   6.767   1.016   5.543
 1694SOL     OW 5980   5.829   1.121   4.961
 1694SOL    HW1 5981   5.731   1.112   4.945
 1694SOL    HW2 5982   5.857   1.058   5.033
 1695SOL     OW 5983   3.642   0.725   6.697
 1695SOL    HW1 5984   3.595   0.670   6.766
 1695SOL    HW2 5985   3.620   0.688   6.606
 1696SOL     OW 5986   4.383   5.871   7.018
 1696SOL    HW1 5987   4.340   5.781   7.017
 1696SOL    HW2 5988   4.478   5.862   0.024
 1697SOL     OW 5989   5.974   2.161   1.257
 1697SOL    HW1 5990   5.919   2.139   1.337
 1697SOL    HW2 5991   5.949   2.252   1.224
 1698SOL     OW 5992   3.297   0.760   1.978
 1698SOL    HW1 5993   3.389   0.721   1.984
 1698SOL    HW2 5994   3.292   0.843   2.034
 1699SOL     OW 5995   2.793   0.834   6.704
 1699SOL    HW1 5996   2.722   0.856   6.770
 1699SOL    HW2 5997   2.856   0.911   6.695
 1700SOL     OW 5998   6.197   3.261   3.288
 1700SOL    HW1 5999   6.204   3.319   3.207
 1700SOL    HW2 6000   6.120   3.198   3.277
 1701SOL     OW 6001   6.564   4.652   4.767
 1701SOL    HW1 6002   6.596   4.745   4.786
 1701SOL    HW2 6003   6.619   4.612   4.694
 1702SOL     OW 6004   1.857   1.837   5.859
 1702SOL    HW1 6005   1.825   1.865   5.768
 1702SOL    HW2 6006   1.784   1.852   5.926
 1703SOL     OW 6007   3.157   1.577   6.612
 1703SOL    HW1 6008   3.190   1.571   6.706
 1703SOL    HW2 6009   3.065   1.616   6.611
 1704SOL     OW 6010   2.646   1.594   0.538
 1704SOL    HW1 6011   2.727   1.547   0.502
 1704SOL    HW2 6012   2.632   1.679   0.488
 1705SOL     OW 6013   3.549   1.406   1.616
 1705SOL    HW1 6014   3.472   1.358   1.659
 1705SOL    HW2 6015   3.528   1.503   1.609
 1706SOL     OW 6016   4.281   2.044   0.736
 1706SOL    HW1 6017   4.332   1.988   0.671
 1706SOL    HW2 6018   4.206   1.990   0.775
 1707SOL     OW 6019   4.670   1.148   2.547
 1707SOL    HW1 6020   4.680   1.247   2.537
 1707SOL    HW2 6021   4.573   1.124   2.543
 1708SOL     OW 6022   3.354   5.233   2.156
 1708SOL    HW1 6023   3.308   5.292   2.090
 1708SOL    HW2 6024   3.374   5.145   2.113
 1709SOL     OW 6025   5.237   5.814   0.735
 1709SOL    HW1 6026   5.251   5.900   0.687
 1709SOL    HW2 6027   5.154   5.769   0.701
 1710SOL     OW 6028   4.563   5.246   3.137
 1710SOL    HW1 6029   4.493   5.175   3.148
 1710SOL    HW2 6030   4.531   5.332   3.176
 1711SOL     OW 6031   3.537   6.107   6.003
 1711SOL    HW1 6032   3.544   6.016   5.963
 1711SOL    HW2 6033   3.628   6.149   6.006
 1712SOL     OW 6034   0.441   2.390   4.663
 1712SOL    HW1 6035   0.471   2.375   4.569
 1712SOL    HW2 6036   0.467   2.482   4.693
 1713SOL     OW 6037   3.823   0.632   2.965
 1713SOL    HW1 6038   3.778   0.651   2.878
 1713SOL    HW2 6039   3.756   0.594   3.029
 1714SOL     OW 6040   3.652   2.555   7.017
 1714SOL    HW1 6041   3.704   2.638   0.013
 1714SOL    HW2 6042   3.716   2.481   6.998
 1715SOL     OW 6043   1.142   6.543   2.088
 1715SOL    HW1 6044   1.088   6.627   2.095
 1715SOL    HW2 6045   1.097   6.470   2.140
 1716SOL     OW 6046   4.824   0.524   3.982
 1716SOL    HW1 6047   4.753   0.454   3.993
 1716SOL    HW2 6048   4.913   0.479   3.977
 1717SOL     OW 6049   3.929   6.209   5.431
 1717SOL    HW1 6050   4.015   6.175   5.393
 1717SOL    HW2 6051   3.863   6.135   5.438
 1718SOL     OW 6052   2.136   2.580   2.201
 1718SOL    HW1 6053   2.056   2.525   2.227
 1718SOL    HW2 6054   2.215   2.552   2.255
 1719SOL     OW 6055   0.745   4.780   1.701
 1719SOL    HW1 6056   0.836   4.740   1.717
 1719SOL    HW2 6057   0.746   4.832   1.616
 1720SOL     OW 6058   6.774   2.781   5.728
 1720SOL    HW1 6059   6.706   2.739   5.788
 1720SOL    HW2 6060   6.733   2.861   5.683
 1721SOL     OW 6061   1.028   1.478   1.918
 1721SOL    HW1 6062   1.094   1.536   1.966
 1721SOL    HW2 6063   1.067   1.447   1.832
 1722SOL     OW 6064   3.273   1.990   2.810
 1722SOL    HW1 6065   3.266   2.071   2.869
 1722SOL    HW2 6066   3.290   2.020   2.716
 1723SOL     OW 6067   5.101   2.133   6.994
 1723SOL    HW1 6068   5.009   2.100   6.972
 1723SOL    HW2 6069   5.096   2.207   0.034
 1724SOL     OW 6070   6.354   2.410   1.534
 1724SOL    HW1 6071   6.260   2.403   1.501
 1724SOL    HW2 6072   6.368   2.345   1.609
 1725SOL     OW 6073   2.406   5.471   6.729
 1725SOL    HW1 6074   2.324   5.415   6.713
 1725SOL    HW2 6075   2.481   5.435   6.674
 1726SOL     OW 6076   5.431   4.630   3.724
 1726SOL    HW1 6077   5.467   4.636   3.631
 1726SOL    HW2 6078   5.506   4.641   3.790
 1727SOL     OW 6079   2.905   3.683   3.705
 1727SOL    HW1 6080   2.951   3.666   3.617
 1727SOL    HW2 6081   2.951   3.759   3.752
 1728SOL     OW 6082   4.814   3.174   5.271
 1728SOL    HW1 6083   4.811   3.075   5.261
 1728SOL    HW2 6084   4.729   3.206   5.313
 1729SOL     OW 6085   1.915   3.835   1.897
 1729SOL    HW1 6086   1.914   3.872   1.804
 1729SOL    HW2 6087   1.855   3.889   1.955
 1730SOL     OW 6088   2.570   4.831   5.584
 1730SOL    HW1 6089   2.590   4.782   5.669
 1730SOL    HW2 6090   2.487   4.793   5.543
 1731SOL     OW 6091   5.943   4.260   3.948
 1731SOL    HW1 6092   6.015   4.271   3.879
 1731SOL    HW2 6093   5.978   4.205   4.024
 1732SOL     OW 6094   2.006   5.038   6.874
 1732SOL    HW1 6095   2.047   4.947   6.875
 1732SOL    HW2 6096   2.040   5.089   6.795
 1733SOL     OW 6097   2.702   3.441   0.195
 1733SOL    HW1 6098   2.658   3.370   0.139
 1733SOL    HW2 6099   2.661   3.530   0.174
 1734SOL     OW 6100   0.036   3.279   1.248
 1734SOL    HW1 6101   0.012   3.350   1.314
 1734SOL    HW2 6102   0.132   3.253   1.260
 1735SOL     OW 6103   3.857   5.468   6.632
 1735SOL    HW1 6104   3.811   5.383   6.608
 1735SOL    HW2 6105   3.789   5.534   6.665
 1736SOL     OW 6106   4.969   3.596   1.221
 1736SOL    HW1 6107   5.033   3.528   1.256
 1736SOL    HW2 6108   5.010   3.642   1.142
 1737SOL     OW 6109   4.659   1.393   4.431
 1737SOL    HW1 6110   4.712   1.473   4.403
 1737SOL    HW2 6111   4.711   1.339   4.498
 1738SOL     OW 6112   1.068   3.604   3.919
 1738SOL    HW1 6113   1.047   3.508   3.938
 1738SOL    HW2 6114   1.145   3.608   3.855
 1739SOL     OW 6115   5.248   0.050   4.237
 1739SOL    HW1 6116   5.206   0.109   4.307
 1739SOL    HW2 6117   5.207   0.069   4.148
 1740SOL     OW 6118   6.924   2.049   4.487
 1740SOL    HW1 6119   7.017   2.049   4.452
 1740SOL    HW2 6120   6.878   2.134   4.460
 1741SOL     OW 6121   1.284   1.901   4.736
 1741SOL    HW1 6122   1.304   1.889   4.833
 1741SOL    HW2 6123   1.192   1.940   4.726
 1742SOL     OW 6124   6.224   5.987   6.247
 1742SOL    HW1 6125   6.306   6.002   6.302
 1742SOL    HW2 6126   6.155   6.054   6.272
 1743SOL     OW 6127   1.603   0.823   3.189
 1743SOL    HW1 6128   1.679   0.809   3.125
 1743SOL    HW2 6129   1.623   0.903   3.246
 1744SOL     OW 6130   5.094   2.304   3.339
 1744SOL    HW1 6131   5.086   2.286   3.437
 1744SOL    HW2 6132   5.041   2.236   3.288
 1745SOL     OW 6133   6.287   6.244   1.435
 1745SOL    HW1 6134   6.337   6.182   1.496
 1745SOL    HW2 6135   6.350   6.288   1.371
 1746SOL     OW 6136   1.540   3.870   3.227
 1746SOL    HW1 6137   1.615   3.929   3.197
 1746SOL    HW2 6138   1.497   3.909   3.308
 1747SOL     OW 6139   3.305   1.005   2.118
 1747SOL    HW1 6140   3.272   1.048   2.202
 1747SOL    HW2 6141   3.262   1.050   2.039
 1748SOL     OW 6142   7.012   1.580   4.243
 1748SOL    HW1 6143   7.024   1.675   4.215
 1748SOL    HW2 6144   6.915   1.557   4.242
 1749SOL     OW 6145   2.670   5.104   1.245
 1749SOL    HW1 6146   2.759   5.078   1.208
 1749SOL    HW2 6147   2.611   5.024   1.247
 1750SOL     OW 6148   4.488   0.693   5.923
 1750SOL    HW1 6149   4.478   0.638   6.006
 1750SOL    HW2 6150   4.530   0.638   5.851
 1751SOL     OW 6151   5.982   2.714   5.082
 1751SOL    HW1 6152   5.886   2.688   5.082
 1751SOL    HW2 6153   5.996   2.792   5.021
 1752SOL     OW 6154   6.332   0.815   1.197
 1752SOL    HW1 6155   6.430   0.797   1.206
 1752SOL    HW2 6156   6.281   0.732   1.222
 1753SOL     OW 6157   6.233   1.293   1.703
 1753SOL    HW1 6158   6.250   1.228   1.778
 1753SOL    HW2 6159   6.211   1.242   1.620
 1754SOL     OW 6160   2.983   5.591   5.561
 1754SOL    HW1 6161   2.923   5.605   5.640
 1754SOL    HW2 6162   2.949   5.514   5.507
 1755SOL     OW 6163   6.184   6.859   5.274
 1755SOL    HW1 6164   6.209   6.941   5.221
 1755SOL    HW2 6165   6.267   6.815   5.309
 1756SOL     OW 6166   5.483   0.406   5.967
 1756SOL    HW1 6167   5.526   0.451   5.889
 1756SOL    HW2 6168   5.534   0.428   6.050
 1757SOL     OW 6169   2.667   5.274   5.199
 1757SOL    HW1 6170   2.754   5.258   5.154
 1757SOL    HW2 6171   2.663   5.369   5.231
 1758SOL     OW 6172   1.995   6.776   4.592
 1758SOL    HW1 6173   2.093   6.774   4.573
 1758SOL    HW2 6174   1.963   6.682   4.607
 1759SOL     OW 6175   1.403   6.267   0.288
 1759SOL    HW1 6176   1.432   6.363   0.287
 1759SOL    HW2 6177   1.304   6.262   0.278
 1760SOL     OW 6178   6.507   0.663   5.336
 1760SOL    HW1 6179   6.526   0.591   5.270
 1760SOL    HW2 6180   6.561   0.648   5.419
 1761SOL     OW 6181   6.635   2.358   1.383
 1761SOL    HW1 6182   6.622   2.270   1.429
 1761SOL    HW2 6183   6.564   2.422   1.412
 1762SOL     OW 6184   0.444   1.362   5.287
 1762SOL    HW1 6185   0.360   1.416   5.291
 1762SOL    HW2 6186   0.502   1.395   5.213
 1763SOL     OW 6187   0.778   3.464   4.618
 1763SOL    HW1 6188   0.852   3.486   4.682
 1763SOL    HW2 6189   0.802   3.382   4.567
 1764SOL     OW 6190   1.253   4.975   2.493
 1764SOL    HW1 6191   1.162   4.978   2.451
 1764SOL    HW2 6192   1.294   4.886   2.478
 1765SOL     OW 6193   5.425   2.968   1.811
 1765SOL    HW1 6194   5.409   2.908   1.889
 1765SOL    HW2 6195   5.520   2.958   1.780
 1766SOL     OW 6196   4.062   5.068   4.380
 1766SOL    HW1 6197   3.968   5.033   4.370
 1766SOL    HW2 6198   4.064   5.138   4.451
 1767SOL     OW 6199   0.123   4.896   2.543
 1767SOL    HW1 6200   0.130   4.875   2.446
 1767SOL    HW2 6201   0.039   4.947   2.561
 1768SOL     OW 6202   4.778   6.476   2.049
 1768SOL    HW1 6203   4.695   6.480   2.105
 1768SOL    HW2 6204   4.759   6.424   1.966
 1769SOL     OW 6205   5.594   0.098   6.569
 1769SOL    HW1 6206   5.587   0.029   6.497
 1769SOL    HW2 6207   5.522   0.166   6.557
 1770SOL     OW 6208   1.826   4.916   6.599
 1770SOL    HW1 6209   1.797   4.830   6.556
 1770SOL    HW2 6210   1.858   4.979   6.528
 1771SOL     OW 6211   0.885   3.973   5.892
 1771SOL    HW1 6212   0.970   3.954   5.844
 1771SOL    HW2 6213   0.827   3.891   5.892
 1772SOL     OW 6214   2.551   4.554   4.213
 1772SOL    HW1 6215   2.623   4.588   4.273
 1772SOL    HW2 6216   2.485   4.501   4.267
 1773SOL     OW 6217   0.272   6.943   5.140
 1773SOL    HW1 6218   0.228   6.876   5.200
 1773SOL    HW2 6219   0.216   7.025   5.134
 1774SOL     OW 6220   5.941   5.715   1.173
 1774SOL    HW1 6221   5.875   5.717   1.098
 1774SOL    HW2 6222   6.002   5.636   1.162
 1775SOL     OW 6223   2.115   5.416   6.582
 1775SOL    HW1 6224   2.095   5.488   6.516
 1775SOL    HW2 6225   2.070   5.436   6.669
 1776SOL     OW 6226   4.077   1.207   6.042
 1776SOL    HW1 6227   4.152   1.142   6.027
 1776SOL    HW2 6228   4.091   1.255   6.129
 1777SOL     OW 6229   4.396   6.773   6.723
 1777SOL    HW1 6230   4.463   6.802   6.791
 1777SOL    HW2 6231   4.365   6.680   6.743
 1778SOL     OW 6232   5.972   0.648   3.794
 1778SOL    HW1 6233   5.942   0.581   3.862
 1778SOL    HW2 6234   5.932   0.737   3.816
 1779SOL     OW 6235   5.686   6.263   3.963
 1779SOL    HW1 6236   5.663   6.342   3.907
 1779SOL    HW2 6237   5.604   6.232   4.012
 1780SOL     OW 6238   1.927   5.503   5.389
 1780SOL    HW1 6239   1.939   5.574   5.320
 1780SOL    HW2 6240   1.895   5.544   5.475
 1781SOL     OW 6241   4.260   0.363   3.975
 1781SOL    HW1 6242   4.211   0.304   4.039
 1781SOL    HW2 6243   4.228   0.458   3.986
 1782SOL     OW 6244   1.633   1.900   2.989
 1782SOL    HW1 6245   1.626   1.813   2.941
 1782SOL    HW2 6246   1.720   1.904   3.038
 1783SOL     OW 6247   1.713   4.382   6.328
 1783SOL    HW1 6248   1.788   4.360   6.266
 1783SOL    HW2 6249   1.676   4.296   6.366
 1784SOL     OW 6250   2.243   0.739   0.968
 1784SOL    HW1 6251   2.209   0.774   1.056
 1784SOL    HW2 6252   2.324   0.683   0.983
 1785SOL     OW 6253   1.397   6.466   4.297
 1785SOL    HW1 6254   1.474   6.490   4.239
 1785SOL    HW2 6255   1.331   6.542   4.298
 1786SOL     OW 6256   1.249   5.987   0.885
 1786SOL    HW1 6257   1.203   6.069   0.850
 1786SOL    HW2 6258   1.286   5.934   0.808
 1787SOL     OW 6259   1.898   3.528   5.715
 1787SOL    HW1 6260   1.947   3.482   5.641
 1787SOL    HW2 6261   1.800   3.516   5.704
 1788SOL     OW 6262   4.447   4.064   0.662
 1788SOL    HW1 6263   4.360   4.047   0.616
 1788SOL    HW2 6264   4.471   3.986   0.719
 1789SOL     OW 6265   6.688   3.611   1.943
 1789SOL    HW1 6266   6.753   3.672   1.989
 1789SOL    HW2 6267   6.595   3.637   1.969
 1790SOL     OW 6268   2.871   2.309   4.241
 1790SOL    HW1 6269   2.916   2.233   4.193
 1790SOL    HW2 6270   2.924   2.393   4.227
 1791SOL     OW 6271   5.631   6.984   3.656
 1791SOL    HW1 6272   5.699   7.012   3.589
 1791SOL    HW2 6273   5.539   7.004   3.621
 1792SOL     OW 6274   6.714   1.431   5.075
 1792SOL    HW1 6275   6.647   1.487   5.123
 1792SOL    HW2 6276   6.767   1.488   5.013
 1793SOL     OW 6277   0.180   1.148   5.408
 1793SOL    HW1 6278   0.199   1.070   5.348
 1793SOL    HW2 6279   0.136   1.115   5.492
 1794SOL     OW 6280   0.310   6.829   6.110
 1794SOL    HW1 6281   0.318   6.784   6.021
 1794SOL    HW2 6282   0.221   6.808   6.150
 1795SOL     OW 6283   5.789   4.740   0.010
 1795SOL    HW1 6284   5.821   4.665   6.978
 1795SOL    HW2 6285   5.696   4.765   7.009
 1796SOL     OW 6286   0.542   6.463   6.067
 1796SOL    HW1 6287   0.598   6.541   6.038
 1796SOL    HW2 6288   0.517   6.473   6.163
 1797SOL     OW 6289   2.342   6.226   4.690
 1797SOL    HW1 6290   2.421   6.251   4.634
 1797SOL    HW2 6291   2.285   6.162   4.639
 1798SOL     OW 6292   2.985   3.919   4.645
 1798SOL    HW1 6293   2.935   3.854   4.702
 1798SOL    HW2 6294   3.027   3.989   4.704
 1799SOL     OW 6295   2.955   0.862   0.105
 1799SOL    HW1 6296   2.957   0.960   0.083
 1799SOL    HW2 6297   2.879   0.844   0.167
 1800SOL     OW 6298   5.240   3.466   4.808
 1800SOL    HW1 6299   5.261   3.553   4.762
 1800SOL    HW2 6300   5.319   3.405   4.802
 1801SOL     OW 6301   0.819   1.938   2.167
 1801SOL    HW1 6302   0.798   1.845   2.136
 1801SOL    HW2 6303   0.825   1.940   2.267
 1802SOL     OW 6304   6.844   4.896   3.949
 1802SOL    HW1 6305   6.886   4.875   4.038
 1802SOL    HW2 6306   6.903   4.861   3.876
 1803SOL     OW 6307   0.845   6.763   3.041
 1803SOL    HW1 6308   0.826   6.707   2.961
 1803SOL    HW2 6309   0.880   6.705   3.115
 1804SOL     OW 6310   2.465   3.252   5.957
 1804SOL    HW1 6311   2.422   3.309   5.886
 1804SOL    HW2 6312   2.562   3.275   5.964
 1805SOL     OW 6313   0.126   6.045   6.377
 1805SOL    HW1 6314   0.160   6.010   6.291
 1805SOL    HW2 6315   0.174   6.129   6.401
 1806SOL     OW 6316   6.881   2.002   2.373
 1806SOL    HW1 6317   6.962   1.948   2.396
 1806SOL    HW2 6318   6.902   2.060   2.294
 1807SOL     OW 6319   6.420   3.650   1.998
 1807SOL    HW1 6320   6.362   3.616   1.924
 1807SOL    HW2 6321   6.365   3.703   2.062
 1808SOL     OW 6322   5.151   1.824   5.692
 1808SOL    HW1 6323   5.249   1.810   5.682
 1808SOL    HW2 6324   5.130   1.848   5.787
 1809SOL     OW 6325   3.864   1.892   5.918
 1809SOL    HW1 6326   3.850   1.943   6.003
 1809SOL    HW2 6327   3.778   1.891   5.866
 1810SOL     OW 6328   0.600   7.024   3.985
 1810SOL    HW1 6329   0.649   6.973   3.914
 1810SOL    HW2 6330   0.502   7.005   3.978
 1811SOL     OW 6331   4.251   5.635   2.902
 1811SOL    HW1 6332   4.265   5.725   2.859
 1811SOL    HW2 6333   4.260   5.644   3.001
 1812SOL     OW 6334   4.588   7.018   5.238
 1812SOL    HW1 6335   4.497   6.978   5.221
 1812SOL    HW2 6336   4.588   0.041   5.325
 1813SOL     OW 6337   4.789   4.092   2.254
 1813SOL    HW1 6338   4.742   4.066   2.170
 1813SOL    HW2 6339   4.724   4.133   2.318
 1814SOL     OW 6340   0.297   6.445   0.702
 1814SOL    HW1 6341   0.232   6.512   0.737
 1814SOL    HW2 6342   0.282   6.431   0.604
 1815SOL     OW 6343   5.715   6.012   1.749
 1815SOL    HW1 6344   5.801   6.063   1.738
 1815SOL    HW2 6345   5.713   5.936   1.685
 1816SOL     OW 6346   4.347   5.823   6.144
 1816SOL    HW1 6347   4.268   5.834   6.084
 1816SOL    HW2 6348   4.425   5.791   6.091
 1817SOL     OW 6349   1.453   1.929   3.867
 1817SOL    HW1 6350   1.383   1.872   3.822
 1817SOL    HW2 6351   1.497   1.876   3.940
 1818SOL     OW 6352   2.305   6.765   0.608
 1818SOL    HW1 6353   2.268   6.825   0.678
 1818SOL    HW2 6354   2.402   6.788   0.592
 1819SOL     OW 6355   2.325   4.696   3.265
 1819SOL    HW1 6356   2.317   4.794   3.281
 1819SOL    HW2 6357   2.262   4.646   3.324
 1820SOL     OW 6358   3.200   1.105   3.725
 1820SOL    HW1 6359   3.270   1.161   3.768
 1820SOL    HW2 6360   3.131   1.079   3.793
 1821SOL     OW 6361   4.157   2.248   2.436
 1821SOL    HW1 6362   4.225   2.247   2.509
 1821SOL    HW2 6363   4.065   2.261   2.475
 1822SOL     OW 6364   0.345   3.158   2.334
 1822SOL    HW1 6365   0.279   3.190   2.266
 1822SOL    HW2 6366   0.299   3.095   2.398
 1823SOL     OW 6367   4.172   6.488   2.495
 1823SOL    HW1 6368   4.088   6.437   2.475
 1823SOL    HW2 6369   4.165   6.580   2.456
 1824SOL     OW 6370   3.915   2.990   0.698
 1824SOL    HW1 6371   3.830   2.937   0.694
 1824SOL    HW2 6372   3.914   3.048   0.779
 1825SOL     OW 6373   2.047   1.898   4.967
 1825SOL    HW1 6374   2.012   1.957   4.894
 1825SOL    HW2 6375   1.973   1.839   5.000
 1826SOL     OW 6376   3.486   2.202   1.688
 1826SOL    HW1 6377   3.536   2.262   1.751
 1826SOL    HW2 6378   3.411   2.253   1.646
 1827SOL     OW 6379   5.543   4.515   0.643
 1827SOL    HW1 6380   5.496   4.441   0.690
 1827SOL    HW2 6381   5.635   4.525   0.681
 1828SOL     OW 6382   1.569   3.525   5.376
 1828SOL    HW1 6383   1.639   3.518   5.305
 1828SOL    HW2 6384   1.600   3.478   5.459
 1829SOL     OW 6385   2.898   1.024   3.661
 1829SOL    HW1 6386   2.927   1.038   3.756
 1829SOL    HW2 6387   2.834   1.096   3.635
 1830SOL     OW 6388   5.665   6.576   4.857
 1830SOL    HW1 6389   5.605   6.604   4.783
 1830SOL    HW2 6390   5.632   6.615   4.943
 1831SOL     OW 6391   4.951   5.406   2.085
 1831SOL    HW1 6392   4.876   5.466   2.057
 1831SOL    HW2 6393   5.028   5.461   2.118
 1832SOL     OW 6394   2.988   2.968   0.612
 1832SOL    HW1 6395   2.925   2.895   0.582
 1832SOL    HW2 6396   3.009   2.956   0.709
 1833SOL     OW 6397   5.074   0.240   0.922
 1833SOL    HW1 6398   5.060   0.248   0.823
 1833SOL    HW2 6399   5.106   0.148   0.943
 1834SOL     OW 6400   2.535   2.688   6.389
 1834SOL    HW1 6401   2.537   2.713   6.485
 1834SOL    HW2 6402   2.560   2.767   6.333
 1835SOL     OW 6403   0.055   5.556   1.175
 1835SOL    HW1 6404   7.003   5.563   1.238
 1835SOL    HW2 6405   0.082   5.461   1.167
 1836SOL     OW 6406   5.298   2.480   1.366
 1836SOL    HW1 6407   5.249   2.400   1.399
 1836SOL    HW2 6408   5.395   2.473   1.389
 1837SOL     OW 6409   2.536   1.716   6.362
 1837SOL    HW1 6410   2.542   1.807   6.403
 1837SOL    HW2 6411   2.590   1.651   6.417
 1838SOL     OW 6412   6.450   0.792   0.660
 1838SOL    HW1 6413   6.517   0.847   0.610
 1838SOL    HW2 6414   6.404   0.850   0.727
 1839SOL     OW 6415   6.212   1.104   6.908
 1839SOL    HW1 6416   6.195   1.180   6.971
 1839SOL    HW2 6417   6.140   1.035   6.919
 1840SOL     OW 6418   4.125   0.052   3.626
 1840SOL    HW1 6419   4.102   6.981   3.618
 1840SOL    HW2 6420   4.195   0.075   3.559
 1841SOL     OW 6421   1.959   1.387   2.197
 1841SOL    HW1 6422   1.955   1.446   2.278
 1841SOL    HW2 6423   1.924   1.436   2.118
 1842SOL     OW 6424   1.451   5.545   0.262
 1842SOL    HW1 6425   1.392   5.588   0.193
 1842SOL    HW2 6426   1.495   5.464   0.222
 1843SOL     OW 6427   3.649   1.249   4.544
 1843SOL    HW1 6428   3.651   1.307   4.626
 1843SOL    HW2 6429   3.606   1.299   4.469
 1844SOL     OW 6430   5.711   1.352   6.762
 1844SOL    HW1 6431   5.803   1.382   6.787
 1844SOL    HW2 6432   5.712   1.317   6.669
 1845SOL     OW 6433   1.722   1.340   3.238
 1845SOL    HW1 6434   1.676   1.429   3.238
 1845SOL    HW2 6435   1.687   1.285   3.163
 1846SOL     OW 6436   4.645   1.392   2.458
 1846SOL    HW1 6437   4.573   1.432   2.401
 1846SOL    HW2 6438   4.716   1.460   2.475
 1847SOL     OW 6439   2.326   0.499   5.356
 1847SOL    HW1 6440   2.383   0.466   5.280
 1847SOL    HW2 6441   2.383   0.549   5.421
 1848SOL     OW 6442   2.550   5.777   4.281
 1848SOL    HW1 6443   2.534   5.797   4.184
 1848SOL    HW2 6444   2.637   5.816   4.309
 1849SOL     OW 6445   4.675   2.743   1.931
 1849SOL    HW1 6446   4.705   2.832   1.966
 1849SOL    HW2 6447   4.712   2.671   1.990
 1850SOL     OW 6448   4.894   1.751   1.716
 1850SOL    HW1 6449   4.905   1.699   1.802
 1850SOL    HW2 6450   4.874   1.846   1.737
 1851SOL     OW 6451   7.014   3.900   5.183
 1851SOL    HW1 6452   6.919   3.908   5.214
 1851SOL    HW2 6453   0.006   3.806   5.155
 1852SOL     OW 6454   1.672   5.481   2.416
 1852SOL    HW1 6455   1.684   5.407   2.350
 1852SOL    HW2 6456   1.736   5.555   2.395
 1853SOL     OW 6457   0.366   2.377   4.150
 1853SOL    HW1 6458   0.433   2.377   4.224
 1853SOL    HW2 6459   0.286   2.431   4.178
 1854SOL     OW 6460   0.387   6.378   3.872
 1854SOL    HW1 6461   0.358   6.287   3.900
 1854SOL    HW2 6462   0.344   6.402   3.785
 1855SOL     OW 6463   4.957   3.370   5.110
 1855SOL    HW1 6464   4.896   3.342   5.184
 1855SOL    HW2 6465   4.918   3.448   5.062
 1856SOL     OW 6466   3.456   2.621   0.169
 1856SOL    HW1 6467   3.546   2.624   0.124
 1856SOL    HW2 6468   3.422   2.527   0.169
 1857SOL     OW 6469   4.944   1.132   0.441
 1857SOL    HW1 6470   4.915   1.198   0.510
 1857SOL    HW2 6471   5.044   1.131   0.436
 1858SOL     OW 6472   4.444   2.440   4.372
 1858SOL    HW1 6473   4.512   2.503   4.410
 1858SOL    HW2 6474   4.379   2.414   4.443
 1859SOL     OW 6475   5.478   2.052   3.717
 1859SOL    HW1 6476   5.556   2.041   3.778
 1859SOL    HW2 6477   5.482   1.983   3.645
 1860SOL     OW 6478   1.307   1.406   4.493
 1860SOL    HW1 6479   1.255   1.365   4.567
 1860SOL    HW2 6480   1.349   1.491   4.525
 1861SOL     OW 6481   6.383   0.236   3.306
 1861SOL    HW1 6482   6.329   0.227   3.222
 1861SOL    HW2 6483   6.466   0.181   3.299
 1862SOL     OW 6484   2.408   6.343   6.657
 1862SOL    HW1 6485   2.455   6.258   6.634
 1862SOL    HW2 6486   2.447   6.381   6.741
 1863SOL     OW 6487   0.501   3.039   1.405
 1863SOL    HW1 6488   0.547   3.127   1.419
 1863SOL    HW2 6489   0.507   2.985   1.488
 1864SOL     OW 6490   3.438   5.843   2.722
 1864SOL    HW1 6491   3.456   5.934   2.758
 1864SOL    HW2 6492   3.353   5.844   2.669
 1865SOL     OW 6493   5.774   0.899   5.946
 1865SOL    HW1 6494   5.814   0.920   6.035
 1865SOL    HW2 6495   5.681   0.938   5.942
 1866SOL     OW 6496   0.064   4.668   3.395
 1866SOL    HW1 6497   6.991   4.681   3.405
 1866SOL    HW2 6498   0.095   4.597   3.458
 1867SOL     OW 6499   2.254   2.279   0.577
 1867SOL    HW1 6500   2.270   2.272   0.675
 1867SOL    HW2 6501   2.209   2.366   0.556
 1868SOL     OW 6502   5.866   4.209   5.757
 1868SOL    HW1 6503   5.809   4.262   5.819
 1868SOL    HW2 6504   5.880   4.261   5.672
 1869SOL     OW 6505   4.878   1.843   4.213
 1869SOL    HW1 6506   4.841   1.805   4.299
 1869SOL    HW2 6507   4.836   1.932   4.196
 1870SOL     OW 6508   0.546   5.051   4.097
 1870SOL    HW1 6509   0.484   4.982   4.133
 1870SOL    HW2 6510   0.504   5.142   4.106
 1871SOL     OW 6511   0.708   6.517   0.349
 1871SOL    HW1 6512   0.724   6.556   0.258
 1871SOL    HW2 6513   0.781   6.546   0.411
 1872SOL     OW 6514   2.528   2.624   0.813
 1872SOL    HW1 6515   2.515   2.596   0.718
 1872SOL    HW2 6516   2.624   2.646   0.829
 1873SOL     OW 6517   6.588   0.775   6.966
 1873SOL    HW1 6518   6.519   0.736   6.905
 1873SOL    HW2 6519   6.595   0.874   6.950
 1874SOL     OW 6520   0.875   6.194   0.164
 1874SOL    HW1 6521   0.873   6.214   0.066
 1874SOL    HW2 6522   0.809   6.121   0.184
 1875SOL     OW 6523   6.421   4.937   0.195
 1875SOL    HW1 6524   6.335   4.988   0.198
 1875SOL    HW2 6525   6.484   4.974   0.263
 1876SOL     OW 6526   6.866   6.002   6.483
 1876SOL    HW1 6527   6.857   6.044   6.574
 1876SOL    HW2 6528   6.956   6.024   6.445
 1877SOL     OW 6529   0.112   0.939   1.877
 1877SOL    HW1 6530   0.040   1.001   1.846
 1877SOL    HW2 6531   0.072   0.850   1.900
 1878SOL     OW 6532   6.980   4.682   3.754
 1878SOL    HW1 6533   0.053   4.676   3.740
 1878SOL    HW2 6534   6.937   4.717   3.671
 1879SOL     OW 6535   4.217   5.660   4.673
 1879SOL    HW1 6536   4.301   5.714   4.665
 1879SOL    HW2 6537   4.208   5.601   4.594
 1880SOL     OW 6538   0.532   1.399   4.145
 1880SOL    HW1 6539   0.506   1.456   4.223
 1880SOL    HW2 6540   0.462   1.329   4.130
 1881SOL     OW 6541   1.336   1.358   3.960
 1881SOL    HW1 6542   1.280   1.275   3.958
 1881SOL    HW2 6543   1.399   1.357   3.882
 1882SOL     OW 6544   1.711   5.962   0.178
 1882SOL    HW1 6545   1.631   6.021   0.187
 1882SOL    HW2 6546   1.699   5.902   0.099
 1883SOL     OW 6547   1.497   3.067   2.860
 1883SOL    HW1 6548   1.522   3.099   2.951
 1883SOL    HW2 6549   1.575   3.020   2.818
 1884SOL     OW 6550   3.265   0.518   0.404
 1884SOL    HW1 6551   3.342   0.528   0.466
 1884SOL    HW2 6552   3.249   0.604   0.355
 1885SOL     OW 6553   6.911   2.405   0.957
 1885SOL    HW1 6554   6.918   2.501   0.982
 1885SOL    HW2 6555   7.001   2.362   0.967
 1886SOL     OW 6556   3.011   2.956   6.753
 1886SOL    HW1 6557   2.946   3.025   6.785
 1886SOL    HW2 6558   3.088   2.950   6.817
 1887SOL     OW 6559   1.199   6.342   5.920
 1887SOL    HW1 6560   1.202   6.323   6.018
 1887SOL    HW2 6561   1.285   6.384   5.891
 1888SOL     OW 6562   2.058   2.234   5.954
 1888SOL    HW1 6563   2.068   2.277   5.865
 1888SOL    HW2 6564   2.094   2.294   6.025
 1889SOL     OW 6565   4.229   2.607   0.394
 1889SOL    HW1 6566   4.188   2.697   0.379
 1889SOL    HW2 6567   4.314   2.618   0.445
 1890SOL     OW 6568   6.859   5.439   6.581
 1890SOL    HW1 6569   6.794   5.512   6.601
 1890SOL    HW2 6570   6.855   5.370   6.653
 1891SOL     OW 6571   6.044   3.057   5.697
 1891SOL    HW1 6572   6.047   3.091   5.791
 1891SOL    HW2 6573   5.971   3.104   5.647
 1892SOL     OW 6574   3.970   5.580   1.841
 1892SOL    HW1 6575   3.907   5.657   1.827
 1892SOL    HW2 6576   3.972   5.524   1.758
 1893SOL     OW 6577   3.937   1.838   4.201
 1893SOL    HW1 6578   3.858   1.801   4.152
 1893SOL    HW2 6579   3.992   1.763   4.237
 1894SOL     OW 6580   4.218   3.770   0.661
 1894SOL    HW1 6581   4.206   3.699   0.592
 1894SOL    HW2 6582   4.268   3.732   0.739
 1895SOL     OW 6583   5.545   0.293   3.304
 1895SOL    HW1 6584   5.598   0.210   3.282
 1895SOL    HW2 6585   5.595   0.348   3.371
 1896SOL     OW 6586   6.913   1.617   5.079
 1896SOL    HW1 6587   6.984   1.612   5.149
 1896SOL    HW2 6588   6.955   1.622   4.988
 1897SOL     OW 6589   6.038   4.950   3.487
 1897SOL    HW1 6590   6.025   4.855   3.459
 1897SOL    HW2 6591   6.021   4.960   3.585
 1898SOL     OW 6592   5.808   4.532   0.733
 1898SOL    HW1 6593   5.867   4.484   0.669
 1898SOL    HW2 6594   5.859   4.553   0.816
 1899SOL     OW 6595   0.826   2.806   2.852
 1899SOL    HW1 6596   0.787   2.850   2.771
 1899SOL    HW2 6597   0.914   2.848   2.874
 1900SOL     OW 6598   2.150   5.840   6.265
 1900SOL    HW1 6599   2.183   5.813   6.356
 1900SOL    HW2 6600   2.064   5.890   6.274
 1901SOL     OW 6601   1.403   0.995   6.540
 1901SOL    HW1 6602   1.479   1.055   6.518
 1901SOL    HW2 6603   1.411   0.965   6.635
 1902SOL     OW 6604   0.790   2.984   4.297
 1902SOL    HW1 6605   0.818   2.899   4.342
 1902SOL    HW2 6606   0.713   3.024   4.345
 1903SOL     OW 6607   6.511   3.189   3.764
 1903SOL    HW1 6608   6.483   3.146   3.679
 1903SOL    HW2 6609   6.435   3.241   3.802
 1904SOL     OW 6610   6.342   6.939   3.728
 1904SOL    HW1 6611   6.379   6.894   3.809
 1904SOL    HW2 6612   6.268   6.885   3.690
 1905SOL     OW 6613   6.843   2.495   3.646
 1905SOL    HW1 6614   6.866   2.510   3.550
 1905SOL    HW2 6615   6.749   2.523   3.662
 1906SOL     OW 6616   2.606   0.420   6.651
 1906SOL    HW1 6617   2.636   0.329   6.625
 1906SOL    HW2 6618   2.545   0.414   6.731
 1907SOL     OW 6619   3.220   6.131   3.610
 1907SOL    HW1 6620   3.314   6.164   3.611
 1907SOL    HW2 6621   3.201   6.088   3.521
 1908SOL     OW 6622   4.270   1.527   6.190
 1908SOL    HW1 6623   4.323   1.469   6.128
 1908SOL    HW2 6624   4.329   1.598   6.227
 1909SOL     OW 6625   2.471   5.390   4.389
 1909SOL    HW1 6626   2.498   5.384   4.293
 1909SOL    HW2 6627   2.459   5.298   4.426
 1910SOL     OW 6628   5.339   1.884   5.929
 1910SOL    HW1 6629   5.379   1.815   5.990
 1910SOL    HW2 6630   5.280   1.944   5.983
 1911SOL     OW 6631   6.397   3.041   4.997
 1911SOL    HW1 6632   6.492   3.041   4.966
 1911SOL    HW2 6633   6.349   3.118   4.956
 1912SOL     OW 6634   3.484   6.801   3.132
 1912SOL    HW1 6635   3.517   6.883   3.179
 1912SOL    HW2 6636   3.511   6.719   3.184
 1913SOL     OW 6637   1.692   5.160   5.583
 1913SOL    HW1 6638   1.706   5.198   5.492
 1913SOL    HW2 6639   1.771   5.182   5.641
 1914SOL     OW 6640   3.632   2.653   6.028
 1914SOL    HW1 6641   3.698   2.633   6.100
 1914SOL    HW2 6642   3.625   2.752   6.015
 1915SOL     OW 6643   3.815   0.180   5.460
 1915SOL    HW1 6644   3.730   0.201   5.508
 1915SOL    HW2 6645   3.817   0.083   5.436
 1916SOL     OW 6646   3.440   6.095   1.942
 1916SOL    HW1 6647   3.380   6.076   2.020
 1916SOL    HW2 6648   3.471   6.190   1.947
 1917SOL     OW 6649   2.967   3.356   4.315
 1917SOL    HW1 6650   3.031   3.405   4.255
 1917SOL    HW2 6651   2.877   3.351   4.271
 1918SOL     OW 6652   6.099   6.182   4.479
 1918SOL    HW1 6653   6.094   6.089   4.515
 1918SOL    HW2 6654   6.156   6.238   4.539
 1919SOL     OW 6655   6.951   6.453   1.694
 1919SOL    HW1 6656   7.007   6.484   1.770
 1919SOL    HW2 6657   6.862   6.423   1.727
 1920SOL     OW 6658   6.839   6.002   4.118
 1920SOL    HW1 6659   6.837   6.015   4.217
 1920SOL    HW2 6660   6.846   5.905   4.097
 1921SOL     OW 6661   0.865   6.306   6.947
 1921SOL    HW1 6662   0.890   6.394   6.987
 1921SOL    HW2 6663   0.928   6.283   6.873
 1922SOL     OW 6664   3.732   3.886   0.853
 1922SOL    HW1 6665   3.829   3.872   0.836
 1922SOL    HW2 6666   3.717   3.904   0.950
 1923SOL     OW 6667   1.640   1.103   0.609
 1923SOL    HW1 6668   1.689   1.190   0.615
 1923SOL    HW2 6669   1.581   1.092   0.688
 1924SOL     OW 6670   0.294   4.511   1.853
 1924SOL    HW1 6671   0.370   4.576   1.855
 1924SOL    HW2 6672   0.313   4.437   1.917
 1925SOL     OW 6673   3.146   4.262   1.410
 1925SOL    HW1 6674   3.216   4.333   1.405
 1925SOL    HW2 6675   3.174   4.192   1.475
 1926SOL     OW 6676   1.246   6.806   4.103
 1926SOL    HW1 6677   1.193   6.870   4.047
 1926SOL    HW2 6678   1.337   6.844   4.120
 1927SOL     OW 6679   3.607   4.029   6.436
 1927SOL    HW1 6680   3.699   4.028   6.398
 1927SOL    HW2 6681   3.593   3.948   6.493
 1928SOL     OW 6682   6.118   3.837   5.827
 1928SOL    HW1 6683   6.209   3.872   5.807
 1928SOL    HW2 6684   6.109   3.744   5.790
 1929SOL     OW 6685   0.544   6.317   1.389
 1929SOL    HW1 6686   0.628   6.371   1.383
 1929SOL    HW2 6687   0.563   6.232   1.438
 1930SOL     OW 6688   5.702   4.300   6.219
 1930SOL    HW1 6689   5.634   4.272   6.287
 1930SOL    HW2 6690   5.721   4.398   6.231
 1931SOL     OW 6691   0.593   3.246   4.202
 1931SOL    HW1 6692   0.534   3.324   4.221
 1931SOL    HW2 6693   0.583   3.218   4.106
 1932SOL     OW 6694   5.384   4.113   1.602
 1932SOL    HW1 6695   5.392   4.013   1.598
 1932SOL    HW2 6696   5.316   4.137   1.671
 1933SOL     OW 6697   2.871   4.626   0.798
 1933SOL    HW1 6698   2.864   4.666   0.707
 1933SOL    HW2 6699   2.832   4.534   0.798
 1934SOL     OW 6700   0.880   6.292   6.170
 1934SOL    HW1 6701   0.885   6.225   6.244
 1934SOL    HW2 6702   0.790   6.287   6.127
 1935SOL     OW 6703   2.562   0.508   3.928
 1935SOL    HW1 6704   2.623   0.442   3.972
 1935SOL    HW2 6705   2.540   0.477   3.836
 1936SOL     OW 6706   6.322   6.074   4.653
 1936SOL    HW1 6707   6.244   6.077   4.715
 1936SOL    HW2 6708   6.365   5.984   4.656
 1937SOL     OW 6709   4.048   6.442   1.993
 1937SOL    HW1 6710   4.069   6.526   2.044
 1937SOL    HW2 6711   4.131   6.388   1.983
 1938SOL     OW 6712   3.883   1.240   3.657
 1938SOL    HW1 6713   3.796   1.193   3.648
 1938SOL    HW2 6714   3.957   1.179   3.628
 1939SOL     OW 6715   1.540   1.313   3.773
 1939SOL    HW1 6716   1.632   1.352   3.765
 1939SOL    HW2 6717   1.503   1.295   3.682
 1940SOL     OW 6718   6.466   5.215   0.032
 1940SOL    HW1 6719   6.436   5.210   0.128
 1940SOL    HW2 6720   6.562   5.241   0.028
 1941SOL     OW 6721   5.421   3.635   2.128
 1941SOL    HW1 6722   5.382   3.644   2.036
 1941SOL    HW2 6723   5.473   3.549   2.134
 1942SOL     OW 6724   6.458   4.973   2.388
 1942SOL    HW1 6725   6.424   4.995   2.479
 1942SOL    HW2 6726   6.530   5.037   2.362
 1943SOL     OW 6727   2.428   4.373   3.666
 1943SOL    HW1 6728   2.456   4.444   3.602
 1943SOL    HW2 6729   2.489   4.373   3.745
 1944SOL     OW 6730   6.295   0.714   0.004
 1944SOL    HW1 6731   6.285   0.749   6.937
 1944SOL    HW2 6732   6.360   0.771   0.054
 1945SOL     OW 6733   4.142   5.375   3.784
 1945SOL    HW1 6734   4.089   5.314   3.844
 1945SOL    HW2 6735   4.132   5.345   3.689
 1946SOL     OW 6736   1.091   0.151   6.873
 1946SOL    HW1 6737   1.080   0.161   6.775
 1946SOL    HW2 6738   1.114   0.240   6.913
 1947SOL     OW 6739   5.254   5.866   3.291
 1947SOL    HW1 6740   5.181   5.874   3.223
 1947SOL    HW2 6741   5.214   5.868   3.382
 1948SOL     OW 6742   6.637   5.834   4.520
 1948SOL    HW1 6743   6.571   5.869   4.587
 1948SOL    HW2 6744   6.602   5.751   4.479
 1949SOL     OW 6745   4.427   4.382   6.445
 1949SOL    HW1 6746   4.482   4.314   6.397
 1949SOL    HW2 6747   4.377   4.438   6.379
 1950SOL     OW 6748   3.187   3.994   6.387
 1950SOL    HW1 6749   3.233   3.910   6.416
 1950SOL    HW2 6750   3.088   3.985   6.402
 1951SOL     OW 6751   5.988   1.436   6.777
 1951SOL    HW1 6752   6.069   1.403   6.728
 1951SOL    HW2 6753   5.980   1.387   6.864
 1952SOL     OW 6754   3.886   2.122   0.545
 1952SOL    HW1 6755   3.964   2.100   0.487
 1952SOL    HW2 6756   3.818   2.172   0.491
 1953SOL     OW 6757   6.822   2.128   6.630
 1953SOL    HW1 6758   6.728   2.114   6.660
 1953SOL    HW2 6759   6.873   2.043   6.640
 1954SOL     OW 6760   3.935   2.110   4.165
 1954SOL    HW1 6761   3.844   2.131   4.203
 1954SOL    HW2 6762   3.960   2.016   4.188
 1955SOL     OW 6763   0.211   6.442   2.184
 1955SOL    HW1 6764   0.116   6.420   2.165
 1955SOL    HW2 6765   0.233   6.533   2.147
 1956SOL     OW 6766   5.622   5.845   2.773
 1956SOL    HW1 6767   5.577   5.934   2.784
 1956SOL    HW2 6768   5.717   5.859   2.744
 1957SOL     OW 6769   0.667   6.049   4.492
 1957SOL    HW1 6770   0.615   6.135   4.496
 1957SOL    HW2 6771   0.652   5.997   4.576
 1958SOL     OW 6772   5.298   3.473   5.324
 1958SOL    HW1 6773   5.307   3.567   5.356
 1958SOL    HW2 6774   5.288   3.473   5.224
 1959SOL     OW 6775   1.497   2.113   6.335
 1959SOL    HW1 6776   1.552   2.191   6.303
 1959SOL    HW2 6777   1.551   2.060   6.400
 1960SOL     OW 6778   5.917   5.098   0.497
 1960SOL    HW1 6779   5.967   5.177   0.533
 1960SOL    HW2 6780   5.853   5.129   0.426
 1961SOL     OW 6781   5.928   4.723   3.943
 1961SOL    HW1 6782   5.976   4.646   3.984
 1961SOL    HW2 6783   5.910   4.702   3.847
 1962SOL     OW 6784   1.384   6.016   3.183
 1962SOL    HW1 6785   1.312   5.973   3.128
 1962SOL    HW2 6786   1.371   6.115   3.184
 1963SOL     OW 6787   0.769   0.576   2.645
 1963SOL    HW1 6788   0.840   0.561   2.713
 1963SOL    HW2 6789   0.708   0.496   2.643
 1964SOL     OW 6790   4.095   2.252   2.157
 1964SOL    HW1 6791   4.111   2.333   2.212
 1964SOL    HW2 6792   4.003   2.216   2.174
 1965SOL     OW 6793   0.798   3.577   2.750
 1965SOL    HW1 6794   0.780   3.505   2.816
 1965SOL    HW2 6795   0.859   3.646   2.790
 1966SOL     OW 6796   0.087   5.398   5.105
 1966SOL    HW1 6797   7.015   5.375   5.112
 1966SOL    HW2 6798   0.112   5.460   5.180
 1967SOL     OW 6799   4.563   2.741   5.389
 1967SOL    HW1 6800   4.589   2.675   5.459
 1967SOL    HW2 6801   4.467   2.728   5.364
 1968SOL     OW 6802   2.666   6.360   0.041
 1968SOL    HW1 6803   2.759   6.368   0.078
 1968SOL    HW2 6804   2.601   6.393   0.110
 1969SOL     OW 6805   7.007   2.482   1.753
 1969SOL    HW1 6806   6.981   2.521   1.665
 1969SOL    HW2 6807   6.957   2.529   1.826
 1970SOL     OW 6808   2.007   0.044   5.144
 1970SOL    HW1 6809   1.956   0.079   5.065
 1970SOL    HW2 6810   2.061   0.118   5.184
 1971SOL     OW 6811   0.390   6.204   6.709
 1971SOL    HW1 6812   0.324   6.187   6.782
 1971SOL    HW2 6813   0.424   6.298   6.717
 1972SOL     OW 6814   0.581   4.356   3.930
 1972SOL    HW1 6815   0.603   4.438   3.982
 1972SOL    HW2 6816   0.616   4.365   3.836
 1973SOL     OW 6817   3.505   2.521   1.452
 1973SOL    HW1 6818   3.583   2.460   1.437
 1973SOL    HW2 6819   3.524   2.581   1.530
 1974SOL     OW 6820   5.360   6.567   4.267
 1974SOL    HW1 6821   5.334   6.555   4.172
 1974SOL    HW2 6822   5.390   6.479   4.305
 1975SOL     OW 6823   2.801   0.630   3.821
 1975SOL    HW1 6824   2.723   0.606   3.878
 1975SOL    HW2 6825   2.850   0.546   3.795
 1976SOL     OW 6826   0.219   6.104   0.367
 1976SOL    HW1 6827   0.230   6.021   0.421
 1976SOL    HW2 6828   0.122   6.127   0.360
 1977SOL     OW 6829   0.894   2.455   4.428
 1977SOL    HW1 6830   0.829   2.510   4.374
 1977SOL    HW2 6831   0.975   2.435   4.373
 1978SOL     OW 6832   0.277   1.141   4.594
 1978SOL    HW1 6833   0.277   1.194   4.679
 1978SOL    HW2 6834   0.270   1.044   4.615
 1979SOL     OW 6835   6.939   4.514   4.989
 1979SOL    HW1 6836   7.016   4.464   4.949
 1979SOL    HW2 6837   6.876   4.449   5.032
 1980SOL     OW 6838   3.444   7.026   1.373
 1980SOL    HW1 6839   3.463   6.985   1.284
 1980SOL    HW2 6840   3.524   0.049   1.405
 1981SOL     OW 6841   5.073   2.758   2.095
 1981SOL    HW1 6842   5.037   2.747   2.002
 1981SOL    HW2 6843   5.169   2.786   2.090
 1982SOL     OW 6844   5.771   4.985   4.927
 1982SOL    HW1 6845   5.725   4.965   4.840
 1982SOL    HW2 6846   5.722   5.057   4.975
 1983SOL     OW 6847   1.388   2.714   3.561
 1983SOL    HW1 6848   1.322   2.731   3.488
 1983SOL    HW2 6849   1.422   2.801   3.597
 1984SOL     OW 6850   4.632   1.571   5.790
 1984SOL    HW1 6851   4.655   1.620   5.706
 1984SOL    HW2 6852   4.549   1.611   5.830
 1985SOL     OW 6853   1.259   1.127   1.989
 1985SOL    HW1 6854   1.317   1.190   1.938
 1985SOL    HW2 6855   1.232   1.051   1.930
 1986SOL     OW 6856   1.307   2.150   6.984
 1986SOL    HW1 6857   1.396   2.106   6.999
 1986SOL    HW2 6858   1.283   2.144   6.887
 1987SOL     OW 6859   2.709   3.266   1.455
 1987SOL    HW1 6860   2.693   3.299   1.548
 1987SOL    HW2 6861   2.805   3.280   1.431
 1988SOL     OW 6862   4.918   3.624   6.870
 1988SOL    HW1 6863   5.001   3.568   6.867
 1988SOL    HW2 6864   4.940   3.715   6.902
 1989SOL     OW 6865   2.177   0.001   4.653
 1989SOL    HW1 6866   2.204   0.078   4.595
 1989SOL    HW2 6867   2.217   0.012   4.744
 1990SOL     OW 6868   2.835   1.108   0.828
 1990SOL    HW1 6869   2.761   1.050   0.863
 1990SOL    HW2 6870   2.888   1.057   0.760
 1991SOL     OW 6871   3.175   5.581   4.823
 1991SOL    HW1 6872   3.092   5.636   4.812
 1991SOL    HW2 6873   3.221   5.606   4.908
 1992SOL     OW 6874   2.286   6.697   5.154
 1992SOL    HW1 6875   2.295   6.690   5.253
 1992SOL    HW2 6876   2.203   6.748   5.132
 1993SOL     OW 6877   3.570   4.045   5.414
 1993SOL    HW1 6878   3.601   4.129   5.458
 1993SOL    HW2 6879   3.648   3.984   5.401
 1994SOL     OW 6880   6.967   2.086   2.131
 1994SOL    HW1 6881   0.015   2.146   2.100
 1994SOL    HW2 6882   6.992   1.991   2.113
 1995SOL     OW 6883   6.248   1.822   1.511
 1995SOL    HW1 6884   6.226   1.784   1.421
 1995SOL    HW2 6885   6.308   1.759   1.560
 1996SOL     OW 6886   3.710   3.898   6.975
 1996SOL    HW1 6887   3.795   3.864   6.934
 1996SOL    HW2 6888   3.696   3.993   6.948
 1997SOL     OW 6889   5.825   0.927   5.183
 1997SOL    HW1 6890   5.885   0.881   5.248
 1997SOL    HW2 6891   5.730   0.905   5.203
 1998SOL     OW 6892   2.913   4.167   6.387
 1998SOL    HW1 6893   2.986   4.166   6.319
 1998SOL    HW2 6894   2.825   4.178   6.340
 1999SOL     OW 6895   2.479   6.907   1.817
 1999SOL    HW1 6896   2.405   6.973   1.835
 1999SOL    HW2 6897   2.542   6.906   1.895
 2000SOL     OW 6898   4.232   1.320   4.814
 2000SOL    HW1 6899   4.207   1.390   4.881
 2000SOL    HW2 6900   4.278   1.244   4.861
 2001SOL     OW 6901   2.897   1.853   1.193
 2001SOL    HW1 6902   2.946   1.889   1.114
 2001SOL    HW2 6903   2.891   1.753   1.186
 2002SOL     OW 6904   2.173   6.151   6.182
 2002SOL    HW1 6905   2.075   6.171   6.192
 2002SOL    HW2 6906   2.191   6.118   6.089
 2003SOL     OW 6907   5.518   6.833   3.299
 2003SOL    HW1 6908   5.617   6.841   3.307
 2003SOL    HW2 6909   5.491   6.851   3.205
 2004SOL     OW 6910   3.315   0.890   5.209
 2004SOL    HW1 6911   3.215   0.886   5.210
 2004SOL    HW2 6912   3.352   0.801   5.235
 2005SOL     OW 6913   2.377   6.242   6.326
 2005SOL    HW1 6914   2.296   6.203   6.281
 2005SOL    HW2 6915   2.413   6.176   6.392
 2006SOL     OW 6916   4.251   4.743   3.932
 2006SOL    HW1 6917   4.283   4.673   3.868
 2006SOL    HW2 6918   4.330   4.779   3.982
 2007SOL     OW 6919   4.868   5.414   0.158
 2007SOL    HW1 6920   4.952   5.449   0.117
 2007SOL    HW2 6921   4.793   5.419   0.091
 2008SOL     OW 6922   6.891   6.514   3.270
 2008SOL    HW1 6923   6.966   6.569   3.307
 2008SOL    HW2 6924   6.808   6.533   3.322
 2009SOL     OW 6925   0.078   0.568   1.681
 2009SOL    HW1 6926   0.165   0.617   1.693
 2009SOL    HW2 6927   0.004   0.634   1.666
 2010SOL     OW 6928   0.938   0.793   0.790
 2010SOL    HW1 6929   0.964   0.778   0.886
 2010SOL    HW2 6930   0.874   0.722   0.761
 2011SOL     OW 6931   6.724   2.362   5.079
 2011SOL    HW1 6932   6.631   2.364   5.043
 2011SOL    HW2 6933   6.758   2.268   5.077
 2012SOL     OW 6934   1.305   4.129   1.920
 2012SOL    HW1 6935   1.273   4.210   1.968
 2012SOL    HW2 6936   1.327   4.153   1.825
 2013SOL     OW 6937   5.908   1.780   2.756
 2013SOL    HW1 6938   5.864   1.871   2.756
 2013SOL    HW2 6939   6.003   1.789   2.727
 2014SOL     OW 6940   1.846   6.086   3.712
 2014SOL    HW1 6941   1.941   6.113   3.695
 2014SOL    HW2 6942   1.808   6.043   3.631
 2015SOL     OW 6943   4.044   0.451   0.088
 2015SOL    HW1 6944   3.980   0.528   0.095
 2015SOL    HW2 6945   4.010   0.375   0.142
 2016SOL     OW 6946   1.038   5.393   3.640
 2016SOL    HW1 6947   1.109   5.448   3.683
 2016SOL    HW2 6948   0.992   5.338   3.711
 2017SOL     OW 6949   2.153   5.907   3.234
 2017SOL    HW1 6950   2.250   5.907   3.258
 2017SOL    HW2 6951   2.138   5.972   3.158
 2018SOL     OW 6952   0.152   5.798   5.481
 2018SOL    HW1 6953   0.097   5.843   5.551
 2018SOL    HW2 6954   0.249   5.810   5.501
 2019SOL     OW 6955   5.662   2.452   0.817
 2019SOL    HW1 6956   5.650   2.417   0.910
 2019SOL    HW2 6957   5.759   2.468   0.799
 2020SOL     OW 6958   2.111   5.087   4.212
 2020SOL    HW1 6959   2.138   5.047   4.299
 2020SOL    HW2 6960   2.137   5.183   4.209
 2021SOL     OW 6961   1.566   1.164   2.782
 2021SOL    HW1 6962   1.630   1.176   2.706
 2021SOL    HW2 6963   1.602   1.211   2.863
 2022SOL     OW 6964   2.448   3.672   1.520
 2022SOL    HW1 6965   2.523   3.608   1.536
 2022SOL    HW2 6966   2.375   3.655   1.587
 2023SOL     OW 6967   6.811   0.744   6.505
 2023SOL    HW1 6968   6.855   0.817   6.453
 2023SOL    HW2 6969   6.733   0.781   6.555
 2024SOL     OW 6970   6.409   0.409   3.723
 2024SOL    HW1 6971   6.322   0.405   3.774
 2024SOL    HW2 6972   6.483   0.434   3.786
 2025SOL     OW 6973   0.738   2.595   1.015
 2025SOL    HW1 6974   0.687   2.515   0.983
 2025SOL    HW2 6975   0.823   2.565   1.059
 2026SOL     OW 6976   2.016   2.687   5.513
 2026SOL    HW1 6977   2.059   2.612   5.464
 2026SOL    HW2 6978   1.977   2.752   5.448
 2027SOL     OW 6979   0.511   1.096   2.162
 2027SOL    HW1 6980   0.513   1.116   2.064
 2027SOL    HW2 6981   0.604   1.077   2.193
 2028SOL     OW 6982   3.670   1.738   0.557
 2028SOL    HW1 6983   3.655   1.788   0.642
 2028SOL    HW2 6984   3.698   1.644   0.578
 2029SOL     OW 6985   1.004   0.972   6.601
 2029SOL    HW1 6986   0.980   0.876   6.614
 2029SOL    HW2 6987   0.954   1.009   6.523
 2030SOL     OW 6988   2.191   2.170   3.567
 2030SOL    HW1 6989   2.225   2.196   3.657
 2030SOL    HW2 6990   2.175   2.072   3.564
 2031SOL     OW 6991   5.347   6.035   2.414
 2031SOL    HW1 6992   5.338   5.937   2.433
 2031SOL    HW2 6993   5.379   6.081   2.497
 2032SOL     OW 6994   5.054   6.150   0.713
 2032SOL    HW1 6995   5.025   6.246   0.709
 2032SOL    HW2 6996   4.974   6.091   0.725
 2033SOL     OW 6997   4.707   4.642   6.378
 2033SOL    HW1 6998   4.692   4.593   6.292
 2033SOL    HW2 6999   4.648   4.722   6.382
 2034SOL     OW 7000   2.096   6.121   3.040
 2034SOL    HW1 7001   2.018   6.101   2.980
 2034SOL    HW2 7002   2.078   6.205   3.091
 2035SOL     OW 7003   0.303   1.395   2.657
 2035SOL    HW1 7004   0.209   1.420   2.635
 2035SOL    HW2 7005   0.364   1.428   2.584
 2036SOL     OW 7006   0.477   5.413   0.923
 2036SOL    HW1 7007   0.452   5.435   0.829
 2036SOL    HW2 7008   0.419   5.339   0.957
 2037SOL     OW 7009   6.967   2.484   5.731
 2037SOL    HW1 7010   6.891   2.497   5.666
 2037SOL    HW2 7011   7.004   2.572   5.756
 2038SOL     OW 7012   0.588   1.682   4.860
 2038SOL    HW1 7013   0.515   1.708   4.923
 2038SOL    HW2 7014   0.582   1.736   4.776
 2039SOL     OW 7015   6.786   6.053   3.845
 2039SOL    HW1 7016   6.827   6.052   3.937
 2039SOL    HW2 7017   6.734   5.969   3.832
 2040SOL     OW 7018   3.840   3.362   4.425
 2040SOL    HW1 7019   3.831   3.435   4.357
 2040SOL    HW2 7020   3.920   3.306   4.404
 2041SOL     OW 7021   5.632   4.454   6.459
 2041SOL    HW1 7022   5.726   4.470   6.432
 2041SOL    HW2 7023   5.626   4.449   6.559
 2042SOL     OW 7024   5.115   5.139   1.040
 2042SOL    HW1 7025   5.028   5.163   0.998
 2042SOL    HW2 7026   5.174   5.220   1.044
 2043SOL     OW 7027   6.315   5.289   2.458
 2043SOL    HW1 7028   6.331   5.346   2.538
 2043SOL    HW2 7029   6.230   5.317   2.413
 2044SOL     OW 7030   5.695   6.758   2.069
 2044SOL    HW1 7031   5.754   6.710   2.134
 2044SOL    HW2 7032   5.742   6.839   2.034
 2045SOL     OW 7033   2.288   4.724   6.142
 2045SOL    HW1 7034   2.189   4.734   6.150
 2045SOL    HW2 7035   2.324   4.677   6.223
 2046SOL     OW 7036   7.016   0.238   4.163
 2046SOL    HW1 7037   6.995   0.264   4.258
 2046SOL    HW2 7038   0.009   0.140   4.159
 2047SOL     OW 7039   4.716   2.049   1.408
 2047SOL    HW1 7040   4.750   1.955   1.409
 2047SOL    HW2 7041   4.787   2.110   1.372
 2048SOL     OW 7042   3.990   0.269   0.286
 2048SOL    HW1 7043   4.075   0.239   0.331
 2048SOL    HW2 7044   3.961   0.200   0.221
 2049SOL     OW 7045   4.742   1.630   6.714
 2049SOL    HW1 7046   4.787   1.686   6.783
 2049SOL    HW2 7047   4.786   1.644   6.625
 2050SOL     OW 7048   5.839   2.538   3.654
 2050SOL    HW1 7049   5.929   2.547   3.610
 2050SOL    HW2 7050   5.852   2.522   3.752
 2051SOL     OW 7051   1.093   5.041   0.140
 2051SOL    HW1 7052   1.115   4.959   0.192
 2051SOL    HW2 7053   1.019   5.091   0.185
 2052SOL     OW 7054   0.549   2.992   6.899
 2052SOL    HW1 7055   0.626   2.958   6.844
 2052SOL    HW2 7056   0.585   3.043   6.977
 2053SOL     OW 7057   6.237   0.168   0.390
 2053SOL    HW1 7058   6.149   0.192   0.431
 2053SOL    HW2 7059   6.301   0.243   0.403
 2054SOL     OW 7060   6.175   2.901   0.640
 2054SOL    HW1 7061   6.226   2.915   0.725
 2054SOL    HW2 7062   6.212   2.961   0.569
 2055SOL     OW 7063   5.566   2.247   3.351
 2055SOL    HW1 7064   5.496   2.287   3.291
 2055SOL    HW2 7065   5.562   2.147   3.345
 2056SOL     OW 7066   2.443   1.388   3.185
 2056SOL    HW1 7067   2.449   1.293   3.216
 2056SOL    HW2 7068   2.535   1.423   3.168
 2057SOL     OW 7069   5.606   1.944   3.957
 2057SOL    HW1 7070   5.695   1.955   4.002
 2057SOL    HW2 7071   5.591   1.847   3.937
 2058SOL     OW 7072   0.440   1.993   3.398
 2058SOL    HW1 7073   0.364   2.040   3.443
 2058SOL    HW2 7074   0.513   2.060   3.379
 2059SOL     OW 7075   1.806   0.587   6.675
 2059SOL    HW1 7076   1.829   0.552   6.584
 2059SOL    HW2 7077   1.883   0.573   6.737
 2060SOL     OW 7078   0.023   4.738   1.648
 2060SOL    HW1 7079   6.995   4.700   1.572
 2060SOL    HW2 7080   0.119   4.743   1.622
 2061SOL     OW 7081   6.639   1.307   2.159
 2061SOL    HW1 7082   6.546   1.270   2.162
 2061SOL    HW2 7083   6.688   1.269   2.080
 2062SOL     OW 7084   4.540   0.022   2.432
 2062SOL    HW1 7085   4.544   0.090   2.359
 2062SOL    HW2 7086   4.459   6.991   2.421
 2063SOL     OW 7087   1.503   1.823   6.141
 2063SOL    HW1 7088   1.429   1.884   6.171
 2063SOL    HW2 7089   1.587   1.876   6.131
 2064SOL     OW 7090   0.946   2.295   5.576
 2064SOL    HW1 7091   0.970   2.198   5.566
 2064SOL    HW2 7092   1.009   2.339   5.640
 2065SOL     OW 7093   5.723   3.195   1.971
 2065SOL    HW1 7094   5.693   3.125   1.906
 2065SOL    HW2 7095   5.812   3.169   2.010
 2066SOL     OW 7096   0.657   5.702   4.148
 2066SOL    HW1 7097   0.670   5.672   4.054
 2066SOL    HW2 7098   0.712   5.784   4.165
 2067SOL     OW 7099   6.801   6.563   0.639
 2067SOL    HW1 7100   6.806   6.540   0.541
 2067SOL    HW2 7101   6.783   6.480   0.691
 2068SOL     OW 7102   2.559   1.331   5.473
 2068SOL    HW1 7103   2.537   1.320   5.376
 2068SOL    HW2 7104   2.654   1.303   5.488
 2069SOL     OW 7105   0.866   2.783   2.553
 2069SOL    HW1 7106   0.928   2.765   2.476
 2069SOL    HW2 7107   0.798   2.709   2.558
 2070SOL     OW 7108   1.098   0.077   2.410
 2070SOL    HW1 7109   1.112   0.102   2.506
 2070SOL    HW2 7110   1.005   0.103   2.383
 2071SOL     OW 7111   1.068   6.351   3.305
 2071SOL    HW1 7112   1.052   6.265   3.256
 2071SOL    HW2 7113   1.085   6.331   3.401
 2072SOL     OW 7114   4.916   5.646   2.245
 2072SOL    HW1 7115   4.829   5.664   2.291
 2072SOL    HW2 7116   4.916   5.690   2.155
 2073SOL     OW 7117   4.044   0.344   4.683
 2073SOL    HW1 7118   4.032   0.351   4.584
 2073SOL    HW2 7119   4.028   0.250   4.713
 2074SOL     OW 7120   6.924   2.078   0.226
 2074SOL    HW1 7121   6.878   2.109   0.143
 2074SOL    HW2 7122   6.899   2.138   0.302
 2075SOL     OW 7123   4.472   3.122   1.164
 2075SOL    HW1 7124   4.488   3.052   1.234
 2075SOL    HW2 7125   4.395   3.094   1.106
 2076SOL     OW 7126   5.804   5.862   6.972
 2076SOL    HW1 7127   5.887   5.828   6.928
 2076SOL    HW2 7128   5.790   5.813   0.033
 2077SOL     OW 7129   5.098   2.128   2.127
 2077SOL    HW1 7130   5.134   2.131   2.220
 2077SOL    HW2 7131   5.169   2.157   2.063
 2078SOL     OW 7132   3.056   5.836   6.483
 2078SOL    HW1 7133   3.111   5.856   6.565
 2078SOL    HW2 7134   3.017   5.921   6.448
 2079SOL     OW 7135   5.264   0.826   3.635
 2079SOL    HW1 7136   5.250   0.741   3.584
 2079SOL    HW2 7137   5.206   0.898   3.597
 2080SOL     OW 7138   2.492   2.201   5.140
 2080SOL    HW1 7139   2.553   2.270   5.102
 2080SOL    HW2 7140   2.397   2.222   5.115
 2081SOL     OW 7141   0.916   6.431   5.822
 2081SOL    HW1 7142   0.941   6.491   5.746
 2081SOL    HW2 7143   0.997   6.384   5.856
 2082SOL     OW 7144   5.650   0.723   1.592
 2082SOL    HW1 7145   5.628   0.814   1.558
 2082SOL    HW2 7146   5.588   0.656   1.550
 2083SOL     OW 7147   3.915   5.685   0.016
 2083SOL    HW1 7148   3.815   5.686   0.023
 2083SOL    HW2 7149   3.952   5.618   0.080
 2084SOL     OW 7150   6.805   2.275   2.951
 2084SOL    HW1 7151   6.851   2.326   2.878
 2084SOL    HW2 7152   6.862   2.197   2.978
 2085SOL     OW 7153   4.720   0.907   6.389
 2085SOL    HW1 7154   4.819   0.918   6.390
 2085SOL    HW2 7155   4.697   0.815   6.360
 2086SOL     OW 7156   3.203   4.811   6.431
 2086SOL    HW1 7157   3.288   4.759   6.425
 2086SOL    HW2 7158   3.141   4.781   6.358
 2087SOL     OW 7159   4.829   6.365   2.392
 2087SOL    HW1 7160   4.899   6.322   2.335
 2087SOL    HW2 7161   4.833   6.464   2.382
 2088SOL     OW 7162   2.979   6.393   0.696
 2088SOL    HW1 7163   2.929   6.306   0.702
 2088SOL    HW2 7164   3.077   6.375   0.685
 2089SOL     OW 7165   4.937   1.616   0.282
 2089SOL    HW1 7166   4.870   1.561   0.231
 2089SOL    HW2 7167   4.978   1.683   0.221
 2090SOL     OW 7168   4.025   3.896   4.417
 2090SOL    HW1 7169   3.951   3.844   4.460
 2090SOL    HW2 7170   4.085   3.834   4.367
 2091SOL     OW 7171   0.536   5.913   0.434
 2091SOL    HW1 7172   0.531   5.975   0.512
 2091SOL    HW2 7173   0.568   5.962   0.353
 2092SOL     OW 7174   5.504   6.082   0.452
 2092SOL    HW1 7175   5.478   6.052   0.544
 2092SOL    HW2 7176   5.519   6.001   0.394
 2093SOL     OW 7177   1.523   2.021   2.315
 2093SOL    HW1 7178   1.616   2.054   2.329
 2093SOL    HW2 7179   1.460   2.098   2.314
 2094SOL     OW 7180   5.998   0.597   1.940
 2094SOL    HW1 7181   6.089   0.638   1.945
 2094SOL    HW2 7182   5.939   0.651   1.881
 2095SOL     OW 7183   4.982   6.460   3.427
 2095SOL    HW1 7184   5.067   6.504   3.397
 2095SOL    HW2 7185   4.974   6.468   3.526
 2096SOL     OW 7186   4.876   3.885   3.187
 2096SOL    HW1 7187   4.857   3.817   3.257
 2096SOL    HW2 7188   4.821   3.967   3.204
 2097SOL     OW 7189   0.555   2.767   6.369
 2097SOL    HW1 7190   0.521   2.744   6.460
 2097SOL    HW2 7191   0.583   2.684   6.321
 2098SOL     OW 7192   4.131   6.485   4.104
 2098SOL    HW1 7193   4.121   6.386   4.107
 2098SOL    HW2 7194   4.216   6.511   4.151
 2099SOL     OW 7195   2.878   0.896   4.812
 2099SOL    HW1 7196   2.811   0.829   4.780
 2099SOL    HW2 7197   2.877   0.900   4.912
 2100SOL     OW 7198   3.656   3.741   6.426
 2100SOL    HW1 7199   3.708   3.740   6.341
 2100SOL    HW2 7200   3.611   3.653   6.438
 2101SOL     OW 7201   0.628   6.906   2.439
 2101SOL    HW1 7202   0.625   6.835   2.509
 2101SOL    HW2 7203   0.554   6.972   2.456
 2102SOL     OW 7204   0.395   5.669   2.696
 2102SOL    HW1 7205   0.421   5.591   2.641
 2102SOL    HW2 7206   0.302   5.656   2.731
 2103SOL     OW 7207   2.863   3.856   0.083
 2103SOL    HW1 7208   2.937   3.908   0.040
 2103SOL    HW2 7209   2.887   3.759   0.084
 2104SOL     OW 7210   1.818   3.478   6.308
 2104SOL    HW1 7211   1.887   3.408   6.288
 2104SOL    HW2 7212   1.848   3.534   6.385
 2105SOL     OW 7213   5.774   5.184   2.824
 2105SOL    HW1 7214   5.736   5.116   2.887
 2105SOL    HW2 7215   5.737   5.169   2.733
 2106SOL     OW 7216   4.125   5.045   6.748
 2106SOL    HW1 7217   4.121   5.140   6.718
 2106SOL    HW2 7218   4.216   5.008   6.727
 2107SOL     OW 7219   4.048   3.580   5.908
 2107SOL    HW1 7220   4.132   3.570   5.854
 2107SOL    HW2 7221   3.970   3.545   5.855
 2108SOL     OW 7222   6.325   5.338   5.396
 2108SOL    HW1 7223   6.274   5.378   5.473
 2108SOL    HW2 7224   6.369   5.253   5.426
 2109SOL     OW 7225   4.835   6.335   3.258
 2109SOL    HW1 7226   4.882   6.385   3.331
 2109SOL    HW2 7227   4.843   6.384   3.172
 2110SOL     OW 7228   2.846   4.270   6.759
 2110SOL    HW1 7229   2.912   4.304   6.826
 2110SOL    HW2 7230   2.790   4.346   6.726
 2111SOL     OW 7231   0.849   2.328   6.045
 2111SOL    HW1 7232   0.946   2.312   6.029
 2111SOL    HW2 7233   0.821   2.283   6.130
 2112SOL     OW 7234   4.501   2.217   1.775
 2112SOL    HW1 7235   4.521   2.164   1.858
 2112SOL    HW2 7236   4.403   2.219   1.759
 2113SOL     OW 7237   1.718   0.016   3.259
 2113SOL    HW1 7238   1.748   0.041   3.167
 2113SOL    HW2 7239   1.788   0.043   3.325
 2114SOL     OW 7240   1.521   3.823   0.662
 2114SOL    HW1 7241   1.430   3.809   0.703
 2114SOL    HW2 7242   1.578   3.876   0.725
 2115SOL     OW 7243   2.150   4.340   3.368
 2115SOL    HW1 7244   2.235   4.337   3.315
 2115SOL    HW2 7245   2.073   4.326   3.306
 2116SOL     OW 7246   6.515   3.857   2.880
 2116SOL    HW1 7247   6.514   3.923   2.956
 2116SOL    HW2 7248   6.535   3.905   2.795
 2117SOL     OW 7249   0.174   5.029   1.715
 2117SOL    HW1 7250   0.259   5.082   1.720
 2117SOL    HW2 7251   0.096   5.090   1.717
 2118SOL     OW 7252   0.455   3.442   2.554
 2118SOL    HW1 7253   0.390   3.366   2.564
 2118SOL    HW2 7254   0.548   3.406   2.549
 2119SOL     OW 7255   2.203   5.884   1.260
 2119SOL    HW1 7256   2.203   5.835   1.173
 2119SOL    HW2 7257   2.200   5.818   1.335
 2120SOL     OW 7258   6.187   4.762   2.490
 2120SOL    HW1 7259   6.145   4.849   2.515
 2120SOL    HW2 7260   6.231   4.770   2.400
 2121SOL     OW 7261   0.722   5.203   5.368
 2121SOL    HW1 7262   0.773   5.136   5.314
 2121SOL    HW2 7263   0.661   5.255   5.308
 2122SOL     OW 7264   6.104   4.481   5.308
 2122SOL    HW1 7265   6.151   4.569   5.303
 2122SOL    HW2 7266   6.005   4.495   5.294
 2123SOL     OW 7267   0.394   4.276   2.918
 2123SOL    HW1 7268   0.401   4.272   3.017
 2123SOL    HW2 7269   0.367   4.186   2.882
 2124SOL     OW 7270   1.837   1.638   1.118
 2124SOL    HW1 7271   1.785   1.553   1.124
 2124SOL    HW2 7272   1.831   1.674   1.025
 2125SOL     OW 7273   1.222   1.094   0.245
 2125SOL    HW1 7274   1.175   1.020   0.293
 2125SOL    HW2 7275   1.320   1.089   0.265
 2126SOL     OW 7276   2.436   1.102   0.323
 2126SOL    HW1 7277   2.360   1.042   0.295
 2126SOL    HW2 7278   2.516   1.082   0.266
 2127SOL     OW 7279   6.255   2.583   4.433
 2127SOL    HW1 7280   6.166   2.539   4.438
 2127SOL    HW2 7281   6.266   2.647   4.509
 2128SOL     OW 7282   0.286   4.447   4.868
 2128SOL    HW1 7283   0.356   4.376   4.863
 2128SOL    HW2 7284   0.254   4.469   4.776
 2129SOL     OW 7285   4.806   2.928   5.658
 2129SOL    HW1 7286   4.849   2.927   5.748
 2129SOL    HW2 7287   4.865   2.880   5.593
 2130SOL     OW 7288   4.774   6.909   2.473
 2130SOL    HW1 7289   4.855   6.965   2.488
 2130SOL    HW2 7290   4.692   6.967   2.477
 2131SOL     OW 7291   0.154   1.168   0.637
 2131SOL    HW1 7292   0.147   1.094   0.704
 2131SOL    HW2 7293   0.181   1.130   0.549
 2132SOL     OW 7294   3.572   3.017   0.644
 2132SOL    HW1 7295   3.589   3.082   0.718
 2132SOL    HW2 7296   3.528   3.063   0.568
 2133SOL     OW 7297   2.714   2.563   5.627
 2133SOL    HW1 7298   2.796   2.509   5.649
 2133SOL    HW2 7299   2.717   2.590   5.531
 2134SOL     OW 7300   6.805   2.103   1.039
 2134SOL    HW1 7301   6.773   2.048   1.116
 2134SOL    HW2 7302   6.774   2.197   1.050
 2135SOL     OW 7303   0.296   4.498   4.451
 2135SOL    HW1 7304   0.245   4.412   4.455
 2135SOL    HW2 7305   0.384   4.486   4.497
 2136SOL     OW 7306   2.998   5.482   1.731
 2136SOL    HW1 7307   2.901   5.455   1.732
 2136SOL    HW2 7308   3.041   5.450   1.646
 2137SOL     OW 7309   3.120   5.314   4.793
 2137SOL    HW1 7310   3.149   5.409   4.783
 2137SOL    HW2 7311   3.129   5.286   4.889
 2138SOL     OW 7312   6.104   0.646   3.184
 2138SOL    HW1 7313   6.173   0.698   3.235
 2138SOL    HW2 7314   6.056   0.584   3.246
 2139SOL     OW 7315   3.115   0.776   4.950
 2139SOL    HW1 7316   3.054   0.809   5.022
 2139SOL    HW2 7317   3.158   0.853   4.905
 2140SOL     OW 7318   3.333   0.617   5.028
 2140SOL    HW1 7319   3.324   0.556   5.107
 2140SOL    HW2 7320   3.245   0.660   5.008
 2141SOL     OW 7321   6.269   3.957   2.369
 2141SOL    HW1 7322   6.183   3.969   2.418
 2141SOL    HW2 7323   6.298   4.045   2.330
 2142SOL     OW 7324   1.612   2.598   3.888
 2142SOL    HW1 7325   1.614   2.693   3.860
 2142SOL    HW2 7326   1.518   2.566   3.893
 2143SOL     OW 7327   1.911   5.762   1.035
 2143SOL    HW1 7328   1.952   5.849   1.006
 2143SOL    HW2 7329   1.955   5.687   0.984
 2144SOL     OW 7330   0.516   5.047   4.679
 2144SOL    HW1 7331   0.472   5.079   4.595
 2144SOL    HW2 7332   0.446   5.008   4.739
 2145SOL     OW 7333   3.671   6.831   4.298
 2145SOL    HW1 7334   3.639   6.925   4.301
 2145SOL    HW2 7335   3.724   6.816   4.215
 2146SOL     OW 7336   1.849   2.036   0.400
 2146SOL    HW1 7337   1.947   2.054   0.393
 2146SOL    HW2 7338   1.818   2.058   0.493
 2147SOL     OW 7339   6.538   1.997   5.896
 2147SOL    HW1 7340   6.463   1.933   5.880
 2147SOL    HW2 7341   6.609   1.983   5.827
 2148SOL     OW 7342   0.177   2.785   6.689
 2148SOL    HW1 7343   0.084   2.787   6.726
 2148SOL    HW2 7344   0.185   2.853   6.616
 2149SOL     OW 7345   1.201   0.917   0.758
 2149SOL    HW1 7346   1.116   0.865   0.753
 2149SOL    HW2 7347   1.182   1.014   0.741
 2150SOL     OW 7348   2.669   2.663   1.771
 2150SOL    HW1 7349   2.695   2.588   1.831
 2150SOL    HW2 7350   2.589   2.710   1.808
 2151SOL     OW 7351   0.656   6.467   6.864
 2151SOL    HW1 7352   0.657   6.482   6.765
 2151SOL    HW2 7353   0.734   6.410   6.890
 2152SOL     OW 7354   3.772   5.799   1.775
 2152SOL    HW1 7355   3.742   5.745   1.854
 2152SOL    HW2 7356   3.704   5.870   1.756
 2153SOL     OW 7357   4.408   1.035   2.616
 2153SOL    HW1 7358   4.398   0.946   2.573
 2153SOL    HW2 7359   4.320   1.083   2.616
 2154SOL     OW 7360   2.627   6.783   3.276
 2154SOL    HW1 7361   2.711   6.732   3.254
 2154SOL    HW2 7362   2.568   6.784   3.195
 2155SOL     OW 7363   4.136   0.169   0.803
 2155SOL    HW1 7364   4.134   0.260   0.762
 2155SOL    HW2 7365   4.064   0.162   0.873
 2156SOL     OW 7366   6.340   0.819   3.838
 2156SOL    HW1 7367   6.258   0.789   3.788
 2156SOL    HW2 7368   6.314   0.882   3.910
 2157SOL     OW 7369   4.353   6.039   3.994
 2157SOL    HW1 7370   4.316   6.111   3.935
 2157SOL    HW2 7371   4.288   5.963   3.999
 2158SOL     OW 7372   4.261   6.964   0.784
 2158SOL    HW1 7373   4.355   6.970   0.749
 2158SOL    HW2 7374   4.215   0.027   0.771
 2159SOL     OW 7375   1.647   0.720   5.121
 2159SOL    HW1 7376   1.618   0.793   5.059
 2159SOL    HW2 7377   1.666   0.759   5.211
 2160SOL     OW 7378   4.937   5.315   0.397
 2160SOL    HW1 7379   4.920   5.217   0.402
 2160SOL    HW2 7380   4.927   5.346   0.303
 2161SOL     OW 7381   0.536   3.703   2.410
 2161SOL    HW1 7382   0.573   3.718   2.502
 2161SOL    HW2 7383   0.501   3.610   2.403
 2162SOL     OW 7384   2.663   0.037   3.312
 2162SOL    HW1 7385   2.676   6.964   3.303
 2162SOL    HW2 7386   2.616   0.071   3.231
 2163SOL     OW 7387   1.829   3.219   0.349
 2163SOL    HW1 7388   1.808   3.237   0.253
 2163SOL    HW2 7389   1.799   3.296   0.405
 2164SOL     OW 7390   2.416   2.375   0.228
 2164SOL    HW1 7391   2.502   2.334   0.258
 2164SOL    HW2 7392   2.396   2.456   0.283
 2165SOL     OW 7393   0.549   1.800   4.377
 2165SOL    HW1 7394   0.598   1.815   4.464
 2165SOL    HW2 7395   0.611   1.819   4.301
 2166SOL     OW 7396   0.625   4.283   4.232
 2166SOL    HW1 7397   0.535   4.311   4.265
 2166SOL    HW2 7398   0.650   4.339   4.153
 2167SOL     OW 7399   1.346   2.559   3.795
 2167SOL    HW1 7400   1.283   2.603   3.858
 2167SOL    HW2 7401   1.328   2.592   3.702
 2168SOL     OW 7402   1.228   2.087   2.944
 2168SOL    HW1 7403   1.197   2.092   2.849
 2168SOL    HW2 7404   1.193   2.166   2.995
 2169SOL     OW 7405   0.642   0.773   0.873
 2169SOL    HW1 7406   0.583   0.711   0.821
 2169SOL    HW2 7407   0.628   0.757   0.970
 2170SOL     OW 7408   0.508   4.454   5.245
 2170SOL    HW1 7409   0.439   4.522   5.221
 2170SOL    HW2 7410   0.543   4.412   5.161
 2171SOL     OW 7411   0.319   5.626   1.580
 2171SOL    HW1 7412   0.275   5.536   1.580
 2171SOL    HW2 7413   0.358   5.644   1.489
 2172SOL     OW 7414   0.691   1.937   5.009
 2172SOL    HW1 7415   0.777   1.935   5.059
 2172SOL    HW2 7416   0.679   1.851   4.960
 2173SOL     OW 7417   5.786   0.081   5.520
 2173SOL    HW1 7418   5.865   0.115   5.469
 2173SOL    HW2 7419   5.804   7.014   5.553
 2174SOL     OW 7420   0.527   6.306   5.330
 2174SOL    HW1 7421   0.446   6.365   5.322
 2174SOL    HW2 7422   0.534   6.271   5.423
 2175SOL     OW 7423   1.976   3.105   5.087
 2175SOL    HW1 7424   1.917   3.043   5.035
 2175SOL    HW2 7425   2.054   3.132   5.030
 2176SOL     OW 7426   4.956   2.416   1.428
 2176SOL    HW1 7427   4.997   2.482   1.492
 2176SOL    HW2 7428   4.857   2.424   1.431
 2177SOL     OW 7429   6.484   0.656   2.940
 2177SOL    HW1 7430   6.387   0.672   2.922
 2177SOL    HW2 7431   6.518   0.724   3.005
 2178SOL     OW 7432   1.158   1.360   1.706
 2178SOL    HW1 7433   1.227   1.355   1.778
 2178SOL    HW2 7434   1.177   1.292   1.636
 2179SOL     OW 7435   2.048   4.128   6.543
 2179SOL    HW1 7436   2.002   4.216   6.556
 2179SOL    HW2 7437   2.106   4.109   6.622
 2180SOL     OW 7438   1.838   3.703   2.149
 2180SOL    HW1 7439   1.885   3.754   2.078
 2180SOL    HW2 7440   1.906   3.659   2.209
 2181SOL     OW 7441   4.733   4.881   4.629
 2181SOL    HW1 7442   4.653   4.942   4.631
 2181SOL    HW2 7443   4.763   4.863   4.723
 2182SOL     OW 7444   0.889   4.827   3.404
 2182SOL    HW1 7445   0.862   4.765   3.330
 2182SOL    HW2 7446   0.810   4.847   3.461
 2183SOL     OW 7447   2.946   3.575   0.059
 2183SOL    HW1 7448   2.982   3.579   0.152
 2183SOL    HW2 7449   2.889   3.493   0.048
 2184SOL     OW 7450   5.398   0.327   0.173
 2184SOL    HW1 7451   5.475   0.376   0.133
 2184SOL    HW2 7452   5.379   0.245   0.119
 2185SOL     OW 7453   0.836   1.133   6.438
 2185SOL    HW1 7454   0.802   1.129   6.532
 2185SOL    HW2 7455   0.776   1.078   6.379
 2186SOL     OW 7456   6.079   5.316   5.120
 2186SOL    HW1 7457   6.022   5.322   5.201
 2186SOL    HW2 7458   6.169   5.357   5.139
 2187SOL     OW 7459   0.191   5.438   2.709
 2187SOL    HW1 7460   0.236   5.395   2.787
 2187SOL    HW2 7461   0.190   5.375   2.632
 2188SOL     OW 7462   2.525   5.202   6.404
 2188SOL    HW1 7463   2.505   5.286   6.453
 2188SOL    HW2 7464   2.472   5.127   6.443
 2189SOL     OW 7465   2.669   1.148   2.341
 2189SOL    HW1 7466   2.649   1.229   2.285
 2189SOL    HW2 7467   2.616   1.152   2.425
 2190SOL     OW 7468   6.889   3.304   2.273
 2190SOL    HW1 7469   6.825   3.335   2.203
 2190SOL    HW2 7470   6.929   3.384   2.319
 2191SOL     OW 7471   2.697   1.617   5.259
 2191SOL    HW1 7472   2.712   1.663   5.347
 2191SOL    HW2 7473   2.685   1.686   5.187
 2192SOL     OW 7474   5.793   0.097   2.482
 2192SOL    HW1 7475   5.819   0.123   2.389
 2192SOL    HW2 7476   5.693   0.091   2.489
 2193SOL     OW 7477   6.154   6.745   6.424
 2193SOL    HW1 7478   6.162   6.645   6.417
 2193SOL    HW2 7479   6.065   6.773   6.387
 2194SOL     OW 7480   0.717   4.010   5.215
 2194SOL    HW1 7481   0.745   4.090   5.267
 2194SOL    HW2 7482   0.721   3.929   5.274
 2195SOL     OW 7483   6.839   5.781   5.190
 2195SOL    HW1 7484   6.936   5.775   5.166
 2195SOL    HW2 7485   6.805   5.690   5.214
 2196SOL     OW 7486   3.051   6.527   4.959
 2196SOL    HW1 7487   3.118   6.593   4.995
 2196SOL    HW2 7488   2.959   6.556   4.986
 2197SOL     OW 7489   2.798   3.095   5.966
 2197SOL    HW1 7490   2.779   3.193   5.977
 2197SOL    HW2 7491   2.819   3.076   5.870
 2198SOL     OW 7492   6.397   6.897   0.594
 2198SOL    HW1 7493   6.325   6.903   0.525
 2198SOL    HW2 7494   6.455   6.818   0.575
 2199SOL     OW 7495   5.119   0.022   4.773
 2199SOL    HW1 7496   5.043   6.991   4.742
 2199SOL    HW2 7497   5.125   0.019   4.873
 2200SOL     OW 7498   3.420   1.258   3.875
 2200SOL    HW1 7499   3.461   1.167   3.880
 2200SOL    HW2 7500   3.492   1.326   3.862
 2201SOL     OW 7501   6.355   2.907   3.219
 2201SOL    HW1 7502   6.333   2.862   3.132
 2201SOL    HW2 7503   6.270   2.929   3.267
 2202SOL     OW 7504   3.000   5.557   2.865
 2202SOL    HW1 7505   3.012   5.468   2.823
 2202SOL    HW2 7506   2.968   5.622   2.797
 2203SOL     OW 7507   2.762   3.803   1.208
 2203SOL    HW1 7508   2.724   3.724   1.159
 2203SOL    HW2 7509   2.745   3.886   1.156
 2204SOL     OW 7510   4.282   2.677   1.224
 2204SOL    HW1 7511   4.281   2.638   1.315
 2204SOL    HW2 7512   4.252   2.773   1.228
 2205SOL     OW 7513   1.676   6.699   0.289
 2205SOL    HW1 7514   1.759   6.695   0.234
 2205SOL    HW2 7515   1.698   6.732   0.381
 2206SOL     OW 7516   2.352   4.608   6.396
 2206SOL    HW1 7517   2.276   4.652   6.443
 2206SOL    HW2 7518   2.346   4.509   6.408
 2207SOL     OW 7519   3.310   5.579   0.420
 2207SOL    HW1 7520   3.229   5.630   0.391
 2207SOL    HW2 7521   3.282   5.494   0.464
 2208SOL     OW 7522   0.949   5.615   3.510
 2208SOL    HW1 7523   1.008   5.545   3.549
 2208SOL    HW2 7524   0.864   5.573   3.478
 2209SOL     OW 7525   2.409   5.704   4.924
 2209SOL    HW1 7526   2.384   5.706   4.827
 2209SOL    HW2 7527   2.446   5.793   4.951
 2210SOL     OW 7528   6.517   5.787   2.834
 2210SOL    HW1 7529   6.561   5.844   2.904
 2210SOL    HW2 7530   6.465   5.714   2.878
 2211SOL     OW 7531   5.970   0.753   0.811
 2211SOL    HW1 7532   5.977   0.852   0.801
 2211SOL    HW2 7533   5.959   0.710   0.722
 2212SOL     OW 7534   1.945   5.785   6.860
 2212SOL    HW1 7535   2.010   5.788   6.784
 2212SOL    HW2 7536   1.908   5.876   6.876
 2213SOL     OW 7537   4.594   2.656   5.079
 2213SOL    HW1 7538   4.583   2.756   5.078
 2213SOL    HW2 7539   4.568   2.619   4.990
 2214SOL     OW 7540   3.506   2.985   5.259
 2214SOL    HW1 7541   3.430   2.924   5.281
 2214SOL    HW2 7542   3.471   3.068   5.215
 2215SOL     OW 7543   5.543   1.602   6.629
 2215SOL    HW1 7544   5.611   1.584   6.558
 2215SOL    HW2 7545   5.563   1.546   6.709
 2216SOL     OW 7546   0.647   6.715   5.983
 2216SOL    HW1 7547   0.596   6.794   6.018
 2216SOL    HW2 7548   0.640   6.712   5.883
 2217SOL     OW 7549   4.446   0.940   3.603
 2217SOL    HW1 7550   4.480   0.958   3.511
 2217SOL    HW2 7551   4.487   0.856   3.638
 2218SOL     OW 7552   6.844   5.204   6.717
 2218SOL    HW1 7553   6.901   5.220   6.798
 2218SOL    HW2 7554   6.884   5.130   6.663
 2219SOL     OW 7555   6.196   2.009   1.147
 2219SOL    HW1 7556   6.130   2.051   1.210
 2219SOL    HW2 7557   6.152   1.995   1.058
 2220SOL     OW 7558   2.366   5.979   5.770
 2220SOL    HW1 7559   2.288   6.025   5.813
 2220SOL    HW2 7560   2.349   5.968   5.672
 2221SOL     OW 7561   6.951   1.766   4.591
 2221SOL    HW1 7562   6.916   1.792   4.681
 2221SOL    HW2 7563   6.938   1.842   4.527
 2222SOL     OW 7564   6.014   6.680   0.753
 2222SOL    HW1 7565   5.946   6.619   0.794
 2222SOL    HW2 7566   6.068   6.630   0.686
 2223SOL     OW 7567   6.616   1.467   5.685
 2223SOL    HW1 7568   6.666   1.498   5.765
 2223SOL    HW2 7569   6.558   1.541   5.650
 2224SOL     OW 7570   6.023   3.487   2.013
 2224SOL    HW1 7571   6.007   3.388   2.008
 2224SOL    HW2 7572   5.941   3.535   1.983
 2225SOL     OW 7573   0.292   6.936   3.234
 2225SOL    HW1 7574   0.339   7.014   3.191
 2225SOL    HW2 7575   0.207   6.967   3.276
 2226SOL     OW 7576   3.949   5.743   0.767
 2226SOL    HW1 7577   3.857   5.761   0.733
 2226SOL    HW2 7578   4.011   5.814   0.733
 2227SOL     OW 7579   4.485   2.715   1.743
 2227SOL    HW1 7580   4.530   2.730   1.831
 2227SOL    HW2 7581   4.499   2.621   1.713
 2228SOL     OW 7582   4.674   5.499   0.317
 2228SOL    HW1 7583   4.689   5.596   0.334
 2228SOL    HW2 7584   4.747   5.464   0.258
 2229SOL     OW 7585   3.723   3.535   4.660
 2229SOL    HW1 7586   3.772   3.475   4.596
 2229SOL    HW2 7587   3.738   3.503   4.753
 2230SOL     OW 7588   5.354   5.954   1.692
 2230SOL    HW1 7589   5.405   5.980   1.775
 2230SOL    HW2 7590   5.367   5.857   1.675
 2231SOL     OW 7591   0.613   0.192   6.460
 2231SOL    HW1 7592   0.603   0.129   6.538
 2231SOL    HW2 7593   0.663   0.273   6.490
 2232SOL     OW 7594   0.658   1.138   5.014
 2232SOL    HW1 7595   0.680   1.218   4.959
 2232SOL    HW2 7596   0.737   1.078   5.018
 2233SOL     OW 7597   2.830   3.252   0.833
 2233SOL    HW1 7598   2.928   3.252   0.814
 2233SOL    HW2 7599   2.790   3.338   0.800
 2234SOL     OW 7600   3.941   1.363   0.596
 2234SOL    HW1 7601   3.899   1.285   0.641
 2234SOL    HW2 7602   3.942   1.348   0.497
 2235SOL     OW 7603   2.722   0.160   2.493
 2235SOL    HW1 7604   2.638   0.106   2.480
 2235SOL    HW2 7605   2.702   0.257   2.477
 2236SOL     OW 7606   2.012   3.649   5.931
 2236SOL    HW1 7607   2.097   3.608   5.965
 2236SOL    HW2 7608   1.977   3.594   5.855
 2237SOL     OW 7609   5.913   4.583   4.710
 2237SOL    HW1 7610   6.002   4.597   4.755
 2237SOL    HW2 7611   5.891   4.486   4.709
 2238SOL     OW 7612   4.624   4.744   2.555
 2238SOL    HW1 7613   4.680   4.827   2.559
 2238SOL    HW2 7614   4.677   4.670   2.515
 2239SOL     OW 7615   4.671   5.582   3.994
 2239SOL    HW1 7616   4.647   5.678   4.004
 2239SOL    HW2 7617   4.766   5.574   3.962
 2240SOL     OW 7618   3.663   5.677   2.008
 2240SOL    HW1 7619   3.722   5.648   2.083
 2240SOL    HW2 7620   3.610   5.757   2.037
 2241SOL     OW 7621   6.663   6.755   1.980
 2241SOL    HW1 7622   6.667   6.853   1.999
 2241SOL    HW2 7623   6.699   6.704   2.058
 2242SOL     OW 7624   5.484   2.955   2.856
 2242SOL    HW1 7625   5.544   2.897   2.801
 2242SOL    HW2 7626   5.412   2.994   2.798
 2243SOL     OW 7627   1.920   6.724   0.161
 2243SOL    HW1 7628   2.002   6.689   0.204
 2243SOL    HW2 7629   1.946   6.788   0.088
 2244SOL     OW 7630   2.624   0.411   1.158
 2244SOL    HW1 7631   2.702   0.458   1.199
 2244SOL    HW2 7632   2.539   0.444   1.201
 2245SOL     OW 7633   0.034   1.234   0.942
 2245SOL    HW1 7634   0.097   1.159   0.920
 2245SOL    HW2 7635   0.087   1.316   0.963
 2246SOL     OW 7636   1.701   0.511   3.967
 2246SOL    HW1 7637   1.664   0.528   4.058
 2246SOL    HW2 7638   1.746   0.594   3.934
 2247SOL     OW 7639   3.052   3.470   2.449
 2247SOL    HW1 7640   3.141   3.504   2.419
 2247SOL    HW2 7641   3.064   3.384   2.497
 2248SOL     OW 7642   6.719   4.150   4.463
 2248SOL    HW1 7643   6.644   4.180   4.521
 2248SOL    HW2 7644   6.789   4.106   4.520
 2249SOL     OW 7645   4.485   6.950   3.758
 2249SOL    HW1 7646   4.453   6.890   3.831
 2249SOL    HW2 7647   4.420   7.025   3.745
 2250SOL     OW 7648   3.423   3.813   5.374
 2250SOL    HW1 7649   3.463   3.898   5.408
 2250SOL    HW2 7650   3.336   3.833   5.329
 2251SOL     OW 7651   5.216   0.272   6.265
 2251SOL    HW1 7652   5.161   0.339   6.215
 2251SOL    HW2 7653   5.213   0.293   6.363
 2252SOL     OW 7654   4.939   1.951   2.744
 2252SOL    HW1 7655   4.966   1.934   2.650
 2252SOL    HW2 7656   4.893   2.040   2.749
 2253SOL     OW 7657   0.229   3.816   0.350
 2253SOL    HW1 7658   0.174   3.830   0.267
 2253SOL    HW2 7659   0.260   3.721   0.354
 2254SOL     OW 7660   3.508   3.333   3.569
 2254SOL    HW1 7661   3.606   3.349   3.585
 2254SOL    HW2 7662   3.482   3.245   3.609
 2255SOL     OW 7663   3.205   3.582   5.595
 2255SOL    HW1 7664   3.295   3.548   5.568
 2255SOL    HW2 7665   3.153   3.508   5.639
 2256SOL     OW 7666   4.814   6.705   1.869
 2256SOL    HW1 7667   4.885   6.772   1.893
 2256SOL    HW2 7668   4.814   6.631   1.936
 2257SOL     OW 7669   1.044   0.861   4.724
 2257SOL    HW1 7670   0.993   0.916   4.657
 2257SOL    HW2 7671   1.142   0.874   4.710
 2258SOL     OW 7672   2.070   5.769   4.302
 2258SOL    HW1 7673   2.158   5.781   4.348
 2258SOL    HW2 7674   2.049   5.851   4.249
 2259SOL     OW 7675   5.499   2.997   5.370
 2259SOL    HW1 7676   5.420   3.033   5.419
 2259SOL    HW2 7677   5.583   3.031   5.412
 2260SOL     OW 7678   0.427   3.751   1.270
 2260SOL    HW1 7679   0.431   3.850   1.282
 2260SOL    HW2 7680   0.362   3.712   1.335
 2261SOL     OW 7681   6.584   4.787   0.665
 2261SOL    HW1 7682   6.525   4.867   0.652
 2261SOL    HW2 7683   6.650   4.806   0.738
 2262SOL     OW 7684   6.059   6.893   3.141
 2262SOL    HW1 7685   6.000   6.886   3.060
 2262SOL    HW2 7686   6.016   6.845   3.218
 2263SOL     OW 7687   2.102   6.229   0.675
 2263SOL    HW1 7688   2.178   6.288   0.703
 2263SOL    HW2 7689   2.134   6.136   0.663
 2264SOL     OW 7690   2.649   6.797   6.472
 2264SOL    HW1 7691   2.701   6.810   6.557
 2264SOL    HW2 7692   2.571   6.860   6.471
 2265SOL     OW 7693   1.872   0.739   4.522
 2265SOL    HW1 7694   1.959   0.738   4.473
 2265SOL    HW2 7695   1.888   0.752   4.619
 2266SOL     OW 7696   4.985   2.085   6.443
 2266SOL    HW1 7697   5.078   2.078   6.478
 2266SOL    HW2 7698   4.922   2.045   6.510
 2267SOL     OW 7699   5.050   2.982   4.891
 2267SOL    HW1 7700   5.095   2.956   4.977
 2267SOL    HW2 7701   4.963   2.932   4.883
 2268SOL     OW 7702   6.388   3.895   6.694
 2268SOL    HW1 7703   6.463   3.959   6.712
 2268SOL    HW2 7704   6.347   3.917   6.605
 2269SOL     OW 7705   0.943   3.381   4.933
 2269SOL    HW1 7706   0.981   3.462   4.977
 2269SOL    HW2 7707   0.883   3.333   4.997
 2270SOL     OW 7708   3.915   3.100   6.599
 2270SOL    HW1 7709   3.925   3.127   6.695
 2270SOL    HW2 7710   3.941   3.004   6.588
 2271SOL     OW 7711   5.534   4.410   6.929
 2271SOL    HW1 7712   5.582   4.412   7.016
 2271SOL    HW2 7713   5.591   4.454   6.859
 2272SOL     OW 7714   6.361   1.036   6.610
 2272SOL    HW1 7715   6.320   0.982   6.685
 2272SOL    HW2 7716   6.307   1.119   6.597
 2273SOL     OW 7717   1.364   2.418   1.806
 2273SOL    HW1 7718   1.264   2.418   1.799
 2273SOL    HW2 7719   1.392   2.478   1.880
 2274SOL     OW 7720   0.566   1.669   6.434
 2274SOL    HW1 7721   0.622   1.653   6.352
 2274SOL    HW2 7722   0.568   1.767   6.457
 2275SOL     OW 7723   5.644   6.425   3.144
 2275SOL    HW1 7724   5.568   6.468   3.094
 2275SOL    HW2 7725   5.730   6.466   3.115
 2276SOL     OW 7726   1.609   5.636   1.589
 2276SOL    HW1 7727   1.669   5.582   1.648
 2276SOL    HW2 7728   1.558   5.703   1.644
 2277SOL     OW 7729   3.485   4.147   4.865
 2277SOL    HW1 7730   3.473   4.048   4.852
 2277SOL    HW2 7731   3.454   4.173   4.956
 2278SOL     OW 7732   6.101   2.516   3.763
 2278SOL    HW1 7733   6.112   2.516   3.863
 2278SOL    HW2 7734   6.106   2.422   3.729
 2279SOL     OW 7735   6.428   0.101   5.358
 2279SOL    HW1 7736   6.479   0.016   5.346
 2279SOL    HW2 7737   6.491   0.179   5.354
 2280SOL     OW 7738   6.461   0.135   4.498
 2280SOL    HW1 7739   6.481   0.220   4.450
 2280SOL    HW2 7740   6.546   0.082   4.508
 2281SOL     OW 7741   3.008   0.752   1.821
 2281SOL    HW1 7742   3.082   0.797   1.871
 2281SOL    HW2 7743   3.023   0.653   1.822
 2282SOL     OW 7744   5.604   6.040   5.518
 2282SOL    HW1 7745   5.517   6.049   5.470
 2282SOL    HW2 7746   5.596   5.971   5.590
 2283SOL     OW 7747   1.589   0.570   2.154
 2283SOL    HW1 7748   1.518   0.580   2.224
 2283SOL    HW2 7749   1.557   0.508   2.083
 2284SOL     OW 7750   1.212   3.610   6.257
 2284SOL    HW1 7751   1.250   3.574   6.172
 2284SOL    HW2 7752   1.285   3.621   6.324
 2285SOL     OW 7753   1.160   3.141   0.112
 2285SOL    HW1 7754   1.192   3.178   0.199
 2285SOL    HW2 7755   1.231   3.155   0.043
 2286SOL     OW 7756   5.284   0.312   3.419
 2286SOL    HW1 7757   5.375   0.289   3.386
 2286SOL    HW2 7758   5.216   0.268   3.359
 2287SOL     OW 7759   2.274   1.055   3.800
 2287SOL    HW1 7760   2.318   1.134   3.758
 2287SOL    HW2 7761   2.328   0.973   3.784
 2288SOL     OW 7762   0.024   5.188   3.941
 2288SOL    HW1 7763   0.018   5.092   3.967
 2288SOL    HW2 7764   0.004   5.245   4.020
 2289SOL     OW 7765   7.002   5.195   0.586
 2289SOL    HW1 7766   7.021   5.207   0.683
 2289SOL    HW2 7767   0.021   5.267   0.533
 2290SOL     OW 7768   0.237   3.805   1.667
 2290SOL    HW1 7769   0.284   3.735   1.613
 2290SOL    HW2 7770   0.167   3.849   1.610
 2291SOL     OW 7771   2.423   2.564   5.733
 2291SOL    HW1 7772   2.370   2.556   5.648
 2291SOL    HW2 7773   2.520   2.550   5.713
 2292SOL     OW 7774   1.755   1.651   4.469
 2292SOL    HW1 7775   1.767   1.641   4.568
 2292SOL    HW2 7776   1.839   1.687   4.429
 2293SOL     OW 7777   5.271   5.920   2.058
 2293SOL    HW1 7778   5.203   5.929   1.985
 2293SOL    HW2 7779   5.328   6.002   2.062
 2294SOL     OW 7780   3.235   0.249   7.026
 2294SOL    HW1 7781   3.307   0.317   0.015
 2294SOL    HW2 7782   3.155   0.272   0.055
 2295SOL     OW 7783   0.444   1.541   2.444
 2295SOL    HW1 7784   0.544   1.551   2.442
 2295SOL    HW2 7785   0.403   1.607   2.382
 2296SOL     OW 7786   2.873   6.610   0.598
 2296SOL    HW1 7787   2.912   6.521   0.621
 2296SOL    HW2 7788   2.944   6.669   0.559
 2297SOL     OW 7789   3.746   4.309   5.308
 2297SOL    HW1 7790   3.840   4.293   5.336
 2297SOL    HW2 7791   3.734   4.280   5.213
 2298SOL     OW 7792   3.906   2.813   1.385
 2298SOL    HW1 7793   3.830   2.811   1.321
 2298SOL    HW2 7794   3.928   2.720   1.413
 2299SOL     OW 7795   5.569   0.665   6.733
 2299SOL    HW1 7796   5.500   0.713   6.679
 2299SOL    HW2 7797   5.571   0.569   6.706
 2300SOL     OW 7798   2.291   5.204   1.511
 2300SOL    HW1 7799   2.302   5.206   1.611
 2300SOL    HW2 7800   2.342   5.279   1.471
 2301SOL     OW 7801   2.997   3.197   3.127
 2301SOL    HW1 7802   2.957   3.252   3.053
 2301SOL    HW2 7803   3.048   3.120   3.086
 2302SOL     OW 7804   3.297   0.329   2.237
 2302SOL    HW1 7805   3.382   0.281   2.254
 2302SOL    HW2 7806   3.299   0.419   2.283
 2303SOL     OW 7807   1.793   3.301   5.886
 2303SOL    HW1 7808   1.746   3.344   5.808
 2303SOL    HW2 7809   1.889   3.286   5.862
 2304SOL     OW 7810   2.862   0.530   3.233
 2304SOL    HW1 7811   2.814   0.588   3.299
 2304SOL    HW2 7812   2.929   0.474   3.281
 2305SOL     OW 7813   3.690   5.839   3.314
 2305SOL    HW1 7814   3.595   5.869   3.319
 2305SOL    HW2 7815   3.740   5.874   3.393
 2306SOL     OW 7816   2.011   5.757   1.528
 2306SOL    HW1 7817   1.986   5.666   1.561
 2306SOL    HW2 7818   1.948   5.784   1.455
 2307SOL     OW 7819   2.272   4.602   2.578
 2307SOL    HW1 7820   2.362   4.642   2.564
 2307SOL    HW2 7821   2.266   4.514   2.531
 2308SOL     OW 7822   1.202   6.826   6.710
 2308SOL    HW1 7823   1.185   6.748   6.651
 2308SOL    HW2 7824   1.115   6.872   6.731
 2309SOL     OW 7825   2.694   6.883   7.013
 2309SOL    HW1 7826   2.783   6.860   6.974
 2309SOL    HW2 7827   2.708   6.929   0.075
 2310SOL     OW 7828   5.903   6.207   1.737
 2310SOL    HW1 7829   5.902   6.307   1.745
 2310SOL    HW2 7830   5.980   6.171   1.790
 2311SOL     OW 7831   2.952   6.418   2.203
 2311SOL    HW1 7832   2.942   6.484   2.129
 2311SOL    HW2 7833   2.861   6.393   2.238
 2312SOL     OW 7834   3.260   6.722   3.461
 2312SOL    HW1 7835   3.165   6.723   3.494
 2312SOL    HW2 7836   3.263   6.756   3.367
 2313SOL     OW 7837   4.559   5.471   2.263
 2313SOL    HW1 7838   4.599   5.389   2.304
 2313SOL    HW2 7839   4.608   5.551   2.295
 2314SOL     OW 7840   5.759   1.138   4.269
 2314SOL    HW1 7841   5.822   1.086   4.212
 2314SOL    HW2 7842   5.665   1.113   4.247
 2315SOL     OW 7843   5.239   3.577   5.059
 2315SOL    HW1 7844   5.165   3.638   5.089
 2315SOL    HW2 7845   5.225   3.553   4.963
 2316SOL     OW 7846   3.070   1.403   5.390
 2316SOL    HW1 7847   2.984   1.443   5.359
 2316SOL    HW2 7848   3.144   1.468   5.373
 2317SOL     OW 7849   6.715   6.492   3.605
 2317SOL    HW1 7850   6.747   6.532   3.691
 2317SOL    HW2 7851   6.658   6.412   3.624
 2318SOL     OW 7852   2.130   3.539   4.302
 2318SOL    HW1 7853   2.180   3.496   4.227
 2318SOL    HW2 7854   2.127   3.477   4.380
 2319SOL     OW 7855   3.282   5.625   5.081
 2319SOL    HW1 7856   3.312   5.659   5.170
 2319SOL    HW2 7857   3.240   5.535   5.093
 2320SOL     OW 7858   1.372   2.563   4.880
 2320SOL    HW1 7859   1.336   2.563   4.973
 2320SOL    HW2 7860   1.352   2.475   4.836
 2321SOL     OW 7861   2.290   5.462   0.150
 2321SOL    HW1 7862   2.361   5.491   0.087
 2321SOL    HW2 7863   2.316   5.488   0.243
 2322SOL     OW 7864   2.003   4.646   2.481
 2322SOL    HW1 7865   2.080   4.648   2.544
 2322SOL    HW2 7866   1.975   4.740   2.461
 2323SOL     OW 7867   3.395   4.848   1.732
 2323SOL    HW1 7868   3.467   4.791   1.772
 2323SOL    HW2 7869   3.306   4.806   1.749
 2324SOL     OW 7870   6.630   6.252   1.046
 2324SOL    HW1 7871   6.707   6.190   1.062
 2324SOL    HW2 7872   6.664   6.341   1.016
 2325SOL     OW 7873   0.294   4.308   1.097
 2325SOL    HW1 7874   0.333   4.329   1.186
 2325SOL    HW2 7875   0.272   4.210   1.092
 2326SOL     OW 7876   1.535   6.530   6.427
 2326SOL    HW1 7877   1.524   6.513   6.525
 2326SOL    HW2 7878   1.577   6.450   6.384
 2327SOL     OW 7879   0.792   1.731   2.902
 2327SOL    HW1 7880   0.865   1.664   2.911
 2327SOL    HW2 7881   0.831   1.823   2.893
 2328SOL     OW 7882   1.714   1.623   3.185
 2328SOL    HW1 7883   1.682   1.704   3.234
 2328SOL    HW2 7884   1.793   1.648   3.128
 2329SOL     OW 7885   0.812   4.364   5.249
 2329SOL    HW1 7886   0.748   4.421   5.197
 2329SOL    HW2 7887   0.771   4.341   5.338
 2330SOL     OW 7888   0.435   2.840   0.888
 2330SOL    HW1 7889   0.465   2.749   0.859
 2330SOL    HW2 7890   0.442   2.847   0.988
 2331SOL     OW 7891   3.868   5.163   0.218
 2331SOL    HW1 7892   3.949   5.158   0.277
 2331SOL    HW2 7893   3.847   5.071   0.183
 2332SOL     OW 7894   0.002   6.895   5.658
 2332SOL    HW1 7895   7.020   6.957   5.580
 2332SOL    HW2 7896   6.937   6.858   5.679
 2333SOL     OW 7897   0.161   4.445   3.556
 2333SOL    HW1 7898   0.226   4.504   3.604
 2333SOL    HW2 7899   0.110   4.390   3.622
 2334SOL     OW 7900   2.051   1.237   6.608
 2334SOL    HW1 7901   2.031   1.140   6.594
 2334SOL    HW2 7902   2.079   1.278   6.522
 2335SOL     OW 7903   5.811   0.916   4.114
 2335SOL    HW1 7904   5.784   0.891   4.021
 2335SOL    HW2 7905   5.840   0.834   4.164
 2336SOL     OW 7906   3.991   1.400   5.176
 2336SOL    HW1 7907   4.026   1.460   5.105
 2336SOL    HW2 7908   4.067   1.351   5.218
 2337SOL     OW 7909   3.967   0.387   1.180
 2337SOL    HW1 7910   4.052   0.365   1.228
 2337SOL    HW2 7911   3.985   0.452   1.107
 2338SOL     OW 7912   0.526   2.851   4.525
 2338SOL    HW1 7913   0.436   2.831   4.488
 2338SOL    HW2 7914   0.542   2.950   4.525
 2339SOL     OW 7915   3.406   4.122   3.303
 2339SOL    HW1 7916   3.500   4.088   3.298
 2339SOL    HW2 7917   3.365   4.120   3.212
 2340SOL     OW 7918   6.697   4.162   6.482
 2340SOL    HW1 7919   6.775   4.102   6.461
 2340SOL    HW2 7920   6.724   4.257   6.469
 2341SOL     OW 7921   3.092   4.936   2.557
 2341SOL    HW1 7922   3.185   4.901   2.541
 2341SOL    HW2 7923   3.082   5.025   2.512
 2342SOL     OW 7924   1.234   6.526   5.328
 2342SOL    HW1 7925   1.274   6.497   5.241
 2342SOL    HW2 7926   1.140   6.557   5.313
 2343SOL     OW 7927   1.698   5.333   2.727
 2343SOL    HW1 7928   1.640   5.326   2.645
 2343SOL    HW2 7929   1.793   5.343   2.700
 2344SOL     OW 7930   0.534   5.740   6.885
 2344SOL    HW1 7931   0.467   5.806   6.918
 2344SOL    HW2 7932   0.487   5.670   6.831
 2345SOL     OW 7933   2.700   5.549   5.285
 2345SOL    HW1 7934   2.697   5.626   5.349
 2345SOL    HW2 7935   2.653   5.574   5.200
 2346SOL     OW 7936   3.222   3.341   5.440
 2346SOL    HW1 7937   3.168   3.260   5.418
 2346SOL    HW2 7938   3.175   3.422   5.407
 2347SOL     OW 7939   2.691   2.383   1.529
 2347SOL    HW1 7940   2.715   2.345   1.619
 2347SOL    HW2 7941   2.600   2.423   1.534
 2348SOL     OW 7942   2.330   6.234   3.308
 2348SOL    HW1 7943   2.355   6.164   3.241
 2348SOL    HW2 7944   2.408   6.295   3.324
 2349SOL     OW 7945   1.361   4.865   6.155
 2349SOL    HW1 7946   1.388   4.829   6.065
 2349SOL    HW2 7947   1.439   4.914   6.195
 2350SOL     OW 7948   6.138   5.867   6.007
 2350SOL    HW1 7949   6.107   5.942   5.948
 2350SOL    HW2 7950   6.169   5.905   6.094
 2351SOL     OW 7951   2.903   5.188   4.399
 2351SOL    HW1 7952   2.962   5.142   4.466
 2351SOL    HW2 7953   2.864   5.270   4.440
 2352SOL     OW 7954   0.602   4.071   2.367
 2352SOL    HW1 7955   0.653   4.012   2.430
 2352SOL    HW2 7956   0.597   4.027   2.277
 2353SOL     OW 7957   3.488   5.371   4.611
 2353SOL    HW1 7958   3.526   5.344   4.699
 2353SOL    HW2 7959   3.499   5.296   4.546
 2354SOL     OW 7960   2.563   1.892   5.431
 2354SOL    HW1 7961   2.480   1.836   5.434
 2354SOL    HW2 7962   2.641   1.837   5.463
 2355SOL     OW 7963   2.156   6.864   5.887
 2355SOL    HW1 7964   2.186   6.826   5.974
 2355SOL    HW2 7965   2.141   6.962   5.896
 2356SOL     OW 7966   1.568   3.421   6.453
 2356SOL    HW1 7967   1.665   3.428   6.428
 2356SOL    HW2 7968   1.529   3.339   6.411
 2357SOL     OW 7969   3.965   0.075   2.913
 2357SOL    HW1 7970   4.031   0.150   2.918
 2357SOL    HW2 7971   3.953   0.048   2.817
 2358SOL     OW 7972   3.309   5.167   5.252
 2358SOL    HW1 7973   3.287   5.243   5.313
 2358SOL    HW2 7974   3.408   5.156   5.247
 2359SOL     OW 7975   7.014   1.067   5.011
 2359SOL    HW1 7976   0.028   1.158   5.015
 2359SOL    HW2 7977   6.966   1.054   4.924
 2360SOL     OW 7978   5.451   3.408   6.971
 2360SOL    HW1 7979   5.445   3.308   6.974
 2360SOL    HW2 7980   5.397   3.447   0.019
 2361SOL     OW 7981   2.369   0.686   5.854
 2361SOL    HW1 7982   2.434   0.654   5.924
 2361SOL    HW2 7983   2.401   0.657   5.764
 2362SOL     OW 7984   2.129   5.714   3.887
 2362SOL    HW1 7985   2.143   5.717   3.788
 2362SOL    HW2 7986   2.163   5.799   3.928
 2363SOL     OW 7987   4.703   2.179   4.880
 2363SOL    HW1 7988   4.768   2.148   4.950
 2363SOL    HW2 7989   4.673   2.101   4.825
 2364SOL     OW 7990   0.893   2.323   2.447
 2364SOL    HW1 7991   0.956   2.395   2.419
 2364SOL    HW2 7992   0.922   2.286   2.536
 2365SOL     OW 7993   6.323   2.374   6.546
 2365SOL    HW1 7994   6.289   2.467   6.556
 2365SOL    HW2 7995   6.392   2.355   6.615
 2366SOL     OW 7996   2.666   5.518   6.256
 2366SOL    HW1 7997   2.706   5.433   6.220
 2366SOL    HW2 7998   2.566   5.513   6.247
 2367SOL     OW 7999   2.899   3.934   0.633
 2367SOL    HW1 8000   2.813   3.889   0.656
 2367SOL    HW2 8001   2.957   3.937   0.714
 2368SOL     OW 8002   4.311   0.279   4.694
 2368SOL    HW1 8003   4.310   0.181   4.675
 2368SOL    HW2 8004   4.217   0.310   4.711
 2369SOL     OW 8005   2.208   0.815   5.189
 2369SOL    HW1 8006   2.170   0.774   5.272
 2369SOL    HW2 8007   2.170   0.769   5.109
 2370SOL     OW 8008   4.803   3.053   6.896
 2370SOL    HW1 8009   4.872   3.126   6.897
 2370SOL    HW2 8010   4.734   3.073   6.826
 2371SOL     OW 8011   0.801   6.682   1.470
 2371SOL    HW1 8012   0.733   6.725   1.529
 2371SOL    HW2 8013   0.799   6.725   1.379
 2372SOL     OW 8014   0.225   3.061   1.827
 2372SOL    HW1 8015   0.324   3.063   1.814
 2372SOL    HW2 8016   0.194   2.966   1.835
 2373SOL     OW 8017   1.030   2.335   6.354
 2373SOL    HW1 8018   1.049   2.242   6.386
 2373SOL    HW2 8019   1.110   2.392   6.373
 2374SOL     OW 8020   6.088   1.676   3.546
 2374SOL    HW1 8021   6.011   1.737   3.530
 2374SOL    HW2 8022   6.171   1.717   3.508
 2375SOL     OW 8023   3.076   6.373   4.702
 2375SOL    HW1 8024   2.996   6.348   4.648
 2375SOL    HW2 8025   3.050   6.441   4.771
 2376SOL     OW 8026   6.704   2.475   4.300
 2376SOL    HW1 8027   6.633   2.462   4.231
 2376SOL    HW2 8028   6.790   2.437   4.267
 2377SOL     OW 8029   3.987   3.928   3.553
 2377SOL    HW1 8030   4.046   3.912   3.632
 2377SOL    HW2 8031   3.995   3.852   3.488
 2378SOL     OW 8032   5.267   1.664   0.912
 2378SOL    HW1 8033   5.242   1.674   1.008
 2378SOL    HW2 8034   5.185   1.653   0.857
 2379SOL     OW 8035   6.567   1.496   0.220
 2379SOL    HW1 8036   6.611   1.586   0.232
 2379SOL    HW2 8037   6.605   1.451   0.140
 2380SOL     OW 8038   0.586   1.684   6.699
 2380SOL    HW1 8039   0.578   1.661   6.602
 2380SOL    HW2 8040   0.503   1.656   6.747
 2381SOL     OW 8041   2.153   4.956   4.475
 2381SOL    HW1 8042   2.200   4.880   4.429
 2381SOL    HW2 8043   2.216   5.003   4.536
 2382SOL     OW 8044   1.902   3.803   4.580
 2382SOL    HW1 8045   1.968   3.729   4.564
 2382SOL    HW2 8046   1.918   3.876   4.513
 2383SOL     OW 8047   4.614   6.089   0.905
 2383SOL    HW1 8048   4.532   6.041   0.875
 2383SOL    HW2 8049   4.617   6.091   1.005
 2384SOL     OW 8050   5.926   0.978   3.292
 2384SOL    HW1 8051   6.024   0.987   3.312
 2384SOL    HW2 8052   5.910   0.890   3.247
 2385SOL     OW 8053   1.114   6.826   0.459
 2385SOL    HW1 8054   1.030   6.772   0.468
 2385SOL    HW2 8055   1.094   6.912   0.412
 2386SOL     OW 8056   6.353   5.604   4.540
 2386SOL    HW1 8057   6.284   5.644   4.480
 2386SOL    HW2 8058   6.367   5.508   4.516
 2387SOL     OW 8059   1.466   2.300   4.014
 2387SOL    HW1 8060   1.406   2.261   3.944
 2387SOL    HW2 8061   1.479   2.234   4.088
 2388SOL     OW 8062   0.828   2.332   4.651
 2388SOL    HW1 8063   0.854   2.372   4.564
 2388SOL    HW2 8064   0.736   2.294   4.644
 2389SOL     OW 8065   4.753   4.156   2.976
 2389SOL    HW1 8066   4.748   4.219   3.054
 2389SOL    HW2 8067   4.781   4.066   3.009
 2390SOL     OW 8068   4.000   3.169   3.539
 2390SOL    HW1 8069   4.065   3.138   3.470
 2390SOL    HW2 8070   3.943   3.092   3.568
 2391SOL     OW 8071   4.824   3.891   5.924
 2391SOL    HW1 8072   4.834   3.936   5.835
 2391SOL    HW2 8073   4.820   3.960   5.996
 2392SOL     OW 8074   4.440   6.349   5.265
 2392SOL    HW1 8075   4.356   6.343   5.211
 2392SOL    HW2 8076   4.519   6.350   5.203
 2393SOL     OW 8077   4.768   3.624   5.970
 2393SOL    HW1 8078   4.782   3.720   5.945
 2393SOL    HW2 8079   4.694   3.585   5.915
 2394SOL     OW 8080   1.538   3.788   4.753
 2394SOL    HW1 8081   1.570   3.788   4.847
 2394SOL    HW2 8082   1.479   3.867   4.737
 2395SOL     OW 8083   5.246   2.235   5.867
 2395SOL    HW1 8084   5.336   2.191   5.863
 2395SOL    HW2 8085   5.232   2.275   5.957
 2396SOL     OW 8086   3.617   5.775   1.322
 2396SOL    HW1 8087   3.520   5.751   1.320
 2396SOL    HW2 8088   3.654   5.771   1.229
 2397SOL     OW 8089   6.715   3.927   5.638
 2397SOL    HW1 8090   6.665   3.885   5.714
 2397SOL    HW2 8091   6.655   3.933   5.558
 2398SOL     OW 8092   3.452   3.879   6.602
 2398SOL    HW1 8093   3.437   3.828   6.517
 2398SOL    HW2 8094   3.366   3.884   6.653
 2399SOL     OW 8095   4.537   1.275   1.740
 2399SOL    HW1 8096   4.460   1.274   1.803
 2399SOL    HW2 8097   4.570   1.181   1.726
 2400SOL     OW 8098   3.256   3.954   0.815
 2400SOL    HW1 8099   3.264   3.966   0.716
 2400SOL    HW2 8100   3.159   3.950   0.840
 2401SOL     OW 8101   4.927   6.209   6.680
 2401SOL    HW1 8102   4.964   6.120   6.652
 2401SOL    HW2 8103   4.829   6.200   6.698
 2402SOL     OW 8104   0.336   0.491   3.595
 2402SOL    HW1 8105   0.384   0.479   3.508
 2402SOL    HW2 8106   0.315   0.587   3.609
 2403SOL     OW 8107   2.164   2.173   6.589
 2403SOL    HW1 8108   2.072   2.193   6.624
 2403SOL    HW2 8109   2.221   2.255   6.595
 2404SOL     OW 8110   3.103   0.961   0.924
 2404SOL    HW1 8111   3.084   0.965   1.022
 2404SOL    HW2 8112   3.140   1.048   0.893
 2405SOL     OW 8113   3.564   3.589   2.484
 2405SOL    HW1 8114   3.562   3.489   2.484
 2405SOL    HW2 8115   3.650   3.621   2.523
 2406SOL     OW 8116   2.625   6.969   2.049
 2406SOL    HW1 8117   2.667   0.028   2.017
 2406SOL    HW2 8118   2.532   6.987   2.079
 2407SOL     OW 8119   5.783   1.809   2.442
 2407SOL    HW1 8120   5.713   1.754   2.488
 2407SOL    HW2 8121   5.838   1.750   2.383
 2408SOL     OW 8122   4.630   4.710   2.950
 2408SOL    HW1 8123   4.701   4.685   2.883
 2408SOL    HW2 8124   4.572   4.631   2.968
 2409SOL     OW 8125   1.981   4.865   1.975
 2409SOL    HW1 8126   1.948   4.797   2.042
 2409SOL    HW2 8127   2.004   4.949   2.023
 2410SOL     OW 8128   4.176   3.522   5.591
 2410SOL    HW1 8129   4.188   3.587   5.516
 2410SOL    HW2 8130   4.099   3.461   5.571
 2411SOL     OW 8131   4.928   5.907   4.941
 2411SOL    HW1 8132   4.986   5.841   4.893
 2411SOL    HW2 8133   4.938   5.894   5.039
 2412SOL     OW 8134   5.222   4.712   0.824
 2412SOL    HW1 8135   5.209   4.617   0.795
 2412SOL    HW2 8136   5.305   4.748   0.781
 2413SOL     OW 8137   6.258   1.608   0.696
 2413SOL    HW1 8138   6.301   1.645   0.613
 2413SOL    HW2 8139   6.162   1.635   0.698
 2414SOL     OW 8140   4.820   4.551   2.659
 2414SOL    HW1 8141   4.724   4.540   2.683
 2414SOL    HW2 8142   4.873   4.572   2.742
 2415SOL     OW 8143   6.435   0.988   2.973
 2415SOL    HW1 8144   6.456   1.060   2.907
 2415SOL    HW2 8145   6.344   0.951   2.956
 2416SOL     OW 8146   4.728   2.456   5.277
 2416SOL    HW1 8147   4.646   2.398   5.276
 2416SOL    HW2 8148   4.709   2.542   5.231
 2417SOL     OW 8149   3.759   3.462   4.926
 2417SOL    HW1 8150   3.719   3.371   4.933
 2417SOL    HW2 8151   3.847   3.464   4.974
 2418SOL     OW 8152   3.365   3.042   4.969
 2418SOL    HW1 8153   3.362   3.136   5.004
 2418SOL    HW2 8154   3.426   3.038   4.890
 2419SOL     OW 8155   6.792   0.012   4.759
 2419SOL    HW1 8156   6.793   7.023   4.660
 2419SOL    HW2 8157   6.779   6.950   4.806
 2420SOL     OW 8158   3.277   0.525   2.428
 2420SOL    HW1 8159   3.206   0.559   2.489
 2420SOL    HW2 8160   3.367   0.555   2.461
 2421SOL     OW 8161   1.954   2.765   5.097
 2421SOL    HW1 8162   1.923   2.783   5.190
 2421SOL    HW2 8163   1.911   2.681   5.063
 2422SOL     OW 8164   5.487   1.587   1.160
 2422SOL    HW1 8165   5.557   1.642   1.113
 2422SOL    HW2 8166   5.471   1.625   1.251
 2423SOL     OW 8167   1.728   5.753   2.593
 2423SOL    HW1 8168   1.726   5.853   2.584
 2423SOL    HW2 8169   1.821   5.723   2.613
 2424SOL     OW 8170   5.883   6.803   6.335
 2424SOL    HW1 8171   5.880   6.893   6.290
 2424SOL    HW2 8172   5.845   6.812   6.428
 2425SOL     OW 8173   5.578   0.676   4.197
 2425SOL    HW1 8174   5.522   0.640   4.271
 2425SOL    HW2 8175   5.674   0.676   4.225
 2426SOL     OW 8176   1.101   6.021   4.965
 2426SOL    HW1 8177   1.009   5.999   4.933
 2426SOL    HW2 8178   1.169   5.974   4.908
 2427SOL     OW 8179   5.217   5.856   5.302
 2427SOL    HW1 8180   5.244   5.943   5.261
 2427SOL    HW2 8181   5.292   5.820   5.356
 2428SOL     OW 8182   0.140   0.368   2.098
 2428SOL    HW1 8183   0.175   0.374   2.191
 2428SOL    HW2 8184   0.170   0.283   2.056
 2429SOL     OW 8185   5.777   5.546   2.999
 2429SOL    HW1 8186   5.822   5.485   2.933
 2429SOL    HW2 8187   5.720   5.612   2.949
 2430SOL     OW 8188   6.063   0.884   1.646
 2430SOL    HW1 8189   5.996   0.842   1.708
 2430SOL    HW2 8190   6.153   0.884   1.690
 2431SOL     OW 8191   3.814   0.806   1.648
 2431SOL    HW1 8192   3.769   0.865   1.581
 2431SOL    HW2 8193   3.775   0.822   1.739
 2432SOL     OW 8194   3.489   6.102   2.814
 2432SOL    HW1 8195   3.510   6.132   2.906
 2432SOL    HW2 8196   3.533   6.163   2.748
 2433SOL     OW 8197   3.850   1.850   0.349
 2433SOL    HW1 8198   3.795   1.826   0.429
 2433SOL    HW2 8199   3.809   1.929   0.303
 2434SOL     OW 8200   4.116   1.508   5.958
 2434SOL    HW1 8201   4.150   1.427   5.911
 2434SOL    HW2 8202   4.185   1.539   6.025
 2435SOL     OW 8203   4.796   5.087   5.792
 2435SOL    HW1 8204   4.880   5.087   5.738
 2435SOL    HW2 8205   4.812   5.134   5.879
 2436SOL     OW 8206   1.584   5.325   0.159
 2436SOL    HW1 8207   1.595   5.234   0.199
 2436SOL    HW2 8208   1.655   5.341   0.091
 2437SOL     OW 8209   5.402   6.575   6.864
 2437SOL    HW1 8210   5.357   6.581   6.774
 2437SOL    HW2 8211   5.416   6.479   6.888
 2438SOL     OW 8212   3.145   1.235   6.641
 2438SOL    HW1 8213   3.190   1.200   6.560
 2438SOL    HW2 8214   3.185   1.323   6.666
 2439SOL     OW 8215   0.490   4.792   6.463
 2439SOL    HW1 8216   0.589   4.794   6.475
 2439SOL    HW2 8217   0.461   4.698   6.444
 2440SOL     OW 8218   4.430   6.229   6.240
 2440SOL    HW1 8219   4.369   6.281   6.300
 2440SOL    HW2 8220   4.515   6.208   6.289
 2441SOL     OW 8221   6.914   2.297   6.792
 2441SOL    HW1 8222   6.844   2.302   6.864
 2441SOL    HW2 8223   6.883   2.235   6.720
 2442SOL     OW 8224   1.263   4.137   5.918
 2442SOL    HW1 8225   1.300   4.116   6.009
 2442SOL    HW2 8226   1.181   4.082   5.902
 2443SOL     OW 8227   3.526   5.038   6.379
 2443SOL    HW1 8228   3.517   5.102   6.303
 2443SOL    HW2 8229   3.541   4.945   6.344
 2444SOL     OW 8230   2.574   4.890   6.521
 2444SOL    HW1 8231   2.494   4.946   6.499
 2444SOL    HW2 8232   2.546   4.813   6.578
 2445SOL     OW 8233   0.145   1.498   1.137
 2445SOL    HW1 8234   0.103   1.556   1.067
 2445SOL    HW2 8235   0.091   1.504   1.222
 2446SOL     OW 8236   6.147   4.551   4.008
 2446SOL    HW1 8237   6.183   4.603   4.086
 2446SOL    HW2 8238   6.196   4.464   4.001
 2447SOL     OW 8239   2.568   3.116   6.697
 2447SOL    HW1 8240   2.639   3.112   6.767
 2447SOL    HW2 8241   2.481   3.142   6.739
 2448SOL     OW 8242   0.436   0.773   5.000
 2448SOL    HW1 8243   0.454   0.734   5.090
 2448SOL    HW2 8244   0.342   0.806   4.996
 2449SOL     OW 8245   6.885   4.050   0.701
 2449SOL    HW1 8246   6.978   4.066   0.733
 2449SOL    HW2 8247   6.886   4.028   0.604
 2450SOL     OW 8248   2.590   4.681   2.949
 2450SOL    HW1 8249   2.587   4.648   2.854
 2450SOL    HW2 8250   2.579   4.603   3.011
 2451SOL     OW 8251   1.606   6.553   4.133
 2451SOL    HW1 8252   1.689   6.602   4.160
 2451SOL    HW2 8253   1.578   6.584   4.042
 2452SOL     OW 8254   1.498   3.652   3.080
 2452SOL    HW1 8255   1.541   3.664   2.991
 2452SOL    HW2 8256   1.503   3.738   3.131
 2453SOL     OW 8257   6.435   4.783   1.358
 2453SOL    HW1 8258   6.444   4.874   1.399
 2453SOL    HW2 8259   6.456   4.713   1.426
 2454SOL     OW 8260   3.546   0.674   1.986
 2454SOL    HW1 8261   3.564   0.644   2.079
 2454SOL    HW2 8262   3.609   0.749   1.962
 2455SOL     OW 8263   5.234   5.305   0.571
 2455SOL    HW1 8264   5.233   5.208   0.596
 2455SOL    HW2 8265   5.304   5.353   0.624
 2456SOL     OW 8266   4.909   6.479   1.687
 2456SOL    HW1 8267   4.860   6.559   1.723
 2456SOL    HW2 8268   4.909   6.406   1.756
 2457SOL     OW 8269   5.832   6.736   0.350
 2457SOL    HW1 8270   5.796   6.652   0.392
 2457SOL    HW2 8271   5.821   6.812   0.413
 2458SOL     OW 8272   2.201   5.600   2.988
 2458SOL    HW1 8273   2.122   5.661   2.998
 2458SOL    HW2 8274   2.275   5.631   3.048
 2459SOL     OW 8275   1.689   0.096   0.331
 2459SOL    HW1 8276   1.625   0.035   0.378
 2459SOL    HW2 8277   1.698   0.180   0.383
 2460SOL     OW 8278   2.285   6.300   2.568
 2460SOL    HW1 8279   2.277   6.277   2.665
 2460SOL    HW2 8280   2.380   6.324   2.548
 2461SOL     OW 8281   5.811   0.375   2.071
 2461SOL    HW1 8282   5.865   0.422   2.001
 2461SOL    HW2 8283   5.723   0.347   2.033
 2462SOL     OW 8284   2.186   4.913   0.265
 2462SOL    HW1 8285   2.170   4.967   0.347
 2462SOL    HW2 8286   2.100   4.874   0.233
 2463SOL     OW 8287   6.720   1.987   3.430
 2463SOL    HW1 8288   6.744   1.890   3.421
 2463SOL    HW2 8289   6.692   2.023   3.341
 2464SOL     OW 8290   0.747   4.133   0.985
 2464SOL    HW1 8291   0.758   4.231   0.999
 2464SOL    HW2 8292   0.728   4.089   1.073
 2465SOL     OW 8293   6.955   5.910   2.138
 2465SOL    HW1 8294   6.938   5.881   2.232
 2465SOL    HW2 8295   6.904   5.852   2.075
 2466SOL     OW 8296   4.262   1.658   2.853
 2466SOL    HW1 8297   4.186   1.720   2.872
 2466SOL    HW2 8298   4.242   1.605   2.770
 2467SOL     OW 8299   6.874   0.443   5.907
 2467SOL    HW1 8300   6.876   0.543   5.917
 2467SOL    HW2 8301   6.939   0.416   5.836
 2468SOL     OW 8302   6.636   6.445   2.106
 2468SOL    HW1 8303   6.601   6.365   2.155
 2468SOL    HW2 8304   6.680   6.507   2.171
 2469SOL     OW 8305   2.982   3.769   5.196
 2469SOL    HW1 8306   2.930   3.846   5.233
 2469SOL    HW2 8307   3.001   3.703   5.268
 2470SOL     OW 8308   2.875   3.856   6.301
 2470SOL    HW1 8309   2.867   3.888   6.207
 2470SOL    HW2 8310   2.955   3.796   6.309
 2471SOL     OW 8311   0.367   6.398   2.435
 2471SOL    HW1 8312   0.293   6.378   2.500
 2471SOL    HW2 8313   0.327   6.426   2.347
 2472SOL     OW 8314   5.449   2.304   4.204
 2472SOL    HW1 8315   5.500   2.290   4.288
 2472SOL    HW2 8316   5.364   2.354   4.224
 2473SOL     OW 8317   1.126   5.550   4.519
 2473SOL    HW1 8318   1.061   5.578   4.449
 2473SOL    HW2 8319   1.153   5.455   4.504
 2474SOL     OW 8320   0.160   5.561   5.336
 2474SOL    HW1 8321   0.105   5.481   5.360
 2474SOL    HW2 8322   0.140   5.635   5.400
 2475SOL     OW 8323   4.269   2.341   0.409
 2475SOL    HW1 8324   4.290   2.391   0.493
 2475SOL    HW2 8325   4.237   2.405   0.339
 2476SOL     OW 8326   1.231   1.792   3.779
 2476SOL    HW1 8327   1.176   1.865   3.819
 2476SOL    HW2 8328   1.187   1.704   3.796
 2477SOL     OW 8329   5.431   5.698   1.646
 2477SOL    HW1 8330   5.371   5.651   1.581
 2477SOL    HW2 8331   5.448   5.639   1.725
 2478SOL     OW 8332   6.435   6.677   2.673
 2478SOL    HW1 8333   6.426   6.634   2.583
 2478SOL    HW2 8334   6.344   6.704   2.706
 2479SOL     OW 8335   0.130   2.481   0.773
 2479SOL    HW1 8336   0.133   2.399   0.831
 2479SOL    HW2 8337   0.106   2.454   0.680
 2480SOL     OW 8338   6.327   3.389   1.407
 2480SOL    HW1 8339   6.283   3.471   1.370
 2480SOL    HW2 8340   6.422   3.410   1.431
 2481SOL     OW 8341   4.319   5.497   1.967
 2481SOL    HW1 8342   4.234   5.463   1.926
 2481SOL    HW2 8343   4.304   5.515   2.065
 2482SOL     OW 8344   5.487   3.508   5.009
 2482SOL    HW1 8345   5.508   3.419   5.050
 2482SOL    HW2 8346   5.392   3.532   5.030
 2483SOL     OW 8347   1.154   0.962   6.841
 2483SOL    HW1 8348   1.125   1.036   6.902
 2483SOL    HW2 8349   1.108   0.972   6.753
 2484SOL     OW 8350   2.982   1.210   0.354
 2484SOL    HW1 8351   2.972   1.194   0.256
 2484SOL    HW2 8352   2.957   1.127   0.404
 2485SOL     OW 8353   0.203   5.247   2.522
 2485SOL    HW1 8354   0.264   5.266   2.445
 2485SOL    HW2 8355   0.108   5.253   2.492
 2486SOL     OW 8356   1.799   5.427   3.039
 2486SOL    HW1 8357   1.764   5.349   2.986
 2486SOL    HW2 8358   1.726   5.494   3.052
 2487SOL     OW 8359   4.196   0.518   0.761
 2487SOL    HW1 8360   4.174   0.515   0.664
 2487SOL    HW2 8361   4.264   0.590   0.777
 2488SOL     OW 8362   2.548   4.915   1.663
 2488SOL    HW1 8363   2.546   4.859   1.746
 2488SOL    HW2 8364   2.476   4.985   1.668
 2489SOL     OW 8365   1.560   5.372   5.054
 2489SOL    HW1 8366   1.487   5.410   5.111
 2489SOL    HW2 8367   1.632   5.440   5.043
 2490SOL     OW 8368   6.246   3.979   0.826
 2490SOL    HW1 8369   6.326   3.998   0.883
 2490SOL    HW2 8370   6.216   4.064   0.783
 2491SOL     OW 8371   3.074   4.870   3.355
 2491SOL    HW1 8372   3.014   4.929   3.409
 2491SOL    HW2 8373   3.098   4.916   3.269
 2492SOL     OW 8374   4.670   2.942   6.472
 2492SOL    HW1 8375   4.611   2.868   6.504
 2492SOL    HW2 8376   4.748   2.904   6.423
 2493SOL     OW 8377   5.937   1.745   3.034
 2493SOL    HW1 8378   5.919   1.720   2.939
 2493SOL    HW2 8379   5.970   1.666   3.085
 2494SOL     OW 8380   4.781   2.563   2.114
 2494SOL    HW1 8381   4.717   2.493   2.146
 2494SOL    HW2 8382   4.859   2.519   2.070
 2495SOL     OW 8383   5.487   0.971   5.146
 2495SOL    HW1 8384   5.477   1.059   5.099
 2495SOL    HW2 8385   5.400   0.922   5.144
 2496SOL     OW 8386   0.962   5.622   0.016
 2496SOL    HW1 8387   0.951   5.694   0.085
 2496SOL    HW2 8388   0.872   5.587   7.016
 2497SOL     OW 8389   6.778   1.637   6.680
 2497SOL    HW1 8390   6.817   1.708   6.740
 2497SOL    HW2 8391   6.690   1.667   6.645
 2498SOL     OW 8392   1.647   3.086   4.048
 2498SOL    HW1 8393   1.639   3.069   4.146
 2498SOL    HW2 8394   1.671   3.181   4.032
 2499SOL     OW 8395   5.119   0.658   4.722
 2499SOL    HW1 8396   5.025   0.693   4.722
 2499SOL    HW2 8397   5.180   0.726   4.763
 2500SOL     OW 8398   4.467   3.087   6.274
 2500SOL    HW1 8399   4.404   3.153   6.315
 2500SOL    HW2 8400   4.508   3.030   6.346
 2501SOL     OW 8401   6.250   4.565   6.918
 2501SOL    HW1 8402   6.232   4.510   6.836
 2501SOL    HW2 8403   6.216   4.517   6.998
 2502SOL     OW 8404   2.050   0.033   2.608
 2502SOL    HW1 8405   2.053   0.102   2.535
 2502SOL    HW2 8406   2.141   0.019   2.646
 2503SOL     OW 8407   3.935   5.064   5.902
 2503SOL    HW1 8408   3.976   5.138   5.956
 2503SOL    HW2 8409   3.929   5.093   5.806
 2504SOL     OW 8410   1.795   5.001   4.481
 2504SOL    HW1 8411   1.885   4.992   4.523
 2504SOL    HW2 8412   1.724   4.983   4.550
 2505SOL     OW 8413   4.761   5.480   4.295
 2505SOL    HW1 8414   4.714   5.568   4.290
 2505SOL    HW2 8415   4.720   5.416   4.229
 2506SOL     OW 8416   6.403   2.533   6.206
 2506SOL    HW1 8417   6.453   2.514   6.121
 2506SOL    HW2 8418   6.389   2.447   6.256
 2507SOL     OW 8419   6.238   5.816   0.651
 2507SOL    HW1 8420   6.196   5.832   0.562
 2507SOL    HW2 8421   6.206   5.886   0.716
 2508SOL     OW 8422   2.360   2.347   2.173
 2508SOL    HW1 8423   2.443   2.294   2.190
 2508SOL    HW2 8424   2.383   2.445   2.170
 2509SOL     OW 8425   5.550   2.509   3.164
 2509SOL    HW1 8426   5.545   2.575   3.089
 2509SOL    HW2 8427   5.461   2.505   3.210
 2510SOL     OW 8428   3.619   4.926   0.639
 2510SOL    HW1 8429   3.623   4.908   0.737
 2510SOL    HW2 8430   3.685   4.997   0.615
 2511SOL     OW 8431   1.386   0.946   5.238
 2511SOL    HW1 8432   1.386   0.989   5.148
 2511SOL    HW2 8433   1.393   0.847   5.228
 2512SOL     OW 8434   4.912   3.585   4.796
 2512SOL    HW1 8435   4.880   3.613   4.886
 2512SOL    HW2 8436   4.930   3.486   4.797
 2513SOL     OW 8437   0.803   2.607   6.564
 2513SOL    HW1 8438   0.805   2.621   6.465
 2513SOL    HW2 8439   0.729   2.544   6.587
 2514SOL     OW 8440   1.303   1.236   4.252
 2514SOL    HW1 8441   1.363   1.312   4.275
 2514SOL    HW2 8442   1.227   1.269   4.196
 2515SOL     OW 8443   0.919   5.562   0.818
 2515SOL    HW1 8444   0.866   5.633   0.772
 2515SOL    HW2 8445   1.015   5.568   0.791
 2516SOL     OW 8446   5.525   6.712   3.784
 2516SOL    HW1 8447   5.552   6.752   3.872
 2516SOL    HW2 8448   5.538   6.780   3.712
 2517SOL     OW 8449   2.441   4.810   0.215
 2517SOL    HW1 8450   2.457   4.712   0.214
 2517SOL    HW2 8451   2.369   4.832   0.281
 2518SOL     OW 8452   2.365   3.013   6.233
 2518SOL    HW1 8453   2.462   2.992   6.229
 2518SOL    HW2 8454   2.323   2.998   6.143
 2519SOL     OW 8455   4.743   4.803   5.122
 2519SOL    HW1 8456   4.702   4.721   5.083
 2519SOL    HW2 8457   4.675   4.876   5.127
 2520SOL     OW 8458   2.385   4.021   1.476
 2520SOL    HW1 8459   2.467   3.983   1.520
 2520SOL    HW2 8460   2.359   3.963   1.399
 2521SOL     OW 8461   6.065   0.148   5.814
 2521SOL    HW1 8462   6.128   0.125   5.889
 2521SOL    HW2 8463   6.068   0.247   5.798
 2522SOL     OW 8464   0.896   3.180   4.564
 2522SOL    HW1 8465   0.821   3.137   4.513
 2522SOL    HW2 8466   0.982   3.167   4.515
 2523SOL     OW 8467   0.586   4.005   0.329
 2523SOL    HW1 8468   0.498   4.012   0.376
 2523SOL    HW2 8469   0.602   3.910   0.303
 2524SOL     OW 8470   1.540   6.634   3.881
 2524SOL    HW1 8471   1.488   6.720   3.887
 2524SOL    HW2 8472   1.484   6.565   3.836
 2525SOL     OW 8473   0.877   3.671   3.568
 2525SOL    HW1 8474   0.911   3.757   3.605
 2525SOL    HW2 8475   0.873   3.677   3.468
 2526SOL     OW 8476   0.046   1.566   3.826
 2526SOL    HW1 8477   0.036   1.665   3.829
 2526SOL    HW2 8478   0.108   1.537   3.899
 2527SOL     OW 8479   5.653   6.660   4.436
 2527SOL    HW1 8480   5.561   6.667   4.476
 2527SOL    HW2 8481   5.654   6.585   4.369
 2528SOL     OW 8482   6.329   5.573   0.911
 2528SOL    HW1 8483   6.414   5.624   0.924
 2528SOL    HW2 8484   6.317   5.552   0.814
 2529SOL     OW 8485   5.086   4.625   4.544
 2529SOL    HW1 8486   5.060   4.699   4.482
 2529SOL    HW2 8487   5.079   4.657   4.638
 2530SOL     OW 8488   1.250   0.422   3.520
 2530SOL    HW1 8489   1.300   0.337   3.538
 2530SOL    HW2 8490   1.155   0.411   3.548
 2531SOL     OW 8491   3.857   1.267   5.889
 2531SOL    HW1 8492   3.939   1.253   5.944
 2531SOL    HW2 8493   3.880   1.254   5.792
 2532SOL     OW 8494   1.263   5.001   6.946
 2532SOL    HW1 8495   1.222   5.049   6.869
 2532SOL    HW2 8496   1.192   4.985   7.016
 2533SOL     OW 8497   5.534   6.483   5.945
 2533SOL    HW1 8498   5.622   6.453   5.908
 2533SOL    HW2 8499   5.550   6.530   6.032
 2534SOL     OW 8500   1.272   0.786   3.566
 2534SOL    HW1 8501   1.186   0.836   3.579
 2534SOL    HW2 8502   1.256   0.705   3.509
 2535SOL     OW 8503   2.422   1.260   3.675
 2535SOL    HW1 8504   2.443   1.343   3.623
 2535SOL    HW2 8505   2.461   1.268   3.767
 2536SOL     OW 8506   5.847   1.392   4.158
 2536SOL    HW1 8507   5.781   1.323   4.186
 2536SOL    HW2 8508   5.800   1.466   4.110
 2537SOL     OW 8509   5.171   5.278   1.504
 2537SOL    HW1 8510   5.099   5.294   1.572
 2537SOL    HW2 8511   5.200   5.366   1.465
 2538SOL     OW 8512   1.800   5.038   4.187
 2538SOL    HW1 8513   1.882   5.095   4.181
 2538SOL    HW2 8514   1.780   5.018   4.283
 2539SOL     OW 8515   3.780   6.928   5.432
 2539SOL    HW1 8516   3.708   6.941   5.364
 2539SOL    HW2 8517   3.835   6.848   5.408
 2540SOL     OW 8518   5.691   1.122   2.106
 2540SOL    HW1 8519   5.692   1.220   2.127
 2540SOL    HW2 8520   5.657   1.072   2.186
 2541SOL     OW 8521   1.459   6.302   6.294
 2541SOL    HW1 8522   1.520   6.224   6.278
 2541SOL    HW2 8523   1.436   6.306   6.391
 2542SOL     OW 8524   3.625   1.706   4.492
 2542SOL    HW1 8525   3.536   1.750   4.481
 2542SOL    HW2 8526   3.653   1.711   4.588
 2543SOL     OW 8527   1.086   1.556   3.162
 2543SOL    HW1 8528   1.006   1.564   3.220
 2543SOL    HW2 8529   1.155   1.623   3.190
 2544SOL     OW 8530   6.601   5.237   1.476
 2544SOL    HW1 8531   6.683   5.246   1.534
 2544SOL    HW2 8532   6.590   5.320   1.422
 2545SOL     OW 8533   0.551   1.900   1.360
 2545SOL    HW1 8534   0.509   1.853   1.282
 2545SOL    HW2 8535   0.638   1.856   1.383
 2546SOL     OW 8536   7.005   3.954   1.902
 2546SOL    HW1 8537   6.942   3.909   1.965
 2546SOL    HW2 8538   0.045   3.887   1.867
 2547SOL     OW 8539   5.380   3.860   0.807
 2547SOL    HW1 8540   5.467   3.909   0.807
 2547SOL    HW2 8541   5.387   3.779   0.865
 2548SOL     OW 8542   0.062   6.801   5.340
 2548SOL    HW1 8543   0.057   6.717   5.394
 2548SOL    HW2 8544   0.064   6.880   5.401
 2549SOL     OW 8545   2.413   1.751   0.745
 2549SOL    HW1 8546   2.320   1.779   0.718
 2549SOL    HW2 8547   2.447   1.682   0.682
 2550SOL     OW 8548   4.400   6.913   6.479
 2550SOL    HW1 8549   4.314   6.902   6.430
 2550SOL    HW2 8550   4.394   6.870   6.568
 2551SOL     OW 8551   2.955   5.739   0.068
 2551SOL    HW1 8552   2.936   5.743   6.995
 2551SOL    HW2 8553   3.023   5.667   0.085
 2552SOL     OW 8554   1.971   6.601   0.955
 2552SOL    HW1 8555   1.996   6.610   0.859
 2552SOL    HW2 8556   1.901   6.531   0.965
 2553SOL     OW 8557   4.332   1.563   6.990
 2553SOL    HW1 8558   4.271   1.626   6.942
 2553SOL    HW2 8559   4.407   1.537   6.930
 2554SOL     OW 8560   1.818   5.780   1.298
 2554SOL    HW1 8561   1.768   5.700   1.331
 2554SOL    HW2 8562   1.859   5.759   1.209
 2555SOL     OW 8563   6.167   6.147   5.142
 2555SOL    HW1 8564   6.155   6.048   5.151
 2555SOL    HW2 8565   6.264   6.168   5.132
 2556SOL     OW 8566   3.865   6.781   1.583
 2556SOL    HW1 8567   3.953   6.796   1.628
 2556SOL    HW2 8568   3.871   6.811   1.487
 2557SOL     OW 8569   4.216   0.587   6.921
 2557SOL    HW1 8570   4.233   0.546   6.831
 2557SOL    HW2 8571   4.162   0.524   6.977
 2558SOL     OW 8572   5.654   4.173   6.610
 2558SOL    HW1 8573   5.729   4.228   6.645
 2558SOL    HW2 8574   5.602   4.135   6.687
 2559SOL     OW 8575   0.997   3.894   4.273
 2559SOL    HW1 8576   0.937   3.973   4.287
 2559SOL    HW2 8577   0.959   3.815   4.320
 2560SOL     OW 8578   4.935   2.132   3.228
 2560SOL    HW1 8579   4.961   2.101   3.136
 2560SOL    HW2 8580   4.846   2.179   3.223
 2561SOL     OW 8581   3.741   0.866   4.297
 2561SOL    HW1 8582   3.702   0.844   4.208
 2561SOL    HW2 8583   3.778   0.782   4.338
 2562SOL     OW 8584   3.077   0.055   3.375
 2562SOL    HW1 8585   3.038   0.031   3.464
 2562SOL    HW2 8586   3.060   0.152   3.357
 2563SOL     OW 8587   3.418   1.173   0.304
 2563SOL    HW1 8588   3.510   1.209   0.315
 2563SOL    HW2 8589   3.355   1.249   0.286
 2564SOL     OW 8590   1.534   1.368   0.566
 2564SOL    HW1 8591   1.508   1.306   0.492
 2564SOL    HW2 8592   1.633   1.367   0.577
 2565SOL     OW 8593   0.989   2.051   6.625
 2565SOL    HW1 8594   1.065   2.041   6.561
 2565SOL    HW2 8595   0.940   1.964   6.632
 2566SOL     OW 8596   2.768   0.783   0.747
 2566SOL    HW1 8597   2.835   0.715   0.778
 2566SOL    HW2 8598   2.680   0.737   0.729
 2567SOL     OW 8599   1.246   6.965   6.936
 2567SOL    HW1 8600   1.202   0.028   6.917
 2567SOL    HW2 8601   1.251   6.912   6.852
 2568SOL     OW 8602   2.807   6.385   1.224
 2568SOL    HW1 8603   2.756   6.364   1.307
 2568SOL    HW2 8604   2.745   6.382   1.145
 2569SOL     OW 8605   0.869   1.053   0.899
 2569SOL    HW1 8606   0.857   0.957   0.872
 2569SOL    HW2 8607   0.893   1.058   0.996
 2570SOL     OW 8608   5.314   6.423   0.114
 2570SOL    HW1 8609   5.380   6.361   0.156
 2570SOL    HW2 8610   5.261   6.469   0.186
 2571SOL     OW 8611   4.087   3.678   4.600
 2571SOL    HW1 8612   4.008   3.739   4.597
 2571SOL    HW2 8613   4.104   3.640   4.509
 2572SOL     OW 8614   2.124   6.137   1.647
 2572SOL    HW1 8615   2.154   6.195   1.723
 2572SOL    HW2 8616   2.061   6.068   1.682
 2573SOL     OW 8617   6.831   2.224   3.675
 2573SOL    HW1 8618   6.852   2.321   3.688
 2573SOL    HW2 8619   6.731   2.212   3.675
 2574SOL     OW 8620   6.817   3.844   1.489
 2574SOL    HW1 8621   6.766   3.914   1.538
 2574SOL    HW2 8622   6.765   3.816   1.408
 2575SOL     OW 8623   5.870   4.003   0.623
 2575SOL    HW1 8624   5.895   4.021   0.527
 2575SOL    HW2 8625   5.775   3.972   0.627
 2576SOL     OW 8626   2.010   6.614   3.295
 2576SOL    HW1 8627   1.922   6.622   3.342
 2576SOL    HW2 8628   1.998   6.635   3.198
 2577SOL     OW 8629   2.685   6.402   3.159
 2577SOL    HW1 8630   2.747   6.480   3.150
 2577SOL    HW2 8631   2.608   6.428   3.217
 2578SOL     OW 8632   5.503   2.716   4.311
 2578SOL    HW1 8633   5.420   2.703   4.366
 2578SOL    HW2 8634   5.478   2.753   4.222
 2579SOL     OW 8635   0.317   2.243   6.764
 2579SOL    HW1 8636   0.389   2.291   6.814
 2579SOL    HW2 8637   0.300   2.289   6.677
 2580SOL     OW 8638   1.735   2.482   6.494
 2580SOL    HW1 8639   1.676   2.558   6.522
 2580SOL    HW2 8640   1.830   2.503   6.516
 2581SOL     OW 8641   5.494   5.789   2.489
 2581SOL    HW1 8642   5.437   5.818   2.566
 2581SOL    HW2 8643   5.559   5.720   2.520
 2582SOL     OW 8644   0.881   5.870   2.903
 2582SOL    HW1 8645   0.841   5.960   2.888
 2582SOL    HW2 8646   0.935   5.844   2.823
 2583SOL     OW 8647   0.938   0.119   1.025
 2583SOL    HW1 8648   0.884   0.060   1.086
 2583SOL    HW2 8649   1.003   0.063   0.973
 2584SOL     OW 8650   3.502   6.305   0.930
 2584SOL    HW1 8651   3.452   6.390   0.910
 2584SOL    HW2 8652   3.441   6.227   0.914
 2585SOL     OW 8653   3.089   0.370   1.147
 2585SOL    HW1 8654   3.031   0.417   1.080
 2585SOL    HW2 8655   3.134   0.292   1.103
 2586SOL     OW 8656   6.027   1.776   4.175
 2586SOL    HW1 8657   6.073   1.711   4.114
 2586SOL    HW2 8658   6.062   1.767   4.267
 2587SOL     OW 8659   5.828   6.565   4.062
 2587SOL    HW1 8660   5.802   6.483   4.112
 2587SOL    HW2 8661   5.788   6.645   4.105
 2588SOL     OW 8662   5.679   0.135   1.826
 2588SOL    HW1 8663   5.622   0.108   1.748
 2588SOL    HW2 8664   5.623   0.185   1.892
 2589SOL     OW 8665   6.479   6.797   5.599
 2589SOL    HW1 8666   6.419   6.732   5.551
 2589SOL    HW2 8667   6.451   6.890   5.576
 2590SOL     OW 8668   4.215   6.736   3.196
 2590SOL    HW1 8669   4.245   6.813   3.251
 2590SOL    HW2 8670   4.273   6.727   3.115
 2591SOL     OW 8671   5.094   5.926   1.838
 2591SOL    HW1 8672   5.174   5.949   1.783
 2591SOL    HW2 8673   5.015   5.912   1.778
 2592SOL     OW 8674   3.164   5.761   1.615
 2592SOL    HW1 8675   3.234   5.696   1.644
 2592SOL    HW2 8676   3.076   5.737   1.658
 2593SOL     OW 8677   3.862   6.582   2.927
 2593SOL    HW1 8678   3.895   6.664   2.974
 2593SOL    HW2 8679   3.939   6.520   2.911
 2594SOL     OW 8680   0.118   0.317   6.870
 2594SOL    HW1 8681   0.145   0.298   6.964
 2594SOL    HW2 8682   0.031   0.273   6.850
 2595SOL     OW 8683   6.665   3.315   4.982
 2595SOL    HW1 8684   6.637   3.389   5.043
 2595SOL    HW2 8685   6.589   3.291   4.921
 2596SOL     OW 8686   3.859   2.115   2.185
 2596SOL    HW1 8687   3.806   2.085   2.265
 2596SOL    HW2 8688   3.797   2.137   2.110
 2597SOL     OW 8689   2.765   3.096   1.066
 2597SOL    HW1 8690   2.791   3.169   1.003
 2597SOL    HW2 8691   2.666   3.089   1.069
 2598SOL     OW 8692   6.802   2.958   3.419
 2598SOL    HW1 8693   6.718   2.904   3.418
 2598SOL    HW2 8694   6.780   3.055   3.407
 2599SOL     OW 8695   4.106   5.831   0.218
 2599SOL    HW1 8696   4.111   5.789   0.309
 2599SOL    HW2 8697   4.145   5.768   0.151
 2600SOL     OW 8698   5.687   3.831   3.646
 2600SOL    HW1 8699   5.640   3.744   3.635
 2600SOL    HW2 8700   5.621   3.902   3.671
 2601SOL     OW 8701   3.466   3.424   6.044
 2601SOL    HW1 8702   3.547   3.481   6.060
 2601SOL    HW2 8703   3.486   3.330   6.070
 2602SOL     OW 8704   0.391   4.890   4.328
 2602SOL    HW1 8705   0.292   4.895   4.342
 2602SOL    HW2 8706   0.434   4.968   4.374
 2603SOL     OW 8707   2.483   2.363   1.026
 2603SOL    HW1 8708   2.392   2.405   1.028
 2603SOL    HW2 8709   2.540   2.410   0.959
 2604SOL     OW 8710   5.258   0.491   1.236
 2604SOL    HW1 8711   5.200   0.566   1.202
 2604SOL    HW2 8712   5.201   0.427   1.289
 2605SOL     OW 8713   4.138   4.809   4.325
 2605SOL    HW1 8714   4.168   4.779   4.415
 2605SOL    HW2 8715   4.101   4.902   4.332
 2606SOL     OW 8716   6.062   4.167   1.095
 2606SOL    HW1 8717   6.106   4.158   1.006
 2606SOL    HW2 8718   5.965   4.187   1.082
 2607SOL     OW 8719   1.170   0.942   3.263
 2607SOL    HW1 8720   1.238   0.884   3.309
 2607SOL    HW2 8721   1.099   0.968   3.327
 2608SOL     OW 8722   5.174   0.693   1.495
 2608SOL    HW1 8723   5.106   0.689   1.568
 2608SOL    HW2 8724   5.159   0.775   1.440
 2609SOL     OW 8725   0.750   2.104   2.799
 2609SOL    HW1 8726   0.716   2.016   2.766
 2609SOL    HW2 8727   0.681   2.148   2.855
 2610SOL     OW 8728   6.464   5.458   4.976
 2610SOL    HW1 8729   6.539   5.403   5.012
 2610SOL    HW2 8730   6.398   5.399   4.930
 2611SOL     OW 8731   5.369   6.624   1.245
 2611SOL    HW1 8732   5.317   6.633   1.330
 2611SOL    HW2 8733   5.307   6.608   1.169
 2612SOL     OW 8734   4.986   6.580   3.722
 2612SOL    HW1 8735   4.976   6.624   3.812
 2612SOL    HW2 8736   5.074   6.606   3.683
 2613SOL     OW 8737   3.632   0.350   2.389
 2613SOL    HW1 8738   3.565   0.288   2.348
 2613SOL    HW2 8739   3.654   0.319   2.482
 2614SOL     OW 8740   6.169   6.722   6.002
 2614SOL    HW1 8741   6.110   6.703   6.081
 2614SOL    HW2 8742   6.254   6.670   6.011
 2615SOL     OW 8743   5.145   5.155   3.049
 2615SOL    HW1 8744   5.213   5.097   3.006
 2615SOL    HW2 8745   5.077   5.098   3.096
 2616SOL     OW 8746   3.813   3.009   2.570
 2616SOL    HW1 8747   3.720   2.989   2.539
 2616SOL    HW2 8748   3.858   3.066   2.502
 2617SOL     OW 8749   3.584   5.680   0.840
 2617SOL    HW1 8750   3.498   5.635   0.817
 2617SOL    HW2 8751   3.624   5.721   0.758
 2618SOL     OW 8752   0.031   0.678   1.271
 2618SOL    HW1 8753   0.077   0.729   1.198
 2618SOL    HW2 8754   0.091   0.605   1.303
 2619SOL     OW 8755   4.016   1.725   2.170
 2619SOL    HW1 8756   3.982   1.790   2.103
 2619SOL    HW2 8757   4.075   1.772   2.236
 2620SOL     OW 8758   1.452   4.607   3.735
 2620SOL    HW1 8759   1.368   4.607   3.790
 2620SOL    HW2 8760   1.442   4.545   3.658
 2621SOL     OW 8761   0.429   5.780   3.810
 2621SOL    HW1 8762   0.524   5.808   3.822
 2621SOL    HW2 8763   0.370   5.836   3.868
 2622SOL     OW 8764   2.003   3.317   6.205
 2622SOL    HW1 8765   1.993   3.341   6.108
 2622SOL    HW2 8766   2.100   3.315   6.230
 2623SOL     OW 8767   3.541   1.220   5.075
 2623SOL    HW1 8768   3.624   1.215   5.021
 2623SOL    HW2 8769   3.535   1.140   5.135
 2624SOL     OW 8770   6.012   2.509   3.293
 2624SOL    HW1 8771   5.918   2.540   3.279
 2624SOL    HW2 8772   6.027   2.424   3.243
 2625SOL     OW 8773   2.594   2.804   5.695
 2625SOL    HW1 8774   2.665   2.737   5.673
 2625SOL    HW2 8775   2.510   2.757   5.719
 2626SOL     OW 8776   1.413   6.303   3.595
 2626SOL    HW1 8777   1.494   6.312   3.653
 2626SOL    HW2 8778   1.332   6.297   3.653
 2627SOL     OW 8779   0.136   0.520   4.370
 2627SOL    HW1 8780   0.193   0.546   4.292
 2627SOL    HW2 8781   0.191   0.469   4.436
 2628SOL     OW 8782   3.681   6.682   6.897
 2628SOL    HW1 8783   3.621   6.680   6.978
 2628SOL    HW2 8784   3.660   6.604   6.838
 2629SOL     OW 8785   3.695   4.154   1.448
 2629SOL    HW1 8786   3.618   4.176   1.508
 2629SOL    HW2 8787   3.712   4.056   1.449
 2630SOL     OW 8788   3.671   1.652   2.469
 2630SOL    HW1 8789   3.676   1.702   2.382
 2630SOL    HW2 8790   3.602   1.695   2.528
 2631SOL     OW 8791   4.944   6.661   4.398
 2631SOL    HW1 8792   5.042   6.680   4.390
 2631SOL    HW2 8793   4.930   6.575   4.445
 2632SOL     OW 8794   3.368   1.821   6.951
 2632SOL    HW1 8795   3.296   1.786   7.011
 2632SOL    HW2 8796   3.411   1.745   6.903
 2633SOL     OW 8797   6.112   2.347   6.834
 2633SOL    HW1 8798   6.137   2.423   6.773
 2633SOL    HW2 8799   6.121   2.261   6.786
 2634SOL     OW 8800   2.235   4.352   1.876
 2634SOL    HW1 8801   2.273   4.269   1.834
 2634SOL    HW2 8802   2.274   4.432   1.832
 2635SOL     OW 8803   5.803   5.781   4.602
 2635SOL    HW1 8804   5.796   5.792   4.503
 2635SOL    HW2 8805   5.795   5.684   4.626
 2636SOL     OW 8806   5.499   6.830   5.673
 2636SOL    HW1 8807   5.522   6.926   5.689
 2636SOL    HW2 8808   5.442   6.796   5.748
 2637SOL     OW 8809   5.237   6.655   3.673
 2637SOL    HW1 8810   5.269   6.656   3.578
 2637SOL    HW2 8811   5.310   6.622   3.733
 2638SOL     OW 8812   5.385   6.294   1.130
 2638SOL    HW1 8813   5.416   6.328   1.218
 2638SOL    HW2 8814   5.293   6.256   1.139
 2639SOL     OW 8815   5.607   6.515   1.711
 2639SOL    HW1 8816   5.662   6.512   1.627
 2639SOL    HW2 8817   5.608   6.607   1.749
 2640SOL     OW 8818   0.285   6.421   5.262
 2640SOL    HW1 8819   0.279   6.485   5.185
 2640SOL    HW2 8820   0.209   6.357   5.258
 2641SOL     OW 8821   5.053   3.872   6.956
 2641SOL    HW1 8822   5.045   3.869   0.029
 2641SOL    HW2 8823   5.141   3.833   6.928
 2642SOL     OW 8824   4.786   0.328   4.254
 2642SOL    HW1 8825   4.871   0.354   4.208
 2642SOL    HW2 8826   4.709   0.337   4.190
 2643SOL     OW 8827   0.284   6.591   3.251
 2643SOL    HW1 8828   0.271   6.598   3.152
 2643SOL    HW2 8829   0.251   6.674   3.295
 2644SOL     OW 8830   1.109   4.993   5.661
 2644SOL    HW1 8831   1.134   4.993   5.758
 2644SOL    HW2 8832   1.189   5.019   5.607
 2645SOL     OW 8833   5.250   6.490   5.857
 2645SOL    HW1 8834   5.233   6.431   5.936
 2645SOL    HW2 8835   5.308   6.566   5.885
 2646SOL     OW 8836   0.064   0.255   6.212
 2646SOL    HW1 8837   7.014   0.232   6.272
 2646SOL    HW2 8838   0.145   0.203   6.239
 2647SOL     OW 8839   4.899   1.787   0.984
 2647SOL    HW1 8840   4.898   1.719   0.911
 2647SOL    HW2 8841   4.816   1.843   0.978
 2648SOL     OW 8842   6.316   7.003   2.540
 2648SOL    HW1 8843   6.320   0.069   2.501
 2648SOL    HW2 8844   6.325   7.008   2.640
 2649SOL     OW 8845   3.581   1.241   5.978
 2649SOL    HW1 8846   3.679   1.234   5.961
 2649SOL    HW2 8847   3.543   1.314   5.922
 2650SOL     OW 8848   0.288   5.291   3.574
 2650SOL    HW1 8849   0.228   5.260   3.647
 2650SOL    HW2 8850   0.251   5.374   3.533
 2651SOL     OW 8851   0.057   1.303   1.646
 2651SOL    HW1 8852   7.009   1.364   1.620
 2651SOL    HW2 8853   0.130   1.355   1.689
 2652SOL     OW 8854   3.207   3.354   3.222
 2652SOL    HW1 8855   3.134   3.304   3.176
 2652SOL    HW2 8856   3.237   3.431   3.164
 2653SOL     OW 8857   5.338   6.624   6.334
 2653SOL    HW1 8858   5.402   6.623   6.257
 2653SOL    HW2 8859   5.253   6.669   6.306
 2654SOL     OW 8860   5.019   2.075   5.939
 2654SOL    HW1 8861   5.008   2.046   6.034
 2654SOL    HW2 8862   5.110   2.112   5.926
 2655SOL     OW 8863   4.152   6.258   4.552
 2655SOL    HW1 8864   4.186   6.164   4.549
 2655SOL    HW2 8865   4.228   6.322   4.550
 2656SOL     OW 8866   5.379   4.277   3.660
 2656SOL    HW1 8867   5.312   4.282   3.586
 2656SOL    HW2 8868   5.351   4.338   3.734
 2657SOL     OW 8869   1.896   4.374   6.945
 2657SOL    HW1 8870   1.966   4.443   6.963
 2657SOL    HW2 8871   1.810   4.402   6.988
 2658SOL     OW 8872   5.937   4.136   6.201
 2658SOL    HW1 8873   5.851   4.188   6.202
 2658SOL    HW2 8874   5.956   4.106   6.108
 2659SOL     OW 8875   6.716   2.349   4.566
 2659SOL    HW1 8876   6.702   2.405   4.484
 2659SOL    HW2 8877   6.632   2.345   4.619
 2660SOL     OW 8878   6.565   2.634   2.248
 2660SOL    HW1 8879   6.597   2.606   2.339
 2660SOL    HW2 8880   6.479   2.586   2.228
 2661SOL     OW 8881   3.373   5.652   1.251
 2661SOL    HW1 8882   3.297   5.648   1.316
 2661SOL    HW2 8883   3.336   5.668   1.159
 2662SOL     OW 8884   4.417   6.243   4.781
 2662SOL    HW1 8885   4.509   6.213   4.808
 2662SOL    HW2 8886   4.418   6.272   4.685
 2663SOL     OW 8887   1.803   5.124   1.815
 2663SOL    HW1 8888   1.738   5.050   1.834
 2663SOL    HW2 8889   1.752   5.205   1.785
 2664SOL     OW 8890   3.740   4.048   2.982
 2664SOL    HW1 8891   3.694   4.135   3.000
 2664SOL    HW2 8892   3.739   4.029   2.884
 2665SOL     OW 8893   3.825   1.662   4.849
 2665SOL    HW1 8894   3.886   1.722   4.797
 2665SOL    HW2 8895   3.823   1.691   4.945
 2666SOL     OW 8896   4.972   4.497   0.872
 2666SOL    HW1 8897   5.072   4.489   0.872
 2666SOL    HW2 8898   4.944   4.562   0.801
 2667SOL     OW 8899   2.078   6.291   5.602
 2667SOL    HW1 8900   2.091   6.204   5.555
 2667SOL    HW2 8901   2.165   6.321   5.642
 2668SOL     OW 8902   6.955   3.338   4.547
 2668SOL    HW1 8903   6.915   3.248   4.532
 2668SOL    HW2 8904   7.014   3.335   4.628
 2669SOL     OW 8905   4.270   5.351   5.405
 2669SOL    HW1 8906   4.357   5.306   5.427
 2669SOL    HW2 8907   4.197   5.283   5.404
 2670SOL     OW 8908   0.129   0.938   6.768
 2670SOL    HW1 8909   0.125   0.876   6.690
 2670SOL    HW2 8910   0.090   0.892   6.848
 2671SOL     OW 8911   2.556   4.127   6.867
 2671SOL    HW1 8912   2.633   4.179   6.905
 2671SOL    HW2 8913   2.550   4.144   6.769
 2672SOL     OW 8914   2.098   5.474   0.415
 2672SOL    HW1 8915   2.036   5.396   0.418
 2672SOL    HW2 8916   2.192   5.442   0.411
 2673SOL     OW 8917   4.205   2.197   3.066
 2673SOL    HW1 8918   4.137   2.184   3.138
 2673SOL    HW2 8919   4.288   2.236   3.105
 2674SOL     OW 8920   0.867   5.128   4.676
 2674SOL    HW1 8921   0.837   5.176   4.593
 2674SOL    HW2 8922   0.829   5.036   4.676
 2675SOL     OW 8923   0.358   4.082   5.442
 2675SOL    HW1 8924   0.410   4.035   5.513
 2675SOL    HW2 8925   0.265   4.046   5.438
 2676SOL     OW 8926   5.095   1.661   2.605
 2676SOL    HW1 8927   5.081   1.665   2.704
 2676SOL    HW2 8928   5.193   1.653   2.586
 2677SOL     OW 8929   1.446   4.665   1.866
 2677SOL    HW1 8930   1.541   4.683   1.888
 2677SOL    HW2 8931   1.436   4.658   1.766
 2678SOL     OW 8932   1.525   4.983   6.956
 2678SOL    HW1 8933   1.425   4.993   6.961
 2678SOL    HW2 8934   1.548   4.908   6.894
 2679SOL     OW 8935   3.344   5.215   1.162
 2679SOL    HW1 8936   3.374   5.297   1.212
 2679SOL    HW2 8937   3.424   5.170   1.123
 2680SOL     OW 8938   1.699   1.665   0.495
 2680SOL    HW1 8939   1.696   1.764   0.502
 2680SOL    HW2 8940   1.792   1.636   0.473
 2681SOL     OW 8941   1.195   3.286   4.213
 2681SOL    HW1 8942   1.295   3.289   4.215
 2681SOL    HW2 8943   1.158   3.375   4.240
 2682SOL     OW 8944   5.379   2.575   2.198
 2682SOL    HW1 8945   5.303   2.522   2.160
 2682SOL    HW2 8946   5.460   2.517   2.203
 2683SOL     OW 8947   0.403   4.901   1.121
 2683SOL    HW1 8948   0.456   4.831   1.073
 2683SOL    HW2 8949   0.403   4.882   1.219
 2684SOL     OW 8950   4.038   6.380   2.851
 2684SOL    HW1 8951   4.086   6.397   2.765
 2684SOL    HW2 8952   3.978   6.300   2.841
 2685SOL     OW 8953   5.384   6.215   4.678
 2685SOL    HW1 8954   5.354   6.120   4.667
 2685SOL    HW2 8955   5.360   6.248   4.769
 2686SOL     OW 8956   2.548   2.446   4.101
 2686SOL    HW1 8957   2.596   2.497   4.173
 2686SOL    HW2 8958   2.459   2.417   4.135
 2687SOL     OW 8959   4.056   4.848   2.434
 2687SOL    HW1 8960   3.966   4.829   2.395
 2687SOL    HW2 8961   4.047   4.917   2.506
 2688SOL     OW 8962   4.193   5.292   5.937
 2688SOL    HW1 8963   4.277   5.340   5.961
 2688SOL    HW2 8964   4.209   5.232   5.859
 2689SOL     OW 8965   1.455   2.105   3.650
 2689SOL    HW1 8966   1.460   2.032   3.717
 2689SOL    HW2 8967   1.457   2.194   3.697
 2690SOL     OW 8968   3.812   2.987   3.648
 2690SOL    HW1 8969   3.825   2.992   3.747
 2690SOL    HW2 8970   3.730   2.933   3.628
 2691SOL     OW 8971   1.387   5.525   2.227
 2691SOL    HW1 8972   1.415   5.440   2.182
 2691SOL    HW2 8973   1.362   5.505   2.322
 2692SOL     OW 8974   6.885   5.323   3.771
 2692SOL    HW1 8975   6.900   5.282   3.681
 2692SOL    HW2 8976   6.945   5.279   3.838
 2693SOL     OW 8977   2.089   3.706   3.389
 2693SOL    HW1 8978   2.069   3.684   3.485
 2693SOL    HW2 8979   2.128   3.798   3.384
 2694SOL     OW 8980   2.897   0.008   2.937
 2694SOL    HW1 8981   2.990   0.029   2.906
 2694SOL    HW2 8982   2.831   0.058   2.882
 2695SOL     OW 8983   4.428   1.985   2.499
 2695SOL    HW1 8984   4.457   2.008   2.407
 2695SOL    HW2 8985   4.467   1.897   2.526
 2696SOL     OW 8986   3.952   3.766   5.554
 2696SOL    HW1 8987   4.001   3.719   5.481
 2696SOL    HW2 8988   3.892   3.836   5.516
 2697SOL     OW 8989   4.333   2.427   3.822
 2697SOL    HW1 8990   4.295   2.443   3.913
 2697SOL    HW2 8991   4.389   2.344   3.823
 2698SOL     OW 8992   0.847   4.581   1.236
 2698SOL    HW1 8993   0.921   4.554   1.174
 2698SOL    HW2 8994   0.857   4.532   1.323
 2699SOL     OW 8995   3.832   5.304   0.791
 2699SOL    HW1 8996   3.760   5.309   0.860
 2699SOL    HW2 8997   3.909   5.362   0.817
 2700SOL     OW 8998   2.105   3.526   2.711
 2700SOL    HW1 8999   2.139   3.433   2.697
 2700SOL    HW2 9000   2.100   3.545   2.809
 2701SOL     OW 9001   3.395   0.085   6.806
 2701SOL    HW1 9002   3.402   0.034   6.892
 2701SOL    HW2 9003   3.334   0.163   6.818
 2702SOL     OW 9004   6.926   1.316   2.872
 2702SOL    HW1 9005   6.957   1.278   2.959
 2702SOL    HW2 9006   6.936   1.246   2.801
 2703SOL     OW 9007   2.562   1.984   2.393
 2703SOL    HW1 9008   2.619   2.053   2.437
 2703SOL    HW2 9009   2.612   1.897   2.389
 2704SOL     OW 9010   2.291   5.370   2.090
 2704SOL    HW1 9011   2.226   5.428   2.040
 2704SOL    HW2 9012   2.374   5.421   2.109
 2705SOL     OW 9013   6.622   6.250   3.714
 2705SOL    HW1 9014   6.566   6.302   3.778
 2705SOL    HW2 9015   6.664   6.173   3.762
 2706SOL     OW 9016   6.847   1.664   2.031
 2706SOL    HW1 9017   6.893   1.749   2.056
 2706SOL    HW2 9018   6.836   1.606   2.112
 2707SOL     OW 9019   1.937   1.885   6.684
 2707SOL    HW1 9020   1.914   1.840   6.598
 2707SOL    HW2 9021   1.921   1.983   6.676
 2708SOL     OW 9022   2.445   2.765   1.861
 2708SOL    HW1 9023   2.392   2.702   1.805
 2708SOL    HW2 9024   2.391   2.794   1.939
 2709SOL     OW 9025   5.087   5.877   1.490
 2709SOL    HW1 9026   5.078   5.942   1.566
 2709SOL    HW2 9027   5.028   5.798   1.507
 2710SOL     OW 9028   0.114   3.656   2.654
 2710SOL    HW1 9029   0.056   3.606   2.590
 2710SOL    HW2 9030   0.203   3.674   2.613
 2711SOL     OW 9031   1.266   0.282   2.156
 2711SOL    HW1 9032   1.330   0.336   2.101
 2711SOL    HW2 9033   1.190   0.251   2.099
 2712SOL     OW 9034   2.787   4.888   0.369
 2712SOL    HW1 9035   2.756   4.808   0.421
 2712SOL    HW2 9036   2.778   4.869   0.271
 2713SOL     OW 9037   2.224   3.004   4.817
 2713SOL    HW1 9038   2.296   3.009   4.886
 2713SOL    HW2 9039   2.168   2.923   4.833
 2714SOL     OW 9040   5.456   1.471   5.977
 2714SOL    HW1 9041   5.398   1.542   6.018
 2714SOL    HW2 9042   5.551   1.502   5.977
 2715SOL     OW 9043   5.430   1.192   0.391
 2715SOL    HW1 9044   5.450   1.212   0.487
 2715SOL    HW2 9045   5.353   1.129   0.385
 2716SOL     OW 9046   6.703   5.171   1.939
 2716SOL    HW1 9047   6.681   5.191   2.034
 2716SOL    HW2 9048   6.682   5.251   1.882
 2717SOL     OW 9049   0.851   6.559   2.315
 2717SOL    HW1 9050   0.801   6.520   2.392
 2717SOL    HW2 9051   0.949   6.545   2.328
 2718SOL     OW 9052   1.733   3.383   4.320
 2718SOL    HW1 9053   1.650   3.375   4.266
 2718SOL    HW2 9054   1.742   3.303   4.380
 2719SOL     OW 9055   4.472   4.970   2.722
 2719SOL    HW1 9056   4.408   5.035   2.763
 2719SOL    HW2 9057   4.426   4.882   2.708
 2720SOL     OW 9058   1.547   6.321   3.958
 2720SOL    HW1 9059   1.524   6.383   4.033
 2720SOL    HW2 9060   1.647   6.317   3.948
 2721SOL     OW 9061   2.635   0.128   4.378
 2721SOL    HW1 9062   2.655   0.114   4.281
 2721SOL    HW2 9063   2.609   0.224   4.393
 2722SOL     OW 9064   0.551   5.210   3.194
 2722SOL    HW1 9065   0.581   5.305   3.184
 2722SOL    HW2 9066   0.457   5.208   3.226
 2723SOL     OW 9067   2.234   1.473   5.475
 2723SOL    HW1 9068   2.223   1.572   5.476
 2723SOL    HW2 9069   2.321   1.449   5.431
 2724SOL     OW 9070   3.312   5.492   6.605
 2724SOL    HW1 9071   3.377   5.545   6.551
 2724SOL    HW2 9072   3.291   5.406   6.558
 2725SOL     OW 9073   4.914   4.624   2.901
 2725SOL    HW1 9074   4.958   4.714   2.893
 2725SOL    HW2 9075   4.953   4.576   2.980
 2726SOL     OW 9076   4.889   4.503   1.763
 2726SOL    HW1 9077   4.837   4.545   1.689
 2726SOL    HW2 9078   4.972   4.555   1.780
 2727SOL     OW 9079   0.739   4.913   3.071
 2727SOL    HW1 9080   0.809   4.983   3.082
 2727SOL    HW2 9081   0.659   4.952   3.025
 2728SOL     OW 9082   2.851   0.084   4.996
 2728SOL    HW1 9083   2.936   0.045   4.960
 2728SOL    HW2 9084   2.782   0.013   5.002
 2729SOL     OW 9085   6.352   5.246   3.195
 2729SOL    HW1 9086   6.412   5.166   3.184
 2729SOL    HW2 9087   6.401   5.317   3.245
 2730SOL     OW 9088   2.503   6.788   0.277
 2730SOL    HW1 9089   2.458   6.705   0.243
 2730SOL    HW2 9090   2.588   6.763   0.323
 2731SOL     OW 9091   2.882   3.900   1.672
 2731SOL    HW1 9092   2.869   3.996   1.697
 2731SOL    HW2 9093   2.902   3.894   1.574
 2732SOL     OW 9094   5.914   2.948   2.270
 2732SOL    HW1 9095   5.839   2.884   2.288
 2732SOL    HW2 9096   6.001   2.899   2.273
 2733SOL     OW 9097   0.626   6.733   5.685
 2733SOL    HW1 9098   0.589   6.775   5.601
 2733SOL    HW2 9099   0.589   6.641   5.695
 2734SOL     OW 9100   1.767   0.024   3.716
 2734SOL    HW1 9101   1.759   0.045   3.813
 2734SOL    HW2 9102   1.720   0.094   3.662
 2735SOL     OW 9103   1.093   4.003   2.597
 2735SOL    HW1 9104   1.166   4.036   2.537
 2735SOL    HW2 9105   1.056   4.080   2.650
 2736SOL     OW 9106   4.711   0.334   5.381
 2736SOL    HW1 9107   4.777   0.352   5.453
 2736SOL    HW2 9108   4.721   0.403   5.309
 2737SOL     OW 9109   3.876   3.539   6.295
 2737SOL    HW1 9110   3.887   3.550   6.394
 2737SOL    HW2 9111   3.951   3.587   6.248
 2738SOL     OW 9112   4.859   5.252   3.970
 2738SOL    HW1 9113   4.876   5.351   3.974
 2738SOL    HW2 9114   4.798   5.231   3.894
 2739SOL     OW 9115   5.532   4.291   0.807
 2739SOL    HW1 9116   5.630   4.307   0.822
 2739SOL    HW2 9117   5.495   4.238   0.882
 2740SOL     OW 9118   6.284   2.180   2.589
 2740SOL    HW1 9119   6.312   2.257   2.646
 2740SOL    HW2 9120   6.342   2.176   2.507
 2741SOL     OW 9121   6.982   2.114   5.736
 2741SOL    HW1 9122   6.892   2.157   5.744
 2741SOL    HW2 9123   7.003   2.066   5.821
 2742SOL     OW 9124   1.509   5.652   6.633
 2742SOL    HW1 9125   1.495   5.640   6.535
 2742SOL    HW2 9126   1.571   5.582   6.667
 2743SOL     OW 9127   5.374   5.105   1.563
 2743SOL    HW1 9128   5.408   5.128   1.654
 2743SOL    HW2 9129   5.290   5.156   1.544
 2744SOL     OW 9130   4.239   2.217   6.824
 2744SOL    HW1 9131   4.227   2.277   6.745
 2744SOL    HW2 9132   4.325   2.166   6.814
 2745SOL     OW 9133   1.837   6.393   1.101
 2745SOL    HW1 9134   1.825   6.296   1.080
 2745SOL    HW2 9135   1.891   6.402   1.185
 2746SOL     OW 9136   1.739   2.226   5.182
 2746SOL    HW1 9137   1.802   2.299   5.209
 2746SOL    HW2 9138   1.681   2.259   5.106
 2747SOL     OW 9139   6.075   5.557   4.764
 2747SOL    HW1 9140   6.130   5.614   4.702
 2747SOL    HW2 9141   6.053   5.471   4.719
 2748SOL     OW 9142   4.380   1.638   3.742
 2748SOL    HW1 9143   4.316   1.714   3.743
 2748SOL    HW2 9144   4.466   1.667   3.701
 2749SOL     OW 9145   4.665   4.291   4.192
 2749SOL    HW1 9146   4.696   4.206   4.233
 2749SOL    HW2 9147   4.722   4.314   4.114
 2750SOL     OW 9148   0.617   6.004   2.196
 2750SOL    HW1 9149   0.571   6.016   2.108
 2750SOL    HW2 9150   0.706   5.959   2.181
 2751SOL     OW 9151   2.031   0.075   0.151
 2751SOL    HW1 9152   2.013   7.007   0.181
 2751SOL    HW2 9153   1.979   0.093   0.067
 2752SOL     OW 9154   5.555   6.275   5.037
 2752SOL    HW1 9155   5.631   6.305   4.979
 2752SOL    HW2 9156   5.538   6.343   5.108
 2753SOL     OW 9157   3.681   6.229   6.290
 2753SOL    HW1 9158   3.706   6.153   6.351
 2753SOL    HW2 9159   3.583   6.226   6.271
 2754SOL     OW 9160   0.333   0.145   4.531
 2754SOL    HW1 9161   0.389   0.070   4.496
 2754SOL    HW2 9162   0.370   0.175   4.619
 2755SOL     OW 9163   3.175   6.293   2.304
 2755SOL    HW1 9164   3.089   6.328   2.267
 2755SOL    HW2 9165   3.173   6.297   2.404
 2756SOL     OW 9166   5.669   3.660   5.142
 2756SOL    HW1 9167   5.605   3.602   5.092
 2756SOL    HW2 9168   5.747   3.605   5.172
 2757SOL     OW 9169   4.693   1.781   0.145
 2757SOL    HW1 9170   4.756   1.831   0.205
 2757SOL    HW2 9171   4.632   1.725   0.201
 2758SOL     OW 9172   5.369   4.909   3.262
 2758SOL    HW1 9173   5.343   4.830   3.317
 2758SOL    HW2 9174   5.371   4.990   3.320
 2759SOL     OW 9175   3.375   4.600   6.096
 2759SOL    HW1 9176   3.337   4.554   6.016
 2759SOL    HW2 9177   3.472   4.618   6.082
 2760SOL     OW 9178   5.539   5.769   3.595
 2760SOL    HW1 9179   5.590   5.700   3.544
 2760SOL    HW2 9180   5.568   5.860   3.566
 2761SOL     OW 9181   1.872   3.895   2.767
 2761SOL    HW1 9182   1.814   3.814   2.755
 2761SOL    HW2 9183   1.954   3.870   2.819
 2762SOL     OW 9184   1.699   2.417   6.974
 2762SOL    HW1 9185   1.680   2.481   0.023
 2762SOL    HW2 9186   1.724   2.328   7.012
 2763SOL     OW 9187   4.753   1.161   6.004
 2763SOL    HW1 9188   4.731   1.118   6.091
 2763SOL    HW2 9189   4.843   1.205   6.010
 2764SOL     OW 9190   0.444   3.912   1.841
 2764SOL    HW1 9191   0.383   3.877   1.770
 2764SOL    HW2 9192   0.394   3.922   1.926
 2765SOL     OW 9193   6.234   6.569   0.114
 2765SOL    HW1 9194   6.204   6.475   0.125
 2765SOL    HW2 9195   6.196   6.625   0.187
 2766SOL     OW 9196   5.177   1.026   6.608
 2766SOL    HW1 9197   5.196   1.108   6.662
 2766SOL    HW2 9198   5.131   0.959   6.666
 2767SOL     OW 9199   5.909   4.973   6.478
 2767SOL    HW1 9200   5.826   5.028   6.469
 2767SOL    HW2 9201   5.972   4.996   6.403
 2768SOL     OW 9202   4.602   0.564   0.975
 2768SOL    HW1 9203   4.578   0.661   0.964
 2768SOL    HW2 9204   4.691   0.558   1.021
 2769SOL     OW 9205   1.661   4.493   5.888
 2769SOL    HW1 9206   1.623   4.584   5.899
 2769SOL    HW2 9207   1.623   4.432   5.957
 2770SOL     OW 9208   2.405   0.176   6.569
 2770SOL    HW1 9209   2.341   0.108   6.603
 2770SOL    HW2 9210   2.382   0.200   6.475
 2771SOL     OW 9211   4.906   0.269   4.942
 2771SOL    HW1 9212   4.886   0.351   4.995
 2771SOL    HW2 9213   4.824   0.241   4.892
 2772SOL     OW 9214   4.069   0.938   2.781
 2772SOL    HW1 9215   4.032   0.948   2.689
 2772SOL    HW2 9216   4.140   0.868   2.781
 2773SOL     OW 9217   6.545   3.092   4.175
 2773SOL    HW1 9218   6.598   3.079   4.091
 2773SOL    HW2 9219   6.514   3.003   4.209
 2774SOL     OW 9220   5.190   1.837   3.478
 2774SOL    HW1 9221   5.149   1.928   3.482
 2774SOL    HW2 9222   5.144   1.782   3.409
 2775SOL     OW 9223   0.481   4.247   4.834
 2775SOL    HW1 9224   0.568   4.216   4.872
 2775SOL    HW2 9225   0.428   4.167   4.804
 2776SOL     OW 9226   4.948   5.213   6.020
 2776SOL    HW1 9227   4.892   5.176   6.094
 2776SOL    HW2 9228   5.037   5.168   6.018
 2777SOL     OW 9229   3.159   2.188   6.014
 2777SOL    HW1 9230   3.176   2.239   6.099
 2777SOL    HW2 9231   3.218   2.223   5.941
 2778SOL     OW 9232   2.471   6.055   6.517
 2778SOL    HW1 9233   2.439   6.065   6.611
 2778SOL    HW2 9234   2.466   5.958   6.490
 2779SOL     OW 9235   6.187   5.872   2.090
 2779SOL    HW1 9236   6.110   5.890   2.028
 2779SOL    HW2 9237   6.236   5.957   2.107
 2780SOL     OW 9238   0.270   1.305   6.231
 2780SOL    HW1 9239   0.328   1.367   6.178
 2780SOL    HW2 9240   0.316   1.281   6.317
 2781SOL     OW 9241   6.540   0.490   2.557
 2781SOL    HW1 9242   6.624   0.464   2.510
 2781SOL    HW2 9243   6.543   0.587   2.581
 2782SOL     OW 9244   4.645   1.056   6.881
 2782SOL    HW1 9245   4.652   1.063   6.782
 2782SOL    HW2 9246   4.548   1.048   6.907
 2783SOL     OW 9247   5.431   3.301   1.883
 2783SOL    HW1 9248   5.443   3.221   1.824
 2783SOL    HW2 9249   5.370   3.278   1.959
 2784SOL     OW 9250   1.736   1.738   0.861
 2784SOL    HW1 9251   1.649   1.769   0.898
 2784SOL    HW2 9252   1.724   1.647   0.820
 2785SOL     OW 9253   5.293   2.961   1.582
 2785SOL    HW1 9254   5.341   2.960   1.670
 2785SOL    HW2 9255   5.249   2.873   1.567
 2786SOL     OW 9256   6.845   5.827   0.429
 2786SOL    HW1 9257   6.926   5.776   0.400
 2786SOL    HW2 9258   6.772   5.763   0.454
 2787SOL     OW 9259   6.015   5.003   5.759
 2787SOL    HW1 9260   5.972   5.068   5.697
 2787SOL    HW2 9261   6.107   4.981   5.726
 2788SOL     OW 9262   3.558   6.299   5.571
 2788SOL    HW1 9263   3.628   6.314   5.641
 2788SOL    HW2 9264   3.493   6.376   5.572
 2789SOL     OW 9265   0.391   2.695   4.913
 2789SOL    HW1 9266   0.462   2.691   4.842
 2789SOL    HW2 9267   0.302   2.675   4.872
 2790SOL     OW 9268   2.252   5.559   0.647
 2790SOL    HW1 9269   2.232   5.630   0.715
 2790SOL    HW2 9270   2.195   5.573   0.566
 2791SOL     OW 9271   6.640   3.642   3.321
 2791SOL    HW1 9272   6.580   3.628   3.242
 2791SOL    HW2 9273   6.663   3.739   3.328
 2792SOL     OW 9274   3.470   1.531   5.272
 2792SOL    HW1 9275   3.565   1.514   5.247
 2792SOL    HW2 9276   3.411   1.465   5.226
 2793SOL     OW 9277   3.606   4.656   1.352
 2793SOL    HW1 9278   3.649   4.624   1.436
 2793SOL    HW2 9279   3.675   4.665   1.280
 2794SOL     OW 9280   0.159   1.755   5.951
 2794SOL    HW1 9281   0.149   1.716   6.043
 2794SOL    HW2 9282   0.089   1.718   5.891
 2795SOL     OW 9283   0.862   4.478   1.496
 2795SOL    HW1 9284   0.861   4.378   1.498
 2795SOL    HW2 9285   0.776   4.513   1.534
 2796SOL     OW 9286   1.087   6.023   5.857
 2796SOL    HW1 9287   1.022   5.956   5.821
 2796SOL    HW2 9288   1.132   6.071   5.781
 2797SOL     OW 9289   5.182   6.804   4.278
 2797SOL    HW1 9290   5.214   6.898   4.282
 2797SOL    HW2 9291   5.257   6.744   4.248
 2798SOL     OW 9292   5.946   6.372   1.977
 2798SOL    HW1 9293   5.967   6.432   1.900
 2798SOL    HW2 9294   6.025   6.314   1.997
 2799SOL     OW 9295   3.921   6.369   4.655
 2799SOL    HW1 9296   3.921   6.388   4.753
 2799SOL    HW2 9297   4.011   6.336   4.627
 2800SOL     OW 9298   6.049   0.800   6.422
 2800SOL    HW1 9299   6.111   0.722   6.431
 2800SOL    HW2 9300   5.993   0.807   6.505
 2801SOL     OW 9301   0.707   4.922   5.842
 2801SOL    HW1 9302   0.802   4.905   5.866
 2801SOL    HW2 9303   0.698   4.925   5.742
 2802SOL     OW 9304   6.473   5.970   5.250
 2802SOL    HW1 9305   6.469   6.020   5.163
 2802SOL    HW2 9306   6.483   5.872   5.231
 2803SOL     OW 9307   3.230   3.471   6.372
 2803SOL    HW1 9308   3.168   3.535   6.327
 2803SOL    HW2 9309   3.243   3.390   6.315
 2804SOL     OW 9310   0.556   3.147   3.946
 2804SOL    HW1 9311   0.510   3.058   3.938
 2804SOL    HW2 9312   0.530   3.205   3.868
 2805SOL     OW 9313   4.221   3.384   1.547
 2805SOL    HW1 9314   4.286   3.453   1.578
 2805SOL    HW2 9315   4.182   3.337   1.626
 2806SOL     OW 9316   0.826   4.517   5.998
 2806SOL    HW1 9317   0.855   4.604   5.956
 2806SOL    HW2 9318   0.837   4.444   5.931
 2807SOL     OW 9319   2.792   0.233   3.467
 2807SOL    HW1 9320   2.760   0.159   3.408
 2807SOL    HW2 9321   2.882   0.264   3.438
 2808SOL     OW 9322   6.013   5.412   0.257
 2808SOL    HW1 9323   5.968   5.417   0.345
 2808SOL    HW2 9324   5.996   5.322   0.216
 2809SOL     OW 9325   6.541   4.733   2.195
 2809SOL    HW1 9326   6.531   4.809   2.259
 2809SOL    HW2 9327   6.501   4.758   2.107
 2810SOL     OW 9328   2.186   5.431   3.699
 2810SOL    HW1 9329   2.231   5.343   3.683
 2810SOL    HW2 9330   2.163   5.439   3.796
 2811SOL     OW 9331   0.890   0.405   2.406
 2811SOL    HW1 9332   0.846   0.473   2.465
 2811SOL    HW2 9333   0.963   0.449   2.354
 2812SOL     OW 9334   0.447   3.452   0.944
 2812SOL    HW1 9335   0.370   3.484   0.999
 2812SOL    HW2 9336   0.420   3.447   0.848
 2813SOL     OW 9337   0.851   2.112   1.315
 2813SOL    HW1 9338   0.752   2.119   1.303
 2813SOL    HW2 9339   0.889   2.204   1.324
 2814SOL     OW 9340   2.023   4.114   0.442
 2814SOL    HW1 9341   1.947   4.179   0.440
 2814SOL    HW2 9342   2.044   4.091   0.537
 2815SOL     OW 9343   0.637   5.789   5.186
 2815SOL    HW1 9344   0.729   5.774   5.222
 2815SOL    HW2 9345   0.569   5.753   5.250
 2816SOL     OW 9346   0.309   5.912   5.761
 2816SOL    HW1 9347   0.278   5.817   5.759
 2816SOL    HW2 9348   0.340   5.939   5.669
 2817SOL     OW 9349   3.916   0.622   2.178
 2817SOL    HW1 9350   3.934   0.527   2.203
 2817SOL    HW2 9351   3.900   0.629   2.080
 2818SOL     OW 9352   1.336   0.429   1.392
 2818SOL    HW1 9353   1.250   0.477   1.370
 2818SOL    HW2 9354   1.315   0.344   1.439
 2819SOL     OW 9355   0.597   0.372   0.889
 2819SOL    HW1 9356   0.538   0.317   0.948
 2819SOL    HW2 9357   0.691   0.368   0.923
 2820SOL     OW 9358   1.302   2.524   1.338
 2820SOL    HW1 9359   1.330   2.620   1.348
 2820SOL    HW2 9360   1.233   2.503   1.407
 2821SOL     OW 9361   3.113   4.447   6.438
 2821SOL    HW1 9362   3.101   4.495   6.351
 2821SOL    HW2 9363   3.059   4.494   6.509
 2822SOL     OW 9364   4.379   2.286   0.663
 2822SOL    HW1 9365   4.335   2.197   0.657
 2822SOL    HW2 9366   4.311   2.354   0.693
 2823SOL     OW 9367   4.996   2.113   0.655
 2823SOL    HW1 9368   4.940   2.153   0.583
 2823SOL    HW2 9369   5.013   2.016   0.635
 2824SOL     OW 9370   1.139   3.528   5.263
 2824SOL    HW1 9371   1.074   3.509   5.337
 2824SOL    HW2 9372   1.214   3.583   5.299
 2825SOL     OW 9373   5.153   1.697   6.278
 2825SOL    HW1 9374   5.115   1.608   6.255
 2825SOL    HW2 9375   5.195   1.694   6.368
 2826SOL     OW 9376   1.690   4.305   6.711
 2826SOL    HW1 9377   1.727   4.239   6.776
 2826SOL    HW2 9378   1.643   4.257   6.637
 2827SOL     OW 9379   0.113   0.550   6.226
 2827SOL    HW1 9380   0.100   0.454   6.198
 2827SOL    HW2 9381   0.108   0.557   6.325
 2828SOL     OW 9382   1.817   4.097   1.120
 2828SOL    HW1 9383   1.747   4.026   1.116
 2828SOL    HW2 9384   1.777   4.185   1.095
 2829SOL     OW 9385   3.686   4.103   3.318
 2829SOL    HW1 9386   3.716   4.096   3.413
 2829SOL    HW2 9387   3.754   4.062   3.258
 2830SOL     OW 9388   3.557   5.405   5.714
 2830SOL    HW1 9389   3.505   5.330   5.673
 2830SOL    HW2 9390   3.496   5.462   5.769
 2831SOL     OW 9391   6.649   2.001   1.799
 2831SOL    HW1 9392   6.621   1.912   1.835
 2831SOL    HW2 9393   6.654   2.068   1.873
 2832SOL     OW 9394   0.615   3.256   1.025
 2832SOL    HW1 9395   0.521   3.261   0.992
 2832SOL    HW2 9396   0.678   3.273   0.949
 2833SOL     OW 9397   1.689   2.209   1.688
 2833SOL    HW1 9398   1.694   2.114   1.719
 2833SOL    HW2 9399   1.674   2.212   1.589
 2834SOL     OW 9400   4.257   6.023   4.814
 2834SOL    HW1 9401   4.238   5.973   4.730
 2834SOL    HW2 9402   4.310   6.105   4.794
 2835SOL     OW 9403   0.908   6.488   0.557
 2835SOL    HW1 9404   0.896   6.585   0.577
 2835SOL    HW2 9405   1.005   6.464   0.566
 2836SOL     OW 9406   3.716   5.971   3.536
 2836SOL    HW1 9407   3.637   6.032   3.534
 2836SOL    HW2 9408   3.698   5.895   3.598
 2837SOL     OW 9409   5.242   4.039   2.294
 2837SOL    HW1 9410   5.218   3.988   2.212
 2837SOL    HW2 9411   5.176   4.113   2.308
 2838SOL     OW 9412   5.071   3.671   6.111
 2838SOL    HW1 9413   4.991   3.712   6.068
 2838SOL    HW2 9414   5.122   3.619   6.042
 2839SOL     OW 9415   6.110   3.217   5.011
 2839SOL    HW1 9416   6.048   3.152   5.055
 2839SOL    HW2 9417   6.067   3.252   4.927
 2840SOL     OW 9418   0.505   5.990   3.143
 2840SOL    HW1 9419   0.456   6.071   3.177
 2840SOL    HW2 9420   0.602   6.011   3.134
 2841SOL     OW 9421   5.555   2.330   1.736
 2841SOL    HW1 9422   5.569   2.400   1.806
 2841SOL    HW2 9423   5.535   2.243   1.781
 2842SOL     OW 9424   1.540   6.598   3.572
 2842SOL    HW1 9425   1.444   6.624   3.578
 2842SOL    HW2 9426   1.554   6.508   3.613
 2843SOL     OW 9427   2.266   2.934   3.000
 2843SOL    HW1 9428   2.281   2.939   3.099
 2843SOL    HW2 9429   2.177   2.973   2.978
 2844SOL     OW 9430   4.765   4.419   1.289
 2844SOL    HW1 9431   4.728   4.440   1.199
 2844SOL    HW2 9432   4.828   4.341   1.282
 2845SOL     OW 9433   3.868   2.179   3.084
 2845SOL    HW1 9434   3.922   2.263   3.074
 2845SOL    HW2 9435   3.870   2.149   3.179
 2846SOL     OW 9436   5.061   0.567   0.772
 2846SOL    HW1 9437   4.970   0.599   0.749
 2846SOL    HW2 9438   5.060   0.523   0.862
 2847SOL     OW 9439   5.179   4.031   2.662
 2847SOL    HW1 9440   5.155   4.095   2.735
 2847SOL    HW2 9441   5.237   4.078   2.595
 2848SOL     OW 9442   0.921   3.633   5.018
 2848SOL    HW1 9443   0.868   3.683   4.949
 2848SOL    HW2 9444   0.969   3.699   5.077
 2849SOL     OW 9445   3.933   0.350   2.816
 2849SOL    HW1 9446   4.015   0.372   2.869
 2849SOL    HW2 9447   3.871   0.429   2.816
 2850SOL     OW 9448   2.646   0.077   2.815
 2850SOL    HW1 9449   2.591   0.160   2.802
 2850SOL    HW2 9450   2.600   7.025   2.773
 2851SOL     OW 9451   3.926   3.191   0.902
 2851SOL    HW1 9452   3.885   3.145   0.980
 2851SOL    HW2 9453   3.933   3.289   0.920
 2852SOL     OW 9454   6.450   4.307   5.970
 2852SOL    HW1 9455   6.367   4.257   5.944
 2852SOL    HW2 9456   6.462   4.301   6.069
 2853SOL     OW 9457   0.786   3.922   0.100
 2853SOL    HW1 9458   0.799   4.016   0.133
 2853SOL    HW2 9459   0.868   3.868   0.121
 2854SOL     OW 9460   3.606   1.652   5.924
 2854SOL    HW1 9461   3.508   1.632   5.914
 2854SOL    HW2 9462   3.645   1.589   5.991
 2855SOL     OW 9463   1.856   1.342   4.281
 2855SOL    HW1 9464   1.764   1.370   4.253
 2855SOL    HW2 9465   1.912   1.326   4.200
 2856SOL     OW 9466   1.006   4.532   3.225
 2856SOL    HW1 9467   1.024   4.483   3.311
 2856SOL    HW2 9468   0.916   4.575   3.229
 2857SOL     OW 9469   6.667   3.298   0.623
 2857SOL    HW1 9470   6.743   3.243   0.657
 2857SOL    HW2 9471   6.666   3.386   0.671
 2858SOL     OW 9472   4.678   4.579   3.210
 2858SOL    HW1 9473   4.775   4.554   3.208
 2858SOL    HW2 9474   4.652   4.619   3.122
 2859SOL     OW 9475   5.549   4.784   1.750
 2859SOL    HW1 9476   5.523   4.805   1.655
 2859SOL    HW2 9477   5.641   4.745   1.751
 2860SOL     OW 9478   1.108   5.913   1.360
 2860SOL    HW1 9479   1.172   5.982   1.393
 2860SOL    HW2 9480   1.014   5.944   1.377
 2861SOL     OW 9481   4.597   4.938   0.010
 2861SOL    HW1 9482   4.502   4.938   0.041
 2861SOL    HW2 9483   4.600   4.920   6.937
 2862SOL     OW 9484   4.337   2.988   0.945
 2862SOL    HW1 9485   4.343   3.018   0.850
 2862SOL    HW2 9486   4.420   2.937   0.969
 2863SOL     OW 9487   5.984   7.017   5.084
 2863SOL    HW1 9488   5.966   6.956   5.162
 2863SOL    HW2 9489   6.072   0.037   5.097
 2864SOL     OW 9490   4.041   3.574   0.036
 2864SOL    HW1 9491   3.967   3.533   0.088
 2864SOL    HW2 9492   4.004   3.640   6.997
 2865SOL     OW 9493   5.362   6.053   4.145
 2865SOL    HW1 9494   5.273   6.049   4.189
 2865SOL    HW2 9495   5.362   5.999   4.062
 2866SOL     OW 9496   4.167   4.473   6.845
 2866SOL    HW1 9497   4.265   4.474   6.824
 2866SOL    HW2 9498   4.145   4.390   6.897
 2867SOL     OW 9499   5.662   6.389   2.019
 2867SOL    HW1 9500   5.755   6.373   1.987
 2867SOL    HW2 9501   5.613   6.446   1.952
 2868SOL     OW 9502   1.514   1.263   5.891
 2868SOL    HW1 9503   1.612   1.248   5.904
 2868SOL    HW2 9504   1.500   1.325   5.813
 2869SOL     OW 9505   5.346   5.408   3.829
 2869SOL    HW1 9506   5.266   5.359   3.793
 2869SOL    HW2 9507   5.400   5.444   3.753
 2870SOL     OW 9508   0.367   1.884   1.557
 2870SOL    HW1 9509   0.451   1.899   1.504
 2870SOL    HW2 9510   0.370   1.939   1.640
 2871SOL     OW 9511   5.911   1.570   1.334
 2871SOL    HW1 9512   5.976   1.636   1.298
 2871SOL    HW2 9513   5.954   1.518   1.408
 2872SOL     OW 9514   1.969   1.922   2.053
 2872SOL    HW1 9515   2.042   1.976   2.010
 2872SOL    HW2 9516   1.986   1.916   2.151
 2873SOL     OW 9517   0.735   6.417   1.062
 2873SOL    HW1 9518   0.749   6.410   1.161
 2873SOL    HW2 9519   0.769   6.334   1.018
 2874SOL     OW 9520   1.918   1.062   3.257
 2874SOL    HW1 9521   1.963   0.975   3.274
 2874SOL    HW2 9522   1.985   1.130   3.229
 2875SOL     OW 9523   2.842   6.639   3.177
 2875SOL    HW1 9524   2.903   6.716   3.161
 2875SOL    HW2 9525   2.870   6.590   3.260
 2876SOL     OW 9526   1.399   6.445   2.112
 2876SOL    HW1 9527   1.306   6.478   2.092
 2876SOL    HW2 9528   1.423   6.374   2.046
 2877SOL     OW 9529   1.449   1.240   5.621
 2877SOL    HW1 9530   1.441   1.141   5.608
 2877SOL    HW2 9531   1.545   1.267   5.616
 2878SOL     OW 9532   4.003   3.118   4.704
 2878SOL    HW1 9533   4.070   3.056   4.743
 2878SOL    HW2 9534   3.957   3.169   4.776
 2879SOL     OW 9535   4.350   5.037   6.518
 2879SOL    HW1 9536   4.292   5.106   6.475
 2879SOL    HW2 9537   4.437   5.079   6.545
 2880SOL     OW 9538   1.533   1.197   4.763
 2880SOL    HW1 9539   1.460   1.192   4.695
 2880SOL    HW2 9540   1.503   1.257   4.838
 2881SOL     OW 9541   3.935   6.560   6.961
 2881SOL    HW1 9542   3.943   6.506   0.019
 2881SOL    HW2 9543   3.844   6.601   6.957
 2882SOL     OW 9544   4.575   5.816   0.630
 2882SOL    HW1 9545   4.556   5.720   0.610
 2882SOL    HW2 9546   4.504   5.852   0.690
 2883SOL     OW 9547   6.113   6.523   3.498
 2883SOL    HW1 9548   6.058   6.458   3.550
 2883SOL    HW2 9549   6.093   6.515   3.401
 2884SOL     OW 9550   0.163   5.522   3.150
 2884SOL    HW1 9551   0.144   5.490   3.057
 2884SOL    HW2 9552   0.259   5.551   3.155
 2885SOL     OW 9553   0.997   3.051   2.793
 2885SOL    HW1 9554   1.017   3.115   2.867
 2885SOL    HW2 9555   0.899   3.035   2.788
 2886SOL     OW 9556   2.592   4.715   5.857
 2886SOL    HW1 9557   2.626   4.791   5.912
 2886SOL    HW2 9558   2.500   4.690   5.888
 2887SOL     OW 9559   1.247   6.048   3.768
 2887SOL    HW1 9560   1.246   6.032   3.669
 2887SOL    HW2 9561   1.166   6.099   3.794
 2888SOL     OW 9562   6.465   6.306   0.805
 2888SOL    HW1 9563   6.386   6.342   0.855
 2888SOL    HW2 9564   6.434   6.237   0.740
 2889SOL     OW 9565   3.285   6.443   3.438
 2889SOL    HW1 9566   3.212   6.384   3.473
 2889SOL    HW2 9567   3.273   6.535   3.476
 2890SOL     OW 9568   1.902   0.361   0.781
 2890SOL    HW1 9569   1.850   0.426   0.725
 2890SOL    HW2 9570   1.851   0.341   0.865
 2891SOL     OW 9571   0.537   3.278   3.729
 2891SOL    HW1 9572   0.469   3.267   3.657
 2891SOL    HW2 9573   0.581   3.367   3.720
 2892SOL     OW 9574   6.767   3.413   1.237
 2892SOL    HW1 9575   6.768   3.350   1.160
 2892SOL    HW2 9576   6.768   3.508   1.204
 2893SOL     OW 9577   0.177   4.839   4.537
 2893SOL    HW1 9578   0.228   4.883   4.611
 2893SOL    HW2 9579   0.089   4.808   4.573
 2894SOL     OW 9580   1.104   5.155   2.066
 2894SOL    HW1 9581   1.041   5.085   2.033
 2894SOL    HW2 9582   1.198   5.125   2.052
 2895SOL     OW 9583   3.884   6.717   6.008
 2895SOL    HW1 9584   3.844   6.804   6.036
 2895SOL    HW2 9585   3.866   6.702   5.911
 2896SOL     OW 9586   5.822   6.113   4.779
 2896SOL    HW1 9587   5.806   6.168   4.862
 2896SOL    HW2 9588   5.845   6.174   4.703
 2897SOL     OW 9589   3.802   4.988   2.637
 2897SOL    HW1 9590   3.837   5.082   2.626
 2897SOL    HW2 9591   3.817   4.958   2.731
 2898SOL     OW 9592   5.751   4.142   2.582
 2898SOL    HW1 9593   5.741   4.128   2.681
 2898SOL    HW2 9594   5.670   4.106   2.535
 2899SOL     OW 9595   6.704   3.153   0.919
 2899SOL    HW1 9596   6.777   3.186   0.859
 2899SOL    HW2 9597   6.623   3.211   0.909
 2900SOL     OW 9598   3.377   3.808   0.250
 2900SOL    HW1 9599   3.317   3.855   0.185
 2900SOL    HW2 9600   3.464   3.856   0.255
 2901SOL     OW 9601   1.302   3.685   3.286
 2901SOL    HW1 9602   1.336   3.656   3.196
 2901SOL    HW2 9603   1.337   3.623   3.356
 2902SOL     OW 9604   1.168   5.738   4.064
 2902SOL    HW1 9605   1.181   5.836   4.074
 2902SOL    HW2 9606   1.240   5.689   4.114
 2903SOL     OW 9607   4.046   6.179   0.880
 2903SOL    HW1 9608   4.126   6.212   0.829
 2903SOL    HW2 9609   4.032   6.238   0.959
 2904SOL     OW 9610   2.457   4.352   5.326
 2904SOL    HW1 9611   2.519   4.319   5.397
 2904SOL    HW2 9612   2.468   4.451   5.315
 2905SOL     OW 9613   0.612   4.967   1.865
 2905SOL    HW1 9614   0.626   5.065   1.852
 2905SOL    HW2 9615   0.681   4.916   1.812
 2906SOL     OW 9616   5.949   5.837   3.606
 2906SOL    HW1 9617   5.993   5.755   3.644
 2906SOL    HW2 9618   6.017   5.909   3.594
 2907SOL     OW 9619   0.942   0.551   3.525
 2907SOL    HW1 9620   0.952   0.452   3.512
 2907SOL    HW2 9621   0.893   0.569   3.610
 2908SOL     OW 9622   4.388   6.977   3.119
 2908SOL    HW1 9623   4.295   6.979   3.155
 2908SOL    HW2 9624   4.385   6.980   3.019
 2909SOL     OW 9625   1.222   5.823   2.402
 2909SOL    HW1 9626   1.318   5.812   2.428
 2909SOL    HW2 9627   1.179   5.733   2.398
 2910SOL     OW 9628   0.189   0.473   3.345
 2910SOL    HW1 9629   0.096   0.439   3.360
 2910SOL    HW2 9630   0.184   0.561   3.297
 2911SOL     OW 9631   6.893   3.962   4.584
 2911SOL    HW1 9632   6.868   3.907   4.664
 2911SOL    HW2 9633   6.948   3.906   4.521
 2912SOL     OW 9634   0.054   6.589   0.689
 2912SOL    HW1 9635   0.102   6.676   0.679
 2912SOL    HW2 9636   6.984   6.601   0.666
 2913SOL     OW 9637   2.247   5.782   0.807
 2913SOL    HW1 9638   2.159   5.806   0.849
 2913SOL    HW2 9639   2.288   5.865   0.769
 2914SOL     OW 9640   4.958   5.017   0.458
 2914SOL    HW1 9641   5.051   5.026   0.492
 2914SOL    HW2 9642   4.954   4.946   0.388
 2915SOL     OW 9643   3.096   1.281   3.367
 2915SOL    HW1 9644   3.000   1.263   3.389
 2915SOL    HW2 9645   3.101   1.328   3.278
 2916SOL     OW 9646   1.601   6.302   0.727
 2916SOL    HW1 9647   1.523   6.244   0.705
 2916SOL    HW2 9648   1.600   6.383   0.669
 2917SOL     OW 9649   2.661   6.514   3.616
 2917SOL    HW1 9650   2.580   6.510   3.676
 2917SOL    HW2 9651   2.744   6.505   3.671
 2918SOL     OW 9652   6.360   3.594   1.062
 2918SOL    HW1 9653   6.319   3.590   1.154
 2918SOL    HW2 9654   6.308   3.657   1.005
 2919SOL     OW 9655   0.984   6.022   4.139
 2919SOL    HW1 9656   0.995   6.031   4.040
 2919SOL    HW2 9657   1.073   6.007   4.181
 2920SOL     OW 9658   1.504   1.939   1.508
 2920SOL    HW1 9659   1.472   1.945   1.413
 2920SOL    HW2 9660   1.437   1.981   1.568
 2921SOL     OW 9661   0.274   6.930   5.671
 2921SOL    HW1 9662   0.298   7.000   5.738
 2921SOL    HW2 9663   0.175   6.915   5.673
 2922SOL     OW 9664   3.876   0.683   3.335
 2922SOL    HW1 9665   3.963   0.730   3.322
 2922SOL    HW2 9666   3.875   0.637   3.424
 2923SOL     OW 9667   6.341   4.961   4.874
 2923SOL    HW1 9668   6.270   4.973   4.942
 2923SOL    HW2 9669   6.304   4.912   4.795
 2924SOL     OW 9670   6.662   2.919   5.458
 2924SOL    HW1 9671   6.612   2.849   5.408
 2924SOL    HW2 9672   6.631   2.921   5.553
 2925SOL     OW 9673   5.343   7.004   6.049
 2925SOL    HW1 9674   5.355   6.943   5.971
 2925SOL    HW2 9675   5.311   0.067   6.018
 2926SOL     OW 9676   0.321   1.603   4.746
 2926SOL    HW1 9677   0.308   1.681   4.685
 2926SOL    HW2 9678   0.314   1.633   4.841
 2927SOL     OW 9679   1.420   2.759   1.396
 2927SOL    HW1 9680   1.495   2.782   1.458
 2927SOL    HW2 9681   1.391   2.841   1.347
 2928SOL     OW 9682   6.848   2.250   0.425
 2928SOL    HW1 9683   6.889   2.335   0.391
 2928SOL    HW2 9684   6.831   2.257   0.523
 2929SOL     OW 9685   1.902   2.520   4.511
 2929SOL    HW1 9686   1.890   2.543   4.414
 2929SOL    HW2 9687   1.848   2.583   4.567
 2930SOL     OW 9688   0.462   5.627   5.346
 2930SOL    HW1 9689   0.496   5.570   5.420
 2930SOL    HW2 9690   0.362   5.620   5.342
 2931SOL     OW 9691   4.575   4.326   5.895
 2931SOL    HW1 9692   4.622   4.369   5.818
 2931SOL    HW2 9693   4.634   4.328   5.976
 2932SOL     OW 9694   6.532   5.824   0.649
 2932SOL    HW1 9695   6.567   5.891   0.715
 2932SOL    HW2 9696   6.436   5.804   0.669
 2933SOL     OW 9697   1.288   0.102   0.591
 2933SOL    HW1 9698   1.346   0.154   0.653
 2933SOL    HW2 9699   1.345   0.047   0.530
 2934SOL     OW 9700   3.978   4.269   0.033
 2934SOL    HW1 9701   3.969   4.285   0.131
 2934SOL    HW2 9702   4.044   4.195   0.017
 2935SOL     OW 9703   6.701   2.594   6.367
 2935SOL    HW1 9704   6.704   2.504   6.411
 2935SOL    HW2 9705   6.620   2.643   6.397
 2936SOL     OW 9706   4.717   0.191   1.254
 2936SOL    HW1 9707   4.748   0.236   1.171
 2936SOL    HW2 9708   4.686   0.098   1.232
 2937SOL     OW 9709   4.339   5.596   2.236
 2937SOL    HW1 9710   4.270   5.535   2.275
 2937SOL    HW2 9711   4.430   5.558   2.253
 2938SOL     OW 9712   6.662   5.622   6.638
 2938SOL    HW1 9713   6.615   5.679   6.571
 2938SOL    HW2 9714   6.681   5.676   6.720
 2939SOL     OW 9715   0.283   5.855   1.700
 2939SOL    HW1 9716   0.277   5.760   1.671
 2939SOL    HW2 9717   0.209   5.875   1.765
 2940SOL     OW 9718   5.092   5.749   4.071
 2940SOL    HW1 9719   5.168   5.701   4.114
 2940SOL    HW2 9720   5.084   5.841   4.110
 2941SOL     OW 9721   1.988   3.681   3.656
 2941SOL    HW1 9722   1.901   3.720   3.687
 2941SOL    HW2 9723   2.016   3.609   3.719
 2942SOL     OW 9724   3.737   1.514   0.672
 2942SOL    HW1 9725   3.753   1.530   0.769
 2942SOL    HW2 9726   3.804   1.449   0.637
 2943SOL     OW 9727   6.089   4.186   3.374
 2943SOL    HW1 9728   6.176   4.180   3.424
 2943SOL    HW2 9729   6.096   4.257   3.304
 2944SOL     OW 9730   2.103   5.736   3.611
 2944SOL    HW1 9731   2.125   5.706   3.519
 2944SOL    HW2 9732   2.003   5.747   3.620
 2945SOL     OW 9733   5.212   4.281   1.225
 2945SOL    HW1 9734   5.225   4.331   1.311
 2945SOL    HW2 9735   5.256   4.191   1.233
 2946SOL     OW 9736   3.264   4.056   6.030
 2946SOL    HW1 9737   3.288   3.964   6.059
 2946SOL    HW2 9738   3.248   4.114   6.110
 2947SOL     OW 9739   5.689   6.357   0.660
 2947SOL    HW1 9740   5.602   6.392   0.624
 2947SOL    HW2 9741   5.673   6.271   0.708
 2948SOL     OW 9742   5.767   3.822   2.413
 2948SOL    HW1 9743   5.733   3.728   2.415
 2948SOL    HW2 9744   5.698   3.884   2.450
 2949SOL     OW 9745   1.195   6.881   0.741
 2949SOL    HW1 9746   1.115   6.909   0.687
 2949SOL    HW2 9747   1.276   6.880   0.683
 2950SOL     OW 9748   5.336   4.237   2.569
 2950SOL    HW1 9749   5.397   4.283   2.504
 2950SOL    HW2 9750   5.285   4.305   2.622
 2951SOL     OW 9751   5.882   1.559   1.753
 2951SOL    HW1 9752   5.893   1.627   1.827
 2951SOL    HW2 9753   5.790   1.567   1.715
 2952SOL     OW 9754   6.103   1.416   4.199
 2952SOL    HW1 9755   6.010   1.396   4.168
 2952SOL    HW2 9756   6.140   1.493   4.146
 2953SOL     OW 9757   0.922   5.523   3.202
 2953SOL    HW1 9758   0.894   5.447   3.261
 2953SOL    HW2 9759   1.018   5.545   3.220
 2954SOL     OW 9760   0.118   4.633   6.145
 2954SOL    HW1 9761   0.162   4.570   6.080
 2954SOL    HW2 9762   0.143   4.607   6.238
 2955SOL     OW 9763   2.215   4.089   0.258
 2955SOL    HW1 9764   2.145   4.106   0.327
 2955SOL    HW2 9765   2.181   4.021   0.192
 2956SOL     OW 9766   6.666   4.122   3.288
 2956SOL    HW1 9767   6.597   4.074   3.341
 2956SOL    HW2 9768   6.734   4.162   3.349
 2957SOL     OW 9769   2.812   5.651   2.313
 2957SOL    HW1 9770   2.774   5.714   2.381
 2957SOL    HW2 9771   2.881   5.593   2.357
 2958SOL     OW 9772   2.342   4.954   3.432
 2958SOL    HW1 9773   2.257   4.942   3.379
 2958SOL    HW2 9774   2.419   4.965   3.369
 2959SOL     OW 9775   6.428   2.341   2.759
 2959SOL    HW1 9776   6.506   2.289   2.725
 2959SOL    HW2 9777   6.452   2.382   2.848
 2960SOL     OW 9778   4.813   0.876   0.541
 2960SOL    HW1 9779   4.730   0.900   0.592
 2960SOL    HW2 9780   4.845   0.955   0.491
 2961SOL     OW 9781   5.531   3.792   2.587
 2961SOL    HW1 9782   5.469   3.795   2.508
 2961SOL    HW2 9783   5.487   3.740   2.661
 2962SOL     OW 9784   0.219   6.743   2.354
 2962SOL    HW1 9785   0.195   6.820   2.296
 2962SOL    HW2 9786   0.238   6.775   2.447
 2963SOL     OW 9787   1.987   1.289   4.949
 2963SOL    HW1 9788   1.967   1.215   5.014
 2963SOL    HW2 9789   1.984   1.252   4.856
 2964SOL     OW 9790   0.790   2.933   6.785
 2964SOL    HW1 9791   0.832   2.932   6.694
 2964SOL    HW2 9792   0.851   2.980   6.849
 2965SOL     OW 9793   0.649   6.998   4.811
 2965SOL    HW1 9794   0.559   6.984   4.852
 2965SOL    HW2 9795   0.719   6.956   4.869
 2966SOL     OW 9796   4.240   5.632   3.661
 2966SOL    HW1 9797   4.193   5.555   3.704
 2966SOL    HW2 9798   4.233   5.712   3.721
 2967SOL     OW 9799   6.418   0.502   5.738
 2967SOL    HW1 9800   6.388   0.559   5.661
 2967SOL    HW2 9801   6.485   0.435   5.705
 2968SOL     OW 9802   1.424   2.293   0.860
 2968SOL    HW1 9803   1.504   2.352   0.845
 2968SOL    HW2 9804   1.348   2.327   0.805
 2969SOL     OW 9805   5.480   3.303   4.441
 2969SOL    HW1 9806   5.463   3.327   4.345
 2969SOL    HW2 9807   5.400   3.258   4.479
 2970SOL     OW 9808   2.570   2.510   4.361
 2970SOL    HW1 9809   2.518   2.539   4.441
 2970SOL    HW2 9810   2.630   2.434   4.386
 2971SOL     OW 9811   5.339   3.555   6.761
 2971SOL    HW1 9812   5.414   3.544   6.695
 2971SOL    HW2 9813   5.372   3.532   6.853
 2972SOL     OW 9814   5.538   4.819   6.929
 2972SOL    HW1 9815   5.486   4.737   6.953
 2972SOL    HW2 9816   5.539   4.829   6.829
 2973SOL     OW 9817   5.251   6.886   2.258
 2973SOL    HW1 9818   5.184   6.815   2.276
 2973SOL    HW2 9819   5.205   6.968   2.223
 2974SOL     OW 9820   4.959   5.396   3.658
 2974SOL    HW1 9821   5.047   5.356   3.683
 2974SOL    HW2 9822   4.927   5.354   3.573
 2975SOL     OW 9823   4.758   4.730   4.406
 2975SOL    HW1 9824   4.744   4.780   4.492
 2975SOL    HW2 9825   4.697   4.651   4.404
 2976SOL     OW 9826   4.209   2.260   1.902
 2976SOL    HW1 9827   4.220   2.163   1.880
 2976SOL    HW2 9828   4.167   2.269   1.993
 2977SOL     OW 9829   1.184   0.898   1.882
 2977SOL    HW1 9830   1.125   0.827   1.919
 2977SOL    HW2 9831   1.202   0.880   1.785
 2978SOL     OW 9832   4.527   4.848   6.348
 2978SOL    HW1 9833   4.498   4.880   6.438
 2978SOL    HW2 9834   4.607   4.901   6.318
 2979SOL     OW 9835   3.038   1.265   4.179
 2979SOL    HW1 9836   3.030   1.166   4.167
 2979SOL    HW2 9837   3.106   1.300   4.115
 2980SOL     OW 9838   3.648   3.901   5.838
 2980SOL    HW1 9839   3.579   3.938   5.775
 2980SOL    HW2 9840   3.639   3.802   5.843
 2981SOL     OW 9841   1.457   1.214   0.822
 2981SOL    HW1 9842   1.364   1.189   0.795
 2981SOL    HW2 9843   1.463   1.313   0.836
 2982SOL     OW 9844   0.749   0.687   1.506
 2982SOL    HW1 9845   0.846   0.663   1.513
 2982SOL    HW2 9846   0.741   0.782   1.476
 2983SOL     OW 9847   5.983   3.000   6.709
 2983SOL    HW1 9848   6.021   3.072   6.768
 2983SOL    HW2 9849   6.032   3.000   6.622
 2984SOL     OW 9850   7.013   4.926   0.524
 2984SOL    HW1 9851   0.002   5.023   0.543
 2984SOL    HW2 9852   6.964   4.884   0.600
 2985SOL     OW 9853   0.505   0.269   4.738
 2985SOL    HW1 9854   0.484   0.332   4.812
 2985SOL    HW2 9855   0.564   0.196   4.771
 2986SOL     OW 9856   3.626   4.149   2.689
 2986SOL    HW1 9857   3.692   4.090   2.644
 2986SOL    HW2 9858   3.558   4.181   2.623
 2987SOL     OW 9859   1.143   1.501   4.270
 2987SOL    HW1 9860   1.170   1.472   4.362
 2987SOL    HW2 9861   1.044   1.513   4.267
 2988SOL     OW 9862   0.466   1.634   0.053
 2988SOL    HW1 9863   0.493   1.563   7.013
 2988SOL    HW2 9864   0.520   1.717   0.037
 2989SOL     OW 9865   4.951   3.602   4.484
 2989SOL    HW1 9866   4.924   3.580   4.577
 2989SOL    HW2 9867   4.939   3.700   4.468
 2990SOL     OW 9868   5.008   2.035   4.507
 2990SOL    HW1 9869   5.075   1.993   4.446
 2990SOL    HW2 9870   5.055   2.085   4.580
 2991SOL     OW 9871   5.711   2.993   0.701
 2991SOL    HW1 9872   5.622   3.031   0.677
 2991SOL    HW2 9873   5.700   2.926   0.774
 2992SOL     OW 9874   0.387   3.222   5.645
 2992SOL    HW1 9875   0.343   3.137   5.615
 2992SOL    HW2 9876   0.400   3.219   5.744
 2993SOL     OW 9877   1.230   4.649   0.650
 2993SOL    HW1 9878   1.285   4.633   0.567
 2993SOL    HW2 9879   1.133   4.648   0.626
 2994SOL     OW 9880   5.054   6.798   0.071
 2994SOL    HW1 9881   5.113   6.832   7.024
 2994SOL    HW2 9882   5.090   6.828   0.160
 2995SOL     OW 9883   4.863   6.890   0.392
 2995SOL    HW1 9884   4.858   6.981   0.352
 2995SOL    HW2 9885   4.945   6.883   0.449
 2996SOL     OW 9886   0.685   1.556   4.571
 2996SOL    HW1 9887   0.625   1.477   4.569
 2996SOL    HW2 9888   0.654   1.620   4.642
 2997SOL     OW 9889   5.050   0.396   3.883
 2997SOL    HW1 9890   4.981   0.413   3.813
 2997SOL    HW2 9891   5.138   0.378   3.839
 2998SOL     OW 9892   2.415   1.313   2.896
 2998SOL    HW1 9893   2.447   1.360   2.814
 2998SOL    HW2 9894   2.344   1.367   2.940
 2999SOL     OW 9895   3.025   4.397   0.466
 2999SOL    HW1 9896   3.089   4.326   0.498
 2999SOL    HW2 9897   2.931   4.368   0.484
 3000SOL     OW 9898   3.194   3.935   5.276
 3000SOL    HW1 9899   3.132   3.877   5.223
 3000SOL    HW2 9900   3.204   4.023   5.231
 3001SOL     OW 9901   6.397   1.538   6.021
 3001SOL    HW1 9902   6.428   1.549   6.115
 3001SOL    HW2 9903   6.308   1.492   6.020
 3002SOL     OW 9904   2.134   1.163   1.837
 3002SOL    HW1 9905   2.231   1.161   1.860
 3002SOL    HW2 9906   2.114   1.089   1.773
 3003SOL     OW 9907   1.449   6.038   0.096
 3003SOL    HW1 9908   1.372   5.979   0.074
 3003SOL    HW2 9909   1.420   6.105   0.164
 3004SOL     OW 9910   2.711   5.533   4.249
 3004SOL    HW1 9911   2.664   5.496   4.168
 3004SOL    HW2 9912   2.652   5.601   4.293
 3005SOL     OW 9913   0.796   2.307   5.342
 3005SOL    HW1 9914   0.852   2.305   5.425
 3005SOL    HW2 9915   0.831   2.376   5.279
 3006SOL     OW 9916   5.426   1.427   5.291
 3006SOL    HW1 9917   5.445   1.443   5.388
 3006SOL    HW2 9918   5.465   1.502   5.237
 3007SOL     OW 9919   5.101   4.451   6.613
 3007SOL    HW1 9920   5.060   4.519   6.675
 3007SOL    HW2 9921   5.199   4.445   6.631
 3008SOL     OW 9922   4.583   2.498   5.605
 3008SOL    HW1 9923   4.502   2.463   5.653
 3008SOL    HW2 9924   4.659   2.435   5.617
 3009SOL     OW 9925   0.666   2.882   2.402
 3009SOL    HW1 9926   0.655   2.981   2.395
 3009SOL    HW2 9927   0.737   2.861   2.470
 3010SOL     OW 9928   4.165   6.081   6.251
 3010SOL    HW1 9929   4.263   6.077   6.231
 3010SOL    HW2 9930   4.151   6.081   6.350
 3011SOL     OW 9931   6.216   0.036   0.928
 3011SOL    HW1 9932   6.212   6.972   0.884
 3011SOL    HW2 9933   6.212   0.025   1.027
 3012SOL     OW 9934   2.798   2.851   6.058
 3012SOL    HW1 9935   2.848   2.797   5.990
 3012SOL    HW2 9936   2.802   2.947   6.033
 3013SOL     OW 9937   0.724   5.969   4.232
 3013SOL    HW1 9938   0.720   6.010   4.324
 3013SOL    HW2 9939   0.816   5.982   4.195
 3014SOL     OW 9940   4.852   0.404   5.603
 3014SOL    HW1 9941   4.841   0.328   5.667
 3014SOL    HW2 9942   4.948   0.430   5.598
 3015SOL     OW 9943   1.165   1.319   0.108
 3015SOL    HW1 9944   1.183   1.241   0.167
 3015SOL    HW2 9945   1.225   1.395   0.135
 3016SOL     OW 9946   2.633   6.270   4.885
 3016SOL    HW1 9947   2.626   6.218   4.970
 3016SOL    HW2 9948   2.697   6.224   4.824
 3017SOL     OW 9949   6.800   5.885   1.688
 3017SOL    HW1 9950   6.845   5.885   1.598
 3017SOL    HW2 9951   6.712   5.838   1.680
 3018SOL     OW 9952   3.580   0.066   0.099
 3018SOL    HW1 9953   3.500   0.012   0.073
 3018SOL    HW2 9954   3.569   0.098   0.193
 3019SOL     OW 9955   1.758   0.290   5.595
 3019SOL    HW1 9956   1.675   0.234   5.596
 3019SOL    HW2 9957   1.782   0.311   5.500
 3020SOL     OW 9958   5.016   3.845   0.204
 3020SOL    HW1 9959   4.917   3.835   0.201
 3020SOL    HW2 9960   5.056   3.763   0.246
 3021SOL     OW 9961   4.002   6.766   4.540
 3021SOL    HW1 9962   3.911   6.781   4.579
 3021SOL    HW2 9963   4.000   6.688   4.479
 3022SOL     OW 9964   4.577   5.884   3.989
 3022SOL    HW1 9965   4.494   5.939   3.985
 3022SOL    HW2 9966   4.595   5.843   3.900
 3023SOL     OW 9967   3.983   6.779   3.068
 3023SOL    HW1 9968   4.074   6.766   3.108
 3023SOL    HW2 9969   3.923   6.822   3.135
 3024SOL     OW 9970   0.295   6.272   6.461
 3024SOL    HW1 9971   0.305   6.245   6.556
 3024SOL    HW2 9972   0.384   6.265   6.415
 3025SOL     OW 9973   3.618   6.057   0.542
 3025SOL    HW1 9974   3.619   6.139   0.599
 3025SOL    HW2 9975   3.544   6.065   0.475
 3026SOL     OW 9976   5.932   1.243   0.485
 3026SOL    HW1 9977   5.950   1.212   0.578
 3026SOL    HW2 9978   6.010   1.295   0.452
 3027SOL     OW 9979   4.997   1.563   1.550
 3027SOL    HW1 9980   4.959   1.632   1.612
 3027SOL    HW2 9981   4.952   1.475   1.566
 3028SOL     OW 9982   2.913   4.590   6.027
 3028SOL    HW1 9983   2.897   4.628   5.936
 3028SOL    HW2 9984   2.831   4.604   6.083
 3029SOL     OW 9985   0.920   2.073   4.135
 3029SOL    HW1 9986   0.860   2.151   4.117
 3029SOL    HW2 9987   0.913   2.047   4.231
 3030SOL     OW 9988   1.855   3.276   0.769
 3030SOL    HW1 9989   1.788   3.301   0.699
 3030SOL    HW2 9990   1.943   3.258   0.725
 3031SOL     OW 9991   0.984   6.229   1.344
 3031SOL    HW1 9992   1.052   6.209   1.415
 3031SOL    HW2 9993   0.923   6.150   1.333
 3032SOL     OW 9994   1.806   0.442   2.740
 3032SOL    HW1 9995   1.790   0.491   2.826
 3032SOL    HW2 9996   1.806   0.344   2.757
 3033SOL     OW 9997   6.851   2.151   4.020
 3033SOL    HW1 9998   6.821   2.120   3.930
 3033SOL    HW2 9999   6.772   2.164   4.079
 3034SOL     OW10000   0.202   5.575   3.814
 3034SOL    HW110001   0.288   5.602   3.771
 3034SOL    HW210002   0.211   5.483   3.852
 3035SOL     OW10003   1.316   2.694   6.193
 3035SOL    HW110004   1.254   2.670   6.268
 3035SOL    HW210005   1.388   2.625   6.187
 3036SOL     OW10006   2.884   2.226   6.500
 3036SOL    HW110007   2.845   2.285   6.429
 3036SOL    HW210008   2.943   2.157   6.458
 3037SOL     OW10009   0.245   5.205   6.499
 3037SOL    HW110010   0.235   5.127   6.561
 3037SOL    HW210011   0.172   5.271   6.516
 3038SOL     OW10012   5.032   4.188   6.598
 3038SOL    HW110013   4.993   4.181   6.505
 3038SOL    HW210014   5.050   4.284   6.620
 3039SOL     OW10015   6.632   4.121   0.170
 3039SOL    HW110016   6.610   4.135   0.266
 3039SOL    HW210017   6.550   4.136   0.114
 3040SOL     OW10018   4.034   4.217   6.151
 3040SOL    HW110019   4.098   4.293   6.162
 3040SOL    HW210020   4.077   4.133   6.183
 3041SOL     OW10021   2.253   4.230   4.783
 3041SOL    HW110022   2.215   4.180   4.705
 3041SOL    HW210023   2.265   4.166   4.860
 3042SOL     OW10024   6.934   5.303   3.070
 3042SOL    HW110025   6.927   5.233   2.999
 3042SOL    HW210026   6.968   5.388   3.031
 3043SOL     OW10027   3.064   4.775   1.030
 3043SOL    HW110028   2.997   4.729   0.971
 3043SOL    HW210029   3.147   4.792   0.978
 3044SOL     OW10030   3.079   3.399   5.172
 3044SOL    HW110031   2.995   3.453   5.162
 3044SOL    HW210032   3.081   3.327   5.104
 3045SOL     OW10033   4.924   1.359   2.285
 3045SOL    HW110034   4.863   1.326   2.213
 3045SOL    HW210035   4.871   1.410   2.353
 3046SOL     OW10036   5.442   5.422   0.699
 3046SOL    HW110037   5.536   5.398   0.676
 3046SOL    HW210038   5.441   5.504   0.757
 3047SOL     OW10039   6.507   0.342   6.272
 3047SOL    HW110040   6.435   0.289   6.316
 3047SOL    HW210041   6.492   0.439   6.290
 3048SOL     OW10042   3.829   3.445   0.910
 3048SOL    HW110043   3.814   3.511   0.836
 3048SOL    HW210044   3.791   3.481   0.995
 3049SOL     OW10045   1.423   0.551   4.400
 3049SOL    HW110046   1.341   0.533   4.454
 3049SOL    HW210047   1.401   0.613   4.324
 3050SOL     OW10048   2.957   2.679   1.304
 3050SOL    HW110049   2.924   2.742   1.375
 3050SOL    HW210050   2.966   2.587   1.342
 3051SOL     OW10051   2.427   6.738   4.883
 3051SOL    HW110052   2.467   6.656   4.843
 3051SOL    HW210053   2.365   6.713   4.957
 3052SOL     OW10054   6.293   6.070   2.287
 3052SOL    HW110055   6.208   6.109   2.323
 3052SOL    HW210056   6.358   6.144   2.270
 3053SOL     OW10057   1.325   4.401   0.731
 3053SOL    HW110058   1.267   4.475   0.696
 3053SOL    HW210059   1.407   4.441   0.772
 3054SOL     OW10060   5.567   1.602   2.500
 3054SOL    HW110061   5.486   1.554   2.466
 3054SOL    HW210062   5.540   1.683   2.551
 3055SOL     OW10063   6.302   5.586   6.462
 3055SOL    HW110064   6.300   5.487   6.453
 3055SOL    HW210065   6.339   5.627   6.379
 3056SOL     OW10066   4.812   1.432   6.397
 3056SOL    HW110067   4.714   1.421   6.417
 3056SOL    HW210068   4.862   1.354   6.436
 3057SOL     OW10069   6.258   5.611   2.939
 3057SOL    HW110070   6.318   5.627   3.017
 3057SOL    HW210071   6.194   5.537   2.960
 3058SOL     OW10072   6.509   4.705   6.911
 3058SOL    HW110073   6.427   4.648   6.907
 3058SOL    HW210074   6.587   4.655   6.874
 3059SOL     OW10075   2.386   2.459   4.597
 3059SOL    HW110076   2.291   2.468   4.626
 3059SOL    HW210077   2.427   2.380   4.643
 3060SOL     OW10078   4.485   5.237   5.524
 3060SOL    HW110079   4.548   5.312   5.504
 3060SOL    HW210080   4.521   5.182   5.600
 3061SOL     OW10081   5.343   4.974   4.960
 3061SOL    HW110082   5.341   4.887   4.910
 3061SOL    HW210083   5.356   5.049   4.894
 3062SOL     OW10084   5.245   3.870   1.618
 3062SOL    HW110085   5.222   3.806   1.544
 3062SOL    HW210086   5.171   3.936   1.628
 3063SOL     OW10087   0.092   4.399   1.396
 3063SOL    HW110088   0.066   4.414   1.301
 3063SOL    HW210089   0.036   4.326   1.435
 3064SOL     OW10090   4.156   1.706   6.848
 3064SOL    HW110091   4.089   1.657   6.793
 3064SOL    HW210092   4.115   1.790   6.883
 3065SOL     OW10093   0.668   0.907   6.537
 3065SOL    HW110094   0.578   0.870   6.511
 3065SOL    HW210095   0.680   0.898   6.635
 3066SOL     OW10096   5.590   6.071   6.130
 3066SOL    HW110097   5.597   5.997   6.063
 3066SOL    HW210098   5.647   6.050   6.210
 3067SOL     OW10099   2.266   2.659   6.412
 3067SOL    HW110100   2.222   2.666   6.322
 3067SOL    HW210101   2.365   2.667   6.402
 3068SOL     OW10102   0.487   1.050   0.820
 3068SOL    HW110103   0.528   1.116   0.882
 3068SOL    HW210104   0.543   0.967   0.818
 3069SOL     OW10105   4.836   0.181   2.718
 3069SOL    HW110106   4.882   0.223   2.796
 3069SOL    HW210107   4.746   0.222   2.706
 3070SOL     OW10108   2.814   1.420   1.169
 3070SOL    HW110109   2.731   1.463   1.206
 3070SOL    HW210110   2.808   1.415   1.070
 3071SOL     OW10111   0.075   3.236   3.495
 3071SOL    HW110112   0.060   3.161   3.559
 3071SOL    HW210113   0.035   3.211   3.406
 3072SOL     OW10114   2.033   6.842   6.499
 3072SOL    HW110115   2.015   6.798   6.411
 3072SOL    HW210116   2.023   6.775   6.572
 3073SOL     OW10117   6.168   5.062   0.253
 3073SOL    HW110118   6.154   4.979   0.308
 3073SOL    HW210119   6.080   5.093   0.218
 3074SOL     OW10120   2.165   3.287   0.966
 3074SOL    HW110121   2.200   3.367   1.014
 3074SOL    HW210122   2.082   3.254   1.011
 3075SOL     OW10123   2.256   5.310   3.200
 3075SOL    HW110124   2.175   5.367   3.210
 3075SOL    HW210125   2.261   5.275   3.107
 3076SOL     OW10126   6.955   0.328   4.424
 3076SOL    HW110127   6.878   0.354   4.481
 3076SOL    HW210128   7.015   0.408   4.410
 3077SOL     OW10129   6.627   4.238   1.900
 3077SOL    HW110130   6.641   4.327   1.855
 3077SOL    HW210131   6.684   4.169   1.855
 3078SOL     OW10132   6.605   3.036   1.760
 3078SOL    HW110133   6.620   3.128   1.796
 3078SOL    HW210134   6.508   3.012   1.768
 3079SOL     OW10135   2.405   3.242   5.330
 3079SOL    HW110136   2.489   3.291   5.354
 3079SOL    HW210137   2.428   3.151   5.297
 3080SOL     OW10138   4.206   5.146   1.026
 3080SOL    HW110139   4.119   5.103   1.000
 3080SOL    HW210140   4.190   5.212   1.099
 3081SOL     OW10141   2.064   4.277   0.741
 3081SOL    HW110142   1.970   4.310   0.747
 3081SOL    HW210143   2.127   4.355   0.745
 3082SOL     OW10144   3.806   5.004   4.691
 3082SOL    HW110145   3.898   4.965   4.682
 3082SOL    HW210146   3.769   4.982   4.781
 3083SOL     OW10147   2.214   5.719   2.580
 3083SOL    HW110148   2.255   5.798   2.626
 3083SOL    HW210149   2.248   5.635   2.620
 3084SOL     OW10150   0.654   3.522   3.676
 3084SOL    HW110151   0.740   3.568   3.651
 3084SOL    HW210152   0.577   3.583   3.658
 3085SOL     OW10153   4.467   4.735   0.947
 3085SOL    HW110154   4.512   4.742   0.858
 3085SOL    HW210155   4.534   4.752   1.019
 3086SOL     OW10156   6.211   1.144   6.362
 3086SOL    HW110157   6.128   1.089   6.368
 3086SOL    HW210158   6.264   1.116   6.282
 3087SOL     OW10159   2.840   6.897   2.294
 3087SOL    HW110160   2.780   6.846   2.233
 3087SOL    HW210161   2.835   6.994   2.271
 3088SOL     OW10162   0.925   2.735   5.275
 3088SOL    HW110163   0.975   2.673   5.335
 3088SOL    HW210164   0.988   2.777   5.210
 3089SOL     OW10165   5.031   6.816   5.194
 3089SOL    HW110166   4.985   6.729   5.213
 3089SOL    HW210167   4.962   6.887   5.176
 3090SOL     OW10168   1.140   2.487   1.570
 3090SOL    HW110169   1.049   2.474   1.532
 3090SOL    HW210170   1.163   2.409   1.629
 3091SOL     OW10171   0.961   2.149   0.251
 3091SOL    HW110172   0.864   2.151   0.225
 3091SOL    HW210173   0.978   2.070   0.310
 3092SOL     OW10174   6.908   6.709   2.526
 3092SOL    HW110175   6.968   6.653   2.468
 3092SOL    HW210176   6.954   6.729   2.612
 3093SOL     OW10177   5.097   5.051   6.919
 3093SOL    HW110178   5.035   5.115   6.964
 3093SOL    HW210179   5.098   4.964   6.968
 3094SOL     OW10180   2.738   1.576   6.120
 3094SOL    HW110181   2.829   1.571   6.077
 3094SOL    HW210182   2.690   1.657   6.088
 3095SOL     OW10183   2.187   3.362   5.235
 3095SOL    HW110184   2.270   3.314   5.263
 3095SOL    HW210185   2.158   3.328   5.145
 3096SOL     OW10186   0.811   3.854   4.865
 3096SOL    HW110187   0.727   3.825   4.910
 3096SOL    HW210188   0.791   3.883   4.771
 3097SOL     OW10189   5.496   2.463   6.640
 3097SOL    HW110190   5.457   2.474   6.732
 3097SOL    HW210191   5.543   2.547   6.613
 3098SOL     OW10192   1.942   2.190   1.892
 3098SOL    HW110193   1.970   2.196   1.796
 3098SOL    HW210194   1.912   2.281   1.924
 3099SOL     OW10195   0.305   6.119   3.739
 3099SOL    HW110196   0.356   6.182   3.681
 3099SOL    HW210197   0.219   6.095   3.694
 3100SOL     OW10198   6.958   5.473   2.246
 3100SOL    HW110199   6.941   5.570   2.266
 3100SOL    HW210200   6.994   5.428   2.327
 3101SOL     OW10201   4.065   6.139   5.730
 3101SOL    HW110202   4.134   6.149   5.658
 3101SOL    HW210203   4.049   6.228   5.773
 3102SOL     OW10204   0.498   4.811   0.732
 3102SOL    HW110205   0.526   4.905   0.751
 3102SOL    HW210206   0.399   4.803   0.741
 3103SOL     OW10207   3.602   0.338   1.203
 3103SOL    HW110208   3.570   0.378   1.289
 3103SOL    HW210209   3.529   0.282   1.163
 3104SOL     OW10210   4.618   0.327   5.902
 3104SOL    HW110211   4.548   0.258   5.886
 3104SOL    HW210212   4.698   0.285   5.945
 3105SOL     OW10213   5.136   3.656   0.385
 3105SOL    HW110214   5.205   3.687   0.451
 3105SOL    HW210215   5.045   3.670   0.423
 3106SOL     OW10216   6.009   0.761   4.897
 3106SOL    HW110217   6.058   0.830   4.950
 3106SOL    HW210218   5.920   0.743   4.940
 3107SOL     OW10219   3.841   0.983   5.922
 3107SOL    HW110220   3.928   0.951   5.959
 3107SOL    HW210221   3.842   1.083   5.914
 3108SOL     OW10222   1.789   4.372   4.328
 3108SOL    HW110223   1.840   4.455   4.308
 3108SOL    HW210224   1.852   4.299   4.353
 3109SOL     OW10225   6.969   6.427   3.924
 3109SOL    HW110226   6.984   6.332   3.950
 3109SOL    HW210227   6.976   6.435   3.824
 3110SOL     OW10228   1.839   4.450   3.733
 3110SOL    HW110229   1.803   4.543   3.736
 3110SOL    HW210230   1.934   4.452   3.704
 3111SOL     OW10231   6.385   4.616   5.030
 3111SOL    HW110232   6.433   4.615   4.943
 3111SOL    HW210233   6.357   4.523   5.054
 3112SOL     OW10234   3.212   1.971   6.761
 3112SOL    HW110235   3.137   1.925   6.713
 3112SOL    HW210236   3.244   1.913   6.836
 3113SOL     OW10237   1.796   5.049   3.142
 3113SOL    HW110238   1.881   5.098   3.124
 3113SOL    HW210239   1.723   5.085   3.083
 3114SOL     OW10240   4.352   1.024   6.958
 3114SOL    HW110241   4.289   0.973   6.901
 3114SOL    HW210242   4.371   0.973   0.016
 3115SOL     OW10243   4.093   5.160   5.488
 3115SOL    HW110244   4.073   5.086   5.424
 3115SOL    HW210245   4.009   5.191   5.531
 3116SOL     OW10246   0.417   2.301   0.632
 3116SOL    HW110247   0.461   2.339   0.551
 3116SOL    HW210248   0.322   2.277   0.610
 3117SOL     OW10249   5.172   1.674   5.082
 3117SOL    HW110250   5.257   1.621   5.080
 3117SOL    HW210251   5.168   1.727   5.166
 3118SOL     OW10252   2.005   1.185   2.842
 3118SOL    HW110253   2.078   1.150   2.902
 3118SOL    HW210254   2.043   1.210   2.754
 3119SOL     OW10255   4.007   3.823   6.034
 3119SOL    HW110256   4.019   3.910   5.986
 3119SOL    HW210257   4.018   3.747   5.969
 3120SOL     OW10258   2.278   6.973   4.903
 3120SOL    HW110259   2.338   6.893   4.900
 3120SOL    HW210260   2.306   0.007   4.978
 3121SOL     OW10261   5.007   1.216   4.398
 3121SOL    HW110262   5.043   1.292   4.345
 3121SOL    HW210263   5.051   1.131   4.369
 3122SOL     OW10264   4.202   5.322   4.569
 3122SOL    HW110265   4.244   5.350   4.655
 3122SOL    HW210266   4.192   5.401   4.509
 3123SOL     OW10267   2.612   1.999   3.287
 3123SOL    HW110268   2.547   1.930   3.321
 3123SOL    HW210269   2.686   2.011   3.354
 3124SOL     OW10270   4.774   6.800   3.958
 3124SOL    HW110271   4.855   6.848   3.991
 3124SOL    HW210272   4.691   6.846   3.990
 3125SOL     OW10273   1.624   2.427   4.988
 3125SOL    HW110274   1.633   2.525   5.008
 3125SOL    HW210275   1.528   2.399   4.999
 3126SOL     OW10276   5.511   5.341   4.273
 3126SOL    HW110277   5.414   5.350   4.252
 3126SOL    HW210278   5.522   5.295   4.362
 3127SOL     OW10279   0.105   1.607   4.499
 3127SOL    HW110280   0.034   1.659   4.548
 3127SOL    HW210281   0.072   1.583   4.408
 3128SOL     OW10282   4.892   0.666   0.169
 3128SOL    HW110283   4.893   0.644   0.267
 3128SOL    HW210284   4.798   0.673   0.138
 3129SOL     OW10285   4.720   3.556   1.134
 3129SOL    HW110286   4.799   3.589   1.184
 3129SOL    HW210287   4.639   3.608   1.161
 3130SOL     OW10288   0.999   4.650   1.678
 3130SOL    HW110289   1.033   4.614   1.764
 3130SOL    HW210290   0.984   4.575   1.613
 3131SOL     OW10291   6.700   3.887   2.270
 3131SOL    HW110292   6.726   3.977   2.304
 3131SOL    HW210293   6.601   3.885   2.257
 3132SOL     OW10294   4.102   4.605   0.071
 3132SOL    HW110295   4.105   4.546   7.016
 3132SOL    HW210296   4.189   4.653   0.080
 3133SOL     OW10297   4.238   0.921   3.758
 3133SOL    HW110298   4.317   0.937   3.698
 3133SOL    HW210299   4.261   0.949   3.851
 3134SOL     OW10300   3.711   5.354   2.400
 3134SOL    HW110301   3.758   5.277   2.355
 3134SOL    HW210302   3.613   5.336   2.403
 3135SOL     OW10303   5.576   6.632   6.164
 3135SOL    HW110304   5.595   6.730   6.162
 3135SOL    HW210305   5.646   6.585   6.218
 3136SOL     OW10306   6.116   1.154   2.943
 3136SOL    HW110307   6.155   1.085   2.883
 3136SOL    HW210308   6.016   1.146   2.944
 3137SOL     OW10309   6.311   6.856   0.043
 3137SOL    HW110310   6.261   6.770   0.060
 3137SOL    HW210311   6.328   6.866   6.971
 3138SOL     OW10312   5.681   5.064   4.318
 3138SOL    HW110313   5.778   5.089   4.311
 3138SOL    HW210314   5.669   4.969   4.290
 3139SOL     OW10315   2.378   5.325   1.058
 3139SOL    HW110316   2.457   5.365   1.013
 3139SOL    HW210317   2.305   5.310   0.991
 3140SOL     OW10318   6.635   6.478   5.493
 3140SOL    HW110319   6.688   6.526   5.423
 3140SOL    HW210320   6.698   6.435   5.558
 3141SOL     OW10321   6.569   2.643   6.757
 3141SOL    HW110322   6.568   2.699   6.675
 3141SOL    HW210323   6.651   2.664   6.810
 3142SOL     OW10324   5.477   0.737   2.149
 3142SOL    HW110325   5.386   0.777   2.136
 3142SOL    HW210326   5.492   0.719   2.246
 3143SOL     OW10327   6.155   1.347   0.268
 3143SOL    HW110328   6.187   1.420   0.207
 3143SOL    HW210329   6.233   1.301   0.308
 3144SOL     OW10330   4.152   3.976   6.258
 3144SOL    HW110331   4.129   3.890   6.214
 3144SOL    HW210332   4.243   3.969   6.298
 3145SOL     OW10333   1.326   5.718   1.332
 3145SOL    HW110334   1.347   5.748   1.239
 3145SOL    HW210335   1.259   5.780   1.373
 3146SOL     OW10336   0.561   0.565   4.929
 3146SOL    HW110337   0.499   0.639   4.954
 3146SOL    HW210338   0.638   0.563   4.993
 3147SOL     OW10339   4.029   4.853   6.505
 3147SOL    HW110340   3.937   4.815   6.495
 3147SOL    HW210341   4.034   4.906   6.589
 3148SOL     OW10342   0.809   5.802   3.160
 3148SOL    HW110343   0.822   5.706   3.182
 3148SOL    HW210344   0.821   5.817   3.062
 3149SOL     OW10345   2.903   1.359   0.897
 3149SOL    HW110346   2.890   1.262   0.879
 3149SOL    HW210347   2.994   1.388   0.865
 3150SOL     OW10348   6.889   6.309   5.112
 3150SOL    HW110349   6.835   6.230   5.138
 3150SOL    HW210350   6.880   6.326   5.014
 3151SOL     OW10351   5.590   1.828   6.276
 3151SOL    HW110352   5.628   1.904   6.329
 3151SOL    HW210353   5.630   1.742   6.308
 3152SOL     OW10354   1.673   3.439   6.078
 3152SOL    HW110355   1.737   3.422   6.003
 3152SOL    HW210356   1.723   3.439   6.165
 3153SOL     OW10357   6.540   5.299   0.907
 3153SOL    HW110358   6.490   5.314   0.822
 3153SOL    HW210359   6.499   5.222   0.956
 3154SOL     OW10360   5.619   1.507   1.705
 3154SOL    HW110361   5.588   1.450   1.629
 3154SOL    HW210362   5.566   1.484   1.787
 3155SOL     OW10363   0.140   4.714   0.406
 3155SOL    HW110364   0.058   4.680   0.451
 3155SOL    HW210365   0.214   4.723   0.473
 3156SOL     OW10366   3.636   4.185   2.067
 3156SOL    HW110367   3.724   4.153   2.104
 3156SOL    HW210368   3.648   4.276   2.028
 3157SOL     OW10369   0.577   1.689   5.278
 3157SOL    HW110370   0.605   1.630   5.204
 3157SOL    HW210371   0.563   1.782   5.243
 3158SOL     OW10372   3.225   1.631   5.320
 3158SOL    HW110373   3.319   1.602   5.300
 3158SOL    HW210374   3.195   1.696   5.251
 3159SOL     OW10375   5.375   7.015   0.623
 3159SOL    HW110376   5.402   0.062   0.560
 3159SOL    HW210377   5.456   6.968   0.657
 3160SOL     OW10378   2.526   6.920   6.113
 3160SOL    HW110379   2.479   6.854   6.171
 3160SOL    HW210380   2.591   6.872   6.054
 3161SOL     OW10381   1.941   2.593   3.176
 3161SOL    HW110382   1.867   2.542   3.219
 3161SOL    HW210383   1.945   2.686   3.213
 3162SOL     OW10384   1.933   5.648   0.667
 3162SOL    HW110385   1.952   5.560   0.623
 3162SOL    HW210386   1.849   5.641   0.721
 3163SOL     OW10387   4.309   3.951   0.269
 3163SOL    HW110388   4.268   4.003   0.344
 3163SOL    HW210389   4.408   3.970   0.266
 3164SOL     OW10390   2.774   5.667   3.650
 3164SOL    HW110391   2.873   5.668   3.633
 3164SOL    HW210392   2.735   5.584   3.610
 3165SOL     OW10393   1.164   5.414   0.288
 3165SOL    HW110394   1.200   5.505   0.267
 3165SOL    HW210395   1.181   5.353   0.211
 3166SOL     OW10396   3.897   0.789   5.241
 3166SOL    HW110397   3.822   0.767   5.303
 3166SOL    HW210398   3.984   0.762   5.282
 3167SOL     OW10399   4.622   4.408   1.046
 3167SOL    HW110400   4.685   4.421   0.969
 3167SOL    HW210401   4.531   4.439   1.021
 3168SOL     OW10402   4.058   1.913   0.813
 3168SOL    HW110403   4.060   1.828   0.760
 3168SOL    HW210404   3.972   1.962   0.795
 3169SOL     OW10405   1.129   4.906   2.238
 3169SOL    HW110406   1.063   4.873   2.170
 3169SOL    HW210407   1.110   5.002   2.260
 3170SOL     OW10408   3.627   5.150   3.311
 3170SOL    HW110409   3.643   5.242   3.277
 3170SOL    HW210410   3.714   5.099   3.314
 3171SOL     OW10411   5.715   2.324   3.038
 3171SOL    HW110412   5.801   2.288   3.076
 3171SOL    HW210413   5.681   2.397   3.097
 3172SOL     OW10414   0.098   4.933   0.236
 3172SOL    HW110415   0.137   5.014   0.281
 3172SOL    HW210416   0.092   4.858   0.302
 3173SOL     OW10417   3.374   1.255   7.025
 3173SOL    HW110418   3.294   1.194   0.003
 3173SOL    HW210419   3.372   1.316   0.078
 3174SOL     OW10420   2.706   3.704   6.033
 3174SOL    HW110421   2.729   3.665   5.945
 3174SOL    HW210422   2.758   3.789   6.047
 3175SOL     OW10423   6.909   0.944   3.598
 3175SOL    HW110424   7.005   0.943   3.625
 3175SOL    HW210425   6.855   0.989   3.670
 3176SOL     OW10426   0.709   4.520   5.037
 3176SOL    HW110427   0.716   4.537   4.939
 3176SOL    HW210428   0.757   4.592   5.087
 3177SOL     OW10429   5.809   3.861   3.034
 3177SOL    HW110430   5.739   3.917   3.078
 3177SOL    HW210431   5.898   3.883   3.074
 3178SOL     OW10432   6.420   1.074   0.843
 3178SOL    HW110433   6.417   1.141   0.918
 3178SOL    HW210434   6.445   1.121   0.758
 3179SOL     OW10435   0.919   1.899   1.819
 3179SOL    HW110436   0.979   1.962   1.868
 3179SOL    HW210437   0.894   1.823   1.880
 3180SOL     OW10438   6.591   5.870   6.486
 3180SOL    HW110439   6.664   5.928   6.523
 3180SOL    HW210440   6.503   5.900   6.523
 3181SOL     OW10441   0.906   1.149   4.727
 3181SOL    HW110442   0.846   1.071   4.743
 3181SOL    HW210443   0.867   1.230   4.772
 3182SOL     OW10444   2.802   0.414   0.288
 3182SOL    HW110445   2.769   0.492   0.342
 3182SOL    HW210446   2.822   0.338   0.349
 3183SOL     OW10447   4.557   4.416   2.306
 3183SOL    HW110448   4.486   4.486   2.302
 3183SOL    HW210449   4.556   4.362   2.222
 3184SOL     OW10450   0.749   2.285   4.095
 3184SOL    HW110451   0.738   2.382   4.118
 3184SOL    HW210452   0.728   2.271   3.998
 3185SOL     OW10453   0.210   6.242   6.121
 3185SOL    HW110454   0.288   6.302   6.103
 3185SOL    HW210455   0.170   6.212   6.034
 3186SOL     OW10456   0.901   1.059   6.087
 3186SOL    HW110457   0.807   1.050   6.055
 3186SOL    HW210458   0.963   1.051   6.009
 3187SOL     OW10459   4.347   5.871   2.751
 3187SOL    HW110460   4.434   5.918   2.766
 3187SOL    HW210461   4.312   5.893   2.660
 3188SOL     OW10462   2.327   4.636   5.889
 3188SOL    HW110463   2.327   4.656   5.987
 3188SOL    HW210464   2.251   4.685   5.845
 3189SOL     OW10465   2.791   1.593   0.168
 3189SOL    HW110466   2.820   1.557   0.079
 3189SOL    HW210467   2.835   1.540   0.241
 3190SOL     OW10468   6.964   5.951   4.854
 3190SOL    HW110469   6.871   5.976   4.881
 3190SOL    HW210470   0.002   5.973   4.928
 3191SOL     OW10471   4.762   5.570   1.949
 3191SOL    HW110472   4.669   5.606   1.943
 3191SOL    HW210473   4.826   5.637   1.911
 3192SOL     OW10474   6.494   2.185   1.660
 3192SOL    HW110475   6.564   2.118   1.684
 3192SOL    HW210476   6.412   2.137   1.629
 3193SOL     OW10477   4.108   0.652   5.340
 3193SOL    HW110478   4.088   0.642   5.437
 3193SOL    HW210479   4.141   0.564   5.304
 3194SOL     OW10480   1.449   0.990   5.519
 3194SOL    HW110481   1.548   0.999   5.536
 3194SOL    HW210482   1.434   0.979   5.420
 3195SOL     OW10483   0.594   1.269   1.392
 3195SOL    HW110484   0.614   1.172   1.378
 3195SOL    HW210485   0.591   1.315   1.304
 3196SOL     OW10486   6.526   0.447   5.151
 3196SOL    HW110487   6.606   0.402   5.110
 3196SOL    HW210488   6.462   0.472   5.078
 3197SOL     OW10489   2.323   0.476   6.530
 3197SOL    HW110490   2.402   0.467   6.591
 3197SOL    HW210491   2.287   0.569   6.537
 3198SOL     OW10492   6.572   2.458   3.606
 3198SOL    HW110493   6.594   2.390   3.537
 3198SOL    HW210494   6.502   2.520   3.571
 3199SOL     OW10495   5.995   4.554   3.052
 3199SOL    HW110496   5.949   4.481   3.001
 3199SOL    HW210497   5.965   4.642   3.017
 3200SOL     OW10498   5.741   3.291   4.066
 3200SOL    HW110499   5.753   3.209   4.010
 3200SOL    HW210500   5.656   3.337   4.040
 3201SOL     OW10501   6.311   4.375   2.708
 3201SOL    HW110502   6.233   4.315   2.693
 3201SOL    HW210503   6.281   4.470   2.705
 3202SOL     OW10504   1.146   4.926   0.803
 3202SOL    HW110505   1.223   4.980   0.766
 3202SOL    HW210506   1.179   4.835   0.829
 3203SOL     OW10507   4.372   6.650   1.613
 3203SOL    HW110508   4.272   6.656   1.613
 3203SOL    HW210509   4.410   6.739   1.639
 3204SOL     OW10510   2.995   1.083   3.923
 3204SOL    HW110511   2.904   1.046   3.945
 3204SOL    HW210512   2.990   1.182   3.917
 3205SOL     OW10513   5.446   3.283   5.797
 3205SOL    HW110514   5.403   3.287   5.707
 3205SOL    HW210515   5.382   3.245   5.864
 3206SOL     OW10516   2.485   2.951   1.690
 3206SOL    HW110517   2.400   2.929   1.643
 3206SOL    HW210518   2.498   2.889   1.767
 3207SOL     OW10519   0.638   0.332   5.578
 3207SOL    HW110520   0.678   0.241   5.586
 3207SOL    HW210521   0.701   0.400   5.615
 3208SOL     OW10522   6.182   5.882   5.054
 3208SOL    HW110523   6.118   5.809   5.032
 3208SOL    HW210524   6.275   5.852   5.034
 3209SOL     OW10525   5.014   5.608   6.325
 3209SOL    HW110526   4.975   5.585   6.414
 3209SOL    HW210527   4.950   5.667   6.275
 3210SOL     OW10528   0.179   5.254   1.342
 3210SOL    HW110529   0.207   5.290   1.431
 3210SOL    HW210530   0.194   5.155   1.339
 3211SOL     OW10531   1.512   5.951   0.427
 3211SOL    HW110532   1.578   5.876   0.427
 3211SOL    HW210533   1.424   5.919   0.392
 3212SOL     OW10534   3.157   6.662   2.770
 3212SOL    HW110535   3.068   6.706   2.782
 3212SOL    HW210536   3.226   6.732   2.751
 3213SOL     OW10537   1.969   0.849   6.308
 3213SOL    HW110538   1.887   0.891   6.269
 3213SOL    HW210539   2.051   0.890   6.268
 3214SOL     OW10540   3.942   0.853   3.057
 3214SOL    HW110541   4.001   0.882   2.982
 3214SOL    HW210542   3.890   0.772   3.029
 3215SOL     OW10543   1.121   3.446   0.425
 3215SOL    HW110544   1.076   3.524   0.381
 3215SOL    HW210545   1.088   3.436   0.519
 3216SOL     OW10546   5.548   4.230   1.080
 3216SOL    HW110547   5.612   4.286   1.131
 3216SOL    HW210548   5.541   4.139   1.122
 3217SOL     OW10549   6.980   5.001   2.831
 3217SOL    HW110550   6.943   5.048   2.751
 3217SOL    HW210551   6.975   4.902   2.818
 3218SOL     OW10552   6.912   1.585   2.850
 3218SOL    HW110553   6.915   1.486   2.834
 3218SOL    HW210554   6.998   1.613   2.893
 3219SOL     OW10555   6.995   0.742   4.763
 3219SOL    HW110556   6.956   0.827   4.798
 3219SOL    HW210557   6.996   0.745   4.663
 3220SOL     OW10558   6.544   5.820   6.921
 3220SOL    HW110559   6.565   5.859   6.832
 3220SOL    HW210560   6.449   5.841   6.945
 3221SOL     OW10561   4.096   0.745   2.466
 3221SOL    HW110562   4.033   0.822   2.455
 3221SOL    HW210563   4.050   0.672   2.516
 3222SOL     OW10564   2.861   1.537   2.811
 3222SOL    HW110565   2.837   1.626   2.849
 3222SOL    HW210566   2.960   1.532   2.796
 3223SOL     OW10567   1.749   6.717   0.570
 3223SOL    HW110568   1.711   6.757   0.654
 3223SOL    HW210569   1.845   6.742   0.562
 3224SOL     OW10570   4.723   2.764   4.664
 3224SOL    HW110571   4.798   2.703   4.689
 3224SOL    HW210572   4.758   2.856   4.650
 3225SOL     OW10573   3.938   0.841   4.019
 3225SOL    HW110574   3.864   0.848   4.087
 3225SOL    HW210575   4.003   0.915   4.033
 3226SOL     OW10576   1.051   0.206   1.987
 3226SOL    HW110577   1.103   0.191   1.902
 3226SOL    HW210578   0.990   0.128   2.003
 3227SOL     OW10579   4.084   2.341   6.215
 3227SOL    HW110580   4.029   2.305   6.139
 3227SOL    HW210581   4.163   2.389   6.179
 3228SOL     OW10582   1.404   4.139   0.853
 3228SOL    HW110583   1.323   4.080   0.854
 3228SOL    HW210584   1.382   4.225   0.807
 3229SOL     OW10585   2.620   1.386   6.259
 3229SOL    HW110586   2.666   1.463   6.216
 3229SOL    HW210587   2.576   1.417   6.344
 3230SOL     OW10588   2.743   5.691   5.721
 3230SOL    HW110589   2.819   5.755   5.734
 3230SOL    HW210590   2.701   5.671   5.809
 3231SOL     OW10591   3.332   0.948   2.517
 3231SOL    HW110592   3.400   0.942   2.444
 3231SOL    HW210593   3.378   0.971   2.603
 3232SOL     OW10594   4.192   5.875   4.177
 3232SOL    HW110595   4.124   5.915   4.115
 3232SOL    HW210596   4.146   5.832   4.254
 3233SOL     OW10597   0.197   2.551   7.012
 3233SOL    HW110598   0.147   2.622   0.036
 3233SOL    HW210599   0.198   2.467   0.040
 3234SOL     OW10600   1.873   2.985   0.600
 3234SOL    HW110601   1.790   2.986   0.656
 3234SOL    HW210602   1.930   3.064   0.622
 3235SOL     OW10603   6.810   5.782   1.955
 3235SOL    HW110604   6.823   5.767   1.858
 3235SOL    HW210605   6.785   5.696   2.000
 3236SOL     OW10606   2.809   4.172   0.459
 3236SOL    HW110607   2.852   4.103   0.516
 3236SOL    HW210608   2.807   4.142   0.364
 3237SOL     OW10609   6.247   1.485   4.619
 3237SOL    HW110610   6.166   1.507   4.565
 3237SOL    HW210611   6.238   1.392   4.656
 3238SOL     OW10612   5.951   5.411   0.526
 3238SOL    HW110613   5.939   5.506   0.497
 3238SOL    HW210614   6.009   5.408   0.607
 3239SOL     OW10615   0.226   0.279   3.727
 3239SOL    HW110616   0.281   0.349   3.680
 3239SOL    HW210617   0.257   0.271   3.822
 3240SOL     OW10618   0.258   0.098   6.332
 3240SOL    HW110619   0.319   0.025   6.300
 3240SOL    HW210620   0.172   0.057   6.364
 3241SOL     OW10621   4.936   1.384   6.139
 3241SOL    HW110622   4.892   1.391   6.229
 3241SOL    HW210623   4.896   1.452   6.078
 3242SOL     OW10624   4.962   4.210   5.513
 3242SOL    HW110625   4.920   4.136   5.565
 3242SOL    HW210626   5.031   4.173   5.451
 3243SOL     OW10627   3.910   5.529   6.253
 3243SOL    HW110628   3.846   5.455   6.230
 3243SOL    HW210629   3.972   5.544   6.176
 3244SOL     OW10630   6.026   6.426   6.509
 3244SOL    HW110631   6.041   6.496   6.579
 3244SOL    HW210632   5.929   6.402   6.506
 3245SOL     OW10633   4.406   2.456   4.108
 3245SOL    HW110634   4.455   2.537   4.073
 3245SOL    HW210635   4.396   2.463   4.207
 3246SOL     OW10636   0.510   0.075   2.164
 3246SOL    HW110637   0.523   7.002   2.171
 3246SOL    HW210638   0.571   0.121   2.229
 3247SOL     OW10639   0.248   4.215   2.346
 3247SOL    HW110640   0.265   4.156   2.425
 3247SOL    HW210641   0.329   4.269   2.327
 3248SOL     OW10642   5.558   2.055   2.660
 3248SOL    HW110643   5.652   2.056   2.625
 3248SOL    HW210644   5.559   2.070   2.759
 3249SOL     OW10645   3.747   3.700   3.849
 3249SOL    HW110646   3.710   3.620   3.897
 3249SOL    HW210647   3.759   3.775   3.915
 3250SOL     OW10648   4.953   5.598   2.943
 3250SOL    HW110649   4.907   5.536   2.879
 3250SOL    HW210650   5.032   5.640   2.898
 3251SOL     OW10651   2.392   0.628   4.953
 3251SOL    HW110652   2.414   0.550   4.894
 3251SOL    HW210653   2.299   0.659   4.935
 3252SOL     OW10654   2.995   1.379   3.751
 3252SOL    HW110655   2.926   1.412   3.816
 3252SOL    HW210656   2.978   1.419   3.661
 3253SOL     OW10657   6.142   3.125   1.023
 3253SOL    HW110658   6.111   3.089   0.935
 3253SOL    HW210659   6.242   3.117   1.028
 3254SOL     OW10660   5.575   0.527   0.442
 3254SOL    HW110661   5.504   0.479   0.390
 3254SOL    HW210662   5.554   0.625   0.444
 3255SOL     OW10663   5.852   5.230   1.093
 3255SOL    HW110664   5.896   5.194   1.010
 3255SOL    HW210665   5.789   5.303   1.068
 3256SOL     OW10666   4.450   2.058   1.397
 3256SOL    HW110667   4.548   2.067   1.412
 3256SOL    HW210668   4.433   2.033   1.301
 3257SOL     OW10669   3.006   2.173   2.282
 3257SOL    HW110670   2.999   2.191   2.380
 3257SOL    HW210671   2.966   2.249   2.231
 3258SOL     OW10672   3.527   5.321   3.614
 3258SOL    HW110673   3.503   5.249   3.550
 3258SOL    HW210674   3.463   5.321   3.691
 3259SOL     OW10675   5.664   4.696   4.208
 3259SOL    HW110676   5.699   4.606   4.183
 3259SOL    HW210677   5.728   4.766   4.179
 3260SOL     OW10678   1.717   4.656   1.876
 3260SOL    HW110679   1.759   4.683   1.789
 3260SOL    HW210680   1.771   4.693   1.951
 3261SOL     OW10681   5.573   0.653   3.072
 3261SOL    HW110682   5.562   0.682   2.977
 3261SOL    HW210683   5.524   0.715   3.132
 3262SOL     OW10684   3.912   2.208   2.554
 3262SOL    HW110685   3.914   2.141   2.629
 3262SOL    HW210686   3.818   2.219   2.523
 3263SOL     OW10687   2.484   1.078   3.246
 3263SOL    HW110688   2.564   1.106   3.192
 3263SOL    HW210689   2.436   1.005   3.198
 3264SOL     OW10690   2.519   5.073   0.197
 3264SOL    HW110691   2.505   4.982   0.235
 3264SOL    HW210692   2.617   5.092   0.191
 3265SOL     OW10693   6.263   5.548   5.216
 3265SOL    HW110694   6.209   5.625   5.250
 3265SOL    HW210695   6.287   5.487   5.292
 3266SOL     OW10696   3.167   4.562   0.721
 3266SOL    HW110697   3.103   4.609   0.660
 3266SOL    HW210698   3.116   4.500   0.781
 3267SOL     OW10699   3.987   0.801   1.133
 3267SOL    HW110700   3.911   0.785   1.069
 3267SOL    HW210701   3.974   0.745   1.214
 3268SOL     OW10702   0.435   4.969   1.441
 3268SOL    HW110703   0.339   4.988   1.464
 3268SOL    HW210704   0.476   5.051   1.401
 3269SOL     OW10705   0.761   5.641   2.347
 3269SOL    HW110706   0.686   5.583   2.379
 3269SOL    HW210707   0.763   5.726   2.399
 3270SOL     OW10708   0.614   2.639   5.404
 3270SOL    HW110709   0.515   2.652   5.406
 3270SOL    HW210710   0.647   2.647   5.310
 3271SOL     OW10711   6.947   3.474   1.911
 3271SOL    HW110712   6.929   3.380   1.882
 3271SOL    HW210713   6.860   3.522   1.923
 3272SOL     OW10714   4.314   6.035   0.351
 3272SOL    HW110715   4.250   6.081   0.413
 3272SOL    HW210716   4.269   5.955   0.309
 3273SOL     OW10717   4.628   3.640   6.187
 3273SOL    HW110718   4.555   3.585   6.146
 3273SOL    HW210719   4.707   3.643   6.125
 3274SOL     OW10720   6.042   0.747   0.182
 3274SOL    HW110721   5.960   0.734   0.236
 3274SOL    HW210722   6.119   0.700   0.225
 3275SOL     OW10723   4.852   0.573   1.098
 3275SOL    HW110724   4.871   0.535   1.189
 3275SOL    HW210725   4.904   0.657   1.086
 3276SOL     OW10726   4.726   6.996   0.114
 3276SOL    HW110727   4.677   0.019   0.041
 3276SOL    HW210728   4.779   6.921   0.075
 3277SOL     OW10729   2.996   1.519   1.848
 3277SOL    HW110730   2.990   1.424   1.818
 3277SOL    HW210731   2.909   1.565   1.831
 3278SOL     OW10732   0.157   0.484   6.510
 3278SOL    HW110733   0.198   0.539   6.583
 3278SOL    HW210734   0.230   0.444   6.454
 3279SOL     OW10735   4.333   6.941   1.470
 3279SOL    HW110736   4.288   0.005   1.468
 3279SOL    HW210737   4.304   6.888   1.390
 3280SOL     OW10738   5.644   3.668   4.093
 3280SOL    HW110739   5.563   3.673   4.035
 3280SOL    HW210740   5.721   3.632   4.039
 3281SOL     OW10741   6.840   4.783   1.770
 3281SOL    HW110742   6.934   4.763   1.743
 3281SOL    HW210743   6.824   4.881   1.764
 3282SOL     OW10744   0.400   3.984   5.144
 3282SOL    HW110745   0.496   3.993   5.120
 3282SOL    HW210746   0.381   4.035   5.228
 3283SOL     OW10747   3.111   1.013   1.208
 3283SOL    HW110748   3.203   1.041   1.181
 3283SOL    HW210749   3.091   1.046   1.300
 3284SOL     OW10750   1.939   5.682   4.770
 3284SOL    HW110751   1.899   5.596   4.798
 3284SOL    HW210752   1.870   5.754   4.773
 3285SOL     OW10753   5.247   1.022   4.768
 3285SOL    HW110754   5.256   0.928   4.799
 3285SOL    HW210755   5.252   1.025   4.668
 3286SOL     OW10756   3.169   1.950   1.687
 3286SOL    HW110757   3.167   2.049   1.700
 3286SOL    HW210758   3.237   1.910   1.748
 3287SOL     OW10759   1.201   0.046   5.907
 3287SOL    HW110760   1.133   7.009   5.870
 3287SOL    HW210761   1.291   0.003   5.906
 3288SOL     OW10762   1.460   6.533   0.295
 3288SOL    HW110763   1.519   6.612   0.279
 3288SOL    HW210764   1.371   6.549   0.252
 3289SOL     OW10765   3.240   1.433   6.828
 3289SOL    HW110766   3.333   1.451   6.861
 3289SOL    HW210767   3.174   1.460   6.899
 3290SOL     OW10768   6.384   5.341   0.686
 3290SOL    HW110769   6.372   5.252   0.643
 3290SOL    HW210770   6.329   5.409   0.638
 3291SOL     OW10771   4.252   0.265   6.136
 3291SOL    HW110772   4.170   0.250   6.080
 3291SOL    HW210773   4.239   0.347   6.192
 3292SOL     OW10774   0.579   1.610   0.641
 3292SOL    HW110775   0.627   1.619   0.728
 3292SOL    HW210776   0.570   1.513   0.618
 3293SOL     OW10777   6.725   4.797   2.628
 3293SOL    HW110778   6.646   4.773   2.683
 3293SOL    HW210779   6.788   4.719   2.624
 3294SOL     OW10780   5.613   2.547   5.513
 3294SOL    HW110781   5.658   2.458   5.509
 3294SOL    HW210782   5.659   2.610   5.450
 3295SOL     OW10783   1.602   3.144   0.515
 3295SOL    HW110784   1.699   3.130   0.494
 3295SOL    HW210785   1.579   3.097   0.600
 3296SOL     OW10786   6.835   6.798   5.237
 3296SOL    HW110787   6.912   6.801   5.301
 3296SOL    HW210788   6.800   6.704   5.232
 3297SOL     OW10789   3.096   2.024   5.430
 3297SOL    HW110790   3.077   1.988   5.339
 3297SOL    HW210791   3.162   2.098   5.424
 3298SOL     OW10792   6.151   3.909   4.846
 3298SOL    HW110793   6.067   3.907   4.901
 3298SOL    HW210794   6.206   3.828   4.866
 3299SOL     OW10795   4.118   5.080   3.673
 3299SOL    HW110796   4.105   5.162   3.617
 3299SOL    HW210797   4.162   5.009   3.617
 3300SOL     OW10798   2.422   6.782   5.490
 3300SOL    HW110799   2.502   6.834   5.458
 3300SOL    HW210800   2.346   6.845   5.506
 3301SOL     OW10801   1.439   3.288   2.694
 3301SOL    HW110802   1.480   3.216   2.751
 3301SOL    HW210803   1.411   3.249   2.607
 3302SOL     OW10804   1.571   4.773   6.803
 3302SOL    HW110805   1.667   4.749   6.788
 3302SOL    HW210806   1.513   4.724   6.738
 3303SOL     OW10807   3.453   2.794   0.787
 3303SOL    HW110808   3.382   2.855   0.752
 3303SOL    HW210809   3.536   2.803   0.732
 3304SOL     OW10810   2.303   4.596   6.670
 3304SOL    HW110811   2.390   4.626   6.629
 3304SOL    HW210812   2.307   4.497   6.687
 3305SOL     OW10813   3.311   0.738   1.050
 3305SOL    HW110814   3.262   0.758   1.135
 3305SOL    HW210815   3.345   0.823   1.010
 3306SOL     OW10816   1.358   6.220   6.759
 3306SOL    HW110817   1.309   6.308   6.755
 3306SOL    HW210818   1.444   6.232   6.809
 3307SOL     OW10819   1.264   6.839   5.616
 3307SOL    HW110820   1.223   6.924   5.582
 3307SOL    HW210821   1.295   6.852   5.710
 3308SOL     OW10822   4.121   4.317   1.335
 3308SOL    HW110823   4.122   4.417   1.327
 3308SOL    HW210824   4.173   4.289   1.415
 3309SOL     OW10825   5.232   4.423   3.959
 3309SOL    HW110826   5.297   4.499   3.971
 3309SOL    HW210827   5.141   4.453   3.987
 3310SOL     OW10828   0.743   4.898   4.707
 3310SOL    HW110829   0.705   4.805   4.699
 3310SOL    HW210830   0.668   4.964   4.706
 3311SOL     OW10831   3.767   3.627   1.131
 3311SOL    HW110832   3.715   3.709   1.150
 3311SOL    HW210833   3.721   3.547   1.171
 3312SOL     OW10834   5.066   3.053   6.315
 3312SOL    HW110835   5.106   3.059   6.406
 3312SOL    HW210836   4.986   2.992   6.317
 3313SOL     OW10837   0.675   0.864   3.239
 3313SOL    HW110838   0.751   0.830   3.294
 3313SOL    HW210839   0.705   0.946   3.189
 3314SOL     OW10840   2.181   0.163   3.176
 3314SOL    HW110841   2.152   0.235   3.113
 3314SOL    HW210842   2.231   0.204   3.252
 3315SOL     OW10843   0.581   4.861   5.266
 3315SOL    HW110844   0.595   4.930   5.195
 3315SOL    HW210845   0.604   4.900   5.355
 3316SOL     OW10846   3.269   1.147   6.010
 3316SOL    HW110847   3.228   1.057   6.027
 3316SOL    HW210848   3.367   1.137   5.995
 3317SOL     OW10849   5.552   2.104   1.918
 3317SOL    HW110850   5.599   2.129   2.002
 3317SOL    HW210851   5.617   2.068   1.852
 3318SOL     OW10852   2.731   1.958   6.779
 3318SOL    HW110853   2.764   1.934   6.687
 3318SOL    HW210854   2.688   2.048   6.776
 3319SOL     OW10855   6.949   6.983   2.537
 3319SOL    HW110856   7.016   7.011   2.605
 3319SOL    HW210857   6.950   6.883   2.527
 3320SOL     OW10858   6.488   1.208   0.515
 3320SOL    HW110859   6.582   1.236   0.531
 3320SOL    HW210860   6.427   1.259   0.575
 3321SOL     OW10861   5.997   1.566   1.006
 3321SOL    HW110862   5.981   1.646   1.064
 3321SOL    HW210863   6.011   1.485   1.063
 3322SOL     OW10864   6.297   3.317   0.736
 3322SOL    HW110865   6.358   3.243   0.708
 3322SOL    HW210866   6.351   3.397   0.763
 3323SOL     OW10867   2.756   1.850   2.054
 3323SOL    HW110868   2.805   1.934   2.079
 3323SOL    HW210869   2.663   1.872   2.027
 3324SOL     OW10870   4.631   5.565   5.940
 3324SOL    HW110871   4.553   5.610   5.897
 3324SOL    HW210872   4.666   5.494   5.879
 3325SOL     OW10873   0.855   3.345   6.787
 3325SOL    HW110874   0.953   3.327   6.784
 3325SOL    HW210875   0.807   3.285   6.723
 3326SOL     OW10876   5.334   0.837   3.018
 3326SOL    HW110877   5.304   0.932   3.016
 3326SOL    HW210878   5.310   0.792   2.932
 3327SOL     OW10879   1.635   5.971   1.751
 3327SOL    HW110880   1.621   6.064   1.786
 3327SOL    HW210881   1.557   5.915   1.776
 3328SOL     OW10882   3.542   2.020   1.081
 3328SOL    HW110883   3.542   2.110   1.125
 3328SOL    HW210884   3.470   1.964   1.121
 3329SOL     OW10885   6.028   6.503   5.292
 3329SOL    HW110886   5.964   6.427   5.299
 3329SOL    HW210887   6.026   6.557   5.376
 3330SOL     OW10888   6.895   3.302   2.587
 3330SOL    HW110889   6.869   3.278   2.494
 3330SOL    HW210890   6.839   3.251   2.652
 3331SOL     OW10891   1.645   2.531   1.208
 3331SOL    HW110892   1.563   2.516   1.153
 3331SOL    HW210893   1.700   2.448   1.209
 3332SOL     OW10894   5.224   4.892   0.545
 3332SOL    HW110895   5.182   4.919   0.631
 3332SOL    HW210896   5.322   4.877   0.558
 3333SOL     OW10897   3.696   5.275   6.554
 3333SOL    HW110898   3.673   5.178   6.556
 3333SOL    HW210899   3.621   5.326   6.512
 3334SOL     OW10900   3.665   3.388   1.218
 3334SOL    HW110901   3.599   3.401   1.292
 3334SOL    HW210902   3.686   3.291   1.209
 3335SOL     OW10903   5.071   5.121   5.632
 3335SOL    HW110904   5.006   5.108   5.558
 3335SOL    HW210905   5.134   5.043   5.636
 3336SOL     OW10906   3.161   5.329   5.681
 3336SOL    HW110907   3.171   5.231   5.701
 3336SOL    HW210908   3.075   5.344   5.633
 3337SOL     OW10909   3.555   2.222   1.254
 3337SOL    HW110910   3.476   2.190   1.306
 3337SOL    HW210911   3.617   2.272   1.316
 3338SOL     OW10912   6.638   4.127   1.457
 3338SOL    HW110913   6.578   4.200   1.491
 3338SOL    HW210914   6.718   4.168   1.412
 3339SOL     OW10915   6.801   6.042   6.762
 3339SOL    HW110916   6.708   6.018   6.733
 3339SOL    HW210917   6.799   6.127   6.815
 3340SOL     OW10918   3.676   6.864   2.001
 3340SOL    HW110919   3.616   6.860   1.921
 3340SOL    HW210920   3.677   6.775   2.046
 3341SOL     OW10921   0.425   6.962   2.817
 3341SOL    HW110922   0.481   6.958   2.900
 3341SOL    HW210923   0.392   0.029   2.803
 3342SOL     OW10924   2.062   0.147   3.660
 3342SOL    HW110925   2.107   0.060   3.680
 3342SOL    HW210926   1.963   0.137   3.672
 3343SOL     OW10927   4.930   2.817   0.616
 3343SOL    HW110928   4.969   2.823   0.523
 3343SOL    HW210929   4.979   2.880   0.676
 3344SOL     OW10930   5.059   3.921   4.918
 3344SOL    HW110931   5.029   3.850   4.982
 3344SOL    HW210932   5.064   3.883   4.826
 3345SOL     OW10933   2.982   3.841   5.799
 3345SOL    HW110934   3.033   3.865   5.717
 3345SOL    HW210935   2.900   3.789   5.774
 3346SOL     OW10936   0.462   1.596   2.157
 3346SOL    HW110937   0.479   1.654   2.078
 3346SOL    HW210938   0.549   1.560   2.191
 3347SOL     OW10939   6.652   4.197   4.149
 3347SOL    HW110940   6.661   4.168   4.244
 3347SOL    HW210941   6.639   4.296   4.145
 3348SOL     OW10942   3.345   3.278   3.891
 3348SOL    HW110943   3.379   3.187   3.871
 3348SOL    HW210944   3.329   3.328   3.805
 3349SOL     OW10945   6.811   4.582   4.315
 3349SOL    HW110946   6.841   4.661   4.263
 3349SOL    HW210947   6.890   4.535   4.355
 3350SOL     OW10948   2.268   1.202   6.837
 3350SOL    HW110949   2.303   1.121   6.791
 3350SOL    HW210950   2.203   1.249   6.777
 3351SOL     OW10951   5.747   0.351   1.186
 3351SOL    HW110952   5.792   0.340   1.097
 3351SOL    HW210953   5.816   0.370   1.256
 3352SOL     OW10954   1.087   4.239   0.783
 3352SOL    HW110955   1.046   4.254   0.693
 3352SOL    HW210956   1.160   4.306   0.799
 3353SOL     OW10957   1.363   0.130   6.692
 3353SOL    HW110958   1.276   0.133   6.643
 3353SOL    HW210959   1.372   0.211   6.749
 3354SOL     OW10960   6.831   1.831   3.091
 3354SOL    HW110961   6.754   1.772   3.067
 3354SOL    HW210962   6.882   1.790   3.167
 3355SOL     OW10963   0.124   2.270   0.972
 3355SOL    HW110964   0.076   2.205   1.031
 3355SOL    HW210965   0.192   2.321   1.026
 3356SOL     OW10966   2.929   3.217   0.129
 3356SOL    HW110967   2.853   3.270   0.090
 3356SOL    HW210968   2.902   3.122   0.140
 3357SOL     OW10969   2.044   5.318   1.123
 3357SOL    HW110970   1.994   5.384   1.067
 3357SOL    HW210971   2.089   5.366   1.199
 3358SOL     OW10972   5.006   6.056   2.368
 3358SOL    HW110973   4.943   6.014   2.304
 3358SOL    HW210974   5.097   6.014   2.359
 3359SOL     OW10975   0.466   0.502   2.792
 3359SOL    HW110976   0.520   0.496   2.876
 3359SOL    HW210977   0.436   0.596   2.777
 3360SOL     OW10978   0.222   1.074   0.398
 3360SOL    HW110979   0.155   1.024   0.344
 3360SOL    HW210980   0.253   1.154   0.346
 3361SOL     OW10981   6.566   5.940   3.293
 3361SOL    HW110982   6.650   5.885   3.300
 3361SOL    HW210983   6.565   6.007   3.367
 3362SOL     OW10984   2.998   1.644   4.979
 3362SOL    HW110985   3.046   1.705   5.042
 3362SOL    HW210986   3.039   1.651   4.888
 3363SOL     OW10987   0.614   1.420   6.523
 3363SOL    HW110988   0.711   1.406   6.545
 3363SOL    HW210989   0.597   1.518   6.510
 3364SOL     OW10990   1.081   5.800   6.211
 3364SOL    HW110991   1.000   5.829   6.262
 3364SOL    HW210992   1.068   5.822   6.114
 3365SOL     OW10993   0.274   1.833   4.570
 3365SOL    HW110994   0.223   1.915   4.595
 3365SOL    HW210995   0.216   1.774   4.513
 3366SOL     OW10996   5.644   0.870   4.923
 3366SOL    HW110997   5.715   0.801   4.934
 3366SOL    HW210998   5.595   0.882   5.009
 3367SOL     OW10999   1.757   2.417   1.884
 3367SOL    HW111000   1.809   2.490   1.839
 3367SOL    HW211001   1.726   2.351   1.816
 3368SOL     OW11002   6.459   5.220   6.221
 3368SOL    HW111003   6.497   5.309   6.248
 3368SOL    HW211004   6.457   5.159   6.301
 3369SOL     OW11005   3.483   0.755   0.361
 3369SOL    HW111006   3.532   0.676   0.324
 3369SOL    HW211007   3.533   0.792   0.439
 3370SOL     OW11008   6.499   7.016   4.966
 3370SOL    HW111009   6.433   6.960   4.916
 3370SOL    HW211010   6.580   6.961   4.986
 3371SOL     OW11011   1.205   4.178   2.412
 3371SOL    HW111012   1.149   4.253   2.378
 3371SOL    HW211013   1.208   4.105   2.344
 3372SOL     OW11014   0.229   1.136   2.046
 3372SOL    HW111015   0.212   1.069   1.974
 3372SOL    HW211016   0.205   1.095   2.135
 3373SOL     OW11017   6.209   1.218   4.359
 3373SOL    HW111018   6.113   1.192   4.372
 3373SOL    HW211019   6.214   1.299   4.301
 3374SOL     OW11020   3.560   6.191   5.332
 3374SOL    HW111021   3.600   6.101   5.351
 3374SOL    HW211022   3.539   6.237   5.418
 3375SOL     OW11023   4.598   4.561   5.092
 3375SOL    HW111024   4.624   4.467   5.068
 3375SOL    HW211025   4.500   4.573   5.075
 3376SOL     OW11026   3.513   2.983   2.505
 3376SOL    HW111027   3.489   2.920   2.579
 3376SOL    HW211028   3.515   2.933   2.419
 3377SOL     OW11029   1.372   6.432   5.109
 3377SOL    HW111030   1.284   6.396   5.080
 3377SOL    HW211031   1.435   6.356   5.125
 3378SOL     OW11032   6.772   1.692   1.370
 3378SOL    HW111033   6.781   1.594   1.349
 3378SOL    HW211034   6.830   1.714   1.449
 3379SOL     OW11035   0.497   4.318   6.015
 3379SOL    HW111036   0.502   4.291   6.112
 3379SOL    HW211037   0.562   4.265   5.962
 3380SOL     OW11038   6.368   4.672   6.258
 3380SOL    HW111039   6.372   4.573   6.267
 3380SOL    HW211040   6.288   4.697   6.203
 3381SOL     OW11041   2.443   2.050   0.385
 3381SOL    HW111042   2.345   2.042   0.398
 3381SOL    HW211043   2.480   2.119   0.447
 3382SOL     OW11044   0.185   1.667   6.743
 3382SOL    HW111045   0.203   1.586   6.799
 3382SOL    HW211046   0.172   1.746   6.803
 3383SOL     OW11047   5.904   4.888   2.726
 3383SOL    HW111048   5.951   4.949   2.663
 3383SOL    HW211049   5.892   4.799   2.684
 3384SOL     OW11050   3.443   3.356   4.921
 3384SOL    HW111051   3.382   3.332   4.845
 3384SOL    HW211052   3.398   3.424   4.979
 3385SOL     OW11053   6.448   4.027   3.429
 3385SOL    HW111054   6.408   3.950   3.480
 3385SOL    HW211055   6.377   4.096   3.414
 3386SOL     OW11056   5.867   4.312   4.748
 3386SOL    HW111057   5.843   4.303   4.845
 3386SOL    HW211058   5.910   4.228   4.716
 3387SOL     OW11059   2.363   2.590   2.392
 3387SOL    HW111060   2.425   2.559   2.463
 3387SOL    HW211061   2.416   2.611   2.309
 3388SOL     OW11062   5.678   2.837   0.995
 3388SOL    HW111063   5.773   2.863   1.013
 3388SOL    HW211064   5.646   2.775   1.066
 3389SOL     OW11065   4.752   4.141   3.908
 3389SOL    HW111066   4.693   4.144   3.827
 3389SOL    HW211067   4.789   4.232   3.926
 3390SOL     OW11068   5.201   2.629   6.006
 3390SOL    HW111069   5.104   2.644   6.024
 3390SOL    HW211070   5.211   2.581   5.918
 3391SOL     OW11071   4.064   1.829   4.800
 3391SOL    HW111072   4.149   1.875   4.828
 3391SOL    HW211073   3.986   1.888   4.822
 3392SOL     OW11074   2.097   0.823   4.351
 3392SOL    HW111075   2.054   0.877   4.279
 3392SOL    HW211076   2.185   0.865   4.376
 3393SOL     OW11077   6.499   6.662   0.488
 3393SOL    HW111078   6.526   6.572   0.520
 3393SOL    HW211079   6.533   6.676   0.395
 3394SOL     OW11080   5.937   2.924   1.083
 3394SOL    HW111081   5.953   2.963   1.173
 3394SOL    HW211082   5.988   2.976   1.015
 3395SOL     OW11083   6.598   3.685   3.935
 3395SOL    HW111084   6.524   3.722   3.990
 3395SOL    HW211085   6.569   3.679   3.839
 3396SOL     OW11086   0.328   3.316   3.540
 3396SOL    HW111087   0.324   3.399   3.485
 3396SOL    HW211088   0.244   3.263   3.528
 3397SOL     OW11089   4.184   0.892   5.656
 3397SOL    HW111090   4.162   0.970   5.597
 3397SOL    HW211091   4.246   0.830   5.607
 3398SOL     OW11092   0.908   0.109   4.093
 3398SOL    HW111093   0.890   0.197   4.048
 3398SOL    HW211094   0.914   0.037   4.025
 3399SOL     OW11095   4.208   4.728   4.572
 3399SOL    HW111096   4.162   4.639   4.567
 3399SOL    HW211097   4.264   4.733   4.654
 3400SOL     OW11098   4.820   2.435   6.089
 3400SOL    HW111099   4.833   2.377   6.170
 3400SOL    HW211100   4.873   2.398   6.012
 3401SOL     OW11101   6.907   3.675   0.844
 3401SOL    HW111102   6.941   3.654   0.752
 3401SOL    HW211103   6.911   3.773   0.859
 3402SOL     OW11104   5.631   5.607   1.213
 3402SOL    HW111105   5.669   5.678   1.154
 3402SOL    HW211106   5.679   5.607   1.301
 3403SOL     OW11107   3.975   0.537   4.883
 3403SOL    HW111108   3.923   0.593   4.818
 3403SOL    HW211109   3.986   0.445   4.847
 3404SOL     OW11110   4.510   1.384   0.586
 3404SOL    HW111111   4.426   1.438   0.578
 3404SOL    HW211112   4.557   1.380   0.498
 3405SOL     OW11113   6.631   3.836   5.872
 3405SOL    HW111114   6.723   3.799   5.888
 3405SOL    HW211115   6.608   3.899   5.946
 3406SOL     OW11116   2.173   4.824   1.791
 3406SOL    HW111117   2.245   4.884   1.826
 3406SOL    HW211118   2.093   4.830   1.852
 3407SOL     OW11119   1.441   5.808   1.831
 3407SOL    HW111120   1.351   5.847   1.812
 3407SOL    HW211121   1.443   5.775   1.926
 3408SOL     OW11122   4.669   4.269   3.595
 3408SOL    HW111123   4.748   4.210   3.577
 3408SOL    HW211124   4.689   4.328   3.674
 3409SOL     OW11125   3.740   6.949   5.711
 3409SOL    HW111126   3.756   6.935   5.614
 3409SOL    HW211127   3.804   7.018   5.746
 3410SOL     OW11128   5.977   5.402   6.784
 3410SOL    HW111129   5.973   5.304   6.764
 3410SOL    HW211130   6.071   5.429   6.801
 3411SOL     OW11131   5.579   2.379   2.223
 3411SOL    HW111132   5.559   2.293   2.176
 3411SOL    HW211133   5.621   2.359   2.312
 3412SOL     OW11134   4.091   3.071   0.076
 3412SOL    HW111135   4.144   3.090   0.159
 3412SOL    HW211136   3.994   3.072   0.098
 3413SOL     OW11137   4.225   1.517   2.566
 3413SOL    HW111138   4.130   1.542   2.551
 3413SOL    HW211139   4.284   1.597   2.553
 3414SOL     OW11140   3.425   1.831   4.952
 3414SOL    HW111141   3.407   1.929   4.962
 3414SOL    HW211142   3.494   1.817   4.881
 3415SOL     OW11143   1.116   4.797   4.417
 3415SOL    HW111144   1.152   4.709   4.449
 3415SOL    HW211145   1.191   4.861   4.405
 3416SOL     OW11146   6.842   4.349   5.911
 3416SOL    HW111147   6.924   4.382   5.864
 3416SOL    HW211148   6.765   4.408   5.889
 3417SOL     OW11149   6.378   5.708   2.515
 3417SOL    HW111150   6.460   5.665   2.552
 3417SOL    HW211151   6.322   5.744   2.590
 3418SOL     OW11152   4.040   1.113   4.054
 3418SOL    HW111153   3.992   1.178   3.995
 3418SOL    HW211154   4.012   1.127   4.149
 3419SOL     OW11155   4.158   4.941   6.258
 3419SOL    HW111156   4.088   4.884   6.300
 3419SOL    HW211157   4.242   4.936   6.311
 3420SOL     OW11158   5.431   1.828   3.566
 3420SOL    HW111159   5.339   1.836   3.528
 3420SOL    HW211160   5.430   1.762   3.641
 3421SOL     OW11161   6.428   0.615   5.994
 3421SOL    HW111162   6.456   0.561   5.914
 3421SOL    HW211163   6.423   0.556   6.074
 3422SOL     OW11164   3.449   6.920   1.127
 3422SOL    HW111165   3.367   6.892   1.077
 3422SOL    HW211166   3.500   6.987   1.072
 3423SOL     OW11167   2.242   0.942   0.026
 3423SOL    HW111168   2.165   0.889   7.014
 3423SOL    HW211169   2.247   1.031   7.005
 3424SOL     OW11170   3.746   0.914   2.809
 3424SOL    HW111171   3.647   0.902   2.800
 3424SOL    HW211172   3.771   0.915   2.906
 3425SOL     OW11173   5.036   4.215   2.330
 3425SOL    HW111174   4.966   4.165   2.279
 3425SOL    HW211175   4.997   4.250   2.415
 3426SOL     OW11176   3.598   3.434   0.326
 3426SOL    HW111177   3.654   3.512   0.352
 3426SOL    HW211178   3.503   3.464   0.312
 3427SOL     OW11179   6.485   6.882   0.239
 3427SOL    HW111180   6.576   6.911   0.207
 3427SOL    HW211181   6.420   6.887   0.163
 3428SOL     OW11182   4.130   5.259   1.891
 3428SOL    HW111183   4.118   5.275   1.989
 3428SOL    HW211184   4.041   5.238   1.850
 3429SOL     OW11185   0.598   2.335   6.804
 3429SOL    HW111186   0.697   2.348   6.814
 3429SOL    HW211187   0.551   2.417   6.837
 3430SOL     OW11188   1.212   6.441   6.802
 3430SOL    HW111189   1.281   6.499   6.846
 3430SOL    HW211190   1.134   6.497   6.775
 3431SOL     OW11191   2.540   6.518   1.167
 3431SOL    HW111192   2.559   6.587   1.237
 3431SOL    HW211193   2.484   6.445   1.206
 3432SOL     OW11194   2.822   2.221   5.278
 3432SOL    HW111195   2.854   2.203   5.371
 3432SOL    HW211196   2.770   2.142   5.245
 3433SOL     OW11197   2.471   1.164   6.482
 3433SOL    HW111198   2.513   1.253   6.466
 3433SOL    HW211199   2.383   1.177   6.528
 3434SOL     OW11200   3.079   2.612   0.594
 3434SOL    HW111201   3.142   2.689   0.601
 3434SOL    HW211202   3.103   2.544   0.663
 3435SOL     OW11203   0.156   2.656   1.268
 3435SOL    HW111204   0.174   2.750   1.240
 3435SOL    HW211205   0.230   2.624   1.327
 3436SOL     OW11206   4.777   6.938   5.058
 3436SOL    HW111207   4.717   6.967   5.132
 3436SOL    HW211208   4.772   6.838   5.048
 3437SOL     OW11209   4.462   0.560   6.142
 3437SOL    HW111210   4.543   0.530   6.193
 3437SOL    HW211211   4.381   0.551   6.199
 3438SOL     OW11212   1.311   3.124   6.577
 3438SOL    HW111213   1.400   3.108   6.619
 3438SOL    HW211214   1.321   3.189   6.502
 3439SOL     OW11215   2.731   0.175   4.726
 3439SOL    HW111216   2.825   0.184   4.694
 3439SOL    HW211217   2.712   0.079   4.747
 3440SOL     OW11218   4.452   3.396   1.247
 3440SOL    HW111219   4.487   3.404   1.340
 3440SOL    HW211220   4.474   3.305   1.211
 3441SOL     OW11221   4.836   0.517   3.255
 3441SOL    HW111222   4.912   0.524   3.321
 3441SOL    HW211223   4.798   0.425   3.259
 3442SOL     OW11224   2.257   4.738   3.589
 3442SOL    HW111225   2.241   4.836   3.590
 3442SOL    HW211226   2.203   4.695   3.517
 3443SOL     OW11227   5.522   1.015   3.259
 3443SOL    HW111228   5.437   1.063   3.277
 3443SOL    HW211229   5.503   0.918   3.241
 3444SOL     OW11230   4.899   5.363   6.823
 3444SOL    HW111231   4.810   5.389   6.786
 3444SOL    HW211232   4.951   5.313   6.754
 3445SOL     OW11233   6.557   3.905   4.476
 3445SOL    HW111234   6.651   3.941   4.480
 3445SOL    HW211235   6.505   3.959   4.410
 3446SOL     OW11236   4.885   0.838   2.901
 3446SOL    HW111237   4.827   0.851   2.820
 3446SOL    HW211238   4.842   0.771   2.962
 3447SOL     OW11239   5.290   4.794   0.193
 3447SOL    HW111240   5.338   4.733   0.130
 3447SOL    HW211241   5.323   4.777   0.287
 3448SOL     OW11242   3.817   6.958   0.846
 3448SOL    HW111243   3.733   6.983   0.894
 3448SOL    HW211244   3.895   7.004   0.888
 3449SOL     OW11245   6.482   6.327   2.594
 3449SOL    HW111246   6.504   6.232   2.616
 3449SOL    HW211247   6.392   6.350   2.633
 3450SOL     OW11248   1.015   2.267   0.550
 3450SOL    HW111249   1.041   2.309   0.463
 3450SOL    HW211250   0.937   2.315   0.589
 3451SOL     OW11251   0.709   5.557   3.630
 3451SOL    HW111252   0.682   5.461   3.631
 3451SOL    HW211253   0.761   5.577   3.713
 3452SOL     OW11254   6.563   0.853   6.636
 3452SOL    HW111255   6.594   0.886   6.725
 3452SOL    HW211256   6.503   0.921   6.593
 3453SOL     OW11257   5.759   6.092   5.146
 3453SOL    HW111258   5.693   6.145   5.093
 3453SOL    HW211259   5.778   6.006   5.099
 3454SOL     OW11260   1.740   0.981   6.244
 3454SOL    HW111261   1.692   1.032   6.315
 3454SOL    HW211262   1.796   1.044   6.190
 3455SOL     OW11263   1.138   2.884   4.584
 3455SOL    HW111264   1.201   2.812   4.555
 3455SOL    HW211265   1.123   2.947   4.508
 3456SOL     OW11266   5.918   5.766   2.285
 3456SOL    HW111267   6.010   5.745   2.316
 3456SOL    HW211268   5.853   5.752   2.360
 3457SOL     OW11269   2.711   5.132   4.205
 3457SOL    HW111270   2.772   5.171   4.273
 3457SOL    HW211271   2.675   5.045   4.238
 3458SOL     OW11272   5.226   6.810   6.884
 3458SOL    HW111273   5.276   6.724   6.885
 3458SOL    HW211274   5.289   6.886   6.904
 3459SOL     OW11275   0.452   3.625   2.958
 3459SOL    HW111276   0.490   3.650   2.869
 3459SOL    HW211277   0.509   3.663   3.031
 3460SOL     OW11278   3.813   3.607   0.694
 3460SOL    HW111279   3.725   3.574   0.661
 3460SOL    HW211280   3.804   3.703   0.723
 3461SOL     OW11281   3.807   5.233   4.529
 3461SOL    HW111282   3.711   5.225   4.502
 3461SOL    HW211283   3.833   5.152   4.583
 3462SOL     OW11284   5.963   3.189   2.158
 3462SOL    HW111285   5.928   3.096   2.172
 3462SOL    HW211286   5.957   3.239   2.244
 3463SOL     OW11287   0.709   3.064   2.744
 3463SOL    HW111288   0.671   3.135   2.804
 3463SOL    HW211289   0.691   3.088   2.648
 3464SOL     OW11290   5.747   2.075   0.131
 3464SOL    HW111291   5.704   2.080   0.041
 3464SOL    HW211292   5.732   2.162   0.179
 3465SOL     OW11293   1.668   3.305   1.789
 3465SOL    HW111294   1.581   3.345   1.818
 3465SOL    HW211295   1.742   3.367   1.814
 3466SOL     OW11296   5.788   5.397   5.636
 3466SOL    HW111297   5.772   5.384   5.734
 3466SOL    HW211298   5.702   5.392   5.586
 3467SOL     OW11299   3.142   1.226   0.614
 3467SOL    HW111300   3.082   1.200   0.539
 3467SOL    HW211301   3.211   1.291   0.581
 3468SOL     OW11302   5.278   1.736   2.409
 3468SOL    HW111303   5.335   1.760   2.487
 3468SOL    HW211304   5.216   1.813   2.388
 3469SOL     OW11305   5.092   0.657   6.189
 3469SOL    HW111306   5.074   0.697   6.279
 3469SOL    HW211307   5.054   0.716   6.118
 3470SOL     OW11308   0.658   2.878   1.891
 3470SOL    HW111309   0.714   2.922   1.960
 3470SOL    HW211310   0.701   2.793   1.862
 3471SOL     OW11311   4.885   4.447   3.468
 3471SOL    HW111312   4.890   4.544   3.492
 3471SOL    HW211313   4.792   4.414   3.483
 3472SOL     OW11314   3.786   1.265   2.683
 3472SOL    HW111315   3.849   1.215   2.623
 3472SOL    HW211316   3.709   1.300   2.629
 3473SOL     OW11317   6.769   3.467   3.569
 3473SOL    HW111318   6.698   3.535   3.554
 3473SOL    HW211319   6.853   3.495   3.522
 3474SOL     OW11320   0.286   4.103   3.842
 3474SOL    HW111321   0.246   4.113   3.933
 3474SOL    HW211322   0.383   4.079   3.850
 3475SOL     OW11323   0.827   4.812   3.883
 3475SOL    HW111324   0.902   4.817   3.817
 3475SOL    HW211325   0.858   4.846   3.972
 3476SOL     OW11326   1.440   1.545   3.355
 3476SOL    HW111327   1.524   1.579   3.312
 3476SOL    HW211328   1.365   1.608   3.337
 3477SOL     OW11329   0.976   3.731   0.445
 3477SOL    HW111330   0.926   3.814   0.467
 3477SOL    HW211331   0.925   3.678   0.377
 3478SOL     OW11332   2.562   0.031   6.741
 3478SOL    HW111333   2.565   0.071   6.832
 3478SOL    HW211334   2.514   0.093   6.679
 3479SOL     OW11335   1.113   1.549   3.741
 3479SOL    HW111336   1.039   1.591   3.689
 3479SOL    HW211337   1.182   1.513   3.678
 3480SOL     OW11338   0.811   5.774   6.320
 3480SOL    HW111339   0.804   5.721   6.405
 3480SOL    HW211340   0.752   5.734   6.250
 3481SOL     OW11341   5.204   1.101   0.963
 3481SOL    HW111342   5.231   1.010   0.933
 3481SOL    HW211343   5.276   1.140   1.020
 3482SOL     OW11344   6.222   1.807   2.700
 3482SOL    HW111345   6.312   1.823   2.742
 3482SOL    HW211346   6.234   1.752   2.617
 3483SOL     OW11347   5.574   2.119   2.928
 3483SOL    HW111348   5.584   2.061   3.009
 3483SOL    HW211349   5.607   2.211   2.948
 3484SOL     OW11350   1.576   3.442   6.937
 3484SOL    HW111351   1.567   3.528   6.988
 3484SOL    HW211352   1.527   3.450   6.850
 3485SOL     OW11353   0.588   2.177   4.985
 3485SOL    HW111354   0.532   2.208   5.061
 3485SOL    HW211355   0.614   2.082   4.998
 3486SOL     OW11356   2.134   0.425   4.047
 3486SOL    HW111357   2.152   0.481   3.966
 3486SOL    HW211358   2.069   0.473   4.107
 3487SOL     OW11359   6.396   2.830   6.964
 3487SOL    HW111360   6.382   2.762   0.010
 3487SOL    HW211361   6.490   2.823   6.929
 3488SOL     OW11362   5.608   0.949   4.680
 3488SOL    HW111363   5.598   1.048   4.672
 3488SOL    HW211364   5.638   0.926   4.773
 3489SOL     OW11365   3.190   0.006   1.819
 3489SOL    HW111366   3.133   0.025   1.899
 3489SOL    HW211367   3.285   0.031   1.839
 3490SOL     OW11368   3.411   5.159   1.790
 3490SOL    HW111369   3.500   5.198   1.812
 3490SOL    HW211370   3.414   5.060   1.807
 3491SOL     OW11371   3.764   3.261   6.047
 3491SOL    HW111372   3.856   3.222   6.056
 3491SOL    HW211373   3.768   3.359   6.068
 3492SOL     OW11374   6.491   4.573   1.539
 3492SOL    HW111375   6.555   4.574   1.616
 3492SOL    HW211376   6.489   4.482   1.497
 3493SOL     OW11377   6.399   3.708   4.139
 3493SOL    HW111378   6.408   3.678   4.234
 3493SOL    HW211379   6.302   3.722   4.118
 3494SOL     OW11380   2.421   1.153   1.880
 3494SOL    HW111381   2.489   1.224   1.897
 3494SOL    HW211382   2.457   1.089   1.811
 3495SOL     OW11383   0.670   4.099   2.764
 3495SOL    HW111384   0.669   4.066   2.670
 3495SOL    HW211385   0.616   4.182   2.770
 3496SOL     OW11386   5.511   5.068   1.111
 3496SOL    HW111387   5.553   4.987   1.069
 3496SOL    HW211388   5.435   5.039   1.169
 3497SOL     OW11389   2.727   1.014   3.942
 3497SOL    HW111390   2.666   0.996   3.865
 3497SOL    HW211391   2.689   0.974   4.025
 3498SOL     OW11392   2.939   1.473   2.192
 3498SOL    HW111393   3.006   1.504   2.260
 3498SOL    HW211394   2.918   1.547   2.129
 3499SOL     OW11395   6.650   4.955   4.606
 3499SOL    HW111396   6.730   4.897   4.593
 3499SOL    HW211397   6.623   4.954   4.702
 3500SOL     OW11398   2.162   3.055   3.696
 3500SOL    HW111399   2.095   3.075   3.768
 3500SOL    HW211400   2.164   3.130   3.630
 3501SOL     OW11401   2.782   0.136   6.267
 3501SOL    HW111402   2.762   0.050   6.313
 3501SOL    HW211403   2.776   0.211   6.333
 3502SOL     OW11404   6.366   3.119   1.361
 3502SOL    HW111405   6.349   3.215   1.337
 3502SOL    HW211406   6.462   3.107   1.384
 3503SOL     OW11407   0.008   6.576   5.485
 3503SOL    HW111408   6.988   6.629   5.556
 3503SOL    HW211409   0.056   6.499   5.527
 3504SOL     OW11410   2.020   1.134   2.272
 3504SOL    HW111411   1.988   1.075   2.197
 3504SOL    HW211412   2.011   1.230   2.245
 3505SOL     OW11413   5.674   5.125   5.306
 3505SOL    HW111414   5.707   5.195   5.243
 3505SOL    HW211415   5.603   5.071   5.262
 3506SOL     OW11416   5.497   4.448   5.012
 3506SOL    HW111417   5.479   4.442   4.913
 3506SOL    HW211418   5.429   4.509   5.054
 3507SOL     OW11419   2.263   0.032   0.012
 3507SOL    HW111420   2.167   0.050   0.032
 3507SOL    HW211421   2.273   0.007   6.941
 3508SOL     OW11422   2.821   2.395   6.289
 3508SOL    HW111423   2.764   2.465   6.246
 3508SOL    HW211424   2.904   2.438   6.326
 3509SOL     OW11425   5.974   6.592   6.957
 3509SOL    HW111426   5.886   6.580   7.004
 3509SOL    HW211427   5.998   6.689   6.957
 3510SOL     OW11428   1.564   0.851   1.614
 3510SOL    HW111429   1.573   0.838   1.712
 3510SOL    HW211430   1.558   0.761   1.569
 3511SOL     OW11431   1.992   4.361   1.724
 3511SOL    HW111432   2.072   4.341   1.779
 3511SOL    HW211433   1.909   4.351   1.780
 3512SOL     OW11434   0.883   3.924   0.863
 3512SOL    HW111435   0.825   4.006   0.861
 3512SOL    HW211436   0.859   3.869   0.943
 3513SOL     OW11437   5.934   1.808   1.148
 3513SOL    HW111438   5.950   1.867   1.069
 3513SOL    HW211439   5.901   1.863   1.225
 3514SOL     OW11440   6.090   0.578   2.282
 3514SOL    HW111441   6.051   0.659   2.237
 3514SOL    HW211442   6.096   0.503   2.216
 3515SOL     OW11443   5.156   6.299   3.195
 3515SOL    HW111444   5.157   6.395   3.223
 3515SOL    HW211445   5.111   6.244   3.266
 3516SOL     OW11446   5.132   6.232   1.433
 3516SOL    HW111447   5.211   6.185   1.473
 3516SOL    HW211448   5.139   6.231   1.334
 3517SOL     OW11449   0.065   1.927   1.258
 3517SOL    HW111450   0.126   1.902   1.334
 3517SOL    HW211451   0.120   1.954   1.179
 3518SOL     OW11452   5.232   2.210   5.046
 3518SOL    HW111453   5.262   2.249   5.133
 3518SOL    HW211454   5.210   2.113   5.058
 3519SOL     OW11455   2.031   1.031   5.684
 3519SOL    HW111456   2.090   1.098   5.640
 3519SOL    HW211457   2.033   1.044   5.783
 3520SOL     OW11458   2.947   6.815   0.291
 3520SOL    HW111459   2.956   6.898   0.236
 3520SOL    HW211460   2.998   6.825   0.376
 3521SOL     OW11461   4.163   2.698   0.109
 3521SOL    HW111462   4.136   2.778   0.055
 3521SOL    HW211463   4.178   2.725   0.204
 3522SOL     OW11464   6.246   5.502   6.813
 3522SOL    HW111465   6.213   5.454   6.894
 3522SOL    HW211466   6.312   5.445   6.765
 3523SOL     OW11467   1.806   4.414   5.201
 3523SOL    HW111468   1.783   4.497   5.151
 3523SOL    HW211469   1.852   4.350   5.140
 3524SOL     OW11470   4.898   1.946   2.090
 3524SOL    HW111471   4.972   2.005   2.123
 3524SOL    HW211472   4.821   1.953   2.154
 3525SOL     OW11473   6.691   3.585   4.702
 3525SOL    HW111474   6.690   3.518   4.628
 3525SOL    HW211475   6.760   3.559   4.769
 3526SOL     OW11476   1.954   0.076   3.352
 3526SOL    HW111477   1.962   0.164   3.400
 3526SOL    HW211478   2.014   0.077   3.272
 3527SOL     OW11479   5.449   3.608   6.309
 3527SOL    HW111480   5.470   3.618   6.212
 3527SOL    HW211481   5.353   3.630   6.325
 3528SOL     OW11482   2.483   5.969   5.026
 3528SOL    HW111483   2.403   6.022   4.998
 3528SOL    HW211484   2.500   5.985   5.123
 3529SOL     OW11485   4.135   6.598   1.047
 3529SOL    HW111486   4.104   6.626   0.956
 3529SOL    HW211487   4.183   6.674   1.090
 3530SOL     OW11488   7.001   5.244   1.747
 3530SOL    HW111489   6.923   5.239   1.683
 3530SOL    HW211490   6.974   5.295   1.828
 3531SOL     OW11491   5.336   2.764   0.525
 3531SOL    HW111492   5.412   2.770   0.590
 3531SOL    HW211493   5.266   2.831   0.549
 3532SOL     OW11494   2.777   0.818   1.327
 3532SOL    HW111495   2.799   0.841   1.232
 3532SOL    HW211496   2.683   0.846   1.347
 3533SOL     OW11497   0.680   0.920   2.568
 3533SOL    HW111498   0.631   1.007   2.557
 3533SOL    HW211499   0.684   0.873   2.480
 3534SOL     OW11500   0.925   2.314   0.882
 3534SOL    HW111501   0.856   2.245   0.861
 3534SOL    HW211502   0.982   2.331   0.802
 3535SOL     OW11503   2.021   5.595   6.300
 3535SOL    HW111504   2.059   5.687   6.286
 3535SOL    HW211505   2.063   5.531   6.236
 3536SOL     OW11506   3.338   2.035   3.286
 3536SOL    HW111507   3.364   1.983   3.204
 3536SOL    HW211508   3.361   1.982   3.367
 3537SOL     OW11509   1.726   5.677   2.018
 3537SOL    HW111510   1.780   5.629   1.949
 3537SOL    HW211511   1.630   5.680   1.989
 3538SOL     OW11512   2.674   5.802   5.448
 3538SOL    HW111513   2.687   5.820   5.546
 3538SOL    HW211514   2.761   5.813   5.400
 3539SOL     OW11515   3.212   3.398   4.728
 3539SOL    HW111516   3.259   3.368   4.645
 3539SOL    HW211517   3.151   3.324   4.760
 3540SOL     OW11518   2.081   2.515   4.706
 3540SOL    HW111519   2.027   2.518   4.622
 3540SOL    HW211520   2.056   2.434   4.759
 3541SOL     OW11521   2.903   2.386   5.748
 3541SOL    HW111522   2.848   2.303   5.761
 3541SOL    HW211523   2.969   2.371   5.675
 3542SOL     OW11524   1.563   4.921   2.800
 3542SOL    HW111525   1.625   4.893   2.874
 3542SOL    HW211526   1.615   4.927   2.715
 3543SOL     OW11527   6.465   2.520   3.849
 3543SOL    HW111528   6.505   2.494   3.761
 3543SOL    HW211529   6.394   2.589   3.834
 3544SOL     OW11530   1.930   4.380   6.586
 3544SOL    HW111531   1.840   4.363   6.627
 3544SOL    HW211532   1.952   4.477   6.592
 3545SOL     OW11533   3.776   6.303   6.860
 3545SOL    HW111534   3.821   6.363   6.926
 3545SOL    HW211535   3.711   6.357   6.806
 3546SOL     OW11536   0.574   4.482   3.152
 3546SOL    HW111537   0.506   4.508   3.221
 3546SOL    HW211538   0.583   4.383   3.150
 3547SOL     OW11539   4.823   4.393   3.974
 3547SOL    HW111540   4.795   4.460   3.906
 3547SOL    HW211541   4.878   4.438   4.044
 3548SOL     OW11542   5.389   1.694   6.139
 3548SOL    HW111543   5.311   1.693   6.202
 3548SOL    HW211544   5.468   1.735   6.183
 3549SOL     OW11545   6.970   4.722   4.616
 3549SOL    HW111546   6.952   4.731   4.714
 3549SOL    HW211547   6.967   4.625   4.590
 3550SOL     OW11548   5.168   3.131   2.235
 3550SOL    HW111549   5.072   3.158   2.239
 3550SOL    HW211550   5.197   3.120   2.140
 3551SOL     OW11551   3.875   6.179   2.803
 3551SOL    HW111552   3.840   6.133   2.884
 3551SOL    HW211553   3.938   6.117   2.754
 3552SOL     OW11554   5.132   5.814   2.292
 3552SOL    HW111555   5.161   5.855   2.206
 3552SOL    HW211556   5.044   5.768   2.279
 3553SOL     OW11557   5.969   3.001   1.342
 3553SOL    HW111558   5.957   3.097   1.314
 3553SOL    HW211559   5.882   2.953   1.332
 3554SOL     OW11560   3.446   3.336   1.052
 3554SOL    HW111561   3.500   3.322   0.969
 3554SOL    HW211562   3.504   3.320   1.132
 3555SOL     OW11563   1.006   3.274   3.010
 3555SOL    HW111564   1.102   3.296   2.998
 3555SOL    HW211565   0.971   3.319   3.093
 3556SOL     OW11566   3.885   0.969   5.038
 3556SOL    HW111567   3.885   0.917   5.124
 3556SOL    HW211568   3.843   0.914   4.966
 3557SOL     OW11569   0.744   0.849   3.678
 3557SOL    HW111570   0.836   0.851   3.639
 3557SOL    HW211571   0.694   0.931   3.649
 3558SOL     OW11572   0.298   6.063   1.526
 3558SOL    HW111573   0.328   5.989   1.586
 3558SOL    HW211574   0.232   6.121   1.573
 3559SOL     OW11575   0.058   0.106   4.549
 3559SOL    HW111576   7.025   0.178   4.513
 3559SOL    HW211577   0.153   0.136   4.546
 3560SOL     OW11578   1.604   5.326   0.808
 3560SOL    HW111579   1.617   5.316   0.710
 3560SOL    HW211580   1.635   5.416   0.838
 3561SOL     OW11581   4.241   5.095   5.712
 3561SOL    HW111582   4.189   5.126   5.632
 3561SOL    HW211583   4.339   5.096   5.690
 3562SOL     OW11584   4.505   1.109   4.185
 3562SOL    HW111585   4.594   1.148   4.207
 3562SOL    HW211586   4.458   1.084   4.270
 3563SOL     OW11587   5.452   1.069   1.620
 3563SOL    HW111588   5.497   1.117   1.696
 3563SOL    HW211589   5.515   1.065   1.542
 3564SOL     OW11590   1.515   4.383   4.260
 3564SOL    HW111591   1.611   4.402   4.237
 3564SOL    HW211592   1.508   4.290   4.297
 3565SOL     OW11593   3.675   6.815   4.583
 3565SOL    HW111594   3.677   6.818   4.483
 3565SOL    HW211595   3.598   6.760   4.613
 3566SOL     OW11596   0.091   2.969   6.208
 3566SOL    HW111597   0.008   2.973   6.264
 3566SOL    HW211598   0.161   3.029   6.248
 3567SOL     OW11599   1.228   2.412   0.056
 3567SOL    HW111600   1.176   2.385   0.137
 3567SOL    HW211601   1.276   2.332   0.019
 3568SOL     OW11602   5.389   5.008   3.009
 3568SOL    HW111603   5.352   4.987   3.099
 3568SOL    HW211604   5.359   4.939   2.943
 3569SOL     OW11605   2.922   2.950   5.461
 3569SOL    HW111606   2.972   3.021   5.412
 3569SOL    HW211607   2.985   2.877   5.488
 3570SOL     OW11608   5.278   0.383   5.324
 3570SOL    HW111609   5.374   0.391   5.350
 3570SOL    HW211610   5.240   0.299   5.363
 3571SOL     OW11611   1.271   0.749   4.937
 3571SOL    HW111612   1.262   0.749   4.837
 3571SOL    HW211613   1.354   0.699   4.963
 3572SOL     OW11614   5.197   3.352   2.705
 3572SOL    HW111615   5.215   3.395   2.793
 3572SOL    HW211616   5.226   3.257   2.708
 3573SOL     OW11617   6.371   4.218   2.320
 3573SOL    HW111618   6.449   4.222   2.258
 3573SOL    HW211619   6.305   4.289   2.294
 3574SOL     OW11620   2.048   3.463   6.919
 3574SOL    HW111621   2.092   3.428   6.836
 3574SOL    HW211622   1.997   3.546   6.898
 3575SOL     OW11623   5.244   5.565   1.478
 3575SOL    HW111624   5.154   5.573   1.522
 3575SOL    HW211625   5.236   5.591   1.382
 3576SOL     OW11626   0.137   2.332   0.168
 3576SOL    HW111627   0.140   2.253   0.107
 3576SOL    HW211628   0.042   2.356   0.188
 3577SOL     OW11629   2.182   3.147   5.490
 3577SOL    HW111630   2.245   3.169   5.416
 3577SOL    HW211631   2.228   3.090   5.558
 3578SOL     OW11632   4.078   2.897   0.996
 3578SOL    HW111633   4.163   2.940   0.963
 3578SOL    HW211634   4.078   2.895   1.096
 3579SOL     OW11635   6.964   3.214   3.242
 3579SOL    HW111636   6.897   3.269   3.193
 3579SOL    HW211637   6.957   3.119   3.211
 3580SOL     OW11638   6.676   3.794   1.273
 3580SOL    HW111639   6.591   3.825   1.314
 3580SOL    HW211640   6.659   3.769   1.177
 3581SOL     OW11641   1.248   6.806   3.055
 3581SOL    HW111642   1.279   6.869   2.983
 3581SOL    HW211643   1.243   6.714   3.018
 3582SOL     OW11644   3.503   5.429   5.419
 3582SOL    HW111645   3.580   5.397   5.365
 3582SOL    HW211646   3.536   5.466   5.506
 3583SOL     OW11647   1.133   4.364   0.294
 3583SOL    HW111648   1.066   4.369   0.368
 3583SOL    HW211649   1.131   4.448   0.241
 3584SOL     OW11650   6.074   4.981   5.425
 3584SOL    HW111651   6.163   4.970   5.471
 3584SOL    HW211652   6.026   5.058   5.465
 3585SOL     OW11653   3.404   2.100   4.737
 3585SOL    HW111654   3.319   2.069   4.695
 3585SOL    HW211655   3.386   2.127   4.832
 3586SOL     OW11656   6.390   2.837   4.335
 3586SOL    HW111657   6.366   2.760   4.394
 3586SOL    HW211658   6.372   2.923   4.384
 3587SOL     OW11659   3.391   5.895   6.515
 3587SOL    HW111660   3.311   5.850   6.556
 3587SOL    HW211661   3.405   5.860   6.422
 3588SOL     OW11662   6.617   4.472   4.125
 3588SOL    HW111663   6.697   4.489   4.184
 3588SOL    HW211664   6.565   4.556   4.114
 3589SOL     OW11665   6.693   7.008   6.004
 3589SOL    HW111666   6.649   7.004   5.915
 3589SOL    HW211667   6.792   7.002   5.993
 3590SOL     OW11668   0.122   4.130   0.799
 3590SOL    HW111669   0.073   4.211   0.768
 3590SOL    HW211670   0.220   4.146   0.794
 3591SOL     OW11671   5.561   2.842   0.395
 3591SOL    HW111672   5.539   2.907   0.322
 3591SOL    HW211673   5.475   2.806   0.433
 3592SOL     OW11674   0.493   0.329   2.377
 3592SOL    HW111675   0.559   0.339   2.451
 3592SOL    HW211676   0.519   0.387   2.300
 3593SOL     OW11677   0.238   4.660   5.831
 3593SOL    HW111678   0.322   4.663   5.777
 3593SOL    HW211679   0.190   4.747   5.821
 3594SOL     OW11680   4.453   6.985   4.926
 3594SOL    HW111681   4.410   6.966   5.014
 3594SOL    HW211682   4.550   7.004   4.940
 3595SOL     OW11683   6.285   6.270   0.162
 3595SOL    HW111684   6.191   6.301   0.176
 3595SOL    HW211685   6.285   6.186   0.108
 3596SOL     OW11686   4.466   2.201   3.191
 3596SOL    HW111687   4.447   2.241   3.280
 3596SOL    HW211688   4.493   2.105   3.202
 3597SOL     OW11689   1.627   3.465   5.707
 3597SOL    HW111690   1.599   3.382   5.659
 3597SOL    HW211691   1.546   3.521   5.726
 3598SOL     OW11692   1.808   6.308   5.417
 3598SOL    HW111693   1.904   6.337   5.419
 3598SOL    HW211694   1.772   6.305   5.510
 3599SOL     OW11695   4.739   1.853   5.961
 3599SOL    HW111696   4.764   1.948   5.943
 3599SOL    HW211697   4.695   1.815   5.879
 3600SOL     OW11698   2.053   3.688   1.174
 3600SOL    HW111699   2.046   3.786   1.190
 3600SOL    HW211700   1.966   3.653   1.139
 3601SOL     OW11701   5.189   1.790   5.339
 3601SOL    HW111702   5.273   1.822   5.384
 3601SOL    HW211703   5.149   1.716   5.394
 3602SOL     OW11704   2.288   2.600   1.711
 3602SOL    HW111705   2.291   2.504   1.740
 3602SOL    HW211706   2.257   2.605   1.616
 3603SOL     OW11707   3.415   0.975   6.222
 3603SOL    HW111708   3.458   1.066   6.221
 3603SOL    HW211709   3.446   0.923   6.142
 3604SOL     OW11710   6.547   0.674   3.273
 3604SOL    HW111711   6.612   0.734   3.225
 3604SOL    HW211712   6.597   0.600   3.318
 3605SOL     OW11713   1.592   5.222   3.810
 3605SOL    HW111714   1.576   5.143   3.869
 3605SOL    HW211715   1.686   5.253   3.819
 3606SOL     OW11716   1.829   6.312   1.768
 3606SOL    HW111717   1.802   6.281   1.676
 3606SOL    HW211718   1.750   6.306   1.829
 3607SOL     OW11719   5.088   2.908   2.745
 3607SOL    HW111720   5.059   2.822   2.702
 3607SOL    HW211721   5.009   2.953   2.786
 3608SOL     OW11722   5.056   2.173   4.175
 3608SOL    HW111723   5.082   2.258   4.221
 3608SOL    HW211724   5.060   2.097   4.240
 3609SOL     OW11725   2.304   6.536   4.518
 3609SOL    HW111726   2.350   6.481   4.588
 3609SOL    HW211727   2.299   6.631   4.549
 3610SOL     OW11728   2.208   0.487   5.750
 3610SOL    HW111729   2.256   0.571   5.775
 3610SOL    HW211730   2.162   0.499   5.662
 3611SOL     OW11731   4.575   4.546   4.339
 3611SOL    HW111732   4.486   4.587   4.322
 3611SOL    HW211733   4.593   4.475   4.271
 3612SOL     OW11734   6.679   1.399   6.585
 3612SOL    HW111735   6.589   1.434   6.613
 3612SOL    HW211736   6.749   1.466   6.608
 3613SOL     OW11737   4.723   5.055   1.855
 3613SOL    HW111738   4.725   4.981   1.788
 3613SOL    HW211739   4.793   5.038   1.925
 3614SOL     OW11740   3.370   3.650   6.784
 3614SOL    HW111741   3.280   3.611   6.804
 3614SOL    HW211742   3.364   3.749   6.782
 3615SOL     OW11743   5.701   3.205   5.758
 3615SOL    HW111744   5.602   3.210   5.760
 3615SOL    HW211745   5.740   3.295   5.740
 3616SOL     OW11746   1.682   2.266   5.978
 3616SOL    HW111747   1.718   2.319   5.901
 3616SOL    HW211748   1.608   2.206   5.947
 3617SOL     OW11749   4.385   6.489   5.489
 3617SOL    HW111750   4.396   6.435   5.406
 3617SOL    HW211751   4.373   6.428   5.568
 3618SOL     OW11752   2.148   3.806   5.086
 3618SOL    HW111753   2.193   3.887   5.049
 3618SOL    HW211754   2.210   3.759   5.148
 3619SOL     OW11755   5.523   3.432   0.860
 3619SOL    HW111756   5.600   3.371   0.878
 3619SOL    HW211757   5.516   3.501   0.932
 3620SOL     OW11758   6.354   5.994   4.381
 3620SOL    HW111759   6.267   5.978   4.335
 3620SOL    HW211760   6.338   6.042   4.467
 3621SOL     OW11761   3.801   3.282   3.954
 3621SOL    HW111762   3.742   3.363   3.960
 3621SOL    HW211763   3.885   3.299   4.006
 3622SOL     OW11764   0.856   0.545   1.201
 3622SOL    HW111765   0.839   0.489   1.120
 3622SOL    HW211766   0.772   0.552   1.254
 3623SOL     OW11767   0.613   5.455   5.546
 3623SOL    HW111768   0.636   5.549   5.571
 3623SOL    HW211769   0.681   5.393   5.585
 3624SOL     OW11770   1.827   0.330   1.727
 3624SOL    HW111771   1.802   0.285   1.641
 3624SOL    HW211772   1.853   0.425   1.709
 3625SOL     OW11773   0.022   2.966   6.976
 3625SOL    HW111774   0.117   2.970   6.945
 3625SOL    HW211775   6.989   2.935   6.900
 3626SOL     OW11776   0.288   3.891   4.513
 3626SOL    HW111777   0.240   3.862   4.596
 3626SOL    HW211778   0.326   3.811   4.466
 3627SOL     OW11779   4.485   2.903   1.420
 3627SOL    HW111780   4.411   2.857   1.470
 3627SOL    HW211781   4.523   2.976   1.477
 3628SOL     OW11782   1.281   1.938   1.934
 3628SOL    HW111783   1.258   1.848   1.897
 3628SOL    HW211784   1.377   1.937   1.964
 3629SOL     OW11785   1.373   0.666   3.791
 3629SOL    HW111786   1.355   0.700   3.698
 3629SOL    HW211787   1.285   0.651   3.838
 3630SOL     OW11788   6.888   2.415   2.738
 3630SOL    HW111789   6.882   2.507   2.699
 3630SOL    HW211790   6.930   2.353   2.672
 3631SOL     OW11791   2.147   6.917   3.091
 3631SOL    HW111792   2.226   6.862   3.118
 3631SOL    HW211793   2.164   7.013   3.114
 3632SOL     OW11794   4.349   3.664   0.898
 3632SOL    HW111795   4.408   3.593   0.859
 3632SOL    HW211796   4.310   3.631   0.985
 3633SOL     OW11797   3.407   2.760   5.604
 3633SOL    HW111798   3.488   2.749   5.547
 3633SOL    HW211799   3.365   2.671   5.622
 3634SOL     OW11800   2.601   6.275   5.935
 3634SOL    HW111801   2.509   6.312   5.944
 3634SOL    HW211802   2.596   6.181   5.901
 3635SOL     OW11803   2.635   1.148   1.561
 3635SOL    HW111804   2.639   1.091   1.644
 3635SOL    HW211805   2.707   1.119   1.498
 3636SOL     OW11806   6.722   5.223   0.596
 3636SOL    HW111807   6.696   5.246   0.689
 3636SOL    HW211808   6.817   5.192   0.594
 3637SOL     OW11809   0.683   3.240   6.995
 3637SOL    HW111810   0.584   3.247   6.979
 3637SOL    HW211811   0.731   3.292   6.924
 3638SOL     OW11812   6.656   3.598   2.771
 3638SOL    HW111813   6.602   3.657   2.711
 3638SOL    HW211814   6.745   3.641   2.789
 3639SOL     OW11815   3.891   3.998   4.966
 3639SOL    HW111816   3.971   3.956   4.924
 3639SOL    HW211817   3.831   3.927   5.002
 3640SOL     OW11818   5.455   3.030   0.256
 3640SOL    HW111819   5.356   3.041   0.246
 3640SOL    HW211820   5.496   3.012   0.167
 3641SOL     OW11821   6.061   3.750   1.134
 3641SOL    HW111822   6.013   3.791   1.057
 3641SOL    HW211823   5.997   3.736   1.210
 3642SOL     OW11824   5.630   2.308   6.476
 3642SOL    HW111825   5.548   2.351   6.513
 3642SOL    HW211826   5.710   2.361   6.504
 3643SOL     OW11827   3.999   6.486   6.539
 3643SOL    HW111828   3.931   6.417   6.563
 3643SOL    HW211829   3.957   6.554   6.479
 3644SOL     OW11830   2.271   0.695   1.943
 3644SOL    HW111831   2.334   0.700   2.020
 3644SOL    HW211832   2.178   0.715   1.974
 3645SOL     OW11833   1.336   3.578   4.133
 3645SOL    HW111834   1.239   3.558   4.148
 3645SOL    HW211835   1.364   3.653   4.192
 3646SOL     OW11836   2.762   4.765   4.771
 3646SOL    HW111837   2.781   4.737   4.865
 3646SOL    HW211838   2.698   4.700   4.729
 3647SOL     OW11839   2.132   6.783   6.958
 3647SOL    HW111840   2.200   6.716   6.986
 3647SOL    HW211841   2.168   6.838   6.882
 3648SOL     OW11842   4.886   5.760   3.469
 3648SOL    HW111843   4.903   5.739   3.372
 3648SOL    HW211844   4.974   5.767   3.517
 3649SOL     OW11845   5.709   3.321   6.878
 3649SOL    HW111846   5.792   3.376   6.871
 3649SOL    HW211847   5.636   3.376   6.919
 3650SOL     OW11848   4.695   4.247   0.718
 3650SOL    HW111849   4.693   4.323   0.653
 3650SOL    HW211850   4.604   4.206   0.725
 3651SOL     OW11851   1.776   2.390   5.500
 3651SOL    HW111852   1.826   2.374   5.415
 3651SOL    HW211853   1.686   2.429   5.479
 3652SOL     OW11854   5.399   0.913   2.483
 3652SOL    HW111855   5.470   0.951   2.424
 3652SOL    HW211856   5.409   0.814   2.489
 3653SOL     OW11857   0.829   0.844   2.172
 3653SOL    HW111858   0.787   0.802   2.253
 3653SOL    HW211859   0.859   0.773   2.109
 3654SOL     OW11860   4.963   5.948   1.203
 3654SOL    HW111861   4.986   5.953   1.300
 3654SOL    HW211862   5.030   5.891   1.156
 3655SOL     OW11863   3.015   1.448   4.408
 3655SOL    HW111864   3.011   1.425   4.505
 3655SOL    HW211865   3.029   1.365   4.354
 3656SOL     OW11866   1.069   5.566   2.397
 3656SOL    HW111867   1.072   5.485   2.455
 3656SOL    HW211868   0.974   5.582   2.369
 3657SOL     OW11869   4.943   6.156   5.501
 3657SOL    HW111870   4.922   6.252   5.519
 3657SOL    HW211871   4.907   6.131   5.411
 3658SOL     OW11872   1.469   5.809   6.863
 3658SOL    HW111873   1.541   5.807   6.932
 3658SOL    HW211874   1.492   5.746   6.789
 3659SOL     OW11875   0.177   1.627   6.192
 3659SOL    HW111876   0.218   1.657   6.279
 3659SOL    HW211877   0.089   1.583   6.211
 3660SOL     OW11878   5.568   5.829   5.705
 3660SOL    HW111879   5.472   5.821   5.679
 3660SOL    HW211880   5.625   5.778   5.640
 3661SOL     OW11881   6.967   1.079   4.514
 3661SOL    HW111882   6.994   1.099   4.420
 3661SOL    HW211883   0.004   1.125   4.577
 3662SOL     OW11884   3.737   0.710   5.863
 3662SOL    HW111885   3.793   0.793   5.861
 3662SOL    HW211886   3.641   0.735   5.868
 3663SOL     OW11887   2.253   2.908   0.211
 3663SOL    HW111888   2.256   3.007   0.196
 3663SOL    HW211889   2.177   2.885   0.272
 3664SOL     OW11890   4.502   1.577   2.301
 3664SOL    HW111891   4.507   1.669   2.262
 3664SOL    HW211892   4.485   1.511   2.228
 3665SOL     OW11893   0.374   6.538   5.552
 3665SOL    HW111894   0.421   6.625   5.535
 3665SOL    HW211895   0.321   6.513   5.472
 3666SOL     OW11896   1.748   2.403   3.540
 3666SOL    HW111897   1.673   2.378   3.601
 3666SOL    HW211898   1.726   2.488   3.493
 3667SOL     OW11899   1.517   1.691   2.847
 3667SOL    HW111900   1.434   1.655   2.804
 3667SOL    HW211901   1.567   1.747   2.781
 3668SOL     OW11902   1.189   0.129   1.778
 3668SOL    HW111903   1.203   0.158   1.684
 3668SOL    HW211904   1.245   0.048   1.797
 3669SOL     OW11905   6.253   2.240   4.167
 3669SOL    HW111906   6.283   2.238   4.071
 3669SOL    HW211907   6.326   2.276   4.224
 3670SOL     OW11908   3.794   5.406   1.625
 3670SOL    HW111909   3.740   5.363   1.553
 3670SOL    HW211910   3.802   5.504   1.606
 3671SOL     OW11911   6.743   0.526   3.378
 3671SOL    HW111912   6.818   0.496   3.319
 3671SOL    HW211913   6.764   0.502   3.473
 3672SOL     OW11914   5.070   0.878   2.561
 3672SOL    HW111915   5.054   0.975   2.579
 3672SOL    HW211916   5.073   0.828   2.648
 3673SOL     OW11917   5.044   6.107   0.269
 3673SOL    HW111918   4.952   6.137   0.294
 3673SOL    HW211919   5.064   6.137   0.175
 3674SOL     OW11920   2.022   5.897   5.811
 3674SOL    HW111921   1.937   5.912   5.760
 3674SOL    HW211922   2.007   5.828   5.881
 3675SOL     OW11923   0.425   2.010   3.952
 3675SOL    HW111924   0.371   2.094   3.949
 3675SOL    HW211925   0.474   1.999   3.865
 3676SOL     OW11926   4.959   2.577   2.844
 3676SOL    HW111927   4.940   2.662   2.796
 3676SOL    HW211928   4.966   2.502   2.778
 3677SOL     OW11929   1.773   0.932   4.338
 3677SOL    HW111930   1.807   0.854   4.391
 3677SOL    HW211931   1.778   0.911   4.241
 3678SOL     OW11932   1.295   0.150   3.593
 3678SOL    HW111933   1.232   0.096   3.649
 3678SOL    HW211934   1.372   0.180   3.648
 3679SOL     OW11935   5.270   0.434   2.867
 3679SOL    HW111936   5.257   0.349   2.816
 3679SOL    HW211937   5.296   0.412   2.961
 3680SOL     OW11938   4.722   1.664   3.029
 3680SOL    HW111939   4.733   1.709   3.118
 3680SOL    HW211940   4.804   1.680   2.974
 3681SOL     OW11941   1.506   0.541   4.985
 3681SOL    HW111942   1.554   0.597   5.053
 3681SOL    HW211943   1.567   0.523   4.908
 3682SOL     OW11944   5.293   2.625   0.880
 3682SOL    HW111945   5.268   2.600   0.973
 3682SOL    HW211946   5.211   2.628   0.823
 3683SOL     OW11947   0.298   0.464   4.603
 3683SOL    HW111948   0.349   0.379   4.597
 3683SOL    HW211949   0.280   0.486   4.699
 3684SOL     OW11950   1.911   6.534   5.644
 3684SOL    HW111951   1.970   6.458   5.671
 3684SOL    HW211952   1.866   6.512   5.558
 3685SOL     OW11953   2.514   5.993   5.300
 3685SOL    HW111954   2.469   6.055   5.365
 3685SOL    HW211955   2.574   5.930   5.350
 3686SOL     OW11956   6.489   3.455   3.552
 3686SOL    HW111957   6.562   3.399   3.512
 3686SOL    HW211958   6.406   3.400   3.559
 3687SOL     OW11959   4.722   5.998   3.503
 3687SOL    HW111960   4.731   6.029   3.598
 3687SOL    HW211961   4.769   5.911   3.492
 3688SOL     OW11962   6.006   3.134   0.125
 3688SOL    HW111963   6.028   3.049   0.077
 3688SOL    HW211964   5.909   3.132   0.151
 3689SOL     OW11965   2.433   1.775   5.011
 3689SOL    HW111966   2.526   1.747   5.034
 3689SOL    HW211967   2.392   1.707   4.950
 3690SOL     OW11968   5.266   5.386   1.059
 3690SOL    HW111969   5.286   5.483   1.047
 3690SOL    HW211970   5.351   5.336   1.074
 3691SOL     OW11971   2.765   1.862   6.488
 3691SOL    HW111972   2.763   1.879   6.390
 3691SOL    HW211973   2.673   1.870   6.526
 3692SOL     OW11974   0.050   3.941   6.011
 3692SOL    HW111975   0.077   3.866   6.071
 3692SOL    HW211976   0.081   4.028   6.051
 3693SOL     OW11977   0.614   1.877   2.717
 3693SOL    HW111978   0.594   1.840   2.626
 3693SOL    HW211979   0.549   1.838   2.783
 3694SOL     OW11980   0.969   0.903   1.631
 3694SOL    HW111981   0.955   0.994   1.669
 3694SOL    HW211982   0.901   0.840   1.668
 3695SOL     OW11983   6.628   2.530   2.492
 3695SOL    HW111984   6.671   2.568   2.573
 3695SOL    HW211985   6.673   2.444   2.467
 3696SOL     OW11986   4.881   0.789   4.731
 3696SOL    HW111987   4.792   0.795   4.777
 3696SOL    HW211988   4.939   0.865   4.762
 3697SOL     OW11989   6.564   6.175   3.441
 3697SOL    HW111990   6.662   6.187   3.431
 3697SOL    HW211991   6.539   6.185   3.537
 3698SOL     OW11992   1.615   0.592   3.469
 3698SOL    HW111993   1.610   0.680   3.515
 3698SOL    HW211994   1.574   0.521   3.527
 3699SOL     OW11995   2.853   2.026   4.208
 3699SOL    HW111996   2.764   2.063   4.180
 3699SOL    HW211997   2.920   2.041   4.136
 3700SOL     OW11998   1.865   5.085   4.803
 3700SOL    HW111999   1.804   5.150   4.759
 3700SOL    HW212000   1.917   5.131   4.875
 3701SOL     OW12001   0.920   6.575   2.767
 3701SOL    HW112002   0.973   6.506   2.819
 3701SOL    HW212003   0.981   6.650   2.741
 3702SOL     OW12004   5.677   5.539   3.962
 3702SOL    HW112005   5.657   5.558   3.866
 3702SOL    HW212006   5.746   5.466   3.968
 3703SOL     OW12007   1.140   1.287   5.930
 3703SOL    HW112008   1.079   1.238   5.868
 3703SOL    HW212009   1.214   1.225   5.959
 3704SOL     OW12010   6.069   2.673   1.019
 3704SOL    HW112011   6.020   2.757   1.042
 3704SOL    HW212012   6.168   2.688   1.030
 3705SOL     OW12013   5.002   4.859   3.760
 3705SOL    HW112014   5.024   4.762   3.754
 3705SOL    HW212015   4.962   4.879   3.850
 3706SOL     OW12016   1.016   3.721   0.735
 3706SOL    HW112017   0.968   3.807   0.752
 3706SOL    HW212018   1.018   3.703   0.636
 3707SOL     OW12019   2.866   4.768   3.756
 3707SOL    HW112020   2.963   4.745   3.752
 3707SOL    HW212021   2.844   4.808   3.845
 3708SOL     OW12022   3.400   6.750   1.435
 3708SOL    HW112023   3.440   6.698   1.360
 3708SOL    HW212024   3.415   6.847   1.421
 3709SOL     OW12025   1.901   0.426   2.088
 3709SOL    HW112026   1.836   0.351   2.075
 3709SOL    HW212027   1.852   0.508   2.118
 3710SOL     OW12028   0.515   5.137   5.531
 3710SOL    HW112029   0.580   5.174   5.463
 3710SOL    HW212030   0.532   5.180   5.620
 3711SOL     OW12031   1.756   6.009   5.061
 3711SOL    HW112032   1.820   5.991   4.987
 3711SOL    HW212033   1.804   6.007   5.149
 3712SOL     OW12034   2.317   5.639   5.611
 3712SOL    HW112035   2.283   5.672   5.522
 3712SOL    HW212036   2.409   5.602   5.599
 3713SOL     OW12037   6.811   6.532   4.482
 3713SOL    HW112038   6.731   6.518   4.541
 3713SOL    HW212039   6.874   6.456   4.493
 3714SOL     OW12040   1.168   4.793   0.278
 3714SOL    HW112041   1.090   4.798   0.340
 3714SOL    HW212042   1.253   4.793   0.331
 3715SOL     OW12043   6.964   6.133   3.675
 3715SOL    HW112044   6.890   6.124   3.742
 3715SOL    HW212045   0.013   6.072   3.701
 3716SOL     OW12046   6.350   5.651   3.983
 3716SOL    HW112047   6.268   5.707   3.991
 3716SOL    HW212048   6.362   5.622   3.888
 3717SOL     OW12049   4.662   1.219   1.099
 3717SOL    HW112050   4.605   1.139   1.117
 3717SOL    HW212051   4.604   1.299   1.082
 3718SOL     OW12052   0.076   6.634   6.473
 3718SOL    HW112053   0.037   6.582   6.549
 3718SOL    HW212054   0.088   6.574   6.394
 3719SOL     OW12055   4.176   3.474   6.435
 3719SOL    HW112056   4.091   3.505   6.476
 3719SOL    HW212057   4.169   3.478   6.335
 3720SOL     OW12058   6.503   3.403   0.946
 3720SOL    HW112059   6.454   3.464   1.008
 3720SOL    HW212060   6.562   3.456   0.886
 3721SOL     OW12061   6.167   5.303   6.984
 3721SOL    HW112062   6.243   5.248   7.019
 3721SOL    HW212063   6.095   5.242   6.950
 3722SOL     OW12064   3.978   0.013   2.234
 3722SOL    HW112065   3.935   6.990   2.158
 3722SOL    HW212066   3.953   0.109   2.230
 3723SOL     OW12067   4.273   5.307   0.251
 3723SOL    HW112068   4.281   5.402   0.282
 3723SOL    HW212069   4.364   5.266   0.246
 3724SOL     OW12070   1.566   4.878   5.499
 3724SOL    HW112071   1.580   4.812   5.573
 3724SOL    HW212072   1.655   4.912   5.468
 3725SOL     OW12073   0.309   6.177   0.120
 3725SOL    HW112074   0.267   6.155   0.208
 3725SOL    HW212075   0.286   6.271   0.095
 3726SOL     OW12076   5.249   4.169   4.106
 3726SOL    HW112077   5.337   4.169   4.154
 3726SOL    HW212078   5.230   4.261   4.070
 3727SOL     OW12079   0.234   2.787   4.105
 3727SOL    HW112080   0.224   2.821   4.199
 3727SOL    HW212081   0.163   2.719   4.087
 3728SOL     OW12082   3.505   3.555   0.753
 3728SOL    HW112083   3.460   3.619   0.691
 3728SOL    HW212084   3.463   3.561   0.844
 3729SOL     OW12085   0.352   0.386   5.626
 3729SOL    HW112086   0.333   0.484   5.616
 3729SOL    HW212087   0.434   0.362   5.573
 3730SOL     OW12088   4.318   6.548   6.037
 3730SOL    HW112089   4.245   6.488   6.069
 3730SOL    HW212090   4.391   6.552   6.106
 3731SOL     OW12091   0.283   1.722   6.430
 3731SOL    HW112092   0.381   1.705   6.431
 3731SOL    HW212093   0.246   1.711   6.522
 3732SOL     OW12094   2.347   1.304   0.470
 3732SOL    HW112095   2.354   1.388   0.416
 3732SOL    HW212096   2.392   1.229   0.421
 3733SOL     OW12097   1.931   2.743   3.896
 3733SOL    HW112098   1.887   2.716   3.811
 3733SOL    HW212099   2.016   2.691   3.908
 3734SOL     OW12100   4.002   0.255   1.687
 3734SOL    HW112101   4.071   0.302   1.741
 3734SOL    HW212102   3.921   0.313   1.679
 3735SOL     OW12103   4.097   6.758   2.456
 3735SOL    HW112104   4.003   6.760   2.489
 3735SOL    HW212105   4.148   6.835   2.496
 3736SOL     OW12106   6.420   1.101   1.259
 3736SOL    HW112107   6.366   1.030   1.212
 3736SOL    HW212108   6.423   1.081   1.357
 3737SOL     OW12109   6.800   2.317   3.252
 3737SOL    HW112110   6.748   2.255   3.192
 3737SOL    HW212111   6.765   2.310   3.345
 3738SOL     OW12112   6.638   6.009   0.824
 3738SOL    HW112113   6.635   6.108   0.809
 3738SOL    HW212114   6.584   5.986   0.906
 3739SOL     OW12115   3.263   4.989   1.978
 3739SOL    HW112116   3.206   5.066   1.948
 3739SOL    HW212117   3.213   4.904   1.962
 3740SOL     OW12118   5.954   5.744   6.553
 3740SOL    HW112119   5.984   5.775   6.463
 3740SOL    HW212120   5.983   5.649   6.567
 3741SOL     OW12121   5.185   2.573   0.109
 3741SOL    HW112122   5.101   2.612   0.148
 3741SOL    HW212123   5.261   2.590   0.171
 3742SOL     OW12124   4.339   5.570   0.297
 3742SOL    HW112125   4.269   5.626   0.342
 3742SOL    HW212126   4.428   5.588   0.339
 3743SOL     OW12127   4.305   3.930   1.170
 3743SOL    HW112128   4.244   4.009   1.177
 3743SOL    HW212129   4.389   3.956   1.122
 3744SOL     OW12130   1.108   6.388   1.840
 3744SOL    HW112131   1.125   6.418   1.934
 3744SOL    HW212132   1.048   6.453   1.794
 3745SOL     OW12133   4.929   3.516   2.385
 3745SOL    HW112134   5.014   3.521   2.333
 3745SOL    HW212135   4.852   3.539   2.326
 3746SOL     OW12136   6.513   0.163   3.712
 3746SOL    HW112137   6.478   0.257   3.704
 3746SOL    HW212138   6.437   0.100   3.727
 3747SOL     OW12139   4.503   6.563   6.282
 3747SOL    HW112140   4.431   6.539   6.347
 3747SOL    HW212141   4.577   6.496   6.288
 3748SOL     OW12142   5.729   0.960   2.577
 3748SOL    HW112143   5.705   0.999   2.666
 3748SOL    HW212144   5.792   0.883   2.591
 3749SOL     OW12145   0.905   5.084   2.833
 3749SOL    HW112146   0.894   5.122   2.925
 3749SOL    HW212147   0.897   5.158   2.766
 3750SOL     OW12148   5.794   4.133   0.325
 3750SOL    HW112149   5.747   4.221   0.329
 3750SOL    HW212150   5.743   4.066   0.379
 3751SOL     OW12151   1.868   3.355   1.036
 3751SOL    HW112152   1.820   3.287   1.092
 3751SOL    HW212153   1.849   3.338   0.939
 3752SOL     OW12154   0.099   6.944   6.829
 3752SOL    HW112155   0.017   6.894   6.801
 3752SOL    HW212156   0.091   6.971   6.925
 3753SOL     OW12157   0.900   6.459   4.422
 3753SOL    HW112158   0.923   6.496   4.332
 3753SOL    HW212159   0.951   6.509   4.493
 3754SOL     OW12160   5.575   6.462   0.952
 3754SOL    HW112161   5.525   6.376   0.943
 3754SOL    HW212162   5.533   6.531   0.893
 3755SOL     OW12163   5.397   4.978   4.029
 3755SOL    HW112164   5.431   4.974   3.935
 3755SOL    HW212165   5.356   5.067   4.046
 3756SOL     OW12166   2.054   1.814   6.250
 3756SOL    HW112167   2.121   1.740   6.255
 3756SOL    HW212168   2.062   1.860   6.162
 3757SOL     OW12169   3.247   5.668   5.622
 3757SOL    HW112170   3.300   5.682   5.538
 3757SOL    HW212171   3.155   5.635   5.599
 3758SOL     OW12172   2.351   0.969   4.921
 3758SOL    HW112173   2.408   1.009   4.993
 3758SOL    HW212174   2.259   0.952   4.957
 3759SOL     OW12175   4.935   5.426   5.635
 3759SOL    HW112176   4.950   5.477   5.720
 3759SOL    HW212177   4.995   5.346   5.634
 3760SOL     OW12178   1.340   3.071   3.886
 3760SOL    HW112179   1.260   3.103   3.936
 3760SOL    HW212180   1.386   3.000   3.939
 3761SOL     OW12181   0.602   6.751   5.170
 3761SOL    HW112182   0.569   6.832   5.219
 3761SOL    HW212183   0.523   6.695   5.142
 3762SOL     OW12184   0.993   4.372   0.560
 3762SOL    HW112185   0.921   4.334   0.501
 3762SOL    HW212186   0.951   4.430   0.629
 3763SOL     OW12187   6.654   3.680   6.477
 3763SOL    HW112188   6.656   3.692   6.576
 3763SOL    HW212189   6.588   3.609   6.453
 3764SOL     OW12190   1.907   0.394   4.538
 3764SOL    HW112191   1.969   0.347   4.602
 3764SOL    HW212192   1.839   0.446   4.590
 3765SOL     OW12193   4.792   0.752   3.540
 3765SOL    HW112194   4.795   0.752   3.640
 3765SOL    HW212195   4.729   0.681   3.508
 3766SOL     OW12196   0.689   0.964   4.079
 3766SOL    HW112197   0.655   0.871   4.068
 3766SOL    HW212198   0.637   1.011   4.151
 3767SOL     OW12199   1.622   5.086   0.296
 3767SOL    HW112200   1.638   4.993   0.263
 3767SOL    HW212201   1.592   5.082   0.392
 3768SOL     OW12202   4.463   6.322   6.804
 3768SOL    HW112203   4.368   6.331   6.836
 3768SOL    HW212204   4.475   6.233   6.761
 3769SOL     OW12205   5.774   5.832   5.006
 3769SOL    HW112206   5.709   5.812   4.933
 3769SOL    HW212207   5.858   5.781   4.991
 3770SOL     OW12208   2.026   1.473   5.872
 3770SOL    HW112209   2.019   1.500   5.968
 3770SOL    HW212210   2.067   1.547   5.820
 3771SOL     OW12211   4.810   2.291   0.545
 3771SOL    HW112212   4.857   2.321   0.462
 3771SOL    HW212213   4.840   2.346   0.623
 3772SOL     OW12214   6.072   0.957   1.170
 3772SOL    HW112215   6.155   0.912   1.202
 3772SOL    HW212216   6.085   0.989   1.076
 3773SOL     OW12217   5.802   3.232   5.381
 3773SOL    HW112218   5.836   3.140   5.403
 3773SOL    HW212219   5.729   3.257   5.444
 3774SOL     OW12220   1.057   0.140   6.585
 3774SOL    HW112221   1.068   0.221   6.528
 3774SOL    HW212222   0.966   0.101   6.571
 3775SOL     OW12223   5.471   3.912   3.025
 3775SOL    HW112224   5.515   3.929   2.937
 3775SOL    HW212225   5.377   3.882   3.011
 3776SOL     OW12226   2.239   2.311   1.322
 3776SOL    HW112227   2.179   2.387   1.347
 3776SOL    HW212228   2.200   2.262   1.244
 3777SOL     OW12229   3.000   5.104   4.645
 3777SOL    HW112230   2.911   5.092   4.690
 3777SOL    HW212231   3.055   5.168   4.699
 3778SOL     OW12232   2.364   5.890   2.930
 3778SOL    HW112233   2.303   5.894   2.851
 3778SOL    HW212234   2.458   5.908   2.900
 3779SOL     OW12235   2.524   4.551   0.211
 3779SOL    HW112236   2.583   4.478   0.245
 3779SOL    HW212237   2.504   4.535   0.114
 3780SOL     OW12238   3.560   5.447   5.068
 3780SOL    HW112239   3.648   5.494   5.064
 3780SOL    HW212240   3.487   5.509   5.038
 3781SOL     OW12241   2.358   6.647   3.922
 3781SOL    HW112242   2.410   6.563   3.906
 3781SOL    HW212243   2.305   6.669   3.840
 3782SOL     OW12244   2.863   1.892   4.446
 3782SOL    HW112245   2.856   1.952   4.366
 3782SOL    HW212246   2.876   1.948   4.528
 3783SOL     OW12247   6.245   6.834   4.921
 3783SOL    HW112248   6.281   6.741   4.926
 3783SOL    HW212249   6.148   6.831   4.898
 3784SOL     OW12250   5.887   1.361   3.738
 3784SOL    HW112251   5.807   1.342   3.794
 3784SOL    HW212252   5.881   1.312   3.651
 3785SOL     OW12253   2.536   1.700   0.200
 3785SOL    HW112254   2.625   1.661   0.179
 3785SOL    HW212255   2.479   1.698   0.117
 3786SOL     OW12256   2.703   4.803   3.539
 3786SOL    HW112257   2.761   4.792   3.458
 3786SOL    HW212258   2.759   4.791   3.621
 3787SOL     OW12259   5.347   1.077   4.463
 3787SOL    HW112260   5.393   1.029   4.388
 3787SOL    HW212261   5.416   1.110   4.528
 3788SOL     OW12262   6.429   2.940   3.575
 3788SOL    HW112263   6.509   2.918   3.519
 3788SOL    HW212264   6.418   2.871   3.647
 3789SOL     OW12265   1.171   4.361   4.301
 3789SOL    HW112266   1.154   4.424   4.225
 3789SOL    HW212267   1.170   4.412   4.387
 3790SOL     OW12268   2.121   3.607   4.661
 3790SOL    HW112269   2.132   3.522   4.611
 3790SOL    HW212270   2.082   3.588   4.751
 3791SOL     OW12271   5.154   6.641   1.067
 3791SOL    HW112272   5.128   6.566   1.006
 3791SOL    HW212273   5.158   6.726   1.015
 3792SOL     OW12274   6.393   0.402   5.399
 3792SOL    HW112275   6.473   0.383   5.456
 3792SOL    HW212276   6.423   0.424   5.307
 3793SOL     OW12277   2.142   1.298   2.620
 3793SOL    HW112278   2.188   1.385   2.640
 3793SOL    HW212279   2.074   1.311   2.548
 3794SOL     OW12280   3.954   5.412   2.055
 3794SOL    HW112281   3.949   5.481   1.984
 3794SOL    HW212282   3.900   5.440   2.134
 3795SOL     OW12283   5.151   0.388   6.820
 3795SOL    HW112284   5.098   0.304   6.831
 3795SOL    HW212285   5.135   0.448   6.899
 3796SOL     OW12286   1.187   2.171   1.320
 3796SOL    HW112287   1.105   2.143   1.370
 3796SOL    HW212288   1.164   2.188   1.225
 3797SOL     OW12289   0.296   5.426   2.104
 3797SOL    HW112290   0.392   5.418   2.076
 3797SOL    HW212291   0.248   5.341   2.083
 3798SOL     OW12292   2.589   4.537   3.186
 3798SOL    HW112293   2.632   4.550   3.275
 3798SOL    HW212294   2.498   4.578   3.186
 3799SOL     OW12295   0.984   1.666   5.000
 3799SOL    HW112296   0.946   1.670   4.907
 3799SOL    HW212297   1.084   1.678   4.995
 3800SOL     OW12298   5.087   2.382   4.881
 3800SOL    HW112299   5.132   2.314   4.938
 3800SOL    HW212300   5.156   2.436   4.833
 3801SOL     OW12301   6.563   6.197   5.412
 3801SOL    HW112302   6.528   6.122   5.356
 3801SOL    HW212303   6.492   6.266   5.423
 3802SOL     OW12304   1.270   2.366   5.466
 3802SOL    HW112305   1.291   2.280   5.511
 3802SOL    HW212306   1.236   2.433   5.533
 3803SOL     OW12307   4.466   0.503   2.146
 3803SOL    HW112308   4.435   0.451   2.067
 3803SOL    HW212309   4.417   0.473   2.228
 3804SOL     OW12310   4.528   1.480   4.834
 3804SOL    HW112311   4.444   1.482   4.780
 3804SOL    HW212312   4.585   1.404   4.805
 3805SOL     OW12313   2.945   4.141   1.787
 3805SOL    HW112314   3.029   4.117   1.835
 3805SOL    HW212315   2.943   4.240   1.772
 3806SOL     OW12316   3.229   2.961   6.972
 3806SOL    HW112317   3.282   3.016   0.010
 3806SOL    HW212318   3.223   2.867   7.005
 3807SOL     OW12319   1.544   6.757   4.411
 3807SOL    HW112320   1.556   6.722   4.318
 3807SOL    HW212321   1.588   6.846   4.419
 3808SOL     OW12322   2.925   0.390   2.288
 3808SOL    HW112323   2.974   0.331   2.352
 3808SOL    HW212324   2.991   0.443   2.235
 3809SOL     OW12325   6.009   1.963   6.904
 3809SOL    HW112326   6.062   1.944   6.987
 3809SOL    HW212327   6.055   2.034   6.851
 3810SOL     OW12328   3.409   3.318   5.622
 3810SOL    HW112329   3.459   3.235   5.596
 3810SOL    HW212330   3.338   3.337   5.554
 3811SOL     OW12331   0.756   3.929   4.607
 3811SOL    HW112332   0.680   3.986   4.575
 3811SOL    HW212333   0.763   3.848   4.550
 3812SOL     OW12334   6.505   2.452   5.925
 3812SOL    HW112335   6.546   2.366   5.955
 3812SOL    HW212336   6.496   2.452   5.826
 3813SOL     OW12337   3.639   5.304   0.997
 3813SOL    HW112338   3.668   5.397   1.019
 3813SOL    HW212339   3.636   5.249   1.080
 3814SOL     OW12340   6.823   6.048   1.110
 3814SOL    HW112341   6.849   6.039   1.206
 3814SOL    HW212342   6.814   5.957   1.069
 3815SOL     OW12343   5.076   1.981   1.182
 3815SOL    HW112344   5.010   1.977   1.106
 3815SOL    HW212345   5.039   2.039   1.255
 3816SOL     OW12346   6.790   6.629   2.242
 3816SOL    HW112347   6.779   6.724   2.272
 3816SOL    HW212348   6.774   6.568   2.320
 3817SOL     OW12349   4.616   2.689   4.073
 3817SOL    HW112350   4.655   2.752   4.140
 3817SOL    HW212351   4.612   2.734   3.984
 3818SOL     OW12352   4.480   6.320   2.757
 3818SOL    HW112353   4.532   6.332   2.673
 3818SOL    HW212354   4.531   6.259   2.819
 3819SOL     OW12355   5.687   5.456   0.425
 3819SOL    HW112356   5.675   5.536   0.482
 3819SOL    HW212357   5.775   5.414   0.444
 3820SOL     OW12358   5.647   6.000   4.151
 3820SOL    HW112359   5.563   6.012   4.204
 3820SOL    HW212360   5.625   5.988   4.054
 3821SOL     OW12361   1.801   3.539   1.919
 3821SOL    HW112362   1.772   3.601   1.847
 3821SOL    HW212363   1.808   3.589   2.005
 3822SOL     OW12364   2.009   5.152   1.572
 3822SOL    HW112365   2.106   5.159   1.547
 3822SOL    HW212366   1.996   5.184   1.665
 3823SOL     OW12367   3.868   1.966   5.500
 3823SOL    HW112368   3.776   1.928   5.505
 3823SOL    HW212369   3.906   1.975   5.593
 3824SOL     OW12370   6.167   2.213   6.067
 3824SOL    HW112371   6.080   2.165   6.081
 3824SOL    HW212372   6.157   2.309   6.093
 3825SOL     OW12373   6.853   0.332   6.866
 3825SOL    HW112374   6.870   0.373   6.776
 3825SOL    HW212375   6.807   0.398   6.925
 3826SOL     OW12376   0.283   3.548   0.392
 3826SOL    HW112377   0.329   3.572   0.477
 3826SOL    HW212378   0.350   3.519   0.324
 3827SOL     OW12379   3.788   3.980   0.475
 3827SOL    HW112380   3.856   3.906   0.482
 3827SOL    HW212381   3.711   3.959   0.535
 3828SOL     OW12382   4.314   2.028   1.133
 3828SOL    HW112383   4.259   1.951   1.100
 3828SOL    HW212384   4.360   2.072   1.055
 3829SOL     OW12385   2.461   5.323   3.416
 3829SOL    HW112386   2.376   5.323   3.364
 3829SOL    HW212387   2.444   5.294   3.510
 3830SOL     OW12388   2.318   0.002   5.672
 3830SOL    HW112389   2.218   7.021   5.673
 3830SOL    HW212390   2.351   0.021   5.764
 3831SOL     OW12391   4.111   1.946   2.336
 3831SOL    HW112392   4.084   2.041   2.319
 3831SOL    HW212393   4.135   1.935   2.433
 3832SOL     OW12394   6.287   0.839   1.786
 3832SOL    HW112395   6.321   0.749   1.758
 3832SOL    HW212396   6.363   0.893   1.824
 3833SOL     OW12397   0.780   4.885   0.659
 3833SOL    HW112398   0.705   4.818   0.654
 3833SOL    HW212399   0.783   4.937   0.574
 3834SOL     OW12400   3.080   1.771   0.592
 3834SOL    HW112401   3.127   1.826   0.661
 3834SOL    HW212402   3.024   1.831   0.535
 3835SOL     OW12403   3.625   5.628   5.968
 3835SOL    HW112404   3.534   5.609   5.931
 3835SOL    HW212405   3.690   5.561   5.933
 3836SOL     OW12406   1.895   4.341   6.108
 3836SOL    HW112407   1.912   4.247   6.079
 3836SOL    HW212408   1.916   4.403   6.033
 3837SOL     OW12409   4.752   3.742   0.190
 3837SOL    HW112410   4.793   3.651   0.196
 3837SOL    HW212411   4.686   3.753   0.264
 3838SOL     OW12412   5.522   2.315   4.539
 3838SOL    HW112413   5.526   2.253   4.617
 3838SOL    HW212414   5.602   2.301   4.480
 3839SOL     OW12415   5.798   0.008   4.874
 3839SOL    HW112416   5.815   6.947   4.827
 3839SOL    HW212417   5.864   0.020   4.948
 3840SOL     OW12418   1.506   1.221   4.478
 3840SOL    HW112419   1.441   1.297   4.478
 3840SOL    HW212420   1.531   1.199   4.383
 3841SOL     OW12421   1.210   3.864   5.261
 3841SOL    HW112422   1.114   3.864   5.234
 3841SOL    HW212423   1.227   3.942   5.321
 3842SOL     OW12424   0.697   5.354   0.144
 3842SOL    HW112425   0.601   5.365   0.167
 3842SOL    HW212426   0.724   5.426   0.080
 3843SOL     OW12427   6.069   3.355   0.517
 3843SOL    HW112428   6.141   3.329   0.581
 3843SOL    HW212429   5.997   3.285   0.517
 3844SOL     OW12430   1.964   5.102   5.691
 3844SOL    HW112431   1.976   5.200   5.707
 3844SOL    HW212432   1.977   5.052   5.776
 3845SOL     OW12433   3.469   3.257   3.044
 3845SOL    HW112434   3.524   3.317   3.102
 3845SOL    HW212435   3.462   3.167   3.086
 3846SOL     OW12436   0.157   4.265   4.490
 3846SOL    HW112437   0.159   4.189   4.424
 3846SOL    HW212438   0.128   4.230   4.579
 3847SOL     OW12439   6.872   0.117   6.435
 3847SOL    HW112440   6.792   0.132   6.376
 3847SOL    HW212441   6.875   0.189   6.505
 3848SOL     OW12442   2.392   5.122   2.101
 3848SOL    HW112443   2.423   5.112   2.195
 3848SOL    HW212444   2.359   5.216   2.087
 3849SOL     OW12445   0.836   1.940   5.771
 3849SOL    HW112446   0.906   1.984   5.827
 3849SOL    HW212447   0.778   1.883   5.829
 3850SOL     OW12448   3.175   4.076   1.907
 3850SOL    HW112449   3.221   4.157   1.942
 3850SOL    HW212450   3.134   4.026   1.983
 3851SOL     OW12451   2.042   3.488   3.215
 3851SOL    HW112452   1.944   3.492   3.195
 3851SOL    HW212453   2.067   3.565   3.273
 3852SOL     OW12454   4.419   0.597   5.280
 3852SOL    HW112455   4.514   0.588   5.250
 3852SOL    HW212456   4.369   0.514   5.257
 3853SOL     OW12457   1.062   3.513   1.969
 3853SOL    HW112458   1.057   3.413   1.973
 3853SOL    HW212459   1.064   3.543   1.874
 3854SOL     OW12460   1.055   3.533   4.224
 3854SOL    HW112461   1.079   3.561   4.317
 3854SOL    HW212462   0.956   3.536   4.213
 3855SOL     OW12463   5.936   4.013   5.944
 3855SOL    HW112464   5.986   3.932   5.912
 3855SOL    HW212465   5.899   4.062   5.865
 3856SOL     OW12466   6.790   0.081   5.466
 3856SOL    HW112467   6.729   0.006   5.439
 3856SOL    HW212468   6.735   0.154   5.506
 3857SOL     OW12469   1.138   6.356   5.018
 3857SOL    HW112470   1.118   6.267   4.979
 3857SOL    HW212471   1.053   6.405   5.038
 3858SOL     OW12472   1.687   5.853   6.393
 3858SOL    HW112473   1.705   5.763   6.432
 3858SOL    HW212474   1.681   5.920   6.466
 3859SOL     OW12475   7.007   2.952   3.113
 3859SOL    HW112476   6.975   2.861   3.085
 3859SOL    HW212477   0.065   2.943   3.166
 3860SOL     OW12478   2.402   5.880   6.186
 3860SOL    HW112479   2.312   5.919   6.166
 3860SOL    HW212480   2.415   5.877   6.286
 3861SOL     OW12481   4.564   4.343   1.473
 3861SOL    HW112482   4.589   4.329   1.569
 3861SOL    HW212483   4.639   4.390   1.426
 3862SOL     OW12484   1.157   6.138   6.107
 3862SOL    HW112485   1.080   6.166   6.164
 3862SOL    HW212486   1.125   6.129   6.012
 3863SOL     OW12487   3.402   3.706   1.245
 3863SOL    HW112488   3.479   3.770   1.246
 3863SOL    HW212489   3.317   3.757   1.257
 3864SOL     OW12490   3.338   1.830   6.560
 3864SOL    HW112491   3.280   1.749   6.564
 3864SOL    HW212492   3.309   1.895   6.630
 3865SOL     OW12493   4.328   0.355   2.350
 3865SOL    HW112494   4.417   0.309   2.344
 3865SOL    HW212495   4.310   0.380   2.446
 3866SOL     OW12496   3.936   0.167   1.002
 3866SOL    HW112497   3.881   0.244   0.971
 3866SOL    HW212498   3.968   0.185   1.095
 3867SOL     OW12499   2.134   3.226   3.138
 3867SOL    HW112500   2.126   3.320   3.171
 3867SOL    HW212501   2.228   3.209   3.107
 3868SOL     OW12502   2.552   6.557   2.227
 3868SOL    HW112503   2.470   6.596   2.184
 3868SOL    HW212504   2.633   6.591   2.180
 3869SOL     OW12505   0.437   2.978   3.363
 3869SOL    HW112506   0.496   3.004   3.286
 3869SOL    HW212507   0.489   2.920   3.426
 3870SOL     OW12508   3.026   5.480   0.189
 3870SOL    HW112509   2.963   5.431   0.250
 3870SOL    HW212510   3.050   5.422   0.112
 3871SOL     OW12511   3.028   0.362   3.364
 3871SOL    HW112512   3.083   0.334   3.285
 3871SOL    HW212513   3.089   0.385   3.440
 3872SOL     OW12514   4.229   3.496   1.108
 3872SOL    HW112515   4.300   3.453   1.163
 3872SOL    HW212516   4.141   3.489   1.155
 3873SOL     OW12517   5.503   4.850   1.488
 3873SOL    HW112518   5.434   4.800   1.436
 3873SOL    HW212519   5.494   4.948   1.470
 3874SOL     OW12520   4.390   0.136   0.150
 3874SOL    HW112521   4.410   0.054   0.203
 3874SOL    HW212522   4.453   0.209   0.177
 3875SOL     OW12523   1.476   4.586   1.589
 3875SOL    HW112524   1.432   4.608   1.502
 3875SOL    HW212525   1.529   4.502   1.580
 3876SOL     OW12526   5.657   3.928   4.060
 3876SOL    HW112527   5.660   3.830   4.080
 3876SOL    HW212528   5.685   3.943   3.965
 3877SOL     OW12529   6.191   1.091   1.907
 3877SOL    HW112530   6.095   1.073   1.928
 3877SOL    HW212531   6.234   1.007   1.874
 3878SOL     OW12532   3.726   6.968   6.358
 3878SOL    HW112533   3.672   7.019   6.425
 3878SOL    HW212534   3.801   7.025   6.325
 3879SOL     OW12535   4.499   5.501   1.745
 3879SOL    HW112536   4.446   5.469   1.823
 3879SOL    HW212537   4.444   5.493   1.662
 3880SOL     OW12538   5.622   2.862   3.417
 3880SOL    HW112539   5.626   2.763   3.432
 3880SOL    HW212540   5.703   2.905   3.456
 3881SOL     OW12541   0.706   4.395   1.034
 3881SOL    HW112542   0.623   4.421   0.984
 3881SOL    HW212543   0.723   4.462   1.107
 3882SOL     OW12544   6.814   1.241   5.480
 3882SOL    HW112545   6.818   1.235   5.580
 3882SOL    HW212546   6.853   1.328   5.450
 3883SOL     OW12547   4.197   0.653   5.048
 3883SOL    HW112548   4.128   0.588   5.015
 3883SOL    HW212549   4.163   0.699   5.130
 3884SOL     OW12550   2.158   6.113   5.897
 3884SOL    HW112551   2.106   6.193   5.866
 3884SOL    HW212552   2.104   6.031   5.882
 3885SOL     OW12553   6.839   1.028   3.857
 3885SOL    HW112554   6.791   0.964   3.917
 3885SOL    HW212555   6.810   1.122   3.879
 3886SOL     OW12556   6.802   6.651   4.798
 3886SOL    HW112557   6.723   6.616   4.748
 3886SOL    HW212558   6.771   6.709   4.873
 3887SOL     OW12559   4.314   2.144   5.602
 3887SOL    HW112560   4.365   2.081   5.660
 3887SOL    HW212561   4.259   2.093   5.536
 3888SOL     OW12562   0.018   1.632   0.908
 3888SOL    HW112563   7.005   1.723   0.897
 3888SOL    HW212564   6.978   1.573   0.955
 3889SOL     OW12565   0.910   6.500   6.474
 3889SOL    HW112566   0.938   6.533   6.564
 3889SOL    HW212567   0.976   6.433   6.441
 3890SOL     OW12568   5.554   4.494   3.218
 3890SOL    HW112569   5.503   4.566   3.171
 3890SOL    HW212570   5.500   4.411   3.222
 3891SOL     OW12571   5.365   5.214   4.814
 3891SOL    HW112572   5.387   5.222   4.716
 3891SOL    HW212573   5.356   5.305   4.853
 3892SOL     OW12574   5.363   6.861   3.035
 3892SOL    HW112575   5.354   6.817   2.946
 3892SOL    HW212576   5.283   6.840   3.091
 3893SOL     OW12577   3.572   5.740   4.239
 3893SOL    HW112578   3.577   5.669   4.310
 3893SOL    HW212579   3.533   5.700   4.156
 3894SOL     OW12580   4.669   3.603   6.978
 3894SOL    HW112581   4.762   3.581   6.948
 3894SOL    HW212582   4.673   3.643   0.044
 3895SOL     OW12583   2.831   1.753   5.855
 3895SOL    HW112584   2.763   1.748   5.782
 3895SOL    HW212585   2.785   1.770   5.942
 3896SOL     OW12586   6.590   3.104   5.256
 3896SOL    HW112587   6.590   3.042   5.335
 3896SOL    HW212588   6.654   3.070   5.187
 3897SOL     OW12589   3.497   0.158   2.272
 3897SOL    HW112590   3.473   0.091   2.342
 3897SOL    HW212591   3.534   0.110   2.192
 3898SOL     OW12592   3.810   4.053   4.242
 3898SOL    HW112593   3.749   4.094   4.310
 3898SOL    HW212594   3.897   4.031   4.285
 3899SOL     OW12595   4.621   1.682   5.548
 3899SOL    HW112596   4.671   1.759   5.509
 3899SOL    HW212597   4.589   1.623   5.475
 3900SOL     OW12598   6.522   2.411   3.070
 3900SOL    HW112599   6.615   2.399   3.036
 3900SOL    HW212600   6.515   2.499   3.117
 3901SOL     OW12601   1.519   6.683   5.700
 3901SOL    HW112602   1.455   6.757   5.723
 3901SOL    HW212603   1.475   6.595   5.715
 3902SOL     OW12604   3.985   5.058   1.307
 3902SOL    HW112605   3.997   5.157   1.315
 3902SOL    HW212606   3.972   5.018   1.398
 3903SOL     OW12607   4.184   2.766   6.740
 3903SOL    HW112608   4.248   2.783   6.816
 3903SOL    HW212609   4.140   2.677   6.753
 3904SOL     OW12610   1.125   6.395   0.453
 3904SOL    HW112611   1.113   6.296   0.456
 3904SOL    HW212612   1.122   6.426   0.357
 3905SOL     OW12613   6.747   0.389   5.010
 3905SOL    HW112614   6.807   0.376   4.932
 3905SOL    HW212615   6.789   0.452   5.075
 3906SOL     OW12616   1.769   4.827   4.006
 3906SOL    HW112617   1.844   4.834   3.940
 3906SOL    HW212618   1.775   4.903   4.071
 3907SOL     OW12619   0.391   0.812   3.616
 3907SOL    HW112620   0.414   0.873   3.541
 3907SOL    HW212621   0.309   0.845   3.663
 3908SOL     OW12622   1.254   0.452   5.105
 3908SOL    HW112623   1.343   0.496   5.096
 3908SOL    HW212624   1.265   0.361   5.144
 3909SOL     OW12625   5.663   2.693   6.285
 3909SOL    HW112626   5.637   2.700   6.382
 3909SOL    HW212627   5.637   2.777   6.238
 3910SOL     OW12628   3.618   1.355   0.364
 3910SOL    HW112629   3.690   1.286   0.367
 3910SOL    HW212630   3.656   1.441   0.331
 3911SOL     OW12631   6.799   0.917   0.685
 3911SOL    HW112632   6.891   0.947   0.658
 3911SOL    HW212633   6.739   0.917   0.605
 3912SOL     OW12634   4.036   1.658   0.689
 3912SOL    HW112635   4.030   1.661   0.589
 3912SOL    HW212636   4.023   1.563   0.720
 3913SOL     OW12637   5.552   5.326   1.005
 3913SOL    HW112638   5.597   5.347   0.918
 3913SOL    HW212639   5.559   5.228   1.024
 3914SOL     OW12640   6.375   1.647   0.455
 3914SOL    HW112641   6.449   1.670   0.518
 3914SOL    HW212642   6.412   1.631   0.364
 3915SOL     OW12643   4.614   5.706   0.054
 3915SOL    HW112644   4.693   5.748   0.098
 3915SOL    HW212645   4.604   5.612   0.086
 3916SOL     OW12646   2.136   1.805   1.857
 3916SOL    HW112647   2.051   1.800   1.908
 3916SOL    HW212648   2.117   1.806   1.759
 3917SOL     OW12649   3.333   5.278   1.557
 3917SOL    HW112650   3.354   5.256   1.652
 3917SOL    HW212651   3.241   5.317   1.551
 3918SOL     OW12652   5.330   1.383   0.776
 3918SOL    HW112653   5.244   1.354   0.734
 3918SOL    HW212654   5.396   1.308   0.771
 3919SOL     OW12655   3.235   0.345   1.916
 3919SOL    HW112656   3.281   0.432   1.903
 3919SOL    HW212657   3.137   0.360   1.929
 3920SOL     OW12658   3.156   1.516   5.716
 3920SOL    HW112659   3.144   1.418   5.697
 3920SOL    HW212660   3.112   1.569   5.644
 3921SOL     OW12661   0.039   2.608   6.167
 3921SOL    HW112662   7.019   2.672   6.105
 3921SOL    HW212663   0.133   2.639   6.183
 3922SOL     OW12664   5.814   4.365   2.998
 3922SOL    HW112665   5.719   4.397   3.003
 3922SOL    HW212666   5.815   4.268   2.976
 3923SOL     OW12667   4.973   1.238   1.809
 3923SOL    HW112668   4.904   1.299   1.771
 3923SOL    HW212669   5.035   1.208   1.736
 3924SOL     OW12670   5.775   4.934   4.634
 3924SOL    HW112671   5.837   4.858   4.653
 3924SOL    HW212672   5.698   4.900   4.579
 3925SOL     OW12673   4.666   3.741   0.644
 3925SOL    HW112674   4.627   3.675   0.707
 3925SOL    HW212675   4.692   3.824   0.694
 3926SOL     OW12676   0.541   6.495   6.343
 3926SOL    HW112677   0.588   6.491   6.431
 3926SOL    HW212678   0.546   6.589   6.307
 3927SOL     OW12679   5.784   2.544   5.164
 3927SOL    HW112680   5.776   2.599   5.247
 3927SOL    HW212681   5.695   2.504   5.142
 3928SOL     OW12682   2.577   6.280   2.509
 3928SOL    HW112683   2.614   6.309   2.420
 3928SOL    HW212684   2.650   6.277   2.576
 3929SOL     OW12685   6.782   2.090   5.041
 3929SOL    HW112686   6.862   2.036   5.018
 3929SOL    HW212687   6.713   2.080   4.968
 3930SOL     OW12688   0.401   3.967   4.141
 3930SOL    HW112689   0.464   4.005   4.073
 3930SOL    HW212690   0.454   3.929   4.218
 3931SOL     OW12691   1.898   2.473   1.522
 3931SOL    HW112692   1.825   2.411   1.491
 3931SOL    HW212693   1.868   2.568   1.511
 3932SOL     OW12694   2.236   5.309   4.121
 3932SOL    HW112695   2.330   5.303   4.153
 3932SOL    HW212696   2.213   5.405   4.102
 3933SOL     OW12697   2.536   5.666   0.859
 3933SOL    HW112698   2.576   5.636   0.946
 3933SOL    HW212699   2.457   5.725   0.878
 3934SOL     OW12700   0.343   1.333   1.078
 3934SOL    HW112701   0.272   1.404   1.080
 3934SOL    HW212702   0.432   1.376   1.096
 3935SOL     OW12703   6.494   3.168   6.267
 3935SOL    HW112704   6.465   3.250   6.217
 3935SOL    HW212705   6.539   3.105   6.204
 3936SOL     OW12706   0.709   4.934   5.538
 3936SOL    HW112707   0.630   4.994   5.532
 3936SOL    HW212708   0.786   4.975   5.490
 3937SOL     OW12709   0.019   0.080   1.745
 3937SOL    HW112710   0.015   0.163   1.689
 3937SOL    HW212711   6.996   0.006   1.698
 3938SOL     OW12712   0.559   4.182   3.149
 3938SOL    HW112713   0.632   4.131   3.103
 3938SOL    HW212714   0.473   4.130   3.142
 3939SOL     OW12715   1.338   1.270   2.213
 3939SOL    HW112716   1.331   1.221   2.125
 3939SOL    HW212717   1.257   1.250   2.268
 3940SOL     OW12718   3.451   5.413   1.332
 3940SOL    HW112719   3.420   5.507   1.318
 3940SOL    HW212720   3.419   5.380   1.421
 3941SOL     OW12721   4.921   6.081   3.329
 3941SOL    HW112722   4.896   6.173   3.300
 3941SOL    HW212723   4.934   6.080   3.429
 3942SOL     OW12724   6.683   5.957   5.769
 3942SOL    HW112725   6.630   5.886   5.815
 3942SOL    HW212726   6.635   5.986   5.686
 3943SOL     OW12727   1.464   2.966   6.806
 3943SOL    HW112728   1.540   2.916   6.848
 3943SOL    HW212729   1.389   2.903   6.789
 3944SOL     OW12730   5.668   2.293   6.853
 3944SOL    HW112731   5.659   2.211   6.798
 3944SOL    HW212732   5.578   2.328   6.877
 3945SOL     OW12733   6.292   0.428   3.482
 3945SOL    HW112734   6.332   0.376   3.406
 3945SOL    HW212735   6.352   0.422   3.562
 3946SOL     OW12736   1.235   3.209   0.367
 3946SOL    HW112737   1.300   3.167   0.430
 3946SOL    HW212738   1.204   3.297   0.404
 3947SOL     OW12739   5.707   4.840   2.293
 3947SOL    HW112740   5.718   4.811   2.198
 3947SOL    HW212741   5.624   4.894   2.303
 3948SOL     OW12742   0.888   2.554   6.297
 3948SOL    HW112743   0.963   2.612   6.328
 3948SOL    HW212744   0.918   2.459   6.294
 3949SOL     OW12745   5.651   6.775   1.778
 3949SOL    HW112746   5.735   6.798   1.729
 3949SOL    HW212747   5.666   6.786   1.876
 3950SOL     OW12748   3.118   4.492   1.728
 3950SOL    HW112749   3.025   4.487   1.766
 3950SOL    HW212750   3.113   4.517   1.632
 3951SOL     OW12751   0.600   2.411   5.176
 3951SOL    HW112752   0.649   2.413   5.089
 3951SOL    HW212753   0.666   2.402   5.251
 3952SOL     OW12754   5.622   3.466   6.148
 3952SOL    HW112755   5.603   3.537   6.080
 3952SOL    HW212756   5.539   3.446   6.199
 3953SOL     OW12757   3.180   4.219   6.257
 3953SOL    HW112758   3.159   4.295   6.318
 3953SOL    HW212759   3.198   4.137   6.311
 3954SOL     OW12760   0.465   3.373   5.060
 3954SOL    HW112761   0.505   3.404   4.974
 3954SOL    HW212762   0.538   3.343   5.121
 3955SOL     OW12763   6.589   4.652   0.422
 3955SOL    HW112764   6.652   4.719   0.382
 3955SOL    HW212765   6.552   4.689   0.507
 3956SOL     OW12766   1.027   2.585   5.488
 3956SOL    HW112767   1.007   2.487   5.500
 3956SOL    HW212768   0.991   2.635   5.566
 3957SOL     OW12769   1.073   1.292   2.841
 3957SOL    HW112770   1.059   1.238   2.924
 3957SOL    HW212771   1.059   1.233   2.761
 3958SOL     OW12772   5.465   6.458   5.640
 3958SOL    HW112773   5.535   6.493   5.703
 3958SOL    HW212774   5.379   6.446   5.689
 3959SOL     OW12775   2.421   4.827   0.625
 3959SOL    HW112776   2.453   4.913   0.666
 3959SOL    HW212777   2.491   4.756   0.639
 3960SOL     OW12778   4.415   3.477   0.448
 3960SOL    HW112779   4.331   3.526   0.424
 3960SOL    HW212780   4.392   3.401   0.509
 3961SOL     OW12781   5.707   0.621   2.578
 3961SOL    HW112782   5.709   0.522   2.568
 3961SOL    HW212783   5.789   0.660   2.536
 3962SOL     OW12784   0.692   7.015   6.280
 3962SOL    HW112785   0.640   0.066   6.318
 3962SOL    HW212786   0.651   6.988   6.193
 3963SOL     OW12787   5.392   5.417   3.530
 3963SOL    HW112788   5.347   5.471   3.459
 3963SOL    HW212789   5.369   5.320   3.519
 3964SOL     OW12790   5.658   6.546   5.426
 3964SOL    HW112791   5.592   6.564   5.499
 3964SOL    HW212792   5.751   6.558   5.462
 3965SOL     OW12793   3.607   3.618   6.911
 3965SOL    HW112794   3.517   3.623   6.867
 3965SOL    HW212795   3.645   3.710   6.919
 3966SOL     OW12796   5.714   4.068   5.178
 3966SOL    HW112797   5.754   4.121   5.253
 3966SOL    HW212798   5.618   4.094   5.167
 3967SOL     OW12799   0.538   5.553   6.643
 3967SOL    HW112800   0.495   5.629   6.594
 3967SOL    HW212801   0.467   5.489   6.672
 3968SOL     OW12802   5.861   0.176   1.582
 3968SOL    HW112803   5.800   0.228   1.642
 3968SOL    HW212804   5.810   0.103   1.538
 3969SOL     OW12805   0.191   5.373   1.585
 3969SOL    HW112806   0.096   5.400   1.575
 3969SOL    HW212807   0.205   5.329   1.674
 3970SOL     OW12808   4.447   4.955   3.107
 3970SOL    HW112809   4.453   4.961   3.207
 3970SOL    HW212810   4.451   4.860   3.078
 3971SOL     OW12811   1.641   5.634   3.633
 3971SOL    HW112812   1.637   5.536   3.650
 3971SOL    HW212813   1.651   5.682   3.720
 3972SOL     OW12814   1.534   6.969   0.509
 3972SOL    HW112815   1.597   6.982   0.585
 3972SOL    HW212816   1.496   6.877   0.513
 3973SOL     OW12817   3.014   3.234   3.601
 3973SOL    HW112818   2.940   3.259   3.663
 3973SOL    HW212819   2.998   3.275   3.511
 3974SOL     OW12820   6.341   1.912   6.445
 3974SOL    HW112821   6.281   1.833   6.459
 3974SOL    HW212822   6.308   1.965   6.367
 3975SOL     OW12823   6.789   1.187   5.753
 3975SOL    HW112824   6.840   1.228   5.828
 3975SOL    HW212825   6.692   1.184   5.776
 3976SOL     OW12826   0.618   3.738   0.249
 3976SOL    HW112827   0.709   3.751   0.210
 3976SOL    HW212828   0.625   3.684   0.333
 3977SOL     OW12829   4.132   6.430   6.800
 3977SOL    HW112830   4.118   6.458   6.705
 3977SOL    HW212831   4.062   6.473   6.857
 3978SOL     OW12832   5.399   3.285   6.216
 3978SOL    HW112833   5.449   3.287   6.303
 3978SOL    HW212834   5.310   3.328   6.228
 3979SOL     OW12835   0.947   7.019   3.015
 3979SOL    HW112836   0.973   0.022   3.108
 3979SOL    HW212837   0.918   6.924   3.017
 3980SOL     OW12838   5.702   2.759   4.031
 3980SOL    HW112839   5.613   2.795   4.060
 3980SOL    HW212840   5.754   2.732   4.112
 3981SOL     OW12841   6.711   1.900   6.310
 3981SOL    HW112842   6.764   1.816   6.299
 3981SOL    HW212843   6.748   1.971   6.250
 3982SOL     OW12844   2.887   1.995   3.790
 3982SOL    HW112845   2.916   2.090   3.803
 3982SOL    HW212846   2.915   1.941   3.870
 3983SOL     OW12847   3.153   6.186   4.076
 3983SOL    HW112848   3.237   6.238   4.090
 3983SOL    HW212849   3.171   6.089   4.088
 3984SOL     OW12850   1.646   6.747   1.770
 3984SOL    HW112851   1.684   6.693   1.695
 3984SOL    HW212852   1.547   6.735   1.773
 3985SOL     OW12853   1.854   3.187   1.245
 3985SOL    HW112854   1.772   3.181   1.302
 3985SOL    HW212855   1.925   3.126   1.282
 3986SOL     OW12856   0.932   2.661   2.273
 3986SOL    HW112857   0.969   2.571   2.294
 3986SOL    HW212858   0.833   2.656   2.265
 3987SOL     OW12859   2.584   4.703   6.748
 3987SOL    HW112860   2.625   4.790   6.773
 3987SOL    HW212861   2.547   4.659   6.830
 3988SOL     OW12862   3.707   2.630   0.495
 3988SOL    HW112863   3.750   2.550   0.454
 3988SOL    HW212864   3.693   2.615   0.593
 3989SOL     OW12865   4.613   6.878   6.313
 3989SOL    HW112866   4.587   6.798   6.259
 3989SOL    HW212867   4.543   6.896   6.382
 3990SOL     OW12868   1.110   2.915   3.641
 3990SOL    HW112869   1.085   3.000   3.594
 3990SOL    HW212870   1.169   2.936   3.719
 3991SOL     OW12871   0.289   1.897   4.301
 3991SOL    HW112872   0.356   1.946   4.244
 3991SOL    HW212873   0.335   1.859   4.381
 3992SOL     OW12874   4.541   3.841   6.610
 3992SOL    HW112875   4.550   3.843   6.710
 3992SOL    HW212876   4.467   3.778   6.584
 3993SOL     OW12877   2.504   2.554   2.610
 3993SOL    HW112878   2.448   2.575   2.690
 3993SOL    HW212879   2.590   2.513   2.640
 3994SOL     OW12880   2.453   2.636   3.351
 3994SOL    HW112881   2.472   2.649   3.449
 3994SOL    HW212882   2.363   2.594   3.340
 3995SOL     OW12883   1.907   3.792   2.450
 3995SOL    HW112884   1.968   3.821   2.524
 3995SOL    HW212885   1.886   3.695   2.460
 3996SOL     OW12886   5.903   0.473   3.321
 3996SOL    HW112887   5.958   0.425   3.390
 3996SOL    HW212888   5.888   0.567   3.351
 3997SOL     OW12889   5.487   3.481   2.585
 3997SOL    HW112890   5.478   3.548   2.659
 3997SOL    HW212891   5.397   3.459   2.549
 3998SOL     OW12892   6.439   1.979   2.752
 3998SOL    HW112893   6.533   1.990   2.718
 3998SOL    HW212894   6.376   2.027   2.691
 3999SOL     OW12895   5.320   3.002   2.391
 3999SOL    HW112896   5.236   3.044   2.357
 3999SOL    HW212897   5.398   3.034   2.336
 4000SOL     OW12898   3.136   5.681   2.108
 4000SOL    HW112899   3.217   5.718   2.152
 4000SOL    HW212900   3.056   5.736   2.133
 4001SOL     OW12901   2.216   4.230   5.172
 4001SOL    HW112902   2.275   4.272   5.242
 4001SOL    HW212903   2.253   4.141   5.147
 4002SOL     OW12904   3.485   2.875   4.052
 4002SOL    HW112905   3.500   2.926   4.137
 4002SOL    HW212906   3.574   2.852   4.012
 4003SOL     OW12907   2.150   0.267   5.167
 4003SOL    HW112908   2.121   0.308   5.081
 4003SOL    HW212909   2.121   0.325   5.243
 4004SOL     OW12910   0.445   3.957   3.405
 4004SOL    HW112911   0.446   4.052   3.438
 4004SOL    HW212912   0.490   3.898   3.471
 4005SOL     OW12913   4.534   3.728   1.233
 4005SOL    HW112914   4.438   3.752   1.242
 4005SOL    HW212915   4.572   3.707   1.323
 4006SOL     OW12916   5.343   5.144   3.453
 4006SOL    HW112917   5.268   5.187   3.402
 4006SOL    HW212918   5.305   5.089   3.527
 4007SOL     OW12919   6.766   1.274   2.496
 4007SOL    HW112920   6.667   1.276   2.482
 4007SOL    HW212921   6.808   1.349   2.446
 4008SOL     OW12922   1.852   0.326   1.042
 4008SOL    HW112923   1.948   0.352   1.041
 4008SOL    HW212924   1.843   0.231   1.073
 4009SOL     OW12925   3.830   2.222   0.953
 4009SOL    HW112926   3.921   2.258   0.975
 4009SOL    HW212927   3.760   2.287   0.983
 4010SOL     OW12928   2.719   5.388   1.649
 4010SOL    HW112929   2.702   5.297   1.688
 4010SOL    HW212930   2.724   5.381   1.550
 4011SOL     OW12931   6.147   5.891   0.411
 4011SOL    HW112932   6.203   5.883   0.329
 4011SOL    HW212933   6.111   5.984   0.418
 4012SOL     OW12934   3.912   0.021   2.546
 4012SOL    HW112935   3.902   0.023   2.446
 4012SOL    HW212936   3.938   6.955   2.575
 4013SOL     OW12937   1.228   0.711   6.938
 4013SOL    HW112938   1.180   0.794   6.910
 4013SOL    HW212939   1.326   0.729   6.942
 4014SOL     OW12940   2.541   5.443   3.857
 4014SOL    HW112941   2.492   5.524   3.826
 4014SOL    HW212942   2.540   5.374   3.785
 4015SOL     OW12943   4.103   5.386   6.690
 4015SOL    HW112944   4.008   5.408   6.666
 4015SOL    HW212945   4.114   5.395   6.789
 4016SOL     OW12946   4.107   5.785   5.971
 4016SOL    HW112947   4.038   5.846   6.009
 4016SOL    HW212948   4.092   5.692   6.005
 4017SOL     OW12949   1.363   5.218   5.838
 4017SOL    HW112950   1.331   5.296   5.892
 4017SOL    HW212951   1.297   5.143   5.845
 4018SOL     OW12952   4.353   6.152   2.127
 4018SOL    HW112953   4.365   6.228   2.064
 4018SOL    HW212954   4.264   6.108   2.111
 4019SOL     OW12955   4.869   3.044   2.876
 4019SOL    HW112956   4.898   3.140   2.878
 4019SOL    HW212957   4.802   3.031   2.804
 4020SOL     OW12958   6.723   4.800   5.108
 4020SOL    HW112959   6.709   4.702   5.122
 4020SOL    HW212960   6.783   4.836   5.180
 4021SOL     OW12961   3.492   3.697   5.624
 4021SOL    HW112962   3.554   3.619   5.618
 4021SOL    HW212963   3.474   3.733   5.532
 4022SOL     OW12964   2.410   0.557   0.373
 4022SOL    HW112965   2.499   0.574   0.415
 4022SOL    HW212966   2.385   0.635   0.315
 4023SOL     OW12967   0.115   2.634   5.501
 4023SOL    HW112968   0.076   2.691   5.574
 4023SOL    HW212969   0.061   2.645   5.418
 4024SOL     OW12970   1.060   4.783   3.726
 4024SOL    HW112971   1.068   4.767   3.627
 4024SOL    HW212972   1.133   4.735   3.774
 4025SOL     OW12973   1.261   6.009   3.506
 4025SOL    HW112974   1.359   6.007   3.483
 4025SOL    HW212975   1.209   5.962   3.435
 4026SOL     OW12976   0.013   6.192   4.059
 4026SOL    HW112977   7.009   6.096   4.062
 4026SOL    HW212978   0.096   6.203   4.113
 4027SOL     OW12979   2.393   3.628   5.918
 4027SOL    HW112980   2.372   3.668   5.829
 4027SOL    HW212981   2.490   3.644   5.939
 4028SOL     OW12982   4.833   1.589   2.498
 4028SOL    HW112983   4.923   1.582   2.540
 4028SOL    HW212984   4.776   1.652   2.550
 4029SOL     OW12985   2.726   4.489   6.638
 4029SOL    HW112986   2.667   4.561   6.675
 4029SOL    HW212987   2.717   4.486   6.539
 4030SOL     OW12988   6.938   0.784   2.146
 4030SOL    HW112989   6.839   0.770   2.142
 4030SOL    HW212990   6.982   0.734   2.072
 4031SOL     OW12991   5.529   0.301   1.350
 4031SOL    HW112992   5.488   0.221   1.306
 4031SOL    HW212993   5.619   0.318   1.311
 4032SOL     OW12994   6.017   6.835   1.349
 4032SOL    HW112995   5.977   6.921   1.318
 4032SOL    HW212996   6.116   6.846   1.358
 4033SOL     OW12997   3.323   2.067   2.526
 4033SOL    HW112998   3.348   2.035   2.435
 4033SOL    HW212999   3.402   2.109   2.571
 4034SOL     OW13000   0.414   3.194   4.627
 4034SOL    HW113001   0.403   3.121   4.694
 4034SOL    HW213002   0.352   3.269   4.650
 4035SOL     OW13003   6.560   2.237   1.131
 4035SOL    HW113004   6.500   2.189   1.195
 4035SOL    HW213005   6.621   2.298   1.182
 4036SOL     OW13006   3.211   5.504   3.630
 4036SOL    HW113007   3.115   5.521   3.654
 4036SOL    HW213008   3.216   5.432   3.561
 4037SOL     OW13009   2.192   1.232   5.577
 4037SOL    HW113010   2.194   1.332   5.570
 4037SOL    HW213011   2.196   1.193   5.485
 4038SOL     OW13012   3.636   4.047   6.056
 4038SOL    HW113013   3.656   3.979   6.126
 4038SOL    HW213014   3.643   4.005   5.966
 4039SOL     OW13015   5.262   4.700   1.692
 4039SOL    HW113016   5.352   4.742   1.679
 4039SOL    HW213017   5.240   4.699   1.790
 4040SOL     OW13018   3.833   5.741   5.516
 4040SOL    HW113019   3.798   5.671   5.455
 4040SOL    HW213020   3.927   5.764   5.490
 4041SOL     OW13021   1.878   6.851   1.399
 4041SOL    HW113022   1.908   6.811   1.313
 4041SOL    HW213023   1.957   6.883   1.451
 4042SOL     OW13024   6.089   0.348   3.013
 4042SOL    HW113025   6.048   0.390   2.932
 4042SOL    HW213026   6.176   0.393   3.034
 4043SOL     OW13027   5.711   3.732   6.690
 4043SOL    HW113028   5.725   3.825   6.655
 4043SOL    HW213029   5.669   3.736   6.780
 4044SOL     OW13030   4.049   5.007   3.012
 4044SOL    HW113031   4.129   5.044   2.964
 4044SOL    HW213032   4.061   5.021   3.110
 4045SOL     OW13033   4.917   6.850   6.157
 4045SOL    HW113034   4.903   6.830   6.254
 4045SOL    HW213035   4.908   6.948   6.142
 4046SOL     OW13036   0.821   1.643   3.327
 4046SOL    HW113037   0.848   1.737   3.308
 4046SOL    HW213038   0.722   1.640   3.345
 4047SOL     OW13039   2.718   3.100   6.474
 4047SOL    HW113040   2.656   3.074   6.548
 4047SOL    HW213041   2.730   3.200   6.474
 4048SOL     OW13042   4.874   0.799   2.346
 4048SOL    HW113043   4.950   0.807   2.410
 4048SOL    HW213044   4.909   0.793   2.253
 4049SOL     OW13045   3.647   5.998   6.772
 4049SOL    HW113046   3.616   5.904   6.781
 4049SOL    HW213047   3.711   6.020   6.846
 4050SOL     OW13048   0.737   6.078   2.435
 4050SOL    HW113049   0.675   6.138   2.484
 4050SOL    HW213050   0.696   6.050   2.348
 4051SOL     OW13051   5.316   1.198   6.073
 4051SOL    HW113052   5.413   1.216   6.055
 4051SOL    HW213053   5.277   1.273   6.127
 4052SOL     OW13054   6.465   1.379   2.881
 4052SOL    HW113055   6.526   1.457   2.866
 4052SOL    HW213056   6.490   1.332   2.966
 4053SOL     OW13057   1.100   5.622   4.778
 4053SOL    HW113058   1.122   5.613   4.681
 4053SOL    HW213059   1.036   5.551   4.805
 4054SOL     OW13060   4.485   4.163   1.298
 4054SOL    HW113061   4.442   4.204   1.217
 4054SOL    HW213062   4.525   4.235   1.354
 4055SOL     OW13063   1.711   3.954   2.033
 4055SOL    HW113064   1.655   3.959   1.950
 4055SOL    HW213065   1.654   3.976   2.113
 4056SOL     OW13066   5.434   3.701   1.022
 4056SOL    HW113067   5.423   3.615   1.071
 4056SOL    HW213068   5.430   3.777   1.088
 4057SOL     OW13069   6.713   3.219   6.459
 4057SOL    HW113070   6.641   3.218   6.388
 4057SOL    HW213071   6.670   3.219   6.549
 4058SOL     OW13072   2.493   5.472   5.064
 4058SOL    HW113073   2.492   5.562   5.021
 4058SOL    HW213074   2.489   5.401   4.993
 4059SOL     OW13075   0.952   2.531   3.987
 4059SOL    HW113076   0.902   2.591   4.051
 4059SOL    HW213077   1.008   2.467   4.040
 4060SOL     OW13078   6.419   5.807   4.720
 4060SOL    HW113079   6.403   5.774   4.813
 4060SOL    HW213080   6.401   5.732   4.656
 4061SOL     OW13081   2.632   5.175   1.815
 4061SOL    HW113082   2.624   5.078   1.790
 4061SOL    HW213083   2.678   5.184   1.903
 4062SOL     OW13084   2.069   1.449   1.760
 4062SOL    HW113085   2.082   1.354   1.788
 4062SOL    HW213086   2.152   1.484   1.718
 4063SOL     OW13087   5.613   6.902   1.194
 4063SOL    HW113088   5.569   6.984   1.158
 4063SOL    HW213089   5.589   6.890   1.290
 4064SOL     OW13090   1.969   1.996   4.717
 4064SOL    HW113091   1.880   2.029   4.685
 4064SOL    HW213092   1.985   1.904   4.681
 4065SOL     OW13093   1.470   6.768   0.100
 4065SOL    HW113094   1.543   6.783   0.167
 4065SOL    HW213095   1.382   6.790   0.141
 4066SOL     OW13096   6.555   3.977   2.641
 4066SOL    HW113097   6.540   4.072   2.616
 4066SOL    HW213098   6.514   3.917   2.572
 4067SOL     OW13099   6.012   3.934   2.485
 4067SOL    HW113100   5.989   3.996   2.560
 4067SOL    HW213101   5.927   3.894   2.448
 4068SOL     OW13102   1.767   2.731   4.622
 4068SOL    HW113103   1.844   2.794   4.632
 4068SOL    HW213104   1.705   2.765   4.551
 4069SOL     OW13105   3.640   6.491   6.719
 4069SOL    HW113106   3.680   6.514   6.631
 4069SOL    HW213107   3.548   6.453   6.705
 4070SOL     OW13108   1.227   2.913   3.005
 4070SOL    HW113109   1.185   2.941   2.919
 4070SOL    HW213110   1.195   2.972   3.079
 4071SOL     OW13111   1.218   0.340   3.990
 4071SOL    HW113112   1.191   0.365   3.898
 4071SOL    HW213113   1.148   0.369   4.055
 4072SOL     OW13114   1.411   5.225   4.208
 4072SOL    HW113115   1.363   5.239   4.121
 4072SOL    HW213116   1.493   5.170   4.192
 4073SOL     OW13117   2.296   5.195   0.244
 4073SOL    HW113118   2.290   5.289   0.212
 4073SOL    HW213119   2.368   5.147   0.194
 4074SOL     OW13120   1.126   4.901   1.686
 4074SOL    HW113121   1.181   4.863   1.612
 4074SOL    HW213122   1.077   4.827   1.732
 4075SOL     OW13123   5.351   1.569   0.591
 4075SOL    HW113124   5.270   1.524   0.554
 4075SOL    HW213125   5.370   1.535   0.683
 4076SOL     OW13126   3.699   3.399   5.304
 4076SOL    HW113127   3.615   3.454   5.307
 4076SOL    HW213128   3.776   3.456   5.276
 4077SOL     OW13129   4.494   1.376   1.419
 4077SOL    HW113130   4.447   1.463   1.401
 4077SOL    HW213131   4.458   1.337   1.504
 4078SOL     OW13132   3.009   4.811   2.781
 4078SOL    HW113133   3.028   4.835   2.686
 4078SOL    HW213134   3.078   4.747   2.814
 4079SOL     OW13135   1.786   2.063   4.105
 4079SOL    HW113136   1.706   2.117   4.132
 4079SOL    HW213137   1.825   2.100   4.021
 4080SOL     OW13138   4.858   2.251   5.185
 4080SOL    HW113139   4.833   2.348   5.191
 4080SOL    HW213140   4.944   2.242   5.134
 4081SOL     OW13141   2.017   2.940   4.064
 4081SOL    HW113142   1.982   2.883   3.989
 4081SOL    HW213143   1.959   3.021   4.074
 4082SOL     OW13144   1.249   3.285   1.000
 4082SOL    HW113145   1.158   3.291   1.041
 4082SOL    HW213146   1.241   3.255   0.905
 4083SOL     OW13147   5.960   2.770   3.449
 4083SOL    HW113148   5.888   2.769   3.379
 4083SOL    HW213149   6.027   2.699   3.428
 4084SOL     OW13150   6.174   1.925   3.786
 4084SOL    HW113151   6.206   1.980   3.709
 4084SOL    HW213152   6.081   1.892   3.768
 4085SOL     OW13153   4.277   6.192   0.720
 4085SOL    HW113154   4.230   6.194   0.631
 4085SOL    HW213155   4.336   6.273   0.728
 4086SOL     OW13156   1.855   5.306   1.360
 4086SOL    HW113157   1.913   5.269   1.433
 4086SOL    HW213158   1.911   5.326   1.280
 4087SOL     OW13159   2.455   2.697   3.104
 4087SOL    HW113160   2.467   2.688   3.202
 4087SOL    HW213161   2.411   2.785   3.083
 4088SOL     OW13162   6.653   2.090   1.412
 4088SOL    HW113163   6.698   2.073   1.324
 4088SOL    HW213164   6.554   2.074   1.402
 4089SOL     OW13165   0.633   6.663   3.230
 4089SOL    HW113166   0.598   6.745   3.276
 4089SOL    HW213167   0.730   6.652   3.251
 4090SOL     OW13168   2.905   4.325   5.976
 4090SOL    HW113169   2.994   4.300   5.938
 4090SOL    HW213170   2.902   4.423   5.994
 4091SOL     OW13171   5.678   6.388   0.039
 4091SOL    HW113172   5.721   6.476   0.058
 4091SOL    HW213173   5.630   6.357   0.121
 4092SOL     OW13174   6.995   2.699   5.290
 4092SOL    HW113175   6.919   2.645   5.254
 4092SOL    HW213176   6.983   2.795   5.265
 4093SOL     OW13177   4.678   0.206   3.760
 4093SOL    HW113178   4.743   0.147   3.714
 4093SOL    HW213179   4.655   0.283   3.701
 4094SOL     OW13180   2.049   4.840   5.276
 4094SOL    HW113181   1.952   4.857   5.257
 4094SOL    HW213182   2.071   4.745   5.253
 4095SOL     OW13183   1.311   3.806   5.977
 4095SOL    HW113184   1.339   3.726   6.030
 4095SOL    HW213185   1.226   3.786   5.929
 4096SOL     OW13186   4.571   5.665   1.172
 4096SOL    HW113187   4.634   5.588   1.184
 4096SOL    HW213188   4.577   5.726   1.251
 4097SOL     OW13189   3.141   4.218   5.860
 4097SOL    HW113190   3.075   4.180   5.795
 4097SOL    HW213191   3.188   4.143   5.907
 4098SOL     OW13192   0.410   2.777   2.435
 4098SOL    HW113193   0.344   2.833   2.485
 4098SOL    HW213194   0.503   2.810   2.454
 4099SOL     OW13195   3.099   5.224   1.944
 4099SOL    HW113196   3.073   5.253   1.852
 4099SOL    HW213197   3.144   5.300   1.992
 4100SOL     OW13198   5.426   5.665   4.080
 4100SOL    HW113199   5.462   5.606   4.008
 4100SOL    HW213200   5.349   5.619   4.125
 4101SOL     OW13201   5.649   1.130   0.206
 4101SOL    HW113202   5.590   1.180   0.269
 4101SOL    HW213203   5.652   1.176   0.118
 4102SOL     OW13204   6.473   0.305   1.412
 4102SOL    HW113205   6.507   0.309   1.506
 4102SOL    HW213206   6.511   0.381   1.359
 4103SOL     OW13207   0.758   1.011   1.890
 4103SOL    HW113208   0.684   1.078   1.884
 4103SOL    HW213209   0.845   1.059   1.898
 4104SOL     OW13210   1.470   4.506   2.423
 4104SOL    HW113211   1.570   4.506   2.417
 4104SOL    HW213212   1.439   4.415   2.451
 4105SOL     OW13213   3.915   5.963   1.046
 4105SOL    HW113214   3.956   6.030   0.984
 4105SOL    HW213215   3.832   5.926   1.004
 4106SOL     OW13216   0.215   3.858   5.012
 4106SOL    HW113217   0.131   3.903   5.041
 4106SOL    HW213218   0.293   3.895   5.063
 4107SOL     OW13219   0.611   6.104   0.748
 4107SOL    HW113220   0.616   6.144   0.839
 4107SOL    HW213221   0.666   6.158   0.684
 4108SOL     OW13222   6.745   4.992   6.074
 4108SOL    HW113223   6.731   5.090   6.087
 4108SOL    HW213224   6.841   4.970   6.090
 4109SOL     OW13225   4.353   6.579   4.334
 4109SOL    HW113226   4.425   6.631   4.288
 4109SOL    HW213227   4.307   6.638   4.400
 4110SOL     OW13228   4.196   4.061   6.719
 4110SOL    HW113229   4.225   3.966   6.731
 4110SOL    HW213230   4.277   4.119   6.705
 4111SOL     OW13231   3.610   3.024   0.298
 4111SOL    HW113232   3.572   3.064   0.382
 4111SOL    HW213233   3.538   2.972   0.251
 4112SOL     OW13234   5.085   1.594   5.504
 4112SOL    HW113235   5.026   1.513   5.503
 4112SOL    HW213236   5.077   1.641   5.592
 4113SOL     OW13237   3.933   5.879   4.849
 4113SOL    HW113238   3.880   5.826   4.782
 4113SOL    HW213239   4.020   5.907   4.808
 4114SOL     OW13240   3.248   2.158   3.599
 4114SOL    HW113241   3.266   2.200   3.510
 4114SOL    HW213242   3.278   2.062   3.597
 4115SOL     OW13243   5.378   6.231   2.623
 4115SOL    HW113244   5.279   6.241   2.633
 4115SOL    HW213245   5.415   6.189   2.705
 4116SOL     OW13246   3.974   2.091   1.446
 4116SOL    HW113247   4.000   2.162   1.511
 4116SOL    HW213248   4.019   2.107   1.358
 4117SOL     OW13249   0.675   5.493   1.554
 4117SOL    HW113250   0.774   5.477   1.556
 4117SOL    HW213251   0.645   5.501   1.459
 4118SOL     OW13252   1.310   6.523   1.011
 4118SOL    HW113253   1.258   6.444   1.046
 4118SOL    HW213254   1.392   6.490   0.964
 4119SOL     OW13255   4.183   1.400   4.155
 4119SOL    HW113256   4.193   1.447   4.068
 4119SOL    HW213257   4.112   1.329   4.146
 4120SOL     OW13258   4.545   6.828   1.862
 4120SOL    HW113259   4.547   6.885   1.781
 4120SOL    HW213260   4.618   6.760   1.858
 4121SOL     OW13261   6.292   1.941   4.582
 4121SOL    HW113262   6.219   1.900   4.638
 4121SOL    HW213263   6.281   1.911   4.488
 4122SOL     OW13264   0.708   6.477   5.216
 4122SOL    HW113265   0.646   6.406   5.250
 4122SOL    HW213266   0.657   6.561   5.199
 4123SOL     OW13267   5.797   4.470   5.887
 4123SOL    HW113268   5.879   4.474   5.944
 4123SOL    HW213269   5.805   4.538   5.814
 4124SOL     OW13270   6.003   5.628   5.027
 4124SOL    HW113271   6.027   5.582   4.942
 4124SOL    HW213272   5.978   5.561   5.096
 4125SOL     OW13273   4.796   0.681   1.547
 4125SOL    HW113274   4.864   0.682   1.620
 4125SOL    HW213275   4.813   0.603   1.486
 4126SOL     OW13276   1.194   4.081   4.410
 4126SOL    HW113277   1.190   4.153   4.340
 4126SOL    HW213278   1.125   4.012   4.390
 4127SOL     OW13279   5.439   3.774   3.941
 4127SOL    HW113280   5.385   3.724   3.873
 4127SOL    HW213281   5.378   3.827   4.000
 4128SOL     OW13282   1.917   4.245   2.427
 4128SOL    HW113283   2.007   4.204   2.431
 4128SOL    HW213284   1.847   4.174   2.436
 4129SOL     OW13285   5.052   1.962   6.215
 4129SOL    HW113286   5.086   1.868   6.219
 4129SOL    HW213287   5.002   1.982   6.300
 4130SOL     OW13288   6.979   3.622   5.470
 4130SOL    HW113289   0.022   3.551   5.455
 4130SOL    HW213290   6.898   3.602   5.414
 4131SOL     OW13291   0.920   5.714   3.958
 4131SOL    HW113292   0.876   5.631   3.992
 4131SOL    HW213293   1.018   5.710   3.976
 4132SOL     OW13294   5.935   3.865   3.845
 4132SOL    HW113295   5.879   3.830   3.770
 4132SOL    HW213296   5.974   3.954   3.818
 4133SOL     OW13297   3.187   0.193   0.960
 4133SOL    HW113298   3.216   0.286   0.942
 4133SOL    HW213299   3.111   0.169   0.899
 4134SOL     OW13300   1.368   2.247   0.467
 4134SOL    HW113301   1.341   2.186   0.542
 4134SOL    HW213302   1.462   2.227   0.439
 4135SOL     OW13303   2.265   0.917   2.328
 4135SOL    HW113304   2.202   0.985   2.290
 4135SOL    HW213305   2.212   0.842   2.369
 4136SOL     OW13306   0.573   2.073   4.177
 4136SOL    HW113307   0.617   2.163   4.182
 4136SOL    HW213308   0.561   2.046   4.082
 4137SOL     OW13309   2.573   3.920   0.675
 4137SOL    HW113310   2.537   3.827   0.674
 4137SOL    HW213311   2.555   3.964   0.587
 4138SOL     OW13312   3.741   4.968   3.899
 4138SOL    HW113313   3.688   4.916   3.967
 4138SOL    HW213314   3.835   4.934   3.898
 4139SOL     OW13315   2.422   2.326   5.997
 4139SOL    HW113316   2.420   2.279   5.909
 4139SOL    HW213317   2.330   2.360   6.019
 4140SOL     OW13318   3.618   0.583   5.047
 4140SOL    HW113319   3.520   0.586   5.027
 4140SOL    HW213320   3.668   0.637   4.979
 4141SOL     OW13321   5.001   4.777   1.560
 4141SOL    HW113322   5.064   4.743   1.631
 4141SOL    HW213323   5.031   4.868   1.530
 4142SOL     OW13324   6.607   5.428   1.142
 4142SOL    HW113325   6.577   5.376   1.062
 4142SOL    HW213326   6.530   5.482   1.177
 4143SOL     OW13327   6.863   3.429   0.428
 4143SOL    HW113328   6.795   3.362   0.460
 4143SOL    HW213329   6.952   3.384   0.418
 4144SOL     OW13330   5.774   2.083   0.727
 4144SOL    HW113331   5.829   2.113   0.649
 4144SOL    HW213332   5.679   2.111   0.715
 4145SOL     OW13333   6.709   6.399   1.843
 4145SOL    HW113334   6.724   6.301   1.860
 4145SOL    HW213335   6.682   6.444   1.927
 4146SOL     OW13336   5.944   0.505   5.930
 4146SOL    HW113337   6.007   0.471   5.861
 4146SOL    HW213338   5.900   0.428   5.976
 4147SOL     OW13339   3.500   1.953   5.583
 4147SOL    HW113340   3.544   2.034   5.623
 4147SOL    HW213341   3.422   1.926   5.640
 4148SOL     OW13342   0.349   0.420   3.957
 4148SOL    HW113343   0.395   0.477   3.888
 4148SOL    HW213344   0.250   0.421   3.940
 4149SOL     OW13345   0.418   3.266   6.969
 4149SOL    HW113346   0.345   3.266   0.011
 4149SOL    HW213347   0.382   3.297   6.881
 4150SOL     OW13348   5.940   0.663   6.141
 4150SOL    HW113349   5.979   0.608   6.067
 4150SOL    HW213350   5.986   0.751   6.144
 4151SOL     OW13351   5.552   5.743   6.874
 4151SOL    HW113352   5.607   5.817   6.913
 4151SOL    HW213353   5.496   5.780   6.799
 4152SOL     OW13354   3.652   5.193   1.958
 4152SOL    HW113355   3.598   5.121   2.002
 4152SOL    HW213356   3.733   5.211   2.014
 4153SOL     OW13357   5.493   5.480   5.538
 4153SOL    HW113358   5.422   5.518   5.598
 4153SOL    HW213359   5.451   5.442   5.456
 4154SOL     OW13360   6.757   3.960   5.242
 4154SOL    HW113361   6.803   4.043   5.272
 4154SOL    HW213362   6.678   3.943   5.301
 4155SOL     OW13363   0.155   3.476   3.194
 4155SOL    HW113364   0.060   3.457   3.220
 4155SOL    HW213365   0.196   3.393   3.155
 4156SOL     OW13366   5.727   0.294   5.095
 4156SOL    HW113367   5.792   0.299   5.019
 4156SOL    HW213368   5.692   0.200   5.102
 4157SOL     OW13369   3.719   0.500   3.879
 4157SOL    HW113370   3.683   0.570   3.817
 4157SOL    HW213371   3.720   0.411   3.833
 4158SOL     OW13372   1.297   5.042   3.913
 4158SOL    HW113373   1.369   5.111   3.919
 4158SOL    HW213374   1.211   5.086   3.884
 4159SOL     OW13375   1.694   3.239   3.596
 4159SOL    HW113376   1.746   3.324   3.600
 4159SOL    HW213377   1.734   3.173   3.659
 4160SOL     OW13378   6.217   0.328   1.231
 4160SOL    HW113379   6.274   0.251   1.204
 4160SOL    HW213380   6.135   0.331   1.175
 4161SOL     OW13381   1.888   0.592   6.386
 4161SOL    HW113382   1.910   0.678   6.341
 4161SOL    HW213383   1.842   0.531   6.321
 4162SOL     OW13384   6.253   0.257   4.920
 4162SOL    HW113385   6.227   0.350   4.944
 4162SOL    HW213386   6.350   0.256   4.893
 4163SOL     OW13387   5.997   1.547   3.185
 4163SOL    HW113388   6.002   1.513   3.279
 4163SOL    HW213389   5.950   1.479   3.128
 4164SOL     OW13390   1.640   0.517   6.888
 4164SOL    HW113391   1.685   0.540   6.802
 4164SOL    HW213392   1.664   0.424   6.914
 4165SOL     OW13393   4.479   6.466   1.450
 4165SOL    HW113394   4.411   6.525   1.494
 4165SOL    HW213395   4.451   6.446   1.357
 4166SOL     OW13396   3.876   2.549   1.134
 4166SOL    HW113397   3.787   2.520   1.099
 4166SOL    HW213398   3.903   2.634   1.090
 4167SOL     OW13399   2.285   2.562   0.967
 4167SOL    HW113400   2.368   2.583   0.915
 4167SOL    HW213401   2.205   2.593   0.916
 4168SOL     OW13402   0.152   4.898   0.987
 4168SOL    HW113403   0.228   4.859   1.040
 4168SOL    HW213404   0.178   4.902   0.890
 4169SOL     OW13405   5.306   3.846   4.462
 4169SOL    HW113406   5.395   3.824   4.502
 4169SOL    HW213407   5.318   3.880   4.369
 4170SOL     OW13408   3.910   2.621   5.628
 4170SOL    HW113409   3.930   2.619   5.530
 4170SOL    HW213410   3.985   2.666   5.677
 4171SOL     OW13411   4.883   4.035   1.070
 4171SOL    HW113412   4.877   4.135   1.065
 4171SOL    HW213413   4.799   3.999   1.109
 4172SOL     OW13414   6.938   2.540   6.876
 4172SOL    HW113415   6.942   2.457   6.820
 4172SOL    HW213416   0.006   2.569   6.897
 4173SOL     OW13417   5.582   3.297   5.201
 4173SOL    HW113418   5.676   3.332   5.207
 4173SOL    HW213419   5.535   3.315   5.287
 4174SOL     OW13420   4.857   0.989   3.944
 4174SOL    HW113421   4.790   1.032   4.004
 4174SOL    HW213422   4.920   0.934   3.998
 4175SOL     OW13423   3.352   0.255   4.151
 4175SOL    HW113424   3.346   0.329   4.218
 4175SOL    HW213425   3.269   0.198   4.157
 4176SOL     OW13426   4.301   6.929   2.528
 4176SOL    HW113427   4.281   0.001   2.534
 4176SOL    HW213428   4.274   6.884   2.614
 4177SOL     OW13429   0.633   5.097   5.048
 4177SOL    HW113430   0.721   5.128   5.012
 4177SOL    HW213431   0.562   5.163   5.024
 4178SOL     OW13432   3.309   1.115   5.618
 4178SOL    HW113433   3.344   1.134   5.526
 4178SOL    HW213434   3.317   1.017   5.637
 4179SOL     OW13435   6.155   3.039   4.276
 4179SOL    HW113436   6.095   3.014   4.352
 4179SOL    HW213437   6.172   2.958   4.219
 4180SOL     OW13438   5.483   4.357   2.366
 4180SOL    HW113439   5.405   4.363   2.304
 4180SOL    HW213440   5.566   4.386   2.318
 4181SOL     OW13441   1.276   2.055   6.169
 4181SOL    HW113442   1.188   2.085   6.207
 4181SOL    HW213443   1.350   2.094   6.224
 4182SOL     OW13444   0.606   0.355   2.629
 4182SOL    HW113445   0.559   0.426   2.681
 4182SOL    HW213446   0.643   0.287   2.692
 4183SOL     OW13447   2.538   1.991   1.568
 4183SOL    HW113448   2.590   2.011   1.485
 4183SOL    HW213449   2.477   1.913   1.551
 4184SOL     OW13450   3.723   5.494   1.201
 4184SOL    HW113451   3.645   5.434   1.218
 4184SOL    HW213452   3.801   5.465   1.257
 4185SOL     OW13453   0.887   5.885   3.610
 4185SOL    HW113454   0.881   5.807   3.547
 4185SOL    HW213455   0.930   5.962   3.562
 4186SOL     OW13456   2.167   4.080   6.790
 4186SOL    HW113457   2.246   4.021   6.806
 4186SOL    HW213458   2.122   4.101   6.876
 4187SOL     OW13459   3.629   3.473   5.631
 4187SOL    HW113460   3.542   3.444   5.670
 4187SOL    HW213461   3.655   3.412   5.556
 4188SOL     OW13462   4.547   0.636   4.485
 4188SOL    HW113463   4.532   0.734   4.487
 4188SOL    HW213464   4.645   0.617   4.486
 4189SOL     OW13465   3.111   1.721   4.423
 4189SOL    HW113466   3.021   1.761   4.442
 4189SOL    HW213467   3.104   1.621   4.428
 4190SOL     OW13468   2.281   0.755   6.529
 4190SOL    HW113469   2.253   0.805   6.447
 4190SOL    HW213470   2.380   0.743   6.529
 4191SOL     OW13471   5.849   3.125   2.808
 4191SOL    HW113472   5.845   3.069   2.724
 4191SOL    HW213473   5.893   3.072   2.881
 4192SOL     OW13474   5.804   1.379   3.037
 4192SOL    HW113475   5.796   1.280   3.034
 4192SOL    HW213476   5.790   1.417   2.946
 4193SOL     OW13477   2.343   6.689   2.097
 4193SOL    HW113478   2.283   6.675   2.176
 4193SOL    HW213479   2.289   6.721   2.019
 4194SOL     OW13480   6.688   1.908   4.385
 4194SOL    HW113481   6.766   1.959   4.349
 4194SOL    HW213482   6.619   1.971   4.420
 4195SOL     OW13483   4.327   0.632   1.358
 4195SOL    HW113484   4.368   0.551   1.399
 4195SOL    HW213485   4.311   0.616   1.260
 4196SOL     OW13486   5.795   2.489   3.916
 4196SOL    HW113487   5.718   2.426   3.923
 4196SOL    HW213488   5.817   2.525   4.006
 4197SOL     OW13489   5.208   4.393   4.619
 4197SOL    HW113490   5.167   4.475   4.578
 4197SOL    HW213491   5.222   4.325   4.547
 4198SOL     OW13492   5.764   3.445   0.159
 4198SOL    HW113493   5.706   3.453   0.078
 4198SOL    HW213494   5.785   3.349   0.176
 4199SOL     OW13495   3.064   3.124   5.298
 4199SOL    HW113496   3.032   3.214   5.269
 4199SOL    HW213497   3.091   3.070   5.218
 4200SOL     OW13498   2.197   6.770   6.133
 4200SOL    HW113499   2.235   6.782   6.224
 4200SOL    HW213500   2.206   6.674   6.106
 4201SOL     OW13501   6.294   6.774   3.064
 4201SOL    HW113502   6.200   6.802   3.085
 4201SOL    HW213503   6.316   6.690   3.112
 4202SOL     OW13504   5.210   4.886   5.701
 4202SOL    HW113505   5.181   4.838   5.618
 4202SOL    HW213506   5.309   4.878   5.710
 4203SOL     OW13507   4.811   6.192   2.864
 4203SOL    HW113508   4.736   6.130   2.887
 4203SOL    HW213509   4.823   6.195   2.764
 4204SOL     OW13510   2.911   3.072   1.828
 4204SOL    HW113511   2.967   2.994   1.802
 4204SOL    HW213512   2.931   3.098   1.922
 4205SOL     OW13513   3.341   4.899   4.385
 4205SOL    HW113514   3.433   4.891   4.423
 4205SOL    HW213515   3.329   4.832   4.312
 4206SOL     OW13516   4.576   0.101   5.493
 4206SOL    HW113517   4.624   0.182   5.461
 4206SOL    HW213518   4.496   0.128   5.547
 4207SOL     OW13519   1.649   1.336   1.826
 4207SOL    HW113520   1.703   1.378   1.898
 4207SOL    HW213521   1.624   1.405   1.758
 4208SOL     OW13522   1.720   2.659   1.444
 4208SOL    HW113523   1.662   2.626   1.519
 4208SOL    HW213524   1.688   2.621   1.357
 4209SOL     OW13525   1.199   6.979   5.032
 4209SOL    HW113526   1.246   6.905   4.984
 4209SOL    HW213527   1.171   0.023   4.965
 4210SOL     OW13528   3.987   3.479   1.468
 4210SOL    HW113529   4.068   3.445   1.516
 4210SOL    HW213530   3.907   3.467   1.526
 4211SOL     OW13531   4.993   4.722   5.224
 4211SOL    HW113532   4.904   4.761   5.202
 4211SOL    HW213533   5.064   4.768   5.171
 4212SOL     OW13534   6.185   1.386   2.823
 4212SOL    HW113535   6.281   1.406   2.847
 4212SOL    HW213536   6.164   1.291   2.846
 4213SOL     OW13537   1.992   0.720   2.027
 4213SOL    HW113538   1.988   0.819   2.017
 4213SOL    HW213539   1.925   0.691   2.096
 4214SOL     OW13540   0.904   3.412   5.967
 4214SOL    HW113541   0.990   3.367   5.941
 4214SOL    HW213542   0.828   3.366   5.921
 4215SOL     OW13543   0.592   5.806   4.641
 4215SOL    HW113544   0.557   5.768   4.726
 4215SOL    HW213545   0.666   5.747   4.606
 4216SOL     OW13546   1.248   2.159   3.919
 4216SOL    HW113547   1.309   2.081   3.932
 4216SOL    HW213548   1.204   2.181   4.006
 4217SOL     OW13549   0.435   0.057   2.470
 4217SOL    HW113550   0.339   0.036   2.453
 4217SOL    HW213551   0.464   0.134   2.414
 4218SOL     OW13552   4.921   0.351   1.779
 4218SOL    HW113553   5.016   0.365   1.753
 4218SOL    HW213554   4.892   0.425   1.840
 4219SOL     OW13555   3.583   5.006   5.023
 4219SOL    HW113556   3.533   4.932   5.067
 4219SOL    HW213557   3.562   5.007   4.925
 4220SOL     OW13558   6.254   3.565   3.432
 4220SOL    HW113559   6.240   3.476   3.476
 4220SOL    HW213560   6.267   3.552   3.334
 4221SOL     OW13561   5.437   5.286   6.224
 4221SOL    HW113562   5.495   5.361   6.256
 4221SOL    HW213563   5.382   5.252   6.301
 4222SOL     OW13564   5.938   2.218   1.925
 4222SOL    HW113565   5.969   2.309   1.899
 4222SOL    HW213566   5.904   2.170   1.844
 4223SOL     OW13567   3.463   3.856   2.555
 4223SOL    HW113568   3.382   3.863   2.498
 4223SOL    HW213569   3.483   3.759   2.572
 4224SOL     OW13570   4.918   2.536   4.717
 4224SOL    HW113571   4.957   2.493   4.799
 4224SOL    HW213572   4.861   2.469   4.669
 4225SOL     OW13573   6.126   0.771   4.659
 4225SOL    HW113574   6.085   0.761   4.749
 4225SOL    HW213575   6.055   0.790   4.592
 4226SOL     OW13576   1.083   0.926   3.695
 4226SOL    HW113577   1.060   0.851   3.757
 4226SOL    HW213578   1.168   0.970   3.726
 4227SOL     OW13579   3.964   4.853   0.291
 4227SOL    HW113580   3.930   4.807   0.209
 4227SOL    HW213581   3.905   4.830   0.369
 4228SOL     OW13582   5.848   6.143   3.761
 4228SOL    HW113583   5.838   6.045   3.778
 4228SOL    HW213584   5.799   6.194   3.832
 4229SOL     OW13585   4.169   5.256   6.432
 4229SOL    HW113586   4.113   5.282   6.511
 4229SOL    HW213587   4.115   5.265   6.348
 4230SOL     OW13588   3.107   0.427   4.998
 4230SOL    HW113589   3.033   0.467   5.051
 4230SOL    HW213590   3.147   0.350   5.049
 4231SOL     OW13591   5.224   6.416   5.193
 4231SOL    HW113592   5.173   6.330   5.197
 4231SOL    HW213593   5.312   6.405   5.239
 4232SOL     OW13594   1.064   5.145   2.349
 4232SOL    HW113595   1.044   5.216   2.416
 4232SOL    HW213596   1.084   5.187   2.260
 4233SOL     OW13597   5.860   0.338   6.790
 4233SOL    HW113598   5.885   0.332   6.693
 4233SOL    HW213599   5.900   0.421   6.829
 4234SOL     OW13600   2.925   5.214   6.295
 4234SOL    HW113601   2.861   5.236   6.222
 4234SOL    HW213602   3.006   5.170   6.256
 4235SOL     OW13603   6.113   4.461   6.063
 4235SOL    HW113604   6.196   4.444   6.115
 4235SOL    HW213605   6.094   4.383   6.003
 4236SOL     OW13606   0.411   2.590   3.465
 4236SOL    HW113607   0.450   2.642   3.390
 4236SOL    HW213608   0.389   2.652   3.541
 4237SOL     OW13609   5.094   4.346   4.849
 4237SOL    HW113610   5.157   4.361   4.773
 4237SOL    HW213611   5.019   4.288   4.820
 4238SOL     OW13612   4.116   5.310   3.521
 4238SOL    HW113613   4.017   5.299   3.512
 4238SOL    HW213614   4.156   5.320   3.430
 4239SOL     OW13615   4.646   6.386   5.053
 4239SOL    HW113616   4.703   6.347   4.981
 4239SOL    HW213617   4.585   6.455   5.014
 4240SOL     OW13618   3.126   5.075   0.166
 4240SOL    HW113619   3.151   4.979   0.176
 4240SOL    HW213620   3.194   5.133   0.212
 4241SOL     OW13621   5.237   0.059   1.306
 4241SOL    HW113622   5.201   0.146   1.338
 4241SOL    HW213623   5.169   0.013   1.248
 4242SOL     OW13624   2.364   6.752   2.705
 4242SOL    HW113625   2.457   6.788   2.713
 4242SOL    HW213626   2.357   6.695   2.623
 4243SOL     OW13627   0.731   3.452   2.270
 4243SOL    HW113628   0.775   3.537   2.242
 4243SOL    HW213629   0.643   3.442   2.222
 4244SOL     OW13630   5.137   6.207   1.149
 4244SOL    HW113631   5.069   6.136   1.170
 4244SOL    HW213632   5.108   6.257   1.068
 4245SOL     OW13633   6.364   2.793   0.380
 4245SOL    HW113634   6.288   2.852   0.354
 4245SOL    HW213635   6.332   2.699   0.386
 4246SOL     OW13636   5.222   2.272   2.764
 4246SOL    HW113637   5.150   2.268   2.695
 4246SOL    HW213638   5.243   2.368   2.786
 4247SOL     OW13639   2.161   5.012   4.778
 4247SOL    HW113640   2.067   5.043   4.767
 4247SOL    HW213641   2.163   4.912   4.786
 4248SOL     OW13642   1.990   0.887   2.695
 4248SOL    HW113643   1.946   0.922   2.613
 4248SOL    HW213644   1.936   0.913   2.775
 4249SOL     OW13645   0.089   0.881   4.292
 4249SOL    HW113646   0.039   0.964   4.268
 4249SOL    HW213647   0.053   0.844   4.378
 4250SOL     OW13648   0.282   6.077   4.456
 4250SOL    HW113649   0.192   6.054   4.493
 4250SOL    HW213650   0.338   5.995   4.451
 4251SOL     OW13651   5.879   2.434   6.415
 4251SOL    HW113652   5.875   2.498   6.338
 4251SOL    HW213653   5.962   2.379   6.408
 4252SOL     OW13654   6.381   6.452   5.425
 4252SOL    HW113655   6.323   6.410   5.495
 4252SOL    HW213656   6.473   6.466   5.462
 4253SOL     OW13657   4.486   6.069   2.562
 4253SOL    HW113658   4.389   6.079   2.540
 4253SOL    HW213659   4.532   6.157   2.551
 4254SOL     OW13660   2.140   3.356   6.701
 4254SOL    HW113661   2.147   3.434   6.640
 4254SOL    HW213662   2.120   3.274   6.647
 4255SOL     OW13663   0.448   3.911   2.815
 4255SOL    HW113664   0.523   3.974   2.796
 4255SOL    HW213665   0.456   3.831   2.755
 4256SOL     OW13666   0.438   5.265   2.349
 4256SOL    HW113667   0.482   5.182   2.383
 4256SOL    HW213668   0.473   5.288   2.259
 4257SOL     OW13669   6.206   1.118   5.254
 4257SOL    HW113670   6.129   1.147   5.196
 4257SOL    HW213671   6.176   1.116   5.349
 4258SOL     OW13672   3.720   5.810   0.642
 4258SOL    HW113673   3.742   5.741   0.573
 4258SOL    HW213674   3.674   5.887   0.599
 4259SOL     OW13675   0.938   6.577   1.674
 4259SOL    HW113676   0.992   6.648   1.720
 4259SOL    HW213677   0.885   6.618   1.600
 4260SOL     OW13678   5.226   6.782   5.001
 4260SOL    HW113679   5.171   6.748   4.924
 4260SOL    HW213680   5.166   6.815   5.073
 4261SOL     OW13681   1.782   0.106   4.423
 4261SOL    HW113682   1.814   0.177   4.360
 4261SOL    HW213683   1.758   0.147   4.510
 4262SOL     OW13684   1.501   4.628   6.563
 4262SOL    HW113685   1.465   4.635   6.470
 4262SOL    HW213686   1.601   4.627   6.560
 4263SOL     OW13687   2.868   2.104   3.526
 4263SOL    HW113688   2.872   2.050   3.610
 4263SOL    HW213689   2.935   2.069   3.461
 4264SOL     OW13690   5.489   1.585   4.221
 4264SOL    HW113691   5.559   1.579   4.150
 4264SOL    HW213692   5.442   1.497   4.231
 4265SOL     OW13693   2.449   0.554   0.946
 4265SOL    HW113694   2.437   0.462   0.908
 4265SOL    HW213695   2.478   0.548   1.041
 4266SOL     OW13696   1.203   6.542   0.202
 4266SOL    HW113697   1.175   6.468   0.141
 4266SOL    HW213698   1.168   6.629   0.168
 4267SOL     OW13699   1.684   4.091   4.285
 4267SOL    HW113700   1.759   4.032   4.315
 4267SOL    HW213701   1.685   4.098   4.185
 4268SOL     OW13702   1.579   5.022   6.556
 4268SOL    HW113703   1.659   5.025   6.615
 4268SOL    HW213704   1.521   4.944   6.581
 4269SOL     OW13705   3.392   1.847   4.439
 4269SOL    HW113706   3.401   1.928   4.382
 4269SOL    HW213707   3.297   1.836   4.467
 4270SOL     OW13708   3.795   2.837   0.315
 4270SOL    HW113709   3.747   2.784   0.385
 4270SOL    HW213710   3.750   2.926   0.304
 4271SOL     OW13711   6.267   0.347   0.904
 4271SOL    HW113712   6.258   0.438   0.946
 4271SOL    HW213713   6.250   0.354   0.806
 4272SOL     OW13714   6.268   2.938   5.763
 4272SOL    HW113715   6.286   2.923   5.860
 4272SOL    HW213716   6.195   3.006   5.753
 4273SOL     OW13717   4.456   5.813   4.672
 4273SOL    HW113718   4.480   5.870   4.595
 4273SOL    HW213719   4.534   5.805   4.734
 4274SOL     OW13720   6.218   6.813   1.721
 4274SOL    HW113721   6.265   6.897   1.748
 4274SOL    HW213722   6.172   6.773   1.801
 4275SOL     OW13723   0.797   2.686   3.617
 4275SOL    HW113724   0.825   2.600   3.661
 4275SOL    HW213725   0.875   2.725   3.568
 4276SOL     OW13726   2.933   5.710   4.075
 4276SOL    HW113727   2.864   5.759   4.022
 4276SOL    HW213728   2.887   5.653   4.144
 4277SOL     OW13729   6.128   5.713   4.421
 4277SOL    HW113730   6.138   5.784   4.351
 4277SOL    HW213731   6.065   5.642   4.389
 4278SOL     OW13732   0.738   0.185   1.901
 4278SOL    HW113733   0.789   0.140   1.975
 4278SOL    HW213734   0.663   0.125   1.871
 4279SOL     OW13735   1.502   2.349   2.719
 4279SOL    HW113736   1.479   2.276   2.784
 4279SOL    HW213737   1.588   2.326   2.673
 4280SOL     OW13738   6.674   6.720   6.236
 4280SOL    HW113739   6.646   6.625   6.223
 4280SOL    HW213740   6.595   6.780   6.226
 4281SOL     OW13741   4.561   5.377   3.815
 4281SOL    HW113742   4.579   5.451   3.880
 4281SOL    HW213743   4.528   5.416   3.729
 4282SOL     OW13744   3.337   4.330   0.904
 4282SOL    HW113745   3.370   4.421   0.878
 4282SOL    HW213746   3.260   4.339   0.966
 4283SOL     OW13747   4.822   1.223   3.534
 4283SOL    HW113748   4.732   1.187   3.561
 4283SOL    HW213749   4.839   1.201   3.438
 4284SOL     OW13750   5.071   5.961   6.853
 4284SOL    HW113751   5.009   5.911   6.914
 4284SOL    HW213752   5.031   5.966   6.761
 4285SOL     OW13753   3.132   0.676   5.864
 4285SOL    HW113754   3.033   0.683   5.875
 4285SOL    HW213755   3.161   0.582   5.886
 4286SOL     OW13756   6.707   1.036   6.378
 4286SOL    HW113757   6.731   1.053   6.282
 4286SOL    HW213758   6.627   0.976   6.382
 4287SOL     OW13759   4.644   0.678   0.068
 4287SOL    HW113760   4.657   0.776   0.082
 4287SOL    HW213761   4.552   0.651   0.096
 4288SOL     OW13762   6.714   6.095   2.304
 4288SOL    HW113763   6.805   6.134   2.316
 4288SOL    HW213764   6.646   6.169   2.306
 4289SOL     OW13765   0.718   2.823   4.875
 4289SOL    HW113766   0.650   2.758   4.841
 4289SOL    HW213767   0.799   2.819   4.816
 4290SOL     OW13768   0.246   0.647   3.149
 4290SOL    HW113769   0.241   0.743   3.178
 4290SOL    HW213770   0.334   0.609   3.177
 4291SOL     OW13771   4.935   3.158   5.956
 4291SOL    HW113772   4.882   3.235   5.992
 4291SOL    HW213773   4.964   3.177   5.863
 4292SOL     OW13774   5.327   1.810   0.487
 4292SOL    HW113775   5.398   1.837   0.423
 4292SOL    HW213776   5.346   1.718   0.522
 4293SOL     OW13777   4.924   3.633   6.593
 4293SOL    HW113778   4.920   3.647   6.692
 4293SOL    HW213779   4.832   3.615   6.558
 4294SOL     OW13780   3.233   1.901   6.229
 4294SOL    HW113781   3.224   1.802   6.217
 4294SOL    HW213782   3.279   1.940   6.150
 4295SOL     OW13783   4.323   6.548   2.711
 4295SOL    HW113784   4.375   6.469   2.743
 4295SOL    HW213785   4.253   6.518   2.646
 4296SOL     OW13786   2.575   6.897   0.901
 4296SOL    HW113787   2.654   6.884   0.960
 4296SOL    HW213788   2.519   6.972   0.936
 4297SOL     OW13789   6.015   5.725   0.879
 4297SOL    HW113790   6.110   5.713   0.907
 4297SOL    HW213791   5.997   5.822   0.861
 4298SOL     OW13792   3.375   6.384   1.472
 4298SOL    HW113793   3.344   6.343   1.386
 4298SOL    HW213794   3.325   6.469   1.489
 4299SOL     OW13795   0.870   2.680   6.906
 4299SOL    HW113796   0.834   2.761   6.860
 4299SOL    HW213797   0.901   2.613   6.839
 4300SOL     OW13798   3.991   0.545   0.959
 4300SOL    HW113799   3.972   0.640   0.931
 4300SOL    HW213800   4.055   0.504   0.894
 4301SOL     OW13801   3.046   6.688   2.367
 4301SOL    HW113802   3.028   6.590   2.373
 4301SOL    HW213803   2.960   6.736   2.350
 4302SOL     OW13804   1.919   5.946   6.321
 4302SOL    HW113805   1.832   5.901   6.341
 4302SOL    HW213806   1.904   6.018   6.253
 4303SOL     OW13807   6.014   4.359   4.483
 4303SOL    HW113808   6.020   4.373   4.582
 4303SOL    HW213809   5.940   4.295   4.462
 4304SOL     OW13810   3.464   3.583   1.669
 4304SOL    HW113811   3.393   3.648   1.695
 4304SOL    HW213812   3.431   3.490   1.684
 4305SOL     OW13813   0.167   0.278   5.411
 4305SOL    HW113814   0.204   0.304   5.322
 4305SOL    HW213815   0.224   0.316   5.483
 4306SOL     OW13816   4.861   3.859   4.473
 4306SOL    HW113817   4.844   3.916   4.553
 4306SOL    HW213818   4.855   3.915   4.390
 4307SOL     OW13819   5.862   1.804   5.365
 4307SOL    HW113820   5.945   1.760   5.329
 4307SOL    HW213821   5.782   1.766   5.318
 4308SOL     OW13822   4.809   4.594   1.511
 4308SOL    HW113823   4.865   4.673   1.489
 4308SOL    HW213824   4.778   4.551   1.426
 4309SOL     OW13825   1.023   3.341   0.654
 4309SOL    HW113826   1.104   3.293   0.685
 4309SOL    HW213827   0.943   3.282   0.664
 4310SOL     OW13828   0.169   1.649   1.972
 4310SOL    HW113829   0.142   1.553   1.972
 4310SOL    HW213830   0.250   1.660   2.030
 4311SOL     OW13831   1.344   6.403   2.380
 4311SOL    HW113832   1.304   6.312   2.383
 4311SOL    HW213833   1.398   6.414   2.297
 4312SOL     OW13834   0.544   4.744   2.285
 4312SOL    HW113835   0.468   4.685   2.312
 4312SOL    HW213836   0.540   4.829   2.337
 4313SOL     OW13837   6.441   1.464   6.785
 4313SOL    HW113838   6.462   1.560   6.801
 4313SOL    HW213839   6.479   1.409   6.859
 4314SOL     OW13840   6.743   2.769   4.845
 4314SOL    HW113841   6.763   2.740   4.939
 4314SOL    HW213842   6.802   2.719   4.782
 4315SOL     OW13843   2.473   1.119   4.271
 4315SOL    HW113844   2.549   1.182   4.287
 4315SOL    HW213845   2.507   1.035   4.229
 4316SOL     OW13846   5.816   0.119   2.205
 4316SOL    HW113847   5.821   0.207   2.159
 4316SOL    HW213848   5.805   0.046   2.138
 4317SOL     OW13849   4.901   0.932   5.628
 4317SOL    HW113850   4.841   0.975   5.561
 4317SOL    HW213851   4.863   0.946   5.720
 4318SOL     OW13852   0.685   1.560   3.984
 4318SOL    HW113853   0.765   1.505   3.959
 4318SOL    HW213854   0.620   1.503   4.034
 4319SOL     OW13855   0.983   3.964   2.005
 4319SOL    HW113856   0.966   3.936   1.910
 4319SOL    HW213857   0.898   3.957   2.057
 4320SOL     OW13858   3.777   6.583   0.264
 4320SOL    HW113859   3.826   6.634   0.334
 4320SOL    HW213860   3.831   6.502   0.238
 4321SOL     OW13861   6.464   6.814   2.381
 4321SOL    HW113862   6.417   6.871   2.449
 4321SOL    HW213863   6.547   6.861   2.351
 4322SOL     OW13864   0.615   3.093   5.281
 4322SOL    HW113865   0.559   3.047   5.213
 4322SOL    HW213866   0.631   3.031   5.358
 4323SOL     OW13867   4.243   5.647   0.045
 4323SOL    HW113868   4.304   5.599   0.108
 4323SOL    HW213869   4.175   5.582   0.009
 4324SOL     OW13870   0.097   3.394   6.017
 4324SOL    HW113871   0.170   3.456   5.991
 4324SOL    HW213872   0.014   3.415   5.966
 4325SOL     OW13873   3.106   0.667   2.619
 4325SOL    HW113874   3.126   0.678   2.716
 4325SOL    HW213875   3.030   0.727   2.594
 4326SOL     OW13876   5.045   2.558   2.306
 4326SOL    HW113877   4.955   2.548   2.349
 4326SOL    HW213878   5.037   2.621   2.228
 4327SOL     OW13879   3.590   5.528   4.420
 4327SOL    HW113880   3.688   5.518   4.408
 4327SOL    HW213881   3.564   5.501   4.513
 4328SOL     OW13882   5.882   5.407   5.374
 4328SOL    HW113883   5.967   5.460   5.375
 4328SOL    HW213884   5.838   5.413   5.463
 4329SOL     OW13885   5.876   3.280   6.145
 4329SOL    HW113886   5.850   3.347   6.076
 4329SOL    HW213887   5.800   3.218   6.162
 4330SOL     OW13888   2.512   4.995   5.355
 4330SOL    HW113889   2.552   4.953   5.436
 4330SOL    HW213890   2.413   5.001   5.367
 4331SOL     OW13891   6.403   0.612   1.710
 4331SOL    HW113892   6.336   0.546   1.677
 4331SOL    HW213893   6.475   0.563   1.760
 4332SOL     OW13894   6.878   4.576   2.632
 4332SOL    HW113895   6.841   4.485   2.648
 4332SOL    HW213896   6.947   4.572   2.560
 4333SOL     OW13897   4.264   2.104   4.955
 4333SOL    HW113898   4.316   2.115   4.870
 4333SOL    HW213899   4.268   2.009   4.985
 4334SOL     OW13900   1.413   2.975   3.651
 4334SOL    HW113901   1.384   3.028   3.572
 4334SOL    HW213902   1.370   3.012   3.734
 4335SOL     OW13903   3.502   3.499   1.411
 4335SOL    HW113904   3.501   3.536   1.504
 4335SOL    HW213905   3.470   3.569   1.347
 4336SOL     OW13906   2.339   5.750   5.960
 4336SOL    HW113907   2.385   5.795   6.036
 4336SOL    HW213908   2.351   5.804   5.876
 4337SOL     OW13909   1.403   5.507   2.495
 4337SOL    HW113910   1.366   5.462   2.577
 4337SOL    HW213911   1.503   5.501   2.495
 4338SOL     OW13912   5.100   0.499   5.586
 4338SOL    HW113913   5.112   0.552   5.671
 4338SOL    HW213914   5.165   0.531   5.518
 4339SOL     OW13915   4.119   2.759   5.767
 4339SOL    HW113916   4.087   2.854   5.761
 4339SOL    HW213917   4.215   2.755   5.738
 4340SOL     OW13918   6.440   4.018   1.037
 4340SOL    HW113919   6.467   4.110   1.067
 4340SOL    HW213920   6.518   3.973   0.993
 4341SOL     OW13921   1.250   6.138   2.468
 4341SOL    HW113922   1.243   6.044   2.432
 4341SOL    HW213923   1.159   6.176   2.480
 4342SOL     OW13924   4.911   3.866   2.909
 4342SOL    HW113925   4.901   3.879   3.008
 4342SOL    HW213926   4.898   3.770   2.886
 4343SOL     OW13927   3.961   0.396   6.205
 4343SOL    HW113928   3.901   0.463   6.162
 4343SOL    HW213929   3.924   0.304   6.190
 4344SOL     OW13930   0.046   2.500   3.814
 4344SOL    HW113931   6.982   2.504   3.770
 4344SOL    HW213932   0.087   2.411   3.798
 4345SOL     OW13933   2.876   3.573   2.294
 4345SOL    HW113934   2.949   3.533   2.349
 4345SOL    HW213935   2.807   3.503   2.274
 4346SOL     OW13936   2.124   2.981   1.906
 4346SOL    HW113937   2.184   3.056   1.880
 4346SOL    HW213938   2.035   3.018   1.935
 4347SOL     OW13939   5.612   5.055   1.827
 4347SOL    HW113940   5.576   4.961   1.824
 4347SOL    HW213941   5.706   5.053   1.861
 4348SOL     OW13942   6.451   6.100   4.128
 4348SOL    HW113943   6.507   6.183   4.123
 4348SOL    HW213944   6.416   6.090   4.221
 4349SOL     OW13945   0.138   3.942   3.667
 4349SOL    HW113946   0.207   4.007   3.698
 4349SOL    HW213947   0.073   3.924   3.740
 4350SOL     OW13948   4.943   1.245   5.012
 4350SOL    HW113949   5.040   1.226   4.996
 4350SOL    HW213950   4.934   1.329   5.067
 4351SOL     OW13951   1.096   6.683   0.907
 4351SOL    HW113952   1.164   6.628   0.956
 4351SOL    HW213953   1.142   6.742   0.840
 4352SOL     OW13954   3.972   3.916   0.741
 4352SOL    HW113955   4.066   3.884   0.729
 4352SOL    HW213956   3.952   3.986   0.672
 4353SOL     OW13957   3.178   3.346   0.136
 4353SOL    HW113958   3.091   3.297   0.130
 4353SOL    HW213959   3.253   3.282   0.123
 4354SOL     OW13960   6.090   0.420   4.130
 4354SOL    HW113961   6.042   0.354   4.188
 4354SOL    HW213962   6.179   0.440   4.171
 4355SOL     OW13963   1.790   6.650   3.430
 4355SOL    HW113964   1.845   6.729   3.456
 4355SOL    HW213965   1.716   6.637   3.496
 4356SOL     OW13966   5.259   2.414   6.450
 4356SOL    HW113967   5.273   2.512   6.432
 4356SOL    HW213968   5.327   2.383   6.516
 4357SOL     OW13969   6.620   0.428   1.870
 4357SOL    HW113970   6.701   0.431   1.928
 4357SOL    HW213971   6.538   0.421   1.927
 4358SOL     OW13972   0.721   0.653   0.202
 4358SOL    HW113973   0.754   0.631   0.110
 4358SOL    HW213974   0.646   0.719   0.196
 4359SOL     OW13975   2.072   0.844   6.821
 4359SOL    HW113976   2.104   0.749   6.820
 4359SOL    HW213977   2.062   0.876   6.727
 4360SOL     OW13978   1.626   2.854   3.763
 4360SOL    HW113979   1.690   2.818   3.695
 4360SOL    HW213980   1.546   2.893   3.717
 4361SOL     OW13981   1.149   2.009   0.541
 4361SOL    HW113982   1.089   1.957   0.479
 4361SOL    HW213983   1.108   2.099   0.558
 4362SOL     OW13984   1.415   6.049   3.995
 4362SOL    HW113985   1.355   6.056   3.915
 4362SOL    HW213986   1.498   6.103   3.979
 4363SOL     OW13987   4.356   0.662   2.698
 4363SOL    HW113988   4.346   0.714   2.613
 4363SOL    HW213989   4.432   0.699   2.751
 4364SOL     OW13990   3.479   3.727   2.918
 4364SOL    HW113991   3.454   3.824   2.925
 4364SOL    HW213992   3.436   3.688   2.836
 4365SOL     OW13993   3.174   2.196   1.760
 4365SOL    HW113994   3.254   2.216   1.818
 4365SOL    HW213995   3.095   2.247   1.793
 4366SOL     OW13996   5.122   6.173   5.212
 4366SOL    HW113997   5.205   6.138   5.168
 4366SOL    HW213998   5.051   6.102   5.210
 4367SOL     OW13999   2.985   5.535   3.820
 4367SOL    HW114000   2.989   5.435   3.823
 4367SOL    HW214001   2.977   5.571   3.914
 4368SOL     OW14002   5.078   4.538   2.323
 4368SOL    HW114003   5.113   4.445   2.309
 4368SOL    HW214004   4.978   4.535   2.327
 4369SOL     OW14005   4.750   4.998   2.725
 4369SOL    HW114006   4.654   4.981   2.750
 4369SOL    HW214007   4.767   5.096   2.720
 4370SOL     OW14008   3.790   4.829   1.728
 4370SOL    HW114009   3.760   4.797   1.818
 4370SOL    HW214010   3.712   4.865   1.677
 4371SOL     OW14011   2.305   0.454   1.212
 4371SOL    HW114012   2.341   0.547   1.220
 4371SOL    HW214013   2.246   0.434   1.290
 4372SOL     OW14014   1.957   2.921   4.627
 4372SOL    HW114015   1.974   2.906   4.529
 4372SOL    HW214016   2.036   2.888   4.679
 4373SOL     OW14017   4.323   1.086   6.063
 4373SOL    HW114018   4.327   1.011   5.997
 4373SOL    HW214019   4.369   1.058   6.148
 4374SOL     OW14020   2.574   1.495   1.255
 4374SOL    HW114021   2.553   1.591   1.239
 4374SOL    HW214022   2.490   1.441   1.247
 4375SOL     OW14023   3.350   0.746   3.490
 4375SOL    HW114024   3.395   0.780   3.407
 4375SOL    HW214025   3.270   0.803   3.510
 4376SOL     OW14026   6.626   6.600   1.312
 4376SOL    HW114027   6.533   6.628   1.288
 4376SOL    HW214028   6.680   6.682   1.334
 4377SOL     OW14029   6.280   6.287   6.780
 4377SOL    HW114030   6.220   6.208   6.794
 4377SOL    HW214031   6.363   6.277   6.835
 4378SOL     OW14032   1.985   6.030   2.560
 4378SOL    HW114033   2.028   6.120   2.548
 4378SOL    HW214034   1.952   5.996   2.472
 4379SOL     OW14035   1.219   1.169   1.515
 4379SOL    HW114036   1.295   1.170   1.449
 4379SOL    HW214037   1.167   1.085   1.502
 4380SOL     OW14038   1.888   5.991   5.318
 4380SOL    HW114039   1.804   6.014   5.367
 4380SOL    HW214040   1.946   5.935   5.376
 4381SOL     OW14041   3.331   0.300   4.779
 4381SOL    HW114042   3.418   0.293   4.827
 4381SOL    HW214043   3.265   0.347   4.837
 4382SOL     OW14044   5.090   4.036   4.594
 4382SOL    HW114045   5.071   3.944   4.561
 4382SOL    HW214046   5.005   4.078   4.626
 4383SOL     OW14047   1.150   2.808   5.997
 4383SOL    HW114048   1.196   2.879   5.943
 4383SOL    HW214049   1.216   2.765   6.058
 4384SOL     OW14050   3.950   6.696   1.284
 4384SOL    HW114051   3.948   6.601   1.253
 4384SOL    HW214052   3.892   6.752   1.225
 4385SOL     OW14053   0.297   1.321   3.475
 4385SOL    HW114054   0.286   1.251   3.405
 4385SOL    HW214055   0.274   1.411   3.436
 4386SOL     OW14056   0.912   3.895   6.737
 4386SOL    HW114057   0.869   3.813   6.699
 4386SOL    HW214058   1.002   3.871   6.774
 4387SOL     OW14059   6.926   3.077   1.166
 4387SOL    HW114060   6.983   3.157   1.182
 4387SOL    HW214061   6.832   3.106   1.147
 4388SOL     OW14062   3.303   0.425   5.674
 4388SOL    HW114063   3.354   0.506   5.644
 4388SOL    HW214064   3.229   0.453   5.734
 4389SOL     OW14065   5.727   3.025   1.735
 4389SOL    HW114066   5.789   3.099   1.709
 4389SOL    HW214067   5.779   2.951   1.777
 4390SOL     OW14068   4.558   2.115   2.017
 4390SOL    HW114069   4.560   2.167   2.103
 4390SOL    HW214070   4.571   2.018   2.037
 4391SOL     OW14071   0.804   5.737   0.400
 4391SOL    HW114072   0.839   5.653   0.359
 4391SOL    HW214073   0.704   5.739   0.391
 4392SOL     OW14074   5.154   3.186   4.183
 4392SOL    HW114075   5.108   3.226   4.262
 4392SOL    HW214076   5.132   3.088   4.178
 4393SOL     OW14077   4.940   7.012   3.332
 4393SOL    HW114078   4.921   0.033   3.418
 4393SOL    HW214079   4.854   6.989   3.286
 4394SOL     OW14080   5.831   6.440   2.536
 4394SOL    HW114081   5.767   6.516   2.545
 4394SOL    HW214082   5.841   6.415   2.440
 4395SOL     OW14083   4.237   1.511   1.619
 4395SOL    HW114084   4.181   1.532   1.700
 4395SOL    HW214085   4.327   1.552   1.630
 4396SOL     OW14086   0.900   0.954   4.480
 4396SOL    HW114087   0.810   0.911   4.478
 4396SOL    HW214088   0.891   1.050   4.453
 4397SOL     OW14089   6.825   0.888   5.137
 4397SOL    HW114090   6.772   0.950   5.194
 4397SOL    HW214091   6.897   0.939   5.090
 4398SOL     OW14092   0.862   4.154   4.245
 4398SOL    HW114093   0.883   4.165   4.342
 4398SOL    HW214094   0.770   4.189   4.227
 4399SOL     OW14095   1.840   1.295   0.616
 4399SOL    HW114096   1.853   1.354   0.535
 4399SOL    HW214097   1.915   1.230   0.622
 4400SOL     OW14098   2.560   6.848   4.112
 4400SOL    HW114099   2.512   6.770   4.072
 4400SOL    HW214100   2.505   6.930   4.099
 4401SOL     OW14101   5.882   6.136   4.208
 4401SOL    HW114102   5.834   6.178   4.285
 4401SOL    HW214103   5.818   6.083   4.153
 4402SOL     OW14104   1.293   5.758   2.846
 4402SOL    HW114105   1.238   5.771   2.764
 4402SOL    HW214106   1.378   5.710   2.821
 4403SOL     OW14107   0.230   0.321   3.092
 4403SOL    HW114108   0.232   0.395   3.160
 4403SOL    HW214109   0.323   0.289   3.075
 4404SOL     OW14110   0.487   4.222   3.426
 4404SOL    HW114111   0.515   4.209   3.331
 4404SOL    HW214112   0.555   4.182   3.487
 4405SOL     OW14113   2.947   4.767   5.823
 4405SOL    HW114114   2.886   4.804   5.753
 4405SOL    HW214115   3.022   4.718   5.779
 4406SOL     OW14116   5.420   4.336   1.455
 4406SOL    HW114117   5.422   4.242   1.489
 4406SOL    HW214118   5.366   4.393   1.516
 4407SOL     OW14119   6.743   6.182   0.203
 4407SOL    HW114120   6.654   6.227   0.208
 4407SOL    HW214121   6.732   6.094   0.155
 4408SOL     OW14122   5.056   0.308   0.646
 4408SOL    HW114123   5.034   0.401   0.676
 4408SOL    HW214124   5.067   0.306   0.547
 4409SOL     OW14125   3.703   1.197   1.856
 4409SOL    HW114126   3.716   1.247   1.771
 4409SOL    HW214127   3.618   1.228   1.900
 4410SOL     OW14128   2.312   5.661   1.082
 4410SOL    HW114129   2.355   5.571   1.093
 4410SOL    HW214130   2.246   5.657   1.007
 4411SOL     OW14131   3.807   3.060   2.859
 4411SOL    HW114132   3.830   3.017   2.772
 4411SOL    HW214133   3.736   3.008   2.905
 4412SOL     OW14134   3.941   1.048   6.445
 4412SOL    HW114135   3.948   1.125   6.382
 4412SOL    HW214136   3.845   1.020   6.453
 4413SOL     OW14137   3.866   5.471   4.310
 4413SOL    HW114138   3.894   5.441   4.219
 4413SOL    HW214139   3.829   5.393   4.360
 4414SOL     OW14140   4.194   4.865   2.171
 4414SOL    HW114141   4.179   4.929   2.096
 4414SOL    HW214142   4.131   4.885   2.245
 4415SOL     OW14143   5.254   3.860   6.411
 4415SOL    HW114144   5.310   3.906   6.342
 4415SOL    HW214145   5.214   3.777   6.373
 4416SOL     OW14146   2.889   1.371   4.642
 4416SOL    HW114147   2.880   1.285   4.692
 4416SOL    HW214148   2.799   1.403   4.613
 4417SOL     OW14149   0.394   5.162   1.751
 4417SOL    HW114150   0.493   5.152   1.754
 4417SOL    HW214151   0.363   5.206   1.836
 4418SOL     OW14152   4.487   6.168   4.316
 4418SOL    HW114153   4.403   6.143   4.269
 4418SOL    HW214154   4.545   6.222   4.255
 4419SOL     OW14155   6.361   5.093   0.498
 4419SOL    HW114156   6.437   5.067   0.438
 4419SOL    HW214157   6.274   5.074   0.452
 4420SOL     OW14158   4.673   0.930   0.136
 4420SOL    HW114159   4.614   0.978   0.200
 4420SOL    HW214160   4.704   0.993   0.065
 4421SOL     OW14161   2.149   1.424   2.940
 4421SOL    HW114162   2.106   1.339   2.910
 4421SOL    HW214163   2.146   1.491   2.865
 4422SOL     OW14164   2.561   4.167   6.598
 4422SOL    HW114165   2.526   4.075   6.584
 4422SOL    HW214166   2.661   4.167   6.587
 4423SOL     OW14167   1.301   2.411   6.423
 4423SOL    HW114168   1.366   2.382   6.353
 4423SOL    HW214169   1.345   2.410   6.512
 4424SOL     OW14170   5.426   6.273   3.276
 4424SOL    HW114171   5.340   6.298   3.232
 4424SOL    HW214172   5.500   6.331   3.242
 4425SOL     OW14173   3.523   5.471   6.393
 4425SOL    HW114174   3.549   5.538   6.324
 4425SOL    HW214175   3.504   5.383   6.349
 4426SOL     OW14176   0.047   0.719   5.421
 4426SOL    HW114177   6.978   0.750   5.419
 4426SOL    HW214178   0.107   0.791   5.388
 4427SOL     OW14179   0.517   0.640   3.201
 4427SOL    HW114180   0.553   0.726   3.237
 4427SOL    HW214181   0.574   0.609   3.125
 4428SOL     OW14182   1.926   5.424   4.529
 4428SOL    HW114183   1.893   5.516   4.506
 4428SOL    HW214184   2.006   5.403   4.475
 4429SOL     OW14185   3.021   6.687   3.606
 4429SOL    HW114186   3.002   6.636   3.690
 4429SOL    HW214187   2.992   6.782   3.617
 4430SOL     OW14188   3.468   1.802   2.881
 4430SOL    HW114189   3.552   1.777   2.833
 4430SOL    HW214190   3.419   1.871   2.828
 4431SOL     OW14191   2.824   1.460   3.977
 4431SOL    HW114192   2.854   1.476   4.070
 4431SOL    HW214193   2.726   1.483   3.969
 4432SOL     OW14194   3.373   3.601   2.687
 4432SOL    HW114195   3.424   3.579   2.604
 4432SOL    HW214196   3.294   3.659   2.664
 4433SOL     OW14197   6.115   6.344   3.011
 4433SOL    HW114198   6.195   6.402   3.000
 4433SOL    HW214199   6.066   6.337   2.924
 4434SOL     OW14200   5.186   1.413   3.748
 4434SOL    HW114201   5.108   1.353   3.735
 4434SOL    HW214202   5.155   1.509   3.746
 4435SOL     OW14203   3.481   2.854   1.421
 4435SOL    HW114204   3.535   2.771   1.436
 4435SOL    HW214205   3.478   2.909   1.504
 4436SOL     OW14206   3.497   1.723   0.335
 4436SOL    HW114207   3.480   1.812   0.293
 4436SOL    HW214208   3.540   1.736   0.424
 4437SOL     OW14209   4.172   0.788   4.753
 4437SOL    HW114210   4.174   0.729   4.834
 4437SOL    HW214211   4.089   0.770   4.701
 4438SOL     OW14212   4.218   2.252   0.054
 4438SOL    HW114213   4.296   2.311   0.076
 4438SOL    HW214214   4.220   2.229   6.982
 4439SOL     OW14215   0.552   5.365   2.086
 4439SOL    HW114216   0.599   5.411   2.010
 4439SOL    HW214217   0.607   5.287   2.116
 4440SOL     OW14218   1.608   6.180   6.934
 4440SOL    HW114219   1.679   6.241   6.968
 4440SOL    HW214220   1.558   6.141   7.011
 4441SOL     OW14221   5.941   2.563   2.383
 4441SOL    HW114222   6.031   2.591   2.418
 4441SOL    HW214223   5.944   2.468   2.353
 4442SOL     OW14224   3.852   6.105   3.938
 4442SOL    HW114225   3.759   6.141   3.931
 4442SOL    HW214226   3.853   6.026   4.000
 4443SOL     OW14227   2.187   2.635   5.863
 4443SOL    HW114228   2.283   2.626   5.834
 4443SOL    HW214229   2.143   2.546   5.861
 4444SOL     OW14230   4.713   6.355   1.186
 4444SOL    HW114231   4.616   6.375   1.202
 4444SOL    HW214232   4.724   6.261   1.156
 4445SOL     OW14233   1.239   0.758   6.170
 4445SOL    HW114234   1.338   0.761   6.153
 4445SOL    HW214235   1.204   0.851   6.175
 4446SOL     OW14236   5.906   0.086   2.776
 4446SOL    HW114237   5.878   0.179   2.801
 4446SOL    HW214238   5.893   0.073   2.677
 4447SOL     OW14239   5.571   2.903   6.152
 4447SOL    HW114240   5.599   2.999   6.147
 4447SOL    HW214241   5.506   2.883   6.079
 4448SOL     OW14242   2.486   3.633   0.651
 4448SOL    HW114243   2.423   3.630   0.729
 4448SOL    HW214244   2.434   3.618   0.567
 4449SOL     OW14245   2.476   0.426   5.149
 4449SOL    HW114246   2.450   0.503   5.090
 4449SOL    HW214247   2.561   0.386   5.115
 4450SOL     OW14248   3.317   3.093   3.273
 4450SOL    HW114249   3.263   3.056   3.348
 4450SOL    HW214250   3.286   3.185   3.252
 4451SOL     OW14251   6.044   4.452   2.322
 4451SOL    HW114252   6.047   4.423   2.226
 4451SOL    HW214253   6.118   4.517   2.339
 4452SOL     OW14254   6.272   6.127   5.791
 4452SOL    HW114255   6.197   6.126   5.857
 4452SOL    HW214256   6.257   6.056   5.723
 4453SOL     OW14257   5.349   2.575   1.844
 4453SOL    HW114258   5.286   2.558   1.920
 4453SOL    HW214259   5.443   2.579   1.879
 4454SOL     OW14260   5.103   3.059   0.696
 4454SOL    HW114261   5.059   3.070   0.785
 4454SOL    HW214262   5.200   3.041   0.709
 4455SOL     OW14263   3.796   0.253   2.600
 4455SOL    HW114264   3.822   0.157   2.587
 4455SOL    HW214265   3.815   0.281   2.694
 4456SOL     OW14266   1.917   5.126   2.469
 4456SOL    HW114267   1.902   5.219   2.503
 4456SOL    HW214268   1.898   5.123   2.371
 4457SOL     OW14269   4.363   2.367   6.216
 4457SOL    HW114270   4.447   2.421   6.205
 4457SOL    HW214271   4.367   2.316   6.302
 4458SOL     OW14272   2.565   2.194   6.469
 4458SOL    HW114273   2.652   2.233   6.502
 4458SOL    HW214274   2.561   2.204   6.370
 4459SOL     OW14275   4.765   6.650   5.020
 4459SOL    HW114276   4.672   6.654   4.985
 4459SOL    HW214277   4.765   6.610   5.111
 4460SOL     OW14278   2.563   3.496   6.791
 4460SOL    HW114279   2.499   3.468   6.862
 4460SOL    HW214280   2.521   3.486   6.701
 4461SOL     OW14281   1.148   6.834   2.474
 4461SOL    HW114282   1.248   6.831   2.466
 4461SOL    HW214283   1.112   6.909   2.419
 4462SOL     OW14284   6.205   5.322   0.962
 4462SOL    HW114285   6.245   5.282   1.044
 4462SOL    HW214286   6.255   5.406   0.938
 4463SOL     OW14287   2.186   3.592   6.522
 4463SOL    HW114288   2.207   3.685   6.552
 4463SOL    HW214289   2.251   3.564   6.451
 4464SOL     OW14290   5.330   4.014   5.988
 4464SOL    HW114291   5.408   3.998   5.926
 4464SOL    HW214292   5.248   4.033   5.934
 4465SOL     OW14293   2.017   6.455   2.063
 4465SOL    HW114294   1.975   6.513   1.994
 4465SOL    HW214295   2.027   6.506   2.148
 4466SOL     OW14296   0.881   1.900   2.437
 4466SOL    HW114297   0.937   1.980   2.461
 4466SOL    HW214298   0.924   1.817   2.474
 4467SOL     OW14299   1.496   0.130   3.149
 4467SOL    HW114300   1.525   0.225   3.158
 4467SOL    HW214301   1.544   0.074   3.216
 4468SOL     OW14302   1.247   2.700   0.048
 4468SOL    HW114303   1.219   2.604   0.057
 4468SOL    HW214304   1.244   2.726   6.977
 4469SOL     OW14305   3.241   0.471   1.394
 4469SOL    HW114306   3.233   0.559   1.440
 4469SOL    HW214307   3.183   0.470   1.312
 4470SOL     OW14308   4.910   3.841   1.504
 4470SOL    HW114309   4.954   3.892   1.578
 4470SOL    HW214310   4.971   3.836   1.425
 4471SOL     OW14311   0.345   2.507   1.444
 4471SOL    HW114312   0.299   2.424   1.478
 4471SOL    HW214313   0.332   2.581   1.510
 4472SOL     OW14314   1.862   4.202   2.035
 4472SOL    HW114315   1.950   4.155   2.026
 4472SOL    HW214316   1.792   4.135   2.058
 4473SOL     OW14317   0.132   6.770   4.524
 4473SOL    HW114318   0.185   6.852   4.501
 4473SOL    HW214319   0.184   6.715   4.590
 4474SOL     OW14320   3.948   6.829   2.769
 4474SOL    HW114321   3.961   6.838   2.868
 4474SOL    HW214322   3.855   6.797   2.750
 4475SOL     OW14323   2.041   3.946   1.276
 4475SOL    HW114324   2.001   3.994   1.197
 4475SOL    HW214325   2.060   4.012   1.349
 4476SOL     OW14326   4.971   6.229   2.142
 4476SOL    HW114327   4.909   6.283   2.085
 4476SOL    HW214328   4.943   6.133   2.141
 4477SOL     OW14329   1.521   1.413   6.673
 4477SOL    HW114330   1.597   1.349   6.664
 4477SOL    HW214331   1.517   1.447   6.767
 4478SOL     OW14332   2.584   6.924   2.629
 4478SOL    HW114333   2.538   6.973   2.555
 4478SOL    HW214334   2.682   6.924   2.613
 4479SOL     OW14335   0.935   0.235   5.758
 4479SOL    HW114336   0.924   0.334   5.747
 4479SOL    HW214337   0.862   0.187   5.710
 4480SOL     OW14338   1.305   4.709   4.667
 4480SOL    HW114339   1.291   4.808   4.666
 4480SOL    HW214340   1.312   4.677   4.762
 4481SOL     OW14341   1.015   6.192   3.848
 4481SOL    HW114342   1.062   6.253   3.912
 4481SOL    HW214343   0.917   6.215   3.846
 4482SOL     OW14344   0.563   4.739   3.795
 4482SOL    HW114345   0.645   4.686   3.818
 4482SOL    HW214346   0.574   4.833   3.826
 4483SOL     OW14347   6.385   2.855   1.365
 4483SOL    HW114348   6.398   2.819   1.457
 4483SOL    HW214349   6.381   2.955   1.368
 4484SOL     OW14350   3.945   2.696   5.328
 4484SOL    HW114351   3.850   2.676   5.307
 4484SOL    HW214352   4.003   2.619   5.300
 4485SOL     OW14353   4.834   1.783   6.917
 4485SOL    HW114354   4.751   1.781   6.974
 4485SOL    HW214355   4.913   1.755   6.973
 4486SOL     OW14356   6.791   4.218   5.368
 4486SOL    HW114357   6.750   4.202   5.458
 4486SOL    HW214358   6.884   4.252   5.380
 4487SOL     OW14359   2.779   3.742   6.717
 4487SOL    HW114360   2.711   3.686   6.766
 4487SOL    HW214361   2.735   3.785   6.638
 4488SOL     OW14362   6.100   1.681   5.273
 4488SOL    HW114363   6.065   1.740   5.199
 4488SOL    HW214364   6.190   1.646   5.248
 4489SOL     OW14365   5.498   5.215   4.541
 4489SOL    HW114366   5.583   5.267   4.553
 4489SOL    HW214367   5.518   5.117   4.548
 4490SOL     OW14368   5.986   1.395   2.324
 4490SOL    HW114369   5.985   1.302   2.287
 4490SOL    HW214370   5.919   1.403   2.397
 4491SOL     OW14371   1.376   3.925   2.985
 4491SOL    HW114372   1.458   3.953   2.936
 4491SOL    HW214373   1.398   3.916   3.083
 4492SOL     OW14374   4.891   2.163   0.233
 4492SOL    HW114375   4.982   2.203   0.224
 4492SOL    HW214376   4.829   2.229   0.275
 4493SOL     OW14377   4.741   5.445   4.987
 4493SOL    HW114378   4.655   5.403   5.015
 4493SOL    HW214379   4.764   5.518   5.051
 4494SOL     OW14380   0.124   3.956   5.421
 4494SOL    HW114381   0.070   3.902   5.486
 4494SOL    HW214382   0.079   3.955   5.332
 4495SOL     OW14383   5.261   6.487   2.026
 4495SOL    HW114384   5.230   6.403   2.071
 4495SOL    HW214385   5.334   6.528   2.080
 4496SOL     OW14386   5.754   3.960   6.503
 4496SOL    HW114387   5.715   4.041   6.548
 4496SOL    HW214388   5.698   3.936   6.423
 4497SOL     OW14389   5.212   5.388   6.512
 4497SOL    HW114390   5.214   5.429   6.421
 4497SOL    HW214391   5.258   5.448   6.578
 4498SOL     OW14392   0.541   4.150   6.733
 4498SOL    HW114393   0.623   4.112   6.774
 4498SOL    HW214394   0.565   4.227   6.674
 4499SOL     OW14395   0.083   3.393   4.789
 4499SOL    HW114396   0.029   3.394   4.873
 4499SOL    HW214397   0.101   3.487   4.759
 4500SOL     OW14398   3.071   3.945   4.382
 4500SOL    HW114399   2.991   3.954   4.441
 4500SOL    HW214400   3.128   4.026   4.391
 4501SOL     OW14401   0.708   4.165   5.501
 4501SOL    HW114402   0.713   4.252   5.552
 4501SOL    HW214403   0.614   4.130   5.505
 4502SOL     OW14404   1.513   2.535   6.775
 4502SOL    HW114405   1.501   2.464   6.706
 4502SOL    HW214406   1.570   2.501   6.849
 4503SOL     OW14407   2.202   1.404   3.537
 4503SOL    HW114408   2.113   1.424   3.495
 4503SOL    HW214409   2.230   1.312   3.512
 4504SOL     OW14410   5.958   2.375   5.316
 4504SOL    HW114411   6.047   2.419   5.331
 4504SOL    HW214412   5.913   2.418   5.238
 4505SOL     OW14413   0.979   6.329   5.464
 4505SOL    HW114414   0.952   6.242   5.423
 4505SOL    HW214415   0.992   6.397   5.391
 4506SOL     OW14416   4.238   1.322   5.249
 4506SOL    HW114417   4.281   1.245   5.296
 4506SOL    HW214418   4.307   1.374   5.200
 4507SOL     OW14419   4.883   5.006   1.245
 4507SOL    HW114420   4.922   4.913   1.243
 4507SOL    HW214421   4.903   5.052   1.158
 4508SOL     OW14422   1.621   3.824   0.401
 4508SOL    HW114423   1.603   3.726   0.401
 4508SOL    HW214424   1.599   3.861   0.492
 4509SOL     OW14425   4.409   2.076   4.712
 4509SOL    HW114426   4.507   2.060   4.708
 4509SOL    HW214427   4.368   2.050   4.624
 4510SOL     OW14428   5.796   0.588   4.987
 4510SOL    HW114429   5.842   0.499   4.987
 4510SOL    HW214430   5.699   0.576   4.966
 4511SOL     OW14431   6.788   3.039   0.481
 4511SOL    HW114432   6.712   3.051   0.545
 4511SOL    HW214433   6.756   3.058   0.388
 4512SOL     OW14434   2.471   6.764   6.906
 4512SOL    HW114435   2.508   6.683   6.861
 4512SOL    HW214436   2.544   6.810   6.957
 4513SOL     OW14437   4.495   6.517   1.851
 4513SOL    HW114438   4.438   6.560   1.921
 4513SOL    HW214439   4.476   6.559   1.762
 4514SOL     OW14440   3.693   0.945   4.554
 4514SOL    HW114441   3.659   1.036   4.578
 4514SOL    HW214442   3.716   0.943   4.457
 4515SOL     OW14443   6.811   4.844   0.365
 4515SOL    HW114444   6.891   4.879   0.415
 4515SOL    HW214445   6.842   4.798   0.281
 4516SOL     OW14446   1.262   1.696   4.992
 4516SOL    HW114447   1.266   1.614   4.935
 4516SOL    HW214448   1.246   1.671   5.087
 4517SOL     OW14449   3.267   6.900   6.652
 4517SOL    HW114450   3.328   6.956   6.708
 4517SOL    HW214451   3.321   6.835   6.599
 4518SOL     OW14452   1.021   1.843   3.968
 4518SOL    HW114453   1.002   1.922   4.027
 4518SOL    HW214454   1.033   1.761   4.024
 4519SOL     OW14455   0.247   2.396   3.471
 4519SOL    HW114456   0.319   2.465   3.460
 4519SOL    HW214457   0.159   2.441   3.478
 4520SOL     OW14458   6.233   4.742   2.218
 4520SOL    HW114459   6.293   4.663   2.222
 4520SOL    HW214460   6.192   4.748   2.127
 4521SOL     OW14461   4.996   2.287   6.266
 4521SOL    HW114462   5.069   2.306   6.200
 4521SOL    HW214463   5.035   2.241   6.346
 4522SOL     OW14464   5.612   6.443   3.765
 4522SOL    HW114465   5.629   6.416   3.670
 4522SOL    HW214466   5.581   6.538   3.768
 4523SOL     OW14467   3.149   4.882   0.664
 4523SOL    HW114468   3.086   4.825   0.611
 4523SOL    HW214469   3.238   4.886   0.618
 4524SOL     OW14470   5.521   1.470   5.547
 4524SOL    HW114471   5.431   1.447   5.583
 4524SOL    HW214472   5.585   1.396   5.567
 4525SOL     OW14473   6.374   1.630   4.403
 4525SOL    HW114474   6.464   1.614   4.363
 4525SOL    HW214475   6.347   1.552   4.458
 4526SOL     OW14476   4.708   6.734   0.908
 4526SOL    HW114477   4.619   6.715   0.950
 4526SOL    HW214478   4.715   6.832   0.888
 4527SOL     OW14479   4.944   0.990   3.101
 4527SOL    HW114480   5.041   1.005   3.119
 4527SOL    HW214481   4.934   0.947   3.011
 4528SOL     OW14482   5.466   0.173   0.442
 4528SOL    HW114483   5.547   0.144   0.392
 4528SOL    HW214484   5.388   0.176   0.380
 4529SOL     OW14485   2.834   0.768   2.768
 4529SOL    HW114486   2.873   0.858   2.789
 4529SOL    HW214487   2.839   0.711   2.850
 4530SOL     OW14488   0.931   3.550   5.448
 4530SOL    HW114489   0.884   3.462   5.449
 4530SOL    HW214490   0.925   3.592   5.539
 4531SOL     OW14491   0.992   3.403   3.639
 4531SOL    HW114492   0.949   3.493   3.626
 4531SOL    HW214493   0.976   3.372   3.732
 4532SOL     OW14494   6.533   1.723   1.246
 4532SOL    HW114495   6.540   1.696   1.150
 4532SOL    HW214496   6.624   1.743   1.282
 4533SOL     OW14497   1.934   6.108   2.811
 4533SOL    HW114498   1.939   6.090   2.713
 4533SOL    HW214499   1.838   6.119   2.837
 4534SOL     OW14500   5.464   3.825   5.150
 4534SOL    HW114501   5.417   3.829   5.062
 4534SOL    HW214502   5.551   3.776   5.139
 4535SOL     OW14503   4.949   3.006   1.872
 4535SOL    HW114504   4.977   2.911   1.858
 4535SOL    HW214505   4.858   3.008   1.915
 4536SOL     OW14506   5.506   0.711   4.637
 4536SOL    HW114507   5.521   0.810   4.650
 4536SOL    HW214508   5.552   0.662   4.711
 4537SOL     OW14509   3.848   3.517   6.781
 4537SOL    HW114510   3.759   3.548   6.815
 4537SOL    HW214511   3.870   3.428   6.821
 4538SOL     OW14512   3.385   1.637   3.359
 4538SOL    HW114513   3.440   1.595   3.287
 4538SOL    HW214514   3.411   1.596   3.447
 4539SOL     OW14515   2.467   1.849   3.521
 4539SOL    HW114516   2.535   1.808   3.582
 4539SOL    HW214517   2.376   1.837   3.560
 4540SOL     OW14518   3.669   3.202   4.600
 4540SOL    HW114519   3.724   3.249   4.531
 4540SOL    HW214520   3.578   3.244   4.604
 4541SOL     OW14521   5.259   1.333   0.262
 4541SOL    HW114522   5.346   1.298   0.296
 4541SOL    HW214523   5.219   1.266   0.199
 4542SOL     OW14524   6.054   5.951   1.849
 4542SOL    HW114525   6.022   5.966   1.755
 4542SOL    HW214526   6.129   5.884   1.847
 4543SOL     OW14527   4.983   2.052   0.911
 4543SOL    HW114528   5.001   1.954   0.899
 4543SOL    HW214529   4.993   2.098   0.823
 4544SOL     OW14530   2.695   5.878   6.668
 4544SOL    HW114531   2.689   5.805   6.599
 4544SOL    HW214532   2.606   5.889   6.712
 4545SOL     OW14533   4.293   2.113   5.287
 4545SOL    HW114534   4.358   2.037   5.283
 4545SOL    HW214535   4.202   2.077   5.306
 4546SOL     OW14536   1.106   6.296   6.539
 4546SOL    HW114537   1.064   6.268   6.625
 4546SOL    HW214538   1.146   6.216   6.494
 4547SOL     OW14539   5.576   2.681   1.179
 4547SOL    HW114540   5.640   2.608   1.200
 4547SOL    HW214541   5.485   2.643   1.163
 4548SOL     OW14542   0.384   4.561   3.666
 4548SOL    HW114543   0.451   4.626   3.703
 4548SOL    HW214544   0.432   4.494   3.610
 4549SOL     OW14545   6.527   3.383   2.791
 4549SOL    HW114546   6.538   3.348   2.884
 4549SOL    HW214547   6.583   3.465   2.780
 4550SOL     OW14548   1.062   5.856   3.333
 4550SOL    HW114549   1.043   5.859   3.235
 4550SOL    HW214550   1.030   5.769   3.370
 4551SOL     OW14551   0.341   2.520   5.134
 4551SOL    HW114552   0.368   2.572   5.053
 4551SOL    HW214553   0.420   2.472   5.171
 4552SOL     OW14554   0.616   3.370   4.846
 4552SOL    HW114555   0.700   3.409   4.810
 4552SOL    HW214556   0.616   3.271   4.831
 4553SOL     OW14557   4.550   5.217   0.290
 4553SOL    HW114558   4.602   5.300   0.312
 4553SOL    HW214559   4.604   5.160   0.227
 4554SOL     OW14560   4.214   6.812   2.756
 4554SOL    HW114561   4.115   6.820   2.768
 4554SOL    HW214562   4.241   6.716   2.767
 4555SOL     OW14563   4.512   2.148   6.792
 4555SOL    HW114564   4.544   2.105   6.876
 4555SOL    HW214565   4.533   2.089   6.714
 4556SOL     OW14566   3.962   0.873   3.738
 4556SOL    HW114567   4.060   0.889   3.723
 4556SOL    HW214568   3.947   0.849   3.834
 4557SOL     OW14569   5.558   0.081   5.730
 4557SOL    HW114570   5.541   0.122   5.640
 4557SOL    HW214571   5.477   0.093   5.787
 4558SOL     OW14572   5.962   3.644   6.504
 4558SOL    HW114573   5.934   3.703   6.429
 4558SOL    HW214574   5.896   3.651   6.579
 4559SOL     OW14575   1.137   6.298   1.121
 4559SOL    HW114576   1.055   6.280   1.174
 4559SOL    HW214577   1.216   6.256   1.166
 4560SOL     OW14578   5.072   2.918   3.084
 4560SOL    HW114579   5.147   2.985   3.093
 4560SOL    HW214580   5.007   2.951   3.015
 4561SOL     OW14581   3.227   1.394   0.229
 4561SOL    HW114582   3.145   1.369   0.177
 4561SOL    HW214583   3.210   1.480   0.279
 4562SOL     OW14584   3.486   5.667   6.191
 4562SOL    HW114585   3.455   5.761   6.204
 4562SOL    HW214586   3.557   5.664   6.121
 4563SOL     OW14587   5.828   1.915   0.426
 4563SOL    HW114588   5.801   1.863   0.507
 4563SOL    HW214589   5.804   1.863   0.344
 4564SOL     OW14590   0.839   5.300   0.810
 4564SOL    HW114591   0.842   5.391   0.768
 4564SOL    HW214592   0.900   5.239   0.761
 4565SOL     OW14593   0.682   1.503   5.123
 4565SOL    HW114594   0.781   1.517   5.112
 4565SOL    HW214595   0.637   1.517   5.035
 4566SOL     OW14596   0.324   6.774   6.863
 4566SOL    HW114597   0.280   6.776   6.773
 4566SOL    HW214598   0.258   6.798   6.933
 4567SOL     OW14599   6.808   1.002   0.343
 4567SOL    HW114600   6.846   1.084   0.386
 4567SOL    HW214601   6.882   0.938   0.321
 4568SOL     OW14602   3.219   4.531   5.644
 4568SOL    HW114603   3.269   4.501   5.563
 4568SOL    HW214604   3.121   4.515   5.631
 4569SOL     OW14605   1.102   1.739   4.463
 4569SOL    HW114606   1.177   1.706   4.405
 4569SOL    HW214607   1.020   1.685   4.446
 4570SOL     OW14608   0.041   5.693   3.306
 4570SOL    HW114609   0.073   5.642   3.226
 4570SOL    HW214610   0.097   5.669   3.385
 4571SOL     OW14611   3.057   3.172   4.557
 4571SOL    HW114612   3.120   3.144   4.486
 4571SOL    HW214613   2.984   3.228   4.517
 4572SOL     OW14614   0.607   0.107   1.333
 4572SOL    HW114615   0.682   0.077   1.274
 4572SOL    HW214616   0.551   0.028   1.358
 4573SOL     OW14617   6.103   6.044   1.327
 4573SOL    HW114618   6.008   6.065   1.352
 4573SOL    HW214619   6.165   6.101   1.381
 4574SOL     OW14620   6.967   4.726   1.292
 4574SOL    HW114621   0.029   4.680   1.277
 4574SOL    HW214622   6.955   4.798   1.224
 4575SOL     OW14623   6.348   1.763   0.944
 4575SOL    HW114624   6.299   1.694   0.997
 4575SOL    HW214625   6.334   1.746   0.846
 4576SOL     OW14626   2.921   5.736   6.790
 4576SOL    HW114627   3.009   5.773   6.758
 4576SOL    HW214628   2.847   5.798   6.763
 4577SOL     OW14629   0.763   3.335   2.885
 4577SOL    HW114630   0.699   3.325   2.962
 4577SOL    HW214631   0.856   3.316   2.917
 4578SOL     OW14632   0.256   3.675   3.782
 4578SOL    HW114633   0.256   3.772   3.757
 4578SOL    HW214634   0.166   3.636   3.766
 4579SOL     OW14635   4.706   1.759   2.663
 4579SOL    HW114636   4.639   1.758   2.738
 4579SOL    HW214637   4.783   1.818   2.687
 4580SOL     OW14638   6.011   5.435   0.795
 4580SOL    HW114639   6.033   5.526   0.831
 4580SOL    HW214640   6.060   5.366   0.849
 4581SOL     OW14641   3.146   5.040   3.150
 4581SOL    HW114642   3.241   5.017   3.173
 4581SOL    HW214643   3.140   5.138   3.128
 4582SOL     OW14644   4.923   0.032   3.603
 4582SOL    HW114645   5.014   7.021   3.623
 4582SOL    HW214646   4.853   6.998   3.644
 4583SOL     OW14647   2.749   1.985   5.185
 4583SOL    HW114648   2.699   1.971   5.271
 4583SOL    HW214649   2.739   1.903   5.128
 4584SOL     OW14650   6.918   5.906   6.129
 4584SOL    HW114651   6.932   5.927   6.033
 4584SOL    HW214652   7.007   5.899   6.175
 4585SOL     OW14653   3.020   6.316   3.238
 4585SOL    HW114654   3.035   6.358   3.328
 4585SOL    HW214655   2.936   6.262   3.239
 4586SOL     OW14656   3.283   5.554   1.753
 4586SOL    HW114657   3.203   5.495   1.767
 4586SOL    HW214658   3.357   5.524   1.813
 4587SOL     OW14659   4.015   3.216   1.301
 4587SOL    HW114660   4.017   3.312   1.273
 4587SOL    HW214661   4.105   3.190   1.335
 4588SOL     OW14662   4.087   3.869   4.816
 4588SOL    HW114663   4.082   3.791   4.754
 4588SOL    HW214664   4.178   3.911   4.810
 4589SOL     OW14665   6.288   2.276   3.013
 4589SOL    HW114666   6.219   2.343   2.988
 4589SOL    HW214667   6.371   2.322   3.043
 4590SOL     OW14668   4.023   5.418   2.548
 4590SOL    HW114669   3.937   5.428   2.498
 4590SOL    HW214670   4.018   5.337   2.606
 4591SOL     OW14671   6.295   5.669   5.666
 4591SOL    HW114672   6.370   5.632   5.612
 4591SOL    HW214673   6.305   5.640   5.762
 4592SOL     OW14674   4.178   2.924   0.638
 4592SOL    HW114675   4.083   2.932   0.667
 4592SOL    HW214676   4.183   2.873   0.553
 4593SOL     OW14677   4.038   5.682   2.692
 4593SOL    HW114678   4.007   5.593   2.658
 4593SOL    HW214679   4.107   5.668   2.763
 4594SOL     OW14680   3.275   1.580   1.841
 4594SOL    HW114681   3.332   1.523   1.900
 4594SOL    HW214682   3.179   1.555   1.854
 4595SOL     OW14683   3.597   3.006   6.304
 4595SOL    HW114684   3.554   2.917   6.320
 4595SOL    HW214685   3.565   3.043   6.217
 4596SOL     OW14686   6.192   6.279   2.668
 4596SOL    HW114687   6.161   6.187   2.691
 4596SOL    HW214688   6.211   6.284   2.570
 4597SOL     OW14689   4.999   4.588   6.266
 4597SOL    HW114690   4.933   4.612   6.337
 4597SOL    HW214691   5.040   4.672   6.230
 4598SOL     OW14692   1.997   5.513   6.814
 4598SOL    HW114693   2.006   5.460   6.898
 4598SOL    HW214694   1.980   5.609   6.836
 4599SOL     OW14695   1.519   4.278   1.475
 4599SOL    HW114696   1.618   4.287   1.460
 4599SOL    HW214697   1.481   4.218   1.404
 4600SOL     OW14698   3.321   5.641   6.863
 4600SOL    HW114699   3.322   5.610   6.958
 4600SOL    HW214700   3.327   5.562   6.802
 4601SOL     OW14701   1.959   1.118   5.184
 4601SOL    HW114702   1.910   1.040   5.224
 4601SOL    HW214703   1.971   1.188   5.254
 4602SOL     OW14704   1.701   6.992   1.555
 4602SOL    HW114705   1.700   6.964   1.651
 4602SOL    HW214706   1.762   6.932   1.503
 4603SOL     OW14707   3.420   6.635   1.938
 4603SOL    HW114708   3.421   6.641   1.838
 4603SOL    HW214709   3.494   6.576   1.968
 4604SOL     OW14710   4.063   0.419   2.298
 4604SOL    HW114711   4.016   0.334   2.275
 4604SOL    HW214712   4.161   0.400   2.310
 4605SOL     OW14713   4.768   0.695   4.163
 4605SOL    HW114714   4.672   0.673   4.178
 4605SOL    HW214715   4.806   0.634   4.094
 4606SOL     OW14716   6.705   6.656   4.229
 4606SOL    HW114717   6.791   6.707   4.219
 4606SOL    HW214718   6.716   6.588   4.301
 4607SOL     OW14719   2.674   1.992   1.311
 4607SOL    HW114720   2.739   1.943   1.252
 4607SOL    HW214721   2.674   2.089   1.287
 4608SOL     OW14722   1.430   4.937   5.051
 4608SOL    HW114723   1.464   4.853   5.009
 4608SOL    HW214724   1.506   5.001   5.061
 4609SOL     OW14725   4.133   5.902   6.850
 4609SOL    HW114726   4.226   5.887   6.885
 4609SOL    HW214727   4.097   5.988   6.885
 4610SOL     OW14728   6.650   3.003   0.009
 4610SOL    HW114729   6.603   3.016   6.948
 4610SOL    HW214730   6.734   2.951   7.020
 4611SOL     OW14731   0.449   3.773   6.974
 4611SOL    HW114732   0.462   3.780   0.047
 4611SOL    HW214733   0.395   3.691   6.953
 4612SOL     OW14734   1.839   6.022   6.874
 4612SOL    HW114735   1.765   6.060   6.930
 4612SOL    HW214736   1.909   6.092   6.859
 4613SOL     OW14737   2.760   5.545   3.004
 4613SOL    HW114738   2.698   5.483   2.956
 4613SOL    HW214739   2.845   5.555   2.951
 4614SOL     OW14740   2.043   5.750   0.360
 4614SOL    HW114741   1.985   5.774   0.438
 4614SOL    HW214742   2.051   5.651   0.354
 4615SOL     OW14743   1.274   1.748   0.047
 4615SOL    HW114744   1.212   1.827   0.051
 4615SOL    HW214745   1.298   1.730   6.977
 4616SOL     OW14746   6.005   0.070   6.441
 4616SOL    HW114747   6.050   0.033   6.521
 4616SOL    HW214748   5.942   0.143   6.469
 4617SOL     OW14749   0.865   2.508   2.839
 4617SOL    HW114750   0.788   2.459   2.799
 4617SOL    HW214751   0.840   2.604   2.851
 4618SOL     OW14752   0.954   2.644   5.750
 4618SOL    HW114753   0.885   2.628   5.820
 4618SOL    HW214754   1.036   2.683   5.791
 4619SOL     OW14755   4.488   0.691   3.704
 4619SOL    HW114756   4.579   0.675   3.667
 4619SOL    HW214757   4.419   0.656   3.640
 4620SOL     OW14758   3.652   4.578   7.013
 4620SOL    HW114759   3.639   4.480   6.998
 4620SOL    HW214760   3.730   4.611   6.961
 4621SOL     OW14761   6.642   1.470   4.726
 4621SOL    HW114762   6.570   1.524   4.682
 4621SOL    HW214763   6.659   1.506   4.818
 4622SOL     OW14764   1.691   2.996   0.803
 4622SOL    HW114765   1.644   2.920   0.848
 4622SOL    HW214766   1.697   3.073   0.867
 4623SOL     OW14767   0.202   4.816   0.688
 4623SOL    HW114768   0.149   4.849   0.610
 4623SOL    HW214769   0.170   4.725   0.714
 4624SOL     OW14770   4.588   1.173   3.676
 4624SOL    HW114771   4.520   1.245   3.674
 4624SOL    HW214772   4.544   1.084   3.662
 4625SOL     OW14773   1.300   4.496   6.978
 4625SOL    HW114774   1.342   4.563   0.014
 4625SOL    HW214775   1.364   4.473   6.905
 4626SOL     OW14776   6.405   4.804   1.968
 4626SOL    HW114777   6.433   4.878   1.908
 4626SOL    HW214778   6.309   4.782   1.951
 4627SOL     OW14779   3.748   6.003   5.495
 4627SOL    HW114780   3.749   6.066   5.574
 4627SOL    HW214781   3.763   5.910   5.527
 4628SOL     OW14782   6.200   5.021   2.171
 4628SOL    HW114783   6.115   4.992   2.213
 4628SOL    HW214784   6.277   4.975   2.215
 4629SOL     OW14785   2.117   5.191   6.027
 4629SOL    HW114786   2.136   5.118   5.961
 4629SOL    HW214787   2.117   5.153   6.119
 4630SOL     OW14788   2.668   5.888   3.312
 4630SOL    HW114789   2.731   5.904   3.388
 4630SOL    HW214790   2.614   5.805   3.331
 4631SOL     OW14791   2.213   6.288   3.719
 4631SOL    HW114792   2.182   6.347   3.645
 4631SOL    HW214793   2.189   6.193   3.699
 4632SOL     OW14794   4.397   5.188   4.415
 4632SOL    HW114795   4.314   5.196   4.469
 4632SOL    HW214796   4.446   5.276   4.418
 4633SOL     OW14797   6.393   1.772   5.211
 4633SOL    HW114798   6.417   1.694   5.269
 4633SOL    HW214799   6.377   1.740   5.118
 4634SOL     OW14800   2.998   4.684   0.532
 4634SOL    HW114801   3.044   4.610   0.482
 4634SOL    HW214802   2.899   4.676   0.521
 4635SOL     OW14803   5.824   3.044   2.530
 4635SOL    HW114804   5.834   3.015   2.435
 4635SOL    HW214805   5.747   3.108   2.538
 4636SOL     OW14806   3.140   5.342   0.492
 4636SOL    HW114807   3.062   5.362   0.432
 4636SOL    HW214808   3.120   5.261   0.546
 4637SOL     OW14809   1.168   0.406   5.864
 4637SOL    HW114810   1.094   0.352   5.824
 4637SOL    HW214811   1.177   0.385   5.961
 4638SOL     OW14812   4.077   3.059   6.312
 4638SOL    HW114813   4.014   2.996   6.268
 4638SOL    HW214814   4.048   3.075   6.406
 4639SOL     OW14815   0.678   4.151   5.839
 4639SOL    HW114816   0.762   4.096   5.842
 4639SOL    HW214817   0.602   4.093   5.811
 4640SOL     OW14818   4.982   4.507   4.157
 4640SOL    HW114819   4.977   4.471   4.250
 4640SOL    HW214820   4.978   4.606   4.160
 4641SOL     OW14821   2.561   4.926   4.335
 4641SOL    HW114822   2.598   4.843   4.377
 4641SOL    HW214823   2.496   4.901   4.264
 4642SOL     OW14824   6.335   5.290   4.491
 4642SOL    HW114825   6.253   5.322   4.539
 4642SOL    HW214826   6.334   5.323   4.397
 4643SOL     OW14827   4.071   2.359   1.011
 4643SOL    HW114828   4.052   2.433   1.075
 4643SOL    HW214829   4.108   2.397   0.926
 4644SOL     OW14830   1.727   5.820   4.739
 4644SOL    HW114831   1.719   5.906   4.689
 4644SOL    HW214832   1.661   5.819   4.814
 4645SOL     OW14833   2.111   6.451   4.333
 4645SOL    HW114834   2.106   6.539   4.285
 4645SOL    HW214835   2.172   6.460   4.411
 4646SOL     OW14836   2.832   0.125   2.202
 4646SOL    HW114837   2.750   0.172   2.170
 4646SOL    HW214838   2.881   0.183   2.267
 4647SOL     OW14839   0.843   7.001   3.336
 4647SOL    HW114840   0.759   6.947   3.331
 4647SOL    HW214841   0.913   6.949   3.385
 4648SOL     OW14842   3.080   6.344   2.976
 4648SOL    HW114843   3.024   6.422   2.948
 4648SOL    HW214844   3.059   6.320   3.071
 4649SOL     OW14845   5.344   0.779   5.686
 4649SOL    HW114846   5.282   0.731   5.747
 4649SOL    HW214847   5.292   0.817   5.609
 4650SOL     OW14848   4.337   6.274   3.346
 4650SOL    HW114849   4.431   6.274   3.312
 4650SOL    HW214850   4.334   6.316   3.437
 4651SOL     OW14851   0.126   2.285   2.039
 4651SOL    HW114852   0.216   2.240   2.035
 4651SOL    HW214853   0.118   2.350   1.964
 4652SOL     OW14854   0.611   0.287   3.981
 4652SOL    HW114855   0.611   0.188   3.967
 4652SOL    HW214856   0.518   0.322   3.977
 4653SOL     OW14857   6.744   6.444   0.383
 4653SOL    HW114858   6.654   6.430   0.425
 4653SOL    HW214859   6.755   6.381   0.306
 4654SOL     OW14860   0.848   6.768   0.572
 4654SOL    HW114861   0.831   6.766   0.670
 4654SOL    HW214862   0.773   6.814   0.526
 4655SOL     OW14863   0.549   4.450   2.812
 4655SOL    HW114864   0.488   4.524   2.785
 4655SOL    HW214865   0.496   4.374   2.849
 4656SOL     OW14866   0.855   0.826   2.997
 4656SOL    HW114867   0.855   0.774   3.082
 4656SOL    HW214868   0.897   0.915   3.013
 4657SOL     OW14869   4.620   6.882   1.365
 4657SOL    HW114870   4.661   6.797   1.398
 4657SOL    HW214871   4.562   6.921   1.436
 4658SOL     OW14872   4.352   0.257   3.121
 4658SOL    HW114873   4.386   0.164   3.106
 4658SOL    HW214874   4.400   0.321   3.061
 4659SOL     OW14875   1.458   3.189   5.132
 4659SOL    HW114876   1.369   3.172   5.175
 4659SOL    HW214877   1.481   3.112   5.072
 4660SOL     OW14878   0.192   1.665   5.217
 4660SOL    HW114879   0.175   1.570   5.244
 4660SOL    HW214880   0.121   1.724   5.256
 4661SOL     OW14881   3.672   4.136   4.488
 4661SOL    HW114882   3.611   4.202   4.445
 4661SOL    HW214883   3.687   4.162   4.584
 4662SOL     OW14884   5.255   0.165   5.482
 4662SOL    HW114885   5.353   0.144   5.479
 4662SOL    HW214886   5.202   0.080   5.477
 4663SOL     OW14887   0.017   1.822   2.137
 4663SOL    HW114888   0.059   1.755   2.076
 4663SOL    HW214889   0.041   1.801   2.232
 4664SOL     OW14890   2.130   2.921   6.390
 4664SOL    HW114891   2.200   2.954   6.327
 4664SOL    HW214892   2.159   2.834   6.430
 4665SOL     OW14893   5.067   0.019   6.304
 4665SOL    HW114894   5.080   0.011   6.403
 4665SOL    HW214895   5.150   0.054   6.262
 4666SOL     OW14896   2.341   2.080   0.044
 4666SOL    HW114897   2.292   2.166   0.059
 4666SOL    HW214898   2.434   2.088   0.080
 4667SOL     OW14899   6.556   5.088   6.455
 4667SOL    HW114900   6.535   5.088   6.553
 4667SOL    HW214901   6.623   5.016   6.436
 4668SOL     OW14902   6.659   1.632   4.370
 4668SOL    HW114903   6.721   1.583   4.431
 4668SOL    HW214904   6.669   1.730   4.384
 4669SOL     OW14905   1.784   5.996   0.613
 4669SOL    HW114906   1.733   6.072   0.572
 4669SOL    HW214907   1.728   5.913   0.607
 4670SOL     OW14908   2.818   1.420   4.964
 4670SOL    HW114909   2.722   1.422   4.937
 4670SOL    HW214910   2.850   1.514   4.980
 4671SOL     OW14911   5.981   3.398   1.424
 4671SOL    HW114912   5.946   3.371   1.335
 4671SOL    HW214913   6.044   3.327   1.458
 4672SOL     OW14914   2.038   4.554   6.348
 4672SOL    HW114915   1.989   4.470   6.369
 4672SOL    HW214916   2.026   4.576   6.251
 4673SOL     OW14917   3.808   0.318   1.973
 4673SOL    HW114918   3.857   0.342   1.890
 4673SOL    HW214919   3.741   0.246   1.952
 4674SOL     OW14920   5.057   5.644   5.423
 4674SOL    HW114921   4.984   5.585   5.458
 4674SOL    HW214922   5.041   5.738   5.452
 4675SOL     OW14923   1.333   4.124   1.286
 4675SOL    HW114924   1.388   4.163   1.212
 4675SOL    HW214925   1.295   4.036   1.257
 4676SOL     OW14926   1.786   5.980   3.458
 4676SOL    HW114927   1.855   6.050   3.437
 4676SOL    HW214928   1.695   6.018   3.440
 4677SOL     OW14929   1.461   1.582   0.418
 4677SOL    HW114930   1.551   1.611   0.451
 4677SOL    HW214931   1.419   1.520   0.485
 4678SOL     OW14932   1.937   4.162   2.719
 4678SOL    HW114933   1.908   4.068   2.702
 4678SOL    HW214934   1.953   4.209   2.632
 4679SOL     OW14935   5.495   6.138   1.824
 4679SOL    HW114936   5.577   6.089   1.795
 4679SOL    HW214937   5.508   6.236   1.810
 4680SOL     OW14938   2.897   1.561   1.510
 4680SOL    HW114939   2.806   1.520   1.521
 4680SOL    HW214940   2.904   1.643   1.567
 4681SOL     OW14941   5.088   4.633   0.503
 4681SOL    HW114942   5.007   4.640   0.561
 4681SOL    HW214943   5.144   4.715   0.513
 4682SOL     OW14944   4.719   3.356   6.707
 4682SOL    HW114945   4.669   3.269   6.710
 4682SOL    HW214946   4.801   3.345   6.652
 4683SOL     OW14947   6.340   4.252   3.474
 4683SOL    HW114948   6.301   4.344   3.481
 4683SOL    HW214949   6.424   4.247   3.529
 4684SOL     OW14950   4.136   6.183   0.491
 4684SOL    HW114951   4.057   6.132   0.525
 4684SOL    HW214952   4.115   6.280   0.488
 4685SOL     OW14953   2.299   3.787   6.145
 4685SOL    HW114954   2.337   3.750   6.060
 4685SOL    HW214955   2.290   3.886   6.137
 4686SOL     OW14956   3.013   6.080   0.996
 4686SOL    HW114957   3.045   6.063   0.902
 4686SOL    HW214958   3.028   5.998   1.051
 4687SOL     OW14959   3.102   1.590   3.292
 4687SOL    HW114960   3.129   1.522   3.225
 4687SOL    HW214961   3.183   1.636   3.327
 4688SOL     OW14962   5.509   2.389   5.693
 4688SOL    HW114963   5.554   2.373   5.781
 4688SOL    HW214964   5.557   2.462   5.644
 4689SOL     OW14965   5.261   0.841   0.925
 4689SOL    HW114966   5.247   0.743   0.911
 4689SOL    HW214967   5.310   0.856   1.011
 4690SOL     OW14968   2.146   1.772   0.661
 4690SOL    HW114969   2.122   1.770   0.564
 4690SOL    HW214970   2.138   1.680   0.699
 4691SOL     OW14971   5.123   4.560   0.017
 4691SOL    HW114972   5.124   4.469   7.000
 4691SOL    HW214973   5.028   4.592   0.024
 4692SOL     OW14974   6.774   4.273   2.633
 4692SOL    HW114975   6.679   4.258   2.606
 4692SOL    HW214976   6.808   4.192   2.680
 4693SOL     OW14977   1.801   0.746   3.863
 4693SOL    HW114978   1.814   0.773   3.768
 4693SOL    HW214979   1.709   0.771   3.893
 4694SOL     OW14980   2.117   1.519   0.758
 4694SOL    HW114981   2.078   1.492   0.846
 4694SOL    HW214982   2.156   1.440   0.712
 4695SOL     OW14983   1.392   5.988   1.116
 4695SOL    HW114984   1.484   5.950   1.116
 4695SOL    HW214985   1.358   5.993   1.022
 4696SOL     OW14986   1.269   5.368   6.213
 4696SOL    HW114987   1.275   5.412   6.124
 4696SOL    HW214988   1.233   5.434   6.280
 4697SOL     OW14989   1.707   3.902   1.599
 4697SOL    HW114990   1.684   3.888   1.502
 4697SOL    HW214991   1.803   3.929   1.606
 4698SOL     OW14992   4.708   0.261   3.223
 4698SOL    HW114993   4.757   0.245   3.309
 4698SOL    HW214994   4.679   0.173   3.185
 4699SOL     OW14995   0.455   0.780   1.945
 4699SOL    HW114996   0.554   0.778   1.927
 4699SOL    HW214997   0.407   0.741   1.866
 4700SOL     OW14998   6.678   2.246   2.687
 4700SOL    HW114999   6.678   2.152   2.654
 4700SOL    HW215000   6.760   2.263   2.741
 4701SOL     OW15001   3.083   1.786   1.959
 4701SOL    HW115002   3.117   1.745   1.874
 4701SOL    HW215003   3.012   1.853   1.937
 4702SOL     OW15004   4.734   5.138   0.104
 4702SOL    HW115005   4.678   5.063   0.067
 4702SOL    HW215006   4.827   5.105   0.121
 4703SOL     OW15007   0.809   4.741   2.666
 4703SOL    HW115008   0.870   4.724   2.588
 4703SOL    HW215009   0.720   4.698   2.648
 4704SOL     OW15010   0.159   6.102   5.895
 4704SOL    HW115011   0.060   6.100   5.881
 4704SOL    HW215012   0.204   6.052   5.821
 4705SOL     OW15013   2.976   2.555   1.027
 4705SOL    HW115014   2.973   2.592   1.120
 4705SOL    HW215015   2.965   2.456   1.030
 4706SOL     OW15016   1.199   0.067   0.910
 4706SOL    HW115017   1.186   7.014   0.850
 4706SOL    HW215018   1.237   0.143   0.858
 4707SOL     OW15019   1.628   6.769   1.176
 4707SOL    HW115020   1.528   6.770   1.174
 4707SOL    HW215021   1.659   6.692   1.233
 4708SOL     OW15022   1.259   1.969   5.115
 4708SOL    HW115023   1.235   1.972   5.212
 4708SOL    HW215024   1.239   1.877   5.079
 4709SOL     OW15025   4.890   5.189   4.895
 4709SOL    HW115026   4.843   5.267   4.937
 4709SOL    HW215027   4.906   5.207   4.799
 4710SOL     OW15028   5.364   6.729   4.487
 4710SOL    HW115029   5.381   6.821   4.453
 4710SOL    HW215030   5.350   6.667   4.410
 4711SOL     OW15031   6.190   2.969   3.462
 4711SOL    HW115032   6.129   2.893   3.483
 4711SOL    HW215033   6.282   2.949   3.496
 4712SOL     OW15034   4.303   4.547   5.604
 4712SOL    HW115035   4.296   4.455   5.565
 4712SOL    HW215036   4.309   4.540   5.704
 4713SOL     OW15037   5.546   4.607   1.240
 4713SOL    HW115038   5.500   4.546   1.175
 4713SOL    HW215039   5.488   4.621   1.320
 4714SOL     OW15040   6.557   1.682   6.536
 4714SOL    HW115041   6.476   1.730   6.570
 4714SOL    HW215042   6.597   1.734   6.460
 4715SOL     OW15043   6.416   1.631   1.773
 4715SOL    HW115044   6.433   1.535   1.797
 4715SOL    HW215045   6.428   1.643   1.674
 4716SOL     OW15046   4.132   5.526   5.251
 4716SOL    HW115047   4.167   5.456   5.314
 4716SOL    HW215048   4.032   5.519   5.246
 4717SOL     OW15049   2.882   5.357   5.466
 4717SOL    HW115050   2.922   5.275   5.428
 4717SOL    HW215051   2.842   5.412   5.392
 4718SOL     OW15052   5.366   3.016   0.775
 4718SOL    HW115053   5.429   2.941   0.798
 4718SOL    HW215054   5.406   3.073   0.704
 4719SOL     OW15055   5.980   3.110   3.353
 4719SOL    HW115056   6.066   3.068   3.381
 4719SOL    HW215057   5.915   3.106   3.430
 4720SOL     OW15058   3.374   4.897   0.509
 4720SOL    HW115059   3.400   4.950   0.428
 4720SOL    HW215060   3.457   4.869   0.558
 4721SOL     OW15061   6.234   3.537   1.788
 4721SOL    HW115062   6.137   3.517   1.800
 4721SOL    HW215063   6.245   3.618   1.730
 4722SOL     OW15064   0.999   4.862   6.771
 4722SOL    HW115065   0.966   4.828   6.858
 4722SOL    HW215066   1.047   4.789   6.722
 4723SOL     OW15067   3.682   4.946   5.998
 4723SOL    HW115068   3.714   4.941   6.093
 4723SOL    HW215069   3.757   4.979   5.940
 4724SOL     OW15070   0.232   6.613   3.947
 4724SOL    HW115071   0.136   6.587   3.949
 4724SOL    HW215072   0.289   6.531   3.937
 4725SOL     OW15073   5.467   5.123   0.684
 4725SOL    HW115074   5.518   5.061   0.743
 4725SOL    HW215075   5.454   5.211   0.730
 4726SOL     OW15076   1.572   2.886   5.707
 4726SOL    HW115077   1.574   2.853   5.613
 4726SOL    HW215078   1.648   2.948   5.723
 4727SOL     OW15079   0.583   5.443   0.469
 4727SOL    HW115080   0.534   5.512   0.416
 4727SOL    HW215081   0.680   5.448   0.449
 4728SOL     OW15082   6.198   1.008   3.270
 4728SOL    HW115083   6.261   0.932   3.289
 4728SOL    HW215084   6.245   1.079   3.218
 4729SOL     OW15085   5.272   0.605   0.180
 4729SOL    HW115086   5.211   0.595   0.259
 4729SOL    HW215087   5.317   0.517   0.162
 4730SOL     OW15088   3.719   0.154   4.946
 4730SOL    HW115089   3.706   0.219   4.871
 4730SOL    HW215090   3.798   0.181   5.001
 4731SOL     OW15091   2.726   0.645   0.433
 4731SOL    HW115092   2.669   0.726   0.440
 4731SOL    HW215093   2.822   0.670   0.442
 4732SOL     OW15094   0.700   3.618   5.215
 4732SOL    HW115095   0.672   3.523   5.221
 4732SOL    HW215096   0.786   3.625   5.166
 4733SOL     OW15097   2.229   4.088   3.103
 4733SOL    HW115098   2.298   4.149   3.141
 4733SOL    HW215099   2.201   4.121   3.013
 4734SOL     OW15100   5.117   3.351   5.726
 4734SOL    HW115101   5.083   3.258   5.708
 4734SOL    HW215102   5.083   3.413   5.655
 4735SOL     OW15103   0.512   6.104   4.133
 4735SOL    HW115104   0.575   6.049   4.187
 4735SOL    HW215105   0.527   6.085   4.036
 4736SOL     OW15106   7.007   2.088   3.517
 4736SOL    HW115107   6.953   2.153   3.571
 4736SOL    HW215108   6.946   2.018   3.479
 4737SOL     OW15109   1.873   5.034   0.900
 4737SOL    HW115110   1.962   5.008   0.938
 4737SOL    HW215111   1.822   5.088   0.967
 4738SOL     OW15112   2.746   0.247   4.113
 4738SOL    HW115113   2.836   0.293   4.114
 4738SOL    HW215114   2.756   0.153   4.145
 4739SOL     OW15115   6.326   2.818   5.156
 4739SOL    HW115116   6.229   2.810   5.180
 4739SOL    HW215117   6.348   2.914   5.140
 4740SOL     OW15118   0.918   1.085   1.252
 4740SOL    HW115119   0.880   1.177   1.242
 4740SOL    HW215120   0.854   1.027   1.301
 4741SOL     OW15121   4.083   4.507   0.814
 4741SOL    HW115122   4.020   4.466   0.879
 4741SOL    HW215123   4.085   4.451   0.731
 4742SOL     OW15124   2.465   5.476   1.714
 4742SOL    HW115125   2.558   5.448   1.740
 4742SOL    HW215126   2.446   5.566   1.755
 4743SOL     OW15127   2.505   1.280   6.037
 4743SOL    HW115128   2.558   1.356   6.074
 4743SOL    HW215129   2.555   1.239   5.960
 4744SOL     OW15130   1.778   3.387   5.198
 4744SOL    HW115131   1.825   3.306   5.164
 4744SOL    HW215132   1.720   3.424   5.125
 4745SOL     OW15133   3.229   5.379   5.405
 4745SOL    HW115134   3.323   5.407   5.387
 4745SOL    HW215135   3.215   5.371   5.504
 4746SOL     OW15136   5.967   5.659   0.466
 4746SOL    HW115137   5.896   5.728   0.479
 4746SOL    HW215138   6.047   5.701   0.423
 4747SOL     OW15139   0.084   2.773   0.122
 4747SOL    HW115140   0.069   2.817   0.033
 4747SOL    HW215141   0.047   2.831   0.194
 4748SOL     OW15142   1.077   0.911   1.364
 4748SOL    HW115143   1.023   0.990   1.337
 4748SOL    HW215144   1.045   0.877   1.453
 4749SOL     OW15145   2.150   6.635   0.237
 4749SOL    HW115146   2.201   6.613   0.154
 4749SOL    HW215147   2.200   6.601   0.317
 4750SOL     OW15148   0.239   1.531   4.080
 4750SOL    HW115149   0.252   1.435   4.103
 4750SOL    HW215150   0.176   1.574   4.146
 4751SOL     OW15151   1.651   4.481   0.007
 4751SOL    HW115152   1.583   4.497   6.961
 4751SOL    HW215153   1.609   4.497   0.097
 4752SOL     OW15154   2.288   6.151   1.062
 4752SOL    HW115155   2.273   6.247   1.040
 4752SOL    HW215156   2.252   6.133   1.154
 4753SOL     OW15157   5.635   7.021   5.103
 4753SOL    HW115158   5.678   6.974   5.026
 4753SOL    HW215159   5.625   6.958   5.180
 4754SOL     OW15160   6.272   6.955   6.309
 4754SOL    HW115161   6.344   6.935   6.243
 4754SOL    HW215162   6.222   6.871   6.330
 4755SOL     OW15163   2.366   1.185   6.229
 4755SOL    HW115164   2.430   1.228   6.165
 4755SOL    HW215165   2.411   1.174   6.318
 4756SOL     OW15166   5.202   2.274   1.712
 4756SOL    HW115167   5.272   2.339   1.683
 4756SOL    HW215168   5.115   2.322   1.725
 4757SOL     OW15169   2.443   2.599   2.136
 4757SOL    HW115170   2.420   2.688   2.098
 4757SOL    HW215171   2.516   2.557   2.082
 4758SOL     OW15172   4.282   5.528   5.639
 4758SOL    HW115173   4.341   5.506   5.562
 4758SOL    HW215174   4.193   5.483   5.628
 4759SOL     OW15175   5.387   5.912   4.909
 4759SOL    HW115176   5.323   5.945   4.839
 4759SOL    HW215177   5.480   5.932   4.879
 4760SOL     OW15178   1.843   1.161   1.578
 4760SOL    HW115179   1.942   1.150   1.576
 4760SOL    HW215180   1.812   1.167   1.673
 4761SOL     OW15181   6.580   7.011   6.544
 4761SOL    HW115182   6.601   6.916   6.520
 4761SOL    HW215183   6.662   0.029   6.580
 4762SOL     OW15184   2.532   4.888   2.203
 4762SOL    HW115185   2.441   4.905   2.241
 4762SOL    HW215186   2.535   4.795   2.165
 4763SOL     OW15187   6.522   5.990   3.031
 4763SOL    HW115188   6.424   6.005   3.014
 4763SOL    HW215189   6.539   5.992   3.129
 4764SOL     OW15190   4.532   3.754   5.381
 4764SOL    HW115191   4.567   3.689   5.314
 4764SOL    HW215192   4.585   3.839   5.377
 4765SOL     OW15193   4.621   5.968   5.169
 4765SOL    HW115194   4.717   5.974   5.199
 4765SOL    HW215195   4.563   6.013   5.236
 4766SOL     OW15196   3.219   1.041   3.276
 4766SOL    HW115197   3.187   1.129   3.312
 4766SOL    HW215198   3.140   0.987   3.247
 4767SOL     OW15199   4.307   6.873   1.041
 4767SOL    HW115200   4.243   6.914   1.106
 4767SOL    HW215201   4.286   6.905   0.949
 4768SOL     OW15202   4.908   1.415   4.781
 4768SOL    HW115203   4.864   1.355   4.714
 4768SOL    HW215204   4.919   1.366   4.867
 4769SOL     OW15205   3.994   5.765   1.403
 4769SOL    HW115206   3.937   5.844   1.386
 4769SOL    HW215207   3.940   5.694   1.449
 4770SOL     OW15208   2.668   0.371   3.114
 4770SOL    HW115209   2.753   0.420   3.130
 4770SOL    HW215210   2.610   0.378   3.195
 4771SOL     OW15211   3.216   5.404   6.333
 4771SOL    HW115212   3.252   5.330   6.388
 4771SOL    HW215213   3.247   5.395   6.238
 4772SOL     OW15214   2.758   0.027   1.095
 4772SOL    HW115215   2.673   0.022   1.148
 4772SOL    HW215216   2.833   0.054   1.156
 4773SOL     OW15217   0.153   5.250   4.198
 4773SOL    HW115218   0.102   5.333   4.219
 4773SOL    HW215219   0.136   5.181   4.269
 4774SOL     OW15220   0.843   3.226   2.161
 4774SOL    HW115221   0.792   3.308   2.188
 4774SOL    HW215222   0.930   3.224   2.209
 4775SOL     OW15223   5.012   0.454   2.677
 4775SOL    HW115224   4.965   0.502   2.751
 4775SOL    HW215225   5.083   0.395   2.715
 4776SOL     OW15226   2.482   5.988   2.506
 4776SOL    HW115227   2.385   5.975   2.530
 4776SOL    HW215228   2.513   6.076   2.541
 4777SOL     OW15229   2.420   4.637   0.911
 4777SOL    HW115230   2.387   4.548   0.943
 4777SOL    HW215231   2.370   4.709   0.958
 4778SOL     OW15232   5.121   3.233   1.924
 4778SOL    HW115233   5.142   3.265   1.832
 4778SOL    HW215234   5.065   3.151   1.919
 4779SOL     OW15235   6.477   0.061   2.821
 4779SOL    HW115236   6.574   0.050   2.798
 4779SOL    HW215237   6.435   6.997   2.828
 4780SOL     OW15238   0.823   0.683   5.890
 4780SOL    HW115239   0.922   0.667   5.888
 4780SOL    HW215240   0.799   0.727   5.977
 4781SOL     OW15241   2.106   6.142   1.373
 4781SOL    HW115242   2.120   6.153   1.471
 4781SOL    HW215243   2.136   6.050   1.346
 4782SOL     OW15244   5.269   0.103   0.029
 4782SOL    HW115245   5.170   0.121   0.023
 4782SOL    HW215246   5.309   0.107   6.964
 4783SOL     OW15247   4.397   4.457   0.693
 4783SOL    HW115248   4.369   4.395   0.766
 4783SOL    HW215249   4.328   4.529   0.681
 4784SOL     OW15250   6.215   4.481   5.707
 4784SOL    HW115251   6.155   4.550   5.746
 4784SOL    HW215252   6.210   4.397   5.762
 4785SOL     OW15253   6.627   6.671   0.831
 4785SOL    HW115254   6.661   6.618   0.908
 4785SOL    HW215255   6.687   6.658   0.752
 4786SOL     OW15256   1.924   2.684   2.504
 4786SOL    HW115257   1.937   2.621   2.580
 4786SOL    HW215258   2.013   2.719   2.475
 4787SOL     OW15259   3.058   2.028   3.316
 4787SOL    HW115260   3.014   2.075   3.240
 4787SOL    HW215261   3.158   2.031   3.305
 4788SOL     OW15262   1.296   5.779   5.841
 4788SOL    HW115263   1.381   5.765   5.791
 4788SOL    HW215264   1.290   5.874   5.871
 4789SOL     OW15265   5.169   0.623   0.434
 4789SOL    HW115266   5.072   0.634   0.411
 4789SOL    HW215267   5.181   0.633   0.533
 4790SOL     OW15268   5.245   2.668   6.332
 4790SOL    HW115269   5.328   2.718   6.357
 4790SOL    HW215270   5.230   2.676   6.234
 4791SOL     OW15271   6.117   0.297   2.192
 4791SOL    HW115272   6.056   0.232   2.238
 4791SOL    HW215273   6.119   0.277   2.094
 4792SOL     OW15274   2.184   3.259   2.646
 4792SOL    HW115275   2.164   3.220   2.736
 4792SOL    HW215276   2.173   3.188   2.576
 4793SOL     OW15277   1.369   0.576   5.749
 4793SOL    HW115278   1.457   0.529   5.760
 4793SOL    HW215279   1.295   0.519   5.784
 4794SOL     OW15280   3.691   6.733   2.736
 4794SOL    HW115281   3.638   6.648   2.738
 4794SOL    HW215282   3.659   6.793   2.809
 4795SOL     OW15283   6.666   2.875   4.580
 4795SOL    HW115284   6.685   2.870   4.678
 4795SOL    HW215285   6.569   2.895   4.565
 4796SOL     OW15286   4.967   2.719   0.129
 4796SOL    HW115287   4.993   2.795   0.189
 4796SOL    HW215288   4.879   2.682   0.159
 4797SOL     OW15289   1.280   5.462   5.937
 4797SOL    HW115290   1.287   5.518   5.855
 4797SOL    HW215291   1.185   5.464   5.971
 4798SOL     OW15292   0.154   4.469   5.476
 4798SOL    HW115293   0.103   4.535   5.421
 4798SOL    HW215294   0.244   4.507   5.499
 4799SOL     OW15295   5.577   1.402   4.911
 4799SOL    HW115296   5.511   1.445   4.850
 4799SOL    HW215297   5.668   1.408   4.870
 4800SOL     OW15298   3.004   2.790   6.251
 4800SOL    HW115299   2.920   2.782   6.196
 4800SOL    HW215300   2.987   2.852   6.328
 4801SOL     OW15301   1.804   2.172   0.100
 4801SOL    HW115302   1.844   2.145   0.187
 4801SOL    HW215303   1.729   2.111   0.077
 4802SOL     OW15304   1.929   6.865   2.181
 4802SOL    HW115305   1.837   6.860   2.220
 4802SOL    HW215306   1.997   6.843   2.251
 4803SOL     OW15307   0.739   6.753   1.179
 4803SOL    HW115308   0.768   6.676   1.123
 4803SOL    HW215309   0.658   6.727   1.232
 4804SOL     OW15310   3.933   5.719   6.767
 4804SOL    HW115311   4.003   5.789   6.767
 4804SOL    HW215312   3.926   5.678   6.858
 4805SOL     OW15313   6.699   0.144   0.674
 4805SOL    HW115314   6.745   0.156   0.762
 4805SOL    HW215315   6.605   0.179   0.681
 4806SOL     OW15316   7.016   3.805   3.080
 4806SOL    HW115317   0.089   3.788   3.078
 4806SOL    HW215318   6.991   3.847   3.167
 4807SOL     OW15319   0.849   5.979   1.829
 4807SOL    HW115320   0.900   6.052   1.785
 4807SOL    HW215321   0.752   6.003   1.834
 4808SOL     OW15322   5.790   3.354   0.950
 4808SOL    HW115323   5.771   3.385   1.044
 4808SOL    HW215324   5.878   3.391   0.920
 4809SOL     OW15325   3.437   4.416   0.080
 4809SOL    HW115326   3.396   4.412   7.014
 4809SOL    HW215327   3.406   4.500   0.126
 4810SOL     OW15328   0.845   5.154   1.510
 4810SOL    HW115329   0.878   5.186   1.599
 4810SOL    HW215330   0.809   5.231   1.458
 4811SOL     OW15331   2.840   5.148   2.002
 4811SOL    HW115332   2.922   5.204   2.010
 4811SOL    HW215333   2.841   5.077   2.073
 4812SOL     OW15334   6.605   5.171   4.448
 4812SOL    HW115335   6.510   5.201   4.451
 4812SOL    HW215336   6.616   5.088   4.502
 4813SOL     OW15337   5.131   1.342   2.946
 4813SOL    HW115338   5.213   1.350   3.003
 4813SOL    HW215339   5.053   1.382   2.995
 4814SOL     OW15340   6.303   4.795   0.947
 4814SOL    HW115341   6.368   4.732   0.904
 4814SOL    HW215342   6.281   4.763   1.039
 4815SOL     OW15343   4.981   4.934   2.508
 4815SOL    HW115344   4.889   4.948   2.544
 4815SOL    HW215345   5.041   5.007   2.542
 4816SOL     OW15346   5.430   5.293   2.969
 4816SOL    HW115347   5.473   5.306   2.880
 4816SOL    HW215348   5.421   5.195   2.988
 4817SOL     OW15349   1.002   2.022   5.552
 4817SOL    HW115350   1.077   1.971   5.593
 4817SOL    HW215351   0.917   2.000   5.600
 4818SOL     OW15352   0.557   6.766   3.644
 4818SOL    HW115353   0.492   6.830   3.687
 4818SOL    HW215354   0.515   6.725   3.564
 4819SOL     OW15355   1.448   3.340   0.200
 4819SOL    HW115356   1.366   3.294   0.233
 4819SOL    HW215357   1.495   3.281   0.134
 4820SOL     OW15358   6.982   3.073   1.453
 4820SOL    HW115359   6.913   3.145   1.464
 4820SOL    HW215360   6.981   3.040   1.359
 4821SOL     OW15361   0.257   6.377   1.875
 4821SOL    HW115362   0.186   6.440   1.907
 4821SOL    HW215363   0.261   6.298   1.936
 4822SOL     OW15364   1.278   3.775   4.575
 4822SOL    HW115365   1.249   3.707   4.642
 4822SOL    HW215366   1.211   3.849   4.572
 4823SOL     OW15367   1.106   2.464   2.364
 4823SOL    HW115368   1.188   2.457   2.422
 4823SOL    HW215369   1.132   2.451   2.269
 4824SOL     OW15370   5.069   1.098   5.294
 4824SOL    HW115371   4.971   1.109   5.312
 4824SOL    HW215372   5.111   1.187   5.281
 4825SOL     OW15373   1.208   0.536   4.566
 4825SOL    HW115374   1.226   0.486   4.651
 4825SOL    HW215375   1.113   0.568   4.566
 4826SOL     OW15376   4.575   0.219   1.527
 4826SOL    HW115377   4.649   0.261   1.580
 4826SOL    HW215378   4.607   0.201   1.434
 4827SOL     OW15379   6.644   1.762   0.247
 4827SOL    HW115380   6.699   1.832   0.293
 4827SOL    HW215381   6.549   1.793   0.242
 4828SOL     OW15382   4.826   6.984   2.176
 4828SOL    HW115383   4.736   7.001   2.136
 4828SOL    HW215384   4.817   6.962   2.273
 4829SOL     OW15385   4.390   0.116   5.935
 4829SOL    HW115386   4.345   0.192   5.981
 4829SOL    HW215387   4.454   0.072   5.997
 4830SOL     OW15388   4.154   5.807   3.866
 4830SOL    HW115389   4.084   5.741   3.894
 4830SOL    HW215390   4.111   5.895   3.844
 4831SOL     OW15391   3.248   5.573   6.067
 4831SOL    HW115392   3.299   5.618   6.140
 4831SOL    HW215393   3.152   5.565   6.093
 4832SOL     OW15394   3.243   3.669   4.848
 4832SOL    HW115395   3.162   3.727   4.843
 4832SOL    HW215396   3.236   3.596   4.780
 4833SOL     OW15397   6.011   2.434   4.431
 4833SOL    HW115398   6.049   2.341   4.425
 4833SOL    HW215399   5.911   2.429   4.439
 4834SOL     OW15400   2.515   5.278   2.628
 4834SOL    HW115401   2.580   5.208   2.656
 4834SOL    HW215402   2.549   5.368   2.655
 4835SOL     OW15403   6.852   3.694   5.928
 4835SOL    HW115404   6.940   3.740   5.943
 4835SOL    HW215405   6.866   3.611   5.874
 4836SOL     OW15406   4.997   0.606   5.136
 4836SOL    HW115407   5.059   0.561   5.070
 4836SOL    HW215408   4.979   0.699   5.106
 4837SOL     OW15409   6.757   3.268   3.761
 4837SOL    HW115410   6.765   3.351   3.705
 4837SOL    HW215411   6.669   3.224   3.744
 4838SOL     OW15412   1.354   4.652   6.331
 4838SOL    HW115413   1.309   4.571   6.293
 4838SOL    HW215414   1.369   4.719   6.258
 4839SOL     OW15415   1.692   2.606   0.131
 4839SOL    HW115416   1.627   2.675   0.099
 4839SOL    HW215417   1.707   2.618   0.230
 4840SOL     OW15418   5.023   3.804   5.383
 4840SOL    HW115419   4.929   3.780   5.408
 4840SOL    HW215420   5.084   3.778   5.458
 4841SOL     OW15421   2.808   5.117   3.672
 4841SOL    HW115422   2.726   5.066   3.644
 4841SOL    HW215423   2.815   5.117   3.772
 4842SOL     OW15424   2.351   5.082   2.726
 4842SOL    HW115425   2.367   5.180   2.742
 4842SOL    HW215426   2.360   5.032   2.812
 4843SOL     OW15427   0.340   2.974   2.096
 4843SOL    HW115428   0.376   3.022   2.176
 4843SOL    HW215429   0.350   3.032   2.015
 4844SOL     OW15430   1.357   4.849   5.312
 4844SOL    HW115431   1.387   4.889   5.226
 4844SOL    HW215432   1.425   4.867   5.383
 4845SOL     OW15433   4.399   4.203   5.290
 4845SOL    HW115434   4.345   4.274   5.245
 4845SOL    HW215435   4.496   4.227   5.285
 4846SOL     OW15436   0.519   2.716   4.086
 4846SOL    HW115437   0.421   2.732   4.096
 4846SOL    HW215438   0.550   2.750   3.997
 4847SOL     OW15439   2.683   6.538   5.725
 4847SOL    HW115440   2.763   6.493   5.764
 4847SOL    HW215441   2.643   6.600   5.792
 4848SOL     OW15442   2.466   1.300   3.954
 4848SOL    HW115443   2.520   1.252   4.023
 4848SOL    HW215444   2.370   1.275   3.964
 4849SOL     OW15445   2.092   0.464   0.234
 4849SOL    HW115446   2.186   0.453   0.204
 4849SOL    HW215447   2.091   0.491   0.331
 4850SOL     OW15448   4.559   0.998   1.228
 4850SOL    HW115449   4.475   1.030   1.273
 4850SOL    HW215450   4.624   0.968   1.298
 4851SOL     OW15451   3.339   6.328   0.254
 4851SOL    HW115452   3.252   6.359   0.216
 4851SOL    HW215453   3.400   6.301   0.180
 4852SOL     OW15454   4.059   5.507   4.963
 4852SOL    HW115455   4.121   5.547   4.895
 4852SOL    HW215456   4.107   5.498   5.050
 4853SOL     OW15457   3.663   0.425   3.394
 4853SOL    HW115458   3.689   0.517   3.366
 4853SOL    HW215459   3.739   0.382   3.442
 4854SOL     OW15460   5.971   5.921   1.569
 4854SOL    HW115461   6.009   5.890   1.482
 4854SOL    HW215462   5.939   5.842   1.621
 4855SOL     OW15463   6.729   4.373   5.136
 4855SOL    HW115464   6.683   4.340   5.053
 4855SOL    HW215465   6.729   4.302   5.205
 4856SOL     OW15466   0.767   3.918   2.566
 4856SOL    HW115467   0.842   3.930   2.501
 4856SOL    HW215468   0.796   3.856   2.639
 4857SOL     OW15469   3.116   2.153   4.385
 4857SOL    HW115470   3.118   2.099   4.470
 4857SOL    HW215471   3.026   2.195   4.375
 4858SOL     OW15472   0.798   6.877   5.009
 4858SOL    HW115473   0.723   6.838   5.063
 4858SOL    HW215474   0.883   6.829   5.031
 4859SOL     OW15475   0.861   5.912   2.146
 4859SOL    HW115476   0.937   5.852   2.170
 4859SOL    HW215477   0.860   5.926   2.047
 4860SOL     OW15478   4.953   5.317   0.688
 4860SOL    HW115479   4.952   5.256   0.609
 4860SOL    HW215480   4.975   5.410   0.659
 4861SOL     OW15481   6.548   5.011   5.892
 4861SOL    HW115482   6.610   4.995   5.816
 4861SOL    HW215483   6.601   5.016   5.977
 4862SOL     OW15484   2.572   4.623   5.007
 4862SOL    HW115485   2.524   4.707   5.032
 4862SOL    HW215486   2.669   4.632   5.030
 4863SOL     OW15487   4.788   2.718   2.671
 4863SOL    HW115488   4.700   2.673   2.658
 4863SOL    HW215489   4.812   2.768   2.588
 4864SOL     OW15490   3.331   1.273   1.725
 4864SOL    HW115491   3.241   1.317   1.719
 4864SOL    HW215492   3.343   1.234   1.816
 4865SOL     OW15493   3.835   5.088   5.636
 4865SOL    HW115494   3.761   5.125   5.580
 4865SOL    HW215495   3.835   4.988   5.630
 4866SOL     OW15496   5.852   5.054   1.926
 4866SOL    HW115497   5.942   5.047   1.885
 4866SOL    HW215498   5.855   5.116   2.004
 4867SOL     OW15499   5.101   5.215   2.586
 4867SOL    HW115500   5.090   5.253   2.678
 4867SOL    HW215501   5.042   5.265   2.523
 4868SOL     OW15502   0.308   5.633   1.295
 4868SOL    HW115503   0.361   5.666   1.217
 4868SOL    HW215504   0.219   5.600   1.265
 4869SOL     OW15505   6.844   1.651   0.058
 4869SOL    HW115506   6.896   1.593   0.121
 4869SOL    HW215507   6.766   1.691   0.107
 4870SOL     OW15508   4.676   6.322   1.848
 4870SOL    HW115509   4.594   6.379   1.849
 4870SOL    HW215510   4.650   6.226   1.845
 4871SOL     OW15511   1.119   2.233   3.442
 4871SOL    HW115512   1.130   2.326   3.408
 4871SOL    HW215513   1.187   2.173   3.399
 4872SOL     OW15514   1.139   0.043   2.828
 4872SOL    HW115515   1.226   0.008   2.863
 4872SOL    HW215516   1.073   0.049   2.903
 4873SOL     OW15517   0.228   5.440   4.522
 4873SOL    HW115518   0.186   5.479   4.440
 4873SOL    HW215519   0.323   5.472   4.529
 4874SOL     OW15520   5.519   3.621   3.525
 4874SOL    HW115521   5.463   3.695   3.488
 4874SOL    HW215522   5.467   3.535   3.523
 4875SOL     OW15523   5.559   1.599   0.859
 4875SOL    HW115524   5.460   1.604   0.875
 4875SOL    HW215525   5.602   1.679   0.901
 4876SOL     OW15526   6.452   0.922   6.378
 4876SOL    HW115527   6.397   0.964   6.450
 4876SOL    HW215528   6.436   0.970   6.291
 4877SOL     OW15529   6.281   1.513   1.104
 4877SOL    HW115530   6.275   1.582   1.176
 4877SOL    HW215531   6.189   1.488   1.074
 4878SOL     OW15532   0.156   1.783   1.745
 4878SOL    HW115533   0.159   1.748   1.839
 4878SOL    HW215534   0.155   1.706   1.681
 4879SOL     OW15535   4.219   4.898   3.486
 4879SOL    HW115536   4.228   4.802   3.511
 4879SOL    HW215537   4.307   4.931   3.450
 4880SOL     OW15538   5.920   1.164   0.211
 4880SOL    HW115539   5.940   1.185   0.306
 4880SOL    HW215540   5.823   1.142   0.201
 4881SOL     OW15541   3.115   6.584   6.180
 4881SOL    HW115542   3.041   6.548   6.238
 4881SOL    HW215543   3.164   6.508   6.138
 4882SOL     OW15544   5.949   1.221   5.420
 4882SOL    HW115545   5.918   1.292   5.356
 4882SOL    HW215546   5.870   1.185   5.470
 4883SOL     OW15547   6.154   4.655   1.945
 4883SOL    HW115548   6.172   4.566   1.988
 4883SOL    HW215549   6.194   4.657   1.853
 4884SOL     OW15550   3.828   6.347   1.866
 4884SOL    HW115551   3.903   6.379   1.925
 4884SOL    HW215552   3.853   6.360   1.770
 4885SOL     OW15553   1.820   0.104   1.183
 4885SOL    HW115554   1.770   0.125   1.267
 4885SOL    HW215555   1.917   0.090   1.205
 4886SOL     OW15556   6.243   0.618   0.373
 4886SOL    HW115557   6.212   0.579   0.460
 4886SOL    HW215558   6.265   0.715   0.386
 4887SOL     OW15559   0.203   2.283   3.780
 4887SOL    HW115560   0.229   2.203   3.726
 4887SOL    HW215561   0.275   2.352   3.773
 4888SOL     OW15562   1.682   6.039   2.560
 4888SOL    HW115563   1.710   6.010   2.468
 4888SOL    HW215564   1.736   6.118   2.588
 4889SOL     OW15565   0.882   1.855   6.971
 4889SOL    HW115566   0.897   1.757   6.955
 4889SOL    HW215567   0.961   1.892   7.020
 4890SOL     OW15568   0.973   0.678   4.480
 4890SOL    HW115569   0.897   0.612   4.481
 4890SOL    HW215570   0.940   0.767   4.510
 4891SOL     OW15571   0.773   4.900   0.956
 4891SOL    HW115572   0.745   4.991   0.986
 4891SOL    HW215573   0.805   4.905   0.861
 4892SOL     OW15574   1.042   5.651   1.647
 4892SOL    HW115575   0.944   5.660   1.667
 4892SOL    HW215576   1.057   5.668   1.550
 4893SOL     OW15577   0.227   3.784   6.430
 4893SOL    HW115578   0.207   3.751   6.523
 4893SOL    HW215579   0.263   3.877   6.435
 4894SOL     OW15580   2.054   0.571   2.823
 4894SOL    HW115581   2.080   0.660   2.785
 4894SOL    HW215582   2.004   0.519   2.753
 4895SOL     OW15583   0.948   3.128   0.451
 4895SOL    HW115584   1.034   3.099   0.409
 4895SOL    HW215585   0.928   3.222   0.424
 4896SOL     OW15586   3.495   5.003   4.769
 4896SOL    HW115587   3.409   4.955   4.783
 4896SOL    HW215588   3.534   4.976   4.680
 4897SOL     OW15589   3.546   5.559   0.287
 4897SOL    HW115590   3.636   5.578   0.327
 4897SOL    HW215591   3.477   5.556   0.360
 4898SOL     OW15592   5.398   1.985   5.418
 4898SOL    HW115593   5.394   1.950   5.512
 4898SOL    HW215594   5.401   2.085   5.420
 4899SOL     OW15595   6.216   4.505   3.369
 4899SOL    HW115596   6.241   4.480   3.276
 4899SOL    HW215597   6.281   4.573   3.404
 4900SOL     OW15598   0.317   6.438   5.877
 4900SOL    HW115599   0.386   6.426   5.948
 4900SOL    HW215600   0.312   6.535   5.851
 4901SOL     OW15601   0.781   6.294   3.897
 4901SOL    HW115602   0.687   6.264   3.913
 4901SOL    HW215603   0.807   6.361   3.966
 4902SOL     OW15604   2.887   4.954   1.807
 4902SOL    HW115605   2.907   4.908   1.893
 4902SOL    HW215606   2.831   5.036   1.825
 4903SOL     OW15607   4.444   0.133   6.667
 4903SOL    HW115608   4.456   0.056   6.604
 4903SOL    HW215609   4.405   0.099   6.753
 4904SOL     OW15610   1.864   6.310   4.103
 4904SOL    HW115611   1.956   6.332   4.073
 4904SOL    HW215612   1.841   6.362   4.185
 4905SOL     OW15613   4.694   2.927   1.656
 4905SOL    HW115614   4.689   3.008   1.714
 4905SOL    HW215615   4.630   2.858   1.689
 4906SOL     OW15616   4.823   0.192   0.473
 4906SOL    HW115617   4.877   0.167   0.553
 4906SOL    HW215618   4.755   0.260   0.499
 4907SOL     OW15619   3.907   0.176   3.797
 4907SOL    HW115620   3.824   0.127   3.821
 4907SOL    HW215621   3.961   0.119   3.734
 4908SOL     OW15622   3.360   6.354   6.726
 4908SOL    HW115623   3.422   6.290   6.680
 4908SOL    HW215624   3.270   6.351   6.682
 4909SOL     OW15625   6.319   6.421   5.166
 4909SOL    HW115626   6.346   6.446   5.259
 4909SOL    HW215627   6.222   6.398   5.164
 4910SOL     OW15628   5.355   0.528   5.069
 4910SOL    HW115629   5.278   0.505   5.010
 4910SOL    HW215630   5.359   0.465   5.146
 4911SOL     OW15631   0.266   2.463   5.625
 4911SOL    HW115632   0.334   2.515   5.676
 4911SOL    HW215633   0.223   2.523   5.556
 4912SOL     OW15634   3.668   2.051   2.362
 4912SOL    HW115635   3.576   2.077   2.334
 4912SOL    HW215636   3.689   1.960   2.327
 4913SOL     OW15637   3.373   3.761   3.368
 4913SOL    HW115638   3.347   3.673   3.408
 4913SOL    HW215639   3.472   3.765   3.357
 4914SOL     OW15640   1.924   6.867   3.504
 4914SOL    HW115641   1.844   6.912   3.544
 4914SOL    HW215642   1.956   6.920   3.425
 4915SOL     OW15643   3.996   6.677   3.985
 4915SOL    HW115644   4.035   6.595   4.027
 4915SOL    HW215645   3.957   6.654   3.896
 4916SOL     OW15646   2.939   2.185   3.116
 4916SOL    HW115647   2.902   2.276   3.130
 4916SOL    HW215648   2.948   2.167   3.018
 4917SOL     OW15649   2.115   4.340   1.043
 4917SOL    HW115650   2.061   4.258   1.023
 4917SOL    HW215651   2.079   4.417   0.991
 4918SOL     OW15652   2.391   0.362   1.897
 4918SOL    HW115653   2.322   0.400   1.836
 4918SOL    HW215654   2.477   0.353   1.848
 4919SOL     OW15655   1.766   2.319   2.584
 4919SOL    HW115656   1.842   2.381   2.565
 4919SOL    HW215657   1.707   2.313   2.503
 4920SOL     OW15658   4.144   0.839   0.554
 4920SOL    HW115659   4.197   0.792   0.624
 4920SOL    HW215660   4.184   0.928   0.536
 4921SOL     OW15661   2.293   4.140   1.716
 4921SOL    HW115662   2.324   4.143   1.621
 4921SOL    HW215663   2.302   4.047   1.751
 4922SOL     OW15664   1.505   3.210   5.616
 4922SOL    HW115665   1.514   3.179   5.711
 4922SOL    HW215666   1.527   3.135   5.554
 4923SOL     OW15667   4.997   0.700   1.722
 4923SOL    HW115668   5.045   0.770   1.774
 4923SOL    HW215669   4.960   0.631   1.784
 4924SOL     OW15670   0.878   3.722   4.431
 4924SOL    HW115671   0.934   3.639   4.435
 4924SOL    HW215672   0.781   3.695   4.423
 4925SOL     OW15673   4.776   6.278   0.751
 4925SOL    HW115674   4.712   6.224   0.805
 4925SOL    HW215675   4.796   6.364   0.798
 4926SOL     OW15676   4.929   2.339   2.036
 4926SOL    HW115677   4.970   2.253   2.067
 4926SOL    HW215678   4.913   2.335   1.937
 4927SOL     OW15679   3.327   2.986   3.007
 4927SOL    HW115680   3.301   3.059   2.943
 4927SOL    HW215681   3.299   3.011   3.099
 4928SOL     OW15682   0.693   6.640   0.044
 4928SOL    HW115683   0.672   6.732   0.010
 4928SOL    HW215684   0.651   6.572   7.010
 4929SOL     OW15685   1.264   4.974   4.709
 4929SOL    HW115686   1.187   5.024   4.669
 4929SOL    HW215687   1.291   5.018   4.795
 4930SOL     OW15688   0.385   1.919   0.191
 4930SOL    HW115689   0.336   2.001   0.222
 4930SOL    HW215690   0.321   1.858   0.144
 4931SOL     OW15691   0.508   0.131   0.506
 4931SOL    HW115692   0.494   0.073   0.586
 4931SOL    HW215693   0.579   0.198   0.525
 4932SOL     OW15694   2.300   2.173   1.559
 4932SOL    HW115695   2.398   2.154   1.560
 4932SOL    HW215696   2.273   2.207   1.469
 4933SOL     OW15697   2.654   1.334   4.222
 4933SOL    HW115698   2.653   1.412   4.285
 4933SOL    HW215699   2.749   1.309   4.202
 4934SOL     OW15700   0.424   5.290   4.142
 4934SOL    HW115701   0.329   5.268   4.163
 4934SOL    HW215702   0.443   5.386   4.165
 4935SOL     OW15703   2.086   1.570   6.765
 4935SOL    HW115704   2.025   1.647   6.748
 4935SOL    HW215705   2.032   1.492   6.798
 4936SOL     OW15706   3.664   6.146   1.443
 4936SOL    HW115707   3.600   6.216   1.411
 4936SOL    HW215708   3.750   6.190   1.470
 4937SOL     OW15709   0.962   3.099   5.956
 4937SOL    HW115710   0.898   3.036   5.912
 4937SOL    HW215711   0.967   3.079   6.054
 4938SOL     OW15712   3.268   4.697   1.345
 4938SOL    HW115713   3.240   4.780   1.296
 4938SOL    HW215714   3.189   4.658   1.392
 4939SOL     OW15715   1.275   1.614   1.582
 4939SOL    HW115716   1.215   1.694   1.573
 4939SOL    HW215717   1.220   1.531   1.580
 4940SOL     OW15718   0.013   2.771   3.719
 4940SOL    HW115719   7.015   2.828   3.797
 4940SOL    HW215720   0.002   2.674   3.744
 4941SOL     OW15721   3.943   2.366   5.273
 4941SOL    HW115722   3.998   2.348   5.355
 4941SOL    HW215723   4.001   2.400   5.200
 4942SOL     OW15724   5.397   2.901   3.628
 4942SOL    HW115725   5.413   2.959   3.548
 4942SOL    HW215726   5.383   2.807   3.599
 4943SOL     OW15727   5.161   3.083   6.576
 4943SOL    HW115728   5.239   3.144   6.565
 4943SOL    HW215729   5.178   3.021   6.652
 4944SOL     OW15730   1.550   5.011   1.528
 4944SOL    HW115731   1.598   4.966   1.603
 4944SOL    HW215732   1.601   4.997   1.443
 4945SOL     OW15733   1.809   0.495   5.016
 4945SOL    HW115734   1.782   0.583   5.055
 4945SOL    HW215735   1.779   0.421   5.076
 4946SOL     OW15736   1.494   4.784   0.951
 4946SOL    HW115737   1.425   4.804   0.882
 4946SOL    HW215738   1.474   4.836   1.034
 4947SOL     OW15739   1.708   1.073   1.830
 4947SOL    HW115740   1.679   1.169   1.832
 4947SOL    HW215741   1.651   1.020   1.891
 4948SOL     OW15742   1.445   2.321   1.389
 4948SOL    HW115743   1.374   2.251   1.389
 4948SOL    HW215744   1.405   2.410   1.368
 4949SOL     OW15745   6.382   2.886   6.024
 4949SOL    HW115746   6.437   2.964   6.054
 4949SOL    HW215747   6.435   2.831   5.958
 4950SOL     OW15748   2.659   4.278   5.510
 4950SOL    HW115749   2.724   4.203   5.523
 4950SOL    HW215750   2.675   4.348   5.580
 4951SOL     OW15751   5.511   6.122   3.667
 4951SOL    HW115752   5.499   6.097   3.571
 4951SOL    HW215753   5.595   6.176   3.678
 4952SOL     OW15754   0.059   0.198   5.903
 4952SOL    HW115755   0.148   0.167   5.870
 4952SOL    HW215756   0.060   0.202   6.003
 4953SOL     OW15757   1.335   2.114   5.535
 4953SOL    HW115758   1.393   2.087   5.459
 4953SOL    HW215759   1.391   2.129   5.617
 4954SOL     OW15760   2.839   4.007   5.228
 4954SOL    HW115761   2.869   4.061   5.149
 4954SOL    HW215762   2.743   4.028   5.248
 4955SOL     OW15763   2.994   5.967   0.221
 4955SOL    HW115764   3.069   5.961   0.287
 4955SOL    HW215765   2.956   5.875   0.205
 4956SOL     OW15766   2.412   0.385   4.835
 4956SOL    HW115767   2.354   0.341   4.767
 4956SOL    HW215768   2.507   0.384   4.803
 4957SOL     OW15769   6.575   4.085   6.740
 4957SOL    HW115770   6.623   4.123   6.661
 4957SOL    HW215771   6.640   4.033   6.796
 4958SOL     OW15772   2.331   0.361   6.278
 4958SOL    HW115773   2.333   0.396   6.372
 4958SOL    HW215774   2.416   0.387   6.231
 4959SOL     OW15775   0.052   2.885   1.648
 4959SOL    HW115776   7.001   2.856   1.705
 4959SOL    HW215777   0.023   2.960   1.589
 4960SOL     OW15778   4.000   4.872   3.904
 4960SOL    HW115779   4.087   4.827   3.925
 4960SOL    HW215780   4.012   4.934   3.827
 4961SOL     OW15781   3.079   0.781   6.750
 4961SOL    HW115782   3.025   0.754   6.829
 4961SOL    HW215783   3.073   0.881   6.738
 4962SOL     OW15784   6.603   3.736   1.009
 4962SOL    HW115785   6.507   3.709   1.021
 4962SOL    HW215786   6.610   3.799   0.931
 4963SOL     OW15787   0.509   4.182   0.131
 4963SOL    HW115788   0.476   4.125   0.057
 4963SOL    HW215789   0.556   4.126   0.199
 4964SOL     OW15790   2.668   6.677   4.623
 4964SOL    HW115791   2.721   6.756   4.653
 4964SOL    HW215792   2.599   6.707   4.556
 4965SOL     OW15793   1.311   6.599   2.836
 4965SOL    HW115794   1.231   6.540   2.842
 4965SOL    HW215795   1.283   6.691   2.811
 4966SOL     OW15796   3.009   6.316   4.299
 4966SOL    HW115797   2.959   6.351   4.378
 4966SOL    HW215798   2.975   6.225   4.276
 4967SOL     OW15799   4.282   4.835   5.534
 4967SOL    HW115800   4.335   4.759   5.573
 4967SOL    HW215801   4.195   4.842   5.581
 4968SOL     OW15802   0.558   1.427   3.692
 4968SOL    HW115803   0.562   1.518   3.734
 4968SOL    HW215804   0.498   1.368   3.744
 4969SOL     OW15805   0.719   6.561   2.078
 4969SOL    HW115806   0.659   6.482   2.086
 4969SOL    HW215807   0.760   6.581   2.167
 4970SOL     OW15808   1.652   1.503   1.526
 4970SOL    HW115809   1.559   1.519   1.491
 4970SOL    HW215810   1.671   1.567   1.601
 4971SOL     OW15811   6.785   6.047   2.945
 4971SOL    HW115812   6.686   6.051   2.960
 4971SOL    HW215813   6.824   6.138   2.957
 4972SOL     OW15814   1.798   4.329   1.381
 4972SOL    HW115815   1.858   4.250   1.377
 4972SOL    HW215816   1.772   4.355   1.288
 4973SOL     OW15817   0.206   0.717   0.889
 4973SOL    HW115818   0.191   0.769   0.972
 4973SOL    HW215819   0.132   0.651   0.876
 4974SOL     OW15820   3.622   4.287   6.243
 4974SOL    HW115821   3.547   4.288   6.309
 4974SOL    HW215822   3.630   4.196   6.203
 4975SOL     OW15823   5.751   3.620   0.347
 4975SOL    HW115824   5.842   3.613   0.390
 4975SOL    HW215825   5.746   3.557   0.270
 4976SOL     OW15826   1.040   6.986   4.410
 4976SOL    HW115827   0.995   6.922   4.348
 4976SOL    HW215828   1.017   6.962   4.505
 4977SOL     OW15829   2.816   5.300   6.038
 4977SOL    HW115830   2.718   5.277   6.046
 4977SOL    HW215831   2.848   5.277   5.947
 4978SOL     OW15832   5.110   4.481   5.529
 4978SOL    HW115833   5.169   4.403   5.553
 4978SOL    HW215834   5.037   4.450   5.468
 4979SOL     OW15835   1.636   6.955   6.472
 4979SOL    HW115836   1.575   6.939   6.550
 4979SOL    HW215837   1.729   6.972   6.505
 4980SOL     OW15838   6.523   3.663   3.065
 4980SOL    HW115839   6.523   3.726   2.988
 4980SOL    HW215840   6.502   3.571   3.033
 4981SOL     OW15841   3.518   4.960   2.060
 4981SOL    HW115842   3.421   4.937   2.057
 4981SOL    HW215843   3.568   4.905   1.993
 4982SOL     OW15844   4.590   1.316   7.020
 4982SOL    HW115845   4.646   1.238   6.993
 4982SOL    HW215846   4.551   1.359   6.939
 4983SOL     OW15847   6.606   5.150   3.993
 4983SOL    HW115848   6.669   5.123   4.066
 4983SOL    HW215849   6.578   5.069   3.942
 4984SOL     OW15850   4.937   4.478   3.144
 4984SOL    HW115851   4.961   4.485   3.241
 4984SOL    HW215852   4.983   4.398   3.105
 4985SOL     OW15853   5.860   5.926   2.671
 4985SOL    HW115854   5.900   5.837   2.647
 4985SOL    HW215855   5.934   5.993   2.682
 4986SOL     OW15856   0.444   4.738   1.846
 4986SOL    HW115857   0.510   4.808   1.873
 4986SOL    HW215858   0.371   4.780   1.793
 4987SOL     OW15859   0.798   0.132   2.332
 4987SOL    HW115860   0.816   0.230   2.343
 4987SOL    HW215861   0.767   0.094   2.420
 4988SOL     OW15862   5.632   0.433   3.536
 4988SOL    HW115863   5.658   0.398   3.626
 4988SOL    HW215864   5.648   0.531   3.532
 4989SOL     OW15865   5.203   0.808   2.092
 4989SOL    HW115866   5.185   0.878   2.162
 4989SOL    HW215867   5.143   0.824   2.013
 4990SOL     OW15868   4.327   1.589   6.541
 4990SOL    HW115869   4.256   1.524   6.513
 4990SOL    HW215870   4.304   1.680   6.505
 4991SOL     OW15871   0.881   5.921   4.847
 4991SOL    HW115872   0.845   5.831   4.871
 4991SOL    HW215873   0.893   5.926   4.748
 4992SOL     OW15874   0.055   0.733   3.497
 4992SOL    HW115875   0.037   0.639   3.524
 4992SOL    HW215876   7.003   0.769   3.445
 4993SOL     OW15877   4.479   6.117   5.418
 4993SOL    HW115878   4.487   6.202   5.367
 4993SOL    HW215879   4.391   6.114   5.465
 4994SOL     OW15880   2.958   5.104   5.408
 4994SOL    HW115881   2.892   5.073   5.477
 4994SOL    HW215882   3.033   5.038   5.402
 4995SOL     OW15883   0.435   0.707   4.547
 4995SOL    HW115884   0.364   0.637   4.551
 4995SOL    HW215885   0.513   0.678   4.604
 4996SOL     OW15886   0.055   1.836   4.167
 4996SOL    HW115887   0.044   1.913   4.104
 4996SOL    HW215888   0.140   1.846   4.218
 4997SOL     OW15889   3.238   2.127   1.292
 4997SOL    HW115890   3.228   2.199   1.361
 4997SOL    HW215891   3.216   2.165   1.202
 4998SOL     OW15892   1.322   3.106   3.417
 4998SOL    HW115893   1.344   3.047   3.339
 4998SOL    HW215894   1.376   3.190   3.412
 4999SOL     OW15895   1.379   3.528   4.730
 4999SOL    HW115896   1.354   3.498   4.822
 4999SOL    HW215897   1.461   3.585   4.734
 5000SOL     OW15898   3.088   6.003   3.375
 5000SOL    HW115899   3.071   5.920   3.322
 5000SOL    HW215900   3.012   6.016   3.440
 5001SOL     OW15901   0.594   5.289   2.891
 5001SOL    HW115902   0.682   5.323   2.926
 5001SOL    HW215903   0.597   5.190   2.885
 5002SOL     OW15904   0.543   4.680   2.595
 5002SOL    HW115905   0.535   4.617   2.519
 5002SOL    HW215906   0.458   4.681   2.647
 5003SOL     OW15907   4.033   6.047   3.159
 5003SOL    HW115908   3.971   6.106   3.211
 5003SOL    HW215909   3.987   6.018   3.075
 5004SOL     OW15910   3.412   5.931   6.218
 5004SOL    HW115911   3.318   5.955   6.196
 5004SOL    HW215912   3.474   5.998   6.178
 5005SOL     OW15913   3.020   3.219   6.489
 5005SOL    HW115914   3.013   3.119   6.480
 5005SOL    HW215915   2.933   3.261   6.462
 5006SOL     OW15916   5.534   1.425   1.965
 5006SOL    HW115917   5.609   1.414   2.031
 5006SOL    HW215918   5.480   1.505   1.990
 5007SOL     OW15919   6.221   0.690   0.912
 5007SOL    HW115920   6.243   0.747   0.991
 5007SOL    HW215921   6.125   0.700   0.889
 5008SOL     OW15922   6.455   6.540   1.675
 5008SOL    HW115923   6.458   6.622   1.617
 5008SOL    HW215924   6.548   6.510   1.695
 5009SOL     OW15925   1.025   2.914   0.648
 5009SOL    HW115926   0.969   2.889   0.728
 5009SOL    HW215927   0.974   2.977   0.590
 5010SOL     OW15928   3.488   2.763   0.417
 5010SOL    HW115929   3.460   2.731   0.326
 5010SOL    HW215930   3.564   2.707   0.450
 5011SOL     OW15931   1.773   3.789   0.172
 5011SOL    HW115932   1.840   3.718   0.194
 5011SOL    HW215933   1.722   3.813   0.254
 5012SOL     OW15934   5.748   2.314   5.479
 5012SOL    HW115935   5.825   2.343   5.423
 5012SOL    HW215936   5.776   2.239   5.539
 5013SOL     OW15937   6.135   0.399   5.792
 5013SOL    HW115938   6.157   0.408   5.695
 5013SOL    HW215939   6.214   0.424   5.847
 5014SOL     OW15940   6.723   4.429   0.523
 5014SOL    HW115941   6.648   4.442   0.458
 5014SOL    HW215942   6.717   4.496   0.596
 5015SOL     OW15943   5.716   0.537   4.508
 5015SOL    HW115944   5.686   0.474   4.436
 5015SOL    HW215945   5.635   0.577   4.552
 5016SOL     OW15946   0.985   3.144   4.820
 5016SOL    HW115947   0.976   3.140   4.721
 5016SOL    HW215948   0.997   3.239   4.849
 5017SOL     OW15949   0.889   2.806   0.949
 5017SOL    HW115950   0.819   2.747   0.989
 5017SOL    HW215951   0.881   2.898   0.987
 5018SOL     OW15952   0.537   5.493   2.427
 5018SOL    HW115953   0.485   5.570   2.390
 5018SOL    HW215954   0.496   5.408   2.395
 5019SOL     OW15955   1.830   5.649   5.589
 5019SOL    HW115956   1.824   5.625   5.686
 5019SOL    HW215957   1.892   5.727   5.578
 5020SOL     OW15958   0.364   6.934   4.868
 5020SOL    HW115959   0.273   6.932   4.828
 5020SOL    HW215960   0.357   6.948   4.967
 5021SOL     OW15961   1.573   0.537   1.218
 5021SOL    HW115962   1.652   0.512   1.275
 5021SOL    HW215963   1.511   0.460   1.212
 5022SOL     OW15964   0.258   2.758   1.535
 5022SOL    HW115965   0.188   2.799   1.593
 5022SOL    HW215966   0.278   2.819   1.458
 5023SOL     OW15967   6.884   3.608   1.627
 5023SOL    HW115968   6.850   3.695   1.590
 5023SOL    HW215969   6.807   3.553   1.658
 5024SOL     OW15970   5.362   4.283   0.585
 5024SOL    HW115971   5.271   4.268   0.623
 5024SOL    HW215972   5.432   4.263   0.654
 5025SOL     OW15973   4.138   1.667   4.290
 5025SOL    HW115974   4.179   1.584   4.252
 5025SOL    HW215975   4.151   1.669   4.389
 5026SOL     OW15976   6.400   5.250   4.780
 5026SOL    HW115977   6.398   5.156   4.814
 5026SOL    HW215978   6.383   5.250   4.681
 5027SOL     OW15979   5.467   1.112   1.126
 5027SOL    HW115980   5.547   1.075   1.080
 5027SOL    HW215981   5.462   1.211   1.110
 5028SOL     OW15982   0.282   1.859   3.018
 5028SOL    HW115983   0.265   1.958   3.025
 5028SOL    HW215984   0.374   1.839   3.050
 5029SOL     OW15985   6.638   3.111   2.355
 5029SOL    HW115986   6.608   3.142   2.445
 5029SOL    HW215987   6.725   3.154   2.332
 5030SOL     OW15988   6.831   5.599   6.149
 5030SOL    HW115989   6.865   5.676   6.202
 5030SOL    HW215990   6.885   5.517   6.170
 5031SOL     OW15991   0.052   1.328   4.991
 5031SOL    HW115992   0.052   1.369   4.900
 5031SOL    HW215993   0.124   1.371   5.046
 5032SOL     OW15994   3.175   2.309   6.270
 5032SOL    HW115995   3.148   2.394   6.315
 5032SOL    HW215996   3.271   2.316   6.240
 5033SOL     OW15997   2.131   1.399   0.239
 5033SOL    HW115998   2.160   1.382   0.145
 5033SOL    HW215999   2.199   1.456   0.285
 5034SOL     OW16000   4.478   6.846   4.023
 5034SOL    HW116001   4.498   6.793   4.105
 5034SOL    HW216002   4.471   6.943   4.047
 5035SOL     OW16003   0.063   4.230   5.375
 5035SOL    HW116004   0.107   4.311   5.413
 5035SOL    HW216005   0.082   4.151   5.433
 5036SOL     OW16006   6.831   4.714   5.842
 5036SOL    HW116007   6.795   4.716   5.936
 5036SOL    HW216008   6.821   4.621   5.805
 5037SOL     OW16009   4.341   4.510   1.375
 5037SOL    HW116010   4.393   4.435   1.418
 5037SOL    HW216011   4.380   4.531   1.286
 5038SOL     OW16012   3.823   3.557   4.248
 5038SOL    HW116013   3.892   3.607   4.195
 5038SOL    HW216014   3.751   3.620   4.276
 5039SOL     OW16015   2.222   3.417   6.000
 5039SOL    HW116016   2.296   3.481   5.980
 5039SOL    HW216017   2.261   3.326   6.017
 5040SOL     OW16018   1.181   5.458   5.421
 5040SOL    HW116019   1.193   5.525   5.495
 5040SOL    HW216020   1.270   5.427   5.389
 5041SOL     OW16021   1.155   3.004   2.101
 5041SOL    HW116022   1.080   2.939   2.112
 5041SOL    HW216023   1.141   3.083   2.160
 5042SOL     OW16024   6.915   3.472   6.630
 5042SOL    HW116025   6.931   3.456   6.532
 5042SOL    HW216026   6.985   3.423   6.683
 5043SOL     OW16027   4.324   0.940   0.213
 5043SOL    HW116028   4.335   1.035   0.241
 5043SOL    HW216029   4.322   0.881   0.294
 5044SOL     OW16030   0.123   6.265   1.642
 5044SOL    HW116031   0.050   6.334   1.633
 5044SOL    HW216032   0.172   6.280   1.728
 5045SOL     OW16033   6.103   5.003   6.052
 5045SOL    HW116034   6.028   5.022   5.989
 5045SOL    HW216035   6.183   5.056   6.026
 5046SOL     OW16036   3.995   3.925   4.026
 5046SOL    HW116037   3.902   3.905   4.057
 5046SOL    HW216038   4.032   4.002   4.079
 5047SOL     OW16039   2.104   3.570   2.964
 5047SOL    HW116040   2.088   3.567   3.063
 5047SOL    HW216041   2.085   3.663   2.931
 5048SOL     OW16042   1.572   0.905   4.927
 5048SOL    HW116043   1.648   0.958   4.889
 5048SOL    HW216044   1.500   0.897   4.858
 5049SOL     OW16045   5.893   1.405   6.385
 5049SOL    HW116046   5.883   1.309   6.409
 5049SOL    HW216047   5.989   1.426   6.371
 5050SOL     OW16048   1.566   1.646   6.945
 5050SOL    HW116049   1.473   1.674   6.919
 5050SOL    HW216050   1.570   1.547   6.951
 5051SOL     OW16051   4.113   4.565   1.206
 5051SOL    HW116052   4.154   4.646   1.247
 5051SOL    HW216053   4.014   4.572   1.211
 5052SOL     OW16054   3.836   2.048   6.160
 5052SOL    HW116055   3.804   2.072   6.251
 5052SOL    HW216056   3.928   2.009   6.165
 5053SOL     OW16057   0.895   5.169   3.082
 5053SOL    HW116058   0.862   5.263   3.086
 5053SOL    HW216059   0.931   5.143   3.171
 5054SOL     OW16060   3.800   4.823   5.619
 5054SOL    HW116061   3.851   4.743   5.650
 5054SOL    HW216062   3.807   4.830   5.519
 5055SOL     OW16063   0.880   2.760   6.034
 5055SOL    HW116064   0.978   2.777   6.045
 5055SOL    HW216065   0.865   2.662   6.021
 5056SOL     OW16066   5.138   4.063   5.368
 5056SOL    HW116067   5.138   4.080   5.269
 5056SOL    HW216068   5.098   3.974   5.386
 5057SOL     OW16069   0.879   0.050   2.100
 5057SOL    HW116070   0.852   6.980   2.094
 5057SOL    HW216071   0.862   0.084   2.193
 5058SOL     OW16072   3.497   4.618   6.724
 5058SOL    HW116073   3.534   4.571   6.644
 5058SOL    HW216074   3.572   4.651   6.782
 5059SOL     OW16075   0.128   0.078   3.377
 5059SOL    HW116076   0.180   0.027   3.445
 5059SOL    HW216077   0.118   0.173   3.406
 5060SOL     OW16078   6.675   2.355   6.485
 5060SOL    HW116079   6.725   2.274   6.518
 5060SOL    HW216080   6.601   2.327   6.424
 5061SOL     OW16081   4.841   2.083   6.995
 5061SOL    HW116082   4.794   1.995   6.987
 5061SOL    HW216083   4.864   2.100   0.065
 5062SOL     OW16084   0.271   0.091   1.982
 5062SOL    HW116085   0.335   0.057   2.050
 5062SOL    HW216086   0.319   0.150   1.917
 5063SOL     OW16087   0.227   6.724   1.511
 5063SOL    HW116088   0.276   6.714   1.598
 5063SOL    HW216089   0.235   6.818   1.479
 5064SOL     OW16090   4.790   3.068   0.184
 5064SOL    HW116091   4.693   3.062   0.208
 5064SOL    HW216092   4.800   3.064   0.085
 5065SOL     OW16093   3.272   0.211   5.464
 5065SOL    HW116094   3.280   0.301   5.506
 5065SOL    HW216095   3.346   0.152   5.498
 5066SOL     OW16096   5.471   3.828   1.798
 5066SOL    HW116097   5.503   3.901   1.858
 5066SOL    HW216098   5.371   3.822   1.804
 5067SOL     OW16099   5.586   1.209   6.973
 5067SOL    HW116100   5.503   1.158   6.950
 5067SOL    HW216101   5.618   1.258   6.892
 5068SOL     OW16102   2.861   4.292   1.042
 5068SOL    HW116103   2.871   4.228   1.118
 5068SOL    HW216104   2.825   4.379   1.075
 5069SOL     OW16105   1.398   4.289   2.563
 5069SOL    HW116106   1.325   4.254   2.504
 5069SOL    HW216107   1.361   4.309   2.653
 5070SOL     OW16108   4.964   3.571   4.172
 5070SOL    HW116109   4.906   3.492   4.190
 5070SOL    HW216110   5.042   3.571   4.235
 5071SOL     OW16111   4.308   2.353   4.637
 5071SOL    HW116112   4.354   2.267   4.658
 5071SOL    HW216113   4.209   2.339   4.636
 5072SOL     OW16114   0.399   5.444   0.647
 5072SOL    HW116115   0.412   5.538   0.680
 5072SOL    HW216116   0.465   5.425   0.575
 5073SOL     OW16117   6.715   6.508   2.464
 5073SOL    HW116118   6.641   6.464   2.515
 5073SOL    HW216119   6.796   6.515   2.522
 5074SOL     OW16120   3.119   3.962   7.012
 5074SOL    HW116121   3.184   4.023   0.031
 5074SOL    HW216122   3.165   3.914   6.938
 5075SOL     OW16123   0.057   1.012   5.623
 5075SOL    HW116124   6.984   1.004   5.627
 5075SOL    HW216125   0.098   0.954   5.693
 5076SOL     OW16126   3.486   0.762   0.725
 5076SOL    HW116127   3.542   0.809   0.657
 5076SOL    HW216128   3.470   0.823   0.802
 5077SOL     OW16129   1.530   2.354   3.736
 5077SOL    HW116130   1.475   2.437   3.749
 5077SOL    HW216131   1.606   2.354   3.801
 5078SOL     OW16132   1.345   2.019   3.428
 5078SOL    HW116133   1.385   2.059   3.510
 5078SOL    HW216134   1.403   2.039   3.349
 5079SOL     OW16135   2.956   5.533   6.081
 5079SOL    HW116136   2.908   5.446   6.077
 5079SOL    HW216137   2.971   5.558   6.177
 5080SOL     OW16138   5.796   6.351   4.924
 5080SOL    HW116139   5.886   6.382   4.954
 5080SOL    HW216140   5.743   6.429   4.891
 5081SOL     OW16141   3.128   3.994   2.877
 5081SOL    HW116142   3.179   4.042   2.949
 5081SOL    HW216143   3.057   3.938   2.919
 5082SOL     OW16144   6.153   6.627   5.733
 5082SOL    HW116145   6.172   6.694   5.661
 5082SOL    HW216146   6.178   6.667   5.822
 5083SOL     OW16147   1.416   6.847   2.274
 5083SOL    HW116148   1.388   6.766   2.223
 5083SOL    HW216149   1.361   6.925   2.244
 5084SOL     OW16150   1.421   4.615   4.392
 5084SOL    HW116151   1.436   4.517   4.378
 5084SOL    HW216152   1.383   4.630   4.483
 5085SOL     OW16153   5.696   1.185   6.555
 5085SOL    HW116154   5.650   1.179   6.467
 5085SOL    HW216155   5.697   1.095   6.599
 5086SOL     OW16156   6.156   4.755   4.250
 5086SOL    HW116157   6.157   4.827   4.320
 5086SOL    HW216158   6.226   4.775   4.182
 5087SOL     OW16159   6.681   6.269   4.365
 5087SOL    HW116160   6.753   6.314   4.313
 5087SOL    HW216161   6.594   6.314   4.348
 5088SOL     OW16162   6.362   1.057   6.148
 5088SOL    HW116163   6.349   0.977   6.090
 5088SOL    HW216164   6.443   1.107   6.118
 5089SOL     OW16165   6.522   3.365   3.092
 5089SOL    HW116166   6.437   3.402   3.129
 5089SOL    HW216167   6.533   3.270   3.124
 5090SOL     OW16168   2.288   4.882   0.998
 5090SOL    HW116169   2.297   4.950   1.071
 5090SOL    HW216170   2.204   4.829   1.012
 5091SOL     OW16171   1.219   6.203   2.758
 5091SOL    HW116172   1.310   6.185   2.796
 5091SOL    HW216173   1.201   6.139   2.683
 5092SOL     OW16174   3.521   2.601   1.737
 5092SOL    HW116175   3.424   2.583   1.752
 5092SOL    HW216176   3.573   2.518   1.754
 5093SOL     OW16177   0.951   2.521   1.886
 5093SOL    HW116178   1.018   2.473   1.828
 5093SOL    HW216179   0.950   2.618   1.862
 5094SOL     OW16180   1.002   6.914   5.859
 5094SOL    HW116181   1.017   6.827   5.812
 5094SOL    HW216182   0.905   6.926   5.877
 5095SOL     OW16183   1.616   0.614   4.710
 5095SOL    HW116184   1.570   0.697   4.679
 5095SOL    HW216185   1.715   0.626   4.703
 5096SOL     OW16186   4.790   3.504   0.857
 5096SOL    HW116187   4.888   3.518   0.840
 5096SOL    HW216188   4.769   3.529   0.951
 5097SOL     OW16189   1.723   0.908   5.797
 5097SOL    HW116190   1.796   0.961   5.840
 5097SOL    HW216191   1.763   0.842   5.733
 5098SOL     OW16192   0.932   1.187   1.735
 5098SOL    HW116193   1.003   1.257   1.734
 5098SOL    HW216194   0.849   1.223   1.693
 5099SOL     OW16195   1.356   0.683   5.252
 5099SOL    HW116196   1.260   0.656   5.254
 5099SOL    HW216197   1.398   0.662   5.341
 5100SOL     OW16198   5.201   0.071   6.569
 5100SOL    HW116199   5.186   0.169   6.559
 5100SOL    HW216200   5.126   0.032   6.623
 5101SOL     OW16201   4.870   6.455   0.101
 5101SOL    HW116202   4.851   6.469   0.003
 5101SOL    HW216203   4.803   6.390   0.138
 5102SOL     OW16204   5.489   0.944   5.890
 5102SOL    HW116205   5.441   1.027   5.918
 5102SOL    HW216206   5.424   0.883   5.844
 5103SOL     OW16207   0.068   0.418   3.955
 5103SOL    HW116208   0.042   0.345   4.018
 5103SOL    HW216209   0.089   0.501   4.007
 5104SOL     OW16210   1.928   0.841   1.653
 5104SOL    HW116211   1.940   0.871   1.558
 5104SOL    HW216212   1.863   0.901   1.699
 5105SOL     OW16213   4.418   4.187   6.648
 5105SOL    HW116214   4.402   4.272   6.598
 5105SOL    HW216215   4.507   4.149   6.621
 5106SOL     OW16216   3.349   0.284   2.614
 5106SOL    HW116217   3.319   0.307   2.706
 5106SOL    HW216218   3.361   0.368   2.561
 5107SOL     OW16219   2.725   0.578   6.909
 5107SOL    HW116220   2.731   0.516   6.830
 5107SOL    HW216221   2.629   0.598   6.928
 5108SOL     OW16222   2.926   3.713   4.005
 5108SOL    HW116223   2.865   3.679   3.934
 5108SOL    HW216224   2.970   3.797   3.974
 5109SOL     OW16225   0.598   1.441   1.123
 5109SOL    HW116226   0.657   1.376   1.077
 5109SOL    HW216227   0.644   1.529   1.131
 5110SOL     OW16228   2.260   6.486   6.185
 5110SOL    HW116229   2.313   6.428   6.247
 5110SOL    HW216230   2.273   6.454   6.091
 5111SOL     OW16231   1.017   1.229   6.260
 5111SOL    HW116232   0.950   1.173   6.210
 5111SOL    HW216233   1.003   1.219   6.358
 5112SOL     OW16234   0.231   6.434   3.658
 5112SOL    HW116235   0.131   6.430   3.651
 5112SOL    HW216236   0.272   6.421   3.568
 5113SOL     OW16237   0.773   0.567   0.450
 5113SOL    HW116238   0.742   0.644   0.505
 5113SOL    HW216239   0.775   0.593   0.353
 5114SOL     OW16240   3.268   4.617   0.437
 5114SOL    HW116241   3.223   4.564   0.509
 5114SOL    HW216242   3.325   4.688   0.478
 5115SOL     OW16243   1.612   4.120   6.481
 5115SOL    HW116244   1.698   4.070   6.493
 5115SOL    HW216245   1.542   4.058   6.446
 5116SOL     OW16246   4.783   4.917   6.224
 5116SOL    HW116247   4.878   4.887   6.234
 5116SOL    HW216248   4.752   4.900   6.130
 5117SOL     OW16249   2.680   4.795   4.039
 5117SOL    HW116250   2.609   4.861   4.013
 5117SOL    HW216251   2.641   4.726   4.099
 5118SOL     OW16252   4.795   6.180   0.349
 5118SOL    HW116253   4.744   6.264   0.328
 5118SOL    HW216254   4.737   6.118   0.401
 5119SOL     OW16255   5.361   0.874   1.799
 5119SOL    HW116256   5.368   0.913   1.890
 5119SOL    HW216257   5.404   0.935   1.733
 5120SOL     OW16258   5.822   0.729   3.213
 5120SOL    HW116259   5.731   0.728   3.171
 5120SOL    HW216260   5.889   0.692   3.149
 5121SOL     OW16261   0.083   3.285   5.678
 5121SOL    HW116262   0.072   3.199   5.627
 5121SOL    HW216263   0.116   3.356   5.616
 5122SOL     OW16264   2.551   0.550   3.320
 5122SOL    HW116265   2.633   0.578   3.370
 5122SOL    HW216266   2.545   0.601   3.234
 5123SOL     OW16267   5.363   3.853   3.502
 5123SOL    HW116268   5.398   3.891   3.416
 5123SOL    HW216269   5.399   3.905   3.579
 5124SOL     OW16270   2.474   6.521   6.404
 5124SOL    HW116271   2.537   6.491   6.333
 5124SOL    HW216272   2.435   6.442   6.450
 5125SOL     OW16273   0.191   3.822   4.097
 5125SOL    HW116274   0.211   3.726   4.115
 5125SOL    HW216275   0.272   3.877   4.116
 5126SOL     OW16276   6.004   4.731   6.550
 5126SOL    HW116277   6.101   4.723   6.530
 5126SOL    HW216278   5.965   4.807   6.498
 5127SOL     OW16279   5.589   3.722   6.950
 5127SOL    HW116280   5.496   3.730   6.987
 5127SOL    HW216281   5.621   3.812   6.922
 5128SOL     OW16282   1.088   0.534   6.766
 5128SOL    HW116283   1.154   0.485   6.709
 5128SOL    HW216284   1.135   0.576   6.843
 5129SOL     OW16285   5.458   0.015   2.129
 5129SOL    HW116286   5.393   6.983   2.178
 5129SOL    HW216287   5.477   7.000   2.039
 5130SOL     OW16288   1.348   5.232   4.876
 5130SOL    HW116289   1.295   5.307   4.914
 5130SOL    HW216290   1.444   5.241   4.903
 5131SOL     OW16291   3.265   4.972   3.486
 5131SOL    HW116292   3.198   4.914   3.440
 5131SOL    HW216293   3.340   4.994   3.422
 5132SOL     OW16294   3.550   1.525   6.662
 5132SOL    HW116295   3.604   1.441   6.664
 5132SOL    HW216296   3.564   1.571   6.574
 5133SOL     OW16297   3.797   6.012   6.514
 5133SOL    HW116298   3.742   5.997   6.597
 5133SOL    HW216299   3.815   5.924   6.470
 5134SOL     OW16300   6.378   6.652   1.243
 5134SOL    HW116301   6.299   6.616   1.192
 5134SOL    HW216302   6.346   6.700   1.324
 5135SOL     OW16303   6.406   3.095   2.191
 5135SOL    HW116304   6.494   3.130   2.225
 5135SOL    HW216305   6.420   3.006   2.149
 5136SOL     OW16306   0.678   0.759   6.097
 5136SOL    HW116307   0.676   0.676   6.153
 5136SOL    HW216308   0.601   0.818   6.121
 5137SOL     OW16309   4.918   2.589   5.466
 5137SOL    HW116310   4.869   2.518   5.415
 5137SOL    HW216311   4.944   2.553   5.556
 5138SOL     OW16312   3.556   3.894   4.605
 5138SOL    HW116313   3.524   3.878   4.512
 5138SOL    HW216314   3.618   3.973   4.606
 5139SOL     OW16315   1.532   0.006   5.303
 5139SOL    HW116316   1.559   0.012   5.207
 5139SOL    HW216317   1.508   6.938   5.325
 5140SOL     OW16318   4.058   1.944   5.733
 5140SOL    HW116319   3.995   1.917   5.806
 5140SOL    HW216320   4.097   1.862   5.691
 5141SOL     OW16321   6.933   2.812   1.928
 5141SOL    HW116322   6.896   2.894   1.971
 5141SOL    HW216323   6.865   2.771   1.868
 5142SOL     OW16324   0.284   6.718   3.527
 5142SOL    HW116325   0.303   6.644   3.591
 5142SOL    HW216326   0.273   6.804   3.576
 5143SOL     OW16327   0.837   4.866   4.422
 5143SOL    HW116328   0.814   4.886   4.518
 5143SOL    HW216329   0.927   4.823   4.419
 5144SOL     OW16330   1.896   3.619   6.517
 5144SOL    HW116331   1.995   3.604   6.516
 5144SOL    HW216332   1.869   3.655   6.607
 5145SOL     OW16333   2.687   6.566   6.651
 5145SOL    HW116334   2.672   6.574   6.552
 5145SOL    HW216335   2.702   6.657   6.689
 5146SOL     OW16336   4.413   4.793   5.822
 5146SOL    HW116337   4.318   4.822   5.822
 5146SOL    HW216338   4.419   4.700   5.859
 5147SOL     OW16339   4.814   3.171   3.283
 5147SOL    HW116340   4.774   3.188   3.193
 5147SOL    HW216341   4.800   3.075   3.308
 5148SOL     OW16342   0.613   0.949   1.658
 5148SOL    HW116343   0.676   0.942   1.735
 5148SOL    HW216344   0.519   0.959   1.693
 5149SOL     OW16345   5.867   4.410   3.564
 5149SOL    HW116346   5.837   4.504   3.544
 5149SOL    HW216347   5.876   4.398   3.663
 5150SOL     OW16348   1.308   4.615   4.134
 5150SOL    HW116349   1.389   4.618   4.192
 5150SOL    HW216350   1.258   4.701   4.142
 5151SOL     OW16351   5.739   4.758   2.023
 5151SOL    HW116352   5.788   4.840   1.994
 5151SOL    HW216353   5.725   4.698   1.944
 5152SOL     OW16354   1.325   0.304   6.361
 5152SOL    HW116355   1.252   0.316   6.293
 5152SOL    HW216356   1.374   0.218   6.341
 5153SOL     OW16357   1.249   1.670   0.636
 5153SOL    HW116358   1.292   1.584   0.666
 5153SOL    HW216359   1.316   1.723   0.583
 5154SOL     OW16360   0.883   2.944   6.537
 5154SOL    HW116361   0.981   2.924   6.537
 5154SOL    HW216362   0.839   2.894   6.463
 5155SOL     OW16363   2.190   1.836   0.383
 5155SOL    HW116364   2.165   1.824   0.287
 5155SOL    HW216365   2.194   1.934   0.405
 5156SOL     OW16366   5.546   5.057   5.891
 5156SOL    HW116367   5.515   4.982   5.833
 5156SOL    HW216368   5.532   5.144   5.843
 5157SOL     OW16369   3.789   0.837   2.291
 5157SOL    HW116370   3.851   0.766   2.258
 5157SOL    HW216371   3.811   0.858   2.386
 5158SOL     OW16372   4.215   1.243   2.587
 5158SOL    HW116373   4.184   1.223   2.680
 5158SOL    HW216374   4.234   1.341   2.578
 5159SOL     OW16375   5.428   3.734   6.061
 5159SOL    HW116376   5.351   3.788   6.027
 5159SOL    HW216377   5.466   3.679   5.986
 5160SOL     OW16378   0.208   6.335   3.364
 5160SOL    HW116379   0.117   6.305   3.335
 5160SOL    HW216380   0.223   6.429   3.332
 5161SOL     OW16381   0.438   2.929   0.412
 5161SOL    HW116382   0.477   2.889   0.495
 5161SOL    HW216383   0.512   2.955   0.349
 5162SOL     OW16384   0.039   6.524   2.846
 5162SOL    HW116385   6.998   6.538   2.920
 5162SOL    HW216386   0.047   6.607   2.792
 5163SOL     OW16387   3.380   6.384   1.751
 5163SOL    HW116388   3.306   6.437   1.792
 5163SOL    HW216389   3.355   6.359   1.657
 5164SOL     OW16390   3.016   3.634   1.228
 5164SOL    HW116391   3.004   3.568   1.302
 5164SOL    HW216392   2.939   3.698   1.227
 5165SOL     OW16393   1.548   4.831   0.179
 5165SOL    HW116394   1.523   4.879   0.096
 5165SOL    HW216395   1.640   4.791   0.169
 5166SOL     OW16396   1.945   5.529   1.671
 5166SOL    HW116397   1.893   5.467   1.730
 5166SOL    HW216398   2.035   5.546   1.712
 5167SOL     OW16399   5.314   3.172   5.509
 5167SOL    HW116400   5.367   3.250   5.476
 5167SOL    HW216401   5.239   3.154   5.446
 5168SOL     OW16402   3.961   1.932   2.006
 5168SOL    HW116403   3.951   1.986   1.923
 5168SOL    HW216404   3.931   1.986   2.085
 5169SOL     OW16405   4.076   0.625   3.895
 5169SOL    HW116406   4.164   0.655   3.933
 5169SOL    HW216407   4.004   0.688   3.924
 5170SOL     OW16408   1.435   3.653   6.418
 5170SOL    HW116409   1.480   3.719   6.357
 5170SOL    HW216410   1.498   3.577   6.436
 5171SOL     OW16411   2.035   5.814   5.506
 5171SOL    HW116412   2.066   5.833   5.599
 5171SOL    HW216413   2.114   5.799   5.447
 5172SOL     OW16414   0.682   5.077   3.857
 5172SOL    HW116415   0.737   4.995   3.842
 5172SOL    HW216416   0.625   5.066   3.939
 5173SOL     OW16417   4.408   3.912   5.870
 5173SOL    HW116418   4.443   3.858   5.794
 5173SOL    HW216419   4.312   3.888   5.886
 5174SOL     OW16420   2.288   6.663   3.353
 5174SOL    HW116421   2.285   6.681   3.451
 5174SOL    HW216422   2.196   6.673   3.314
 5175SOL     OW16423   3.015   4.417   6.925
 5175SOL    HW116424   3.067   4.360   6.988
 5175SOL    HW216425   3.076   4.449   6.852
 5176SOL     OW16426   5.395   5.244   0.087
 5176SOL    HW116427   5.465   5.314   0.100
 5176SOL    HW216428   5.425   5.180   0.017
 5177SOL     OW16429   4.894   0.908   0.867
 5177SOL    HW116430   4.921   0.886   0.961
 5177SOL    HW216431   4.959   0.867   0.803
 5178SOL     OW16432   0.765   3.490   1.852
 5178SOL    HW116433   0.698   3.549   1.807
 5178SOL    HW216434   0.851   3.540   1.864
 5179SOL     OW16435   6.017   4.674   3.451
 5179SOL    HW116436   6.097   4.614   3.444
 5179SOL    HW216437   5.948   4.644   3.384
 5180SOL     OW16438   2.773   6.995   1.412
 5180SOL    HW116439   2.823   0.044   1.368
 5180SOL    HW216440   2.830   6.913   1.413
 5181SOL     OW16441   0.379   0.766   6.665
 5181SOL    HW116442   0.290   0.722   6.656
 5181SOL    HW216443   0.394   0.828   6.588
 5182SOL     OW16444   4.300   5.080   2.909
 5182SOL    HW116445   4.350   5.043   2.987
 5182SOL    HW216446   4.302   5.180   2.913
 5183SOL     OW16447   4.241   1.978   3.773
 5183SOL    HW116448   4.325   2.018   3.735
 5183SOL    HW216449   4.170   1.977   3.703
 5184SOL     OW16450   2.039   1.549   4.096
 5184SOL    HW116451   1.945   1.560   4.065
 5184SOL    HW216452   2.101   1.576   4.022
 5185SOL     OW16453   5.417   0.592   1.730
 5185SOL    HW116454   5.391   0.684   1.760
 5185SOL    HW216455   5.431   0.592   1.631
 5186SOL     OW16456   6.854   3.057   5.895
 5186SOL    HW116457   6.942   3.098   5.919
 5186SOL    HW216458   6.849   3.045   5.796
 5187SOL     OW16459   2.152   4.555   5.225
 5187SOL    HW116460   2.173   4.524   5.132
 5187SOL    HW216461   2.110   4.480   5.276
 5188SOL     OW16462   6.622   6.794   1.706
 5188SOL    HW116463   6.664   6.773   1.794
 5188SOL    HW216464   6.545   6.855   1.720
 5189SOL     OW16465   5.646   0.384   6.223
 5189SOL    HW116466   5.705   0.343   6.154
 5189SOL    HW216467   5.685   0.472   6.252
 5190SOL     OW16468   1.575   2.928   1.538
 5190SOL    HW116469   1.536   3.020   1.535
 5190SOL    HW216470   1.662   2.930   1.589
 5191SOL     OW16471   2.938   5.876   2.203
 5191SOL    HW116472   2.925   5.945   2.275
 5191SOL    HW216473   2.879   5.798   2.221
 5192SOL     OW16474   2.189   5.455   1.782
 5192SOL    HW116475   2.262   5.387   1.782
 5192SOL    HW216476   2.229   5.546   1.775
 5193SOL     OW16477   5.559   0.516   0.068
 5193SOL    HW116478   5.555   0.615   0.060
 5193SOL    HW216479   5.493   0.475   0.005
 5194SOL     OW16480   4.275   1.705   0.215
 5194SOL    HW116481   4.237   1.791   0.179
 5194SOL    HW216482   4.295   1.644   0.139
 5195SOL     OW16483   0.333   0.950   4.192
 5195SOL    HW116484   0.244   0.910   4.216
 5195SOL    HW216485   0.376   0.894   4.121
 5196SOL     OW16486   4.555   6.780   3.482
 5196SOL    HW116487   4.603   6.853   3.531
 5196SOL    HW216488   4.603   6.694   3.494
 5197SOL     OW16489   1.510   4.377   6.117
 5197SOL    HW116490   1.416   4.390   6.148
 5197SOL    HW216491   1.568   4.360   6.197
 5198SOL     OW16492   5.322   5.530   3.023
 5198SOL    HW116493   5.399   5.589   2.997
 5198SOL    HW216494   5.349   5.434   3.012
 5199SOL     OW16495   6.819   5.503   1.331
 5199SOL    HW116496   6.740   5.494   1.269
 5199SOL    HW216497   6.858   5.413   1.349
 5200SOL     OW16498   0.188   3.852   5.725
 5200SOL    HW116499   0.097   3.827   5.692
 5200SOL    HW216500   0.180   3.896   5.815
 5201SOL     OW16501   1.770   5.812   3.839
 5201SOL    HW116502   1.707   5.823   3.915
 5201SOL    HW216503   1.808   5.901   3.813
 5202SOL     OW16504   6.693   3.608   6.738
 5202SOL    HW116505   6.771   3.577   6.684
 5202SOL    HW216506   6.710   3.588   6.835
 5203SOL     OW16507   0.444   2.558   6.859
 5203SOL    HW116508   0.506   2.591   6.930
 5203SOL    HW216509   0.350   2.562   6.893
 5204SOL     OW16510   4.480   4.995   0.462
 5204SOL    HW116511   4.499   5.074   0.405
 5204SOL    HW216512   4.389   4.960   0.442
 5205SOL     OW16513   1.548   0.947   1.986
 5205SOL    HW116514   1.449   0.957   2.000
 5205SOL    HW216515   1.581   0.870   2.040
 5206SOL     OW16516   0.262   4.310   6.945
 5206SOL    HW116517   0.196   4.347   7.011
 5206SOL    HW216518   0.304   4.227   6.981
 5207SOL     OW16519   1.637   5.586   4.596
 5207SOL    HW116520   1.639   5.645   4.677
 5207SOL    HW216521   1.708   5.615   4.532
 5208SOL     OW16522   4.209   0.676   0.320
 5208SOL    HW116523   4.157   0.648   0.239
 5208SOL    HW216524   4.151   0.735   0.377
 5209SOL     OW16525   6.183   6.105   3.322
 5209SOL    HW116526   6.088   6.123   3.350
 5209SOL    HW216527   6.242   6.112   3.402
 5210SOL     OW16528   5.030   3.849   4.117
 5210SOL    HW116529   4.982   3.868   4.031
 5210SOL    HW216530   5.002   3.760   4.152
 5211SOL     OW16531   3.186   3.453   3.684
 5211SOL    HW116532   3.138   3.371   3.654
 5211SOL    HW216533   3.192   3.518   3.607
 5212SOL     OW16534   0.563   2.310   0.175
 5212SOL    HW116535   0.586   2.401   0.140
 5212SOL    HW216536   0.479   2.314   0.228
 5213SOL     OW16537   4.994   2.841   5.479
 5213SOL    HW116538   5.089   2.840   5.510
 5213SOL    HW216539   4.964   2.746   5.463
 5214SOL     OW16540   5.486   1.640   5.086
 5214SOL    HW116541   5.529   1.730   5.092
 5214SOL    HW216542   5.551   1.574   5.049
 5215SOL     OW16543   5.585   4.627   3.473
 5215SOL    HW116544   5.587   4.569   3.391
 5215SOL    HW216545   5.641   4.708   3.458
 5216SOL     OW16546   5.202   4.424   1.632
 5216SOL    HW116547   5.202   4.348   1.698
 5216SOL    HW216548   5.231   4.508   1.678
 5217SOL     OW16549   3.517   5.324   4.021
 5217SOL    HW116550   3.467   5.266   4.086
 5217SOL    HW216551   3.607   5.284   4.004
 5218SOL     OW16552   1.808   6.667   3.786
 5218SOL    HW116553   1.868   6.590   3.806
 5218SOL    HW216554   1.720   6.654   3.831
 5219SOL     OW16555   3.308   0.103   6.440
 5219SOL    HW116556   3.282   0.029   6.500
 5219SOL    HW216557   3.382   0.156   6.482
 5220SOL     OW16558   1.139   5.843   2.134
 5220SOL    HW116559   1.180   5.842   2.225
 5220SOL    HW216560   1.192   5.783   2.074
 5221SOL     OW16561   5.339   1.366   4.520
 5221SOL    HW116562   5.297   1.439   4.467
 5221SOL    HW216563   5.298   1.279   4.495
 5222SOL     OW16564   2.413   0.664   4.290
 5222SOL    HW116565   2.339   0.609   4.329
 5222SOL    HW216566   2.469   0.702   4.364
 5223SOL     OW16567   4.885   0.450   1.345
 5223SOL    HW116568   4.826   0.370   1.362
 5223SOL    HW216569   4.973   0.436   1.389
 5224SOL     OW16570   6.784   2.306   2.368
 5224SOL    HW116571   6.823   2.330   2.279
 5224SOL    HW216572   6.856   2.271   2.428
 5225SOL     OW16573   6.774   0.119   3.690
 5225SOL    HW116574   6.676   0.139   3.688
 5225SOL    HW216575   6.794   0.042   3.630
 5226SOL     OW16576   0.940   6.168   4.455
 5226SOL    HW116577   0.847   6.134   4.444
 5226SOL    HW216578   0.962   6.228   4.378
 5227SOL     OW16579   6.956   5.116   3.567
 5227SOL    HW116580   7.006   5.053   3.627
 5227SOL    HW216581   7.013   5.138   3.488
 5228SOL     OW16582   5.731   1.827   0.661
 5228SOL    HW116583   5.632   1.817   0.663
 5228SOL    HW216584   5.756   1.915   0.702
 5229SOL     OW16585   0.927   4.290   6.500
 5229SOL    HW116586   0.899   4.300   6.596
 5229SOL    HW216587   0.899   4.200   6.466
 5230SOL     OW16588   0.130   0.885   1.107
 5230SOL    HW116589   0.206   0.949   1.112
 5230SOL    HW216590   0.056   0.916   1.167
 5231SOL     OW16591   3.897   3.015   4.202
 5231SOL    HW116592   3.801   2.997   4.225
 5231SOL    HW216593   3.953   3.012   4.285
 5232SOL     OW16594   4.245   2.036   6.285
 5232SOL    HW116595   4.310   2.014   6.212
 5232SOL    HW216596   4.288   2.099   6.350
 5233SOL     OW16597   6.232   6.386   1.665
 5233SOL    HW116598   6.317   6.436   1.651
 5233SOL    HW216599   6.223   6.316   1.594
 5234SOL     OW16600   3.120   0.304   0.651
 5234SOL    HW116601   3.168   0.373   0.704
 5234SOL    HW216602   3.030   0.287   0.691
 5235SOL     OW16603   1.501   3.373   0.913
 5235SOL    HW116604   1.411   3.334   0.932
 5235SOL    HW216605   1.494   3.438   0.837
 5236SOL     OW16606   5.705   2.884   1.363
 5236SOL    HW116607   5.667   2.822   1.294
 5236SOL    HW216608   5.634   2.947   1.394
 5237SOL     OW16609   2.603   2.282   5.687
 5237SOL    HW116610   2.567   2.268   5.595
 5237SOL    HW216611   2.626   2.379   5.700
 5238SOL     OW16612   1.163   5.321   0.577
 5238SOL    HW116613   1.141   5.326   0.479
 5238SOL    HW216614   1.098   5.260   0.622
 5239SOL     OW16615   3.092   3.535   4.144
 5239SOL    HW116616   3.022   3.573   4.084
 5239SOL    HW216617   3.135   3.609   4.196
 5240SOL     OW16618   2.941   2.470   5.321
 5240SOL    HW116619   2.861   2.412   5.301
 5240SOL    HW216620   3.015   2.448   5.258
 5241SOL     OW16621   0.873   5.945   6.682
 5241SOL    HW116622   0.797   6.002   6.652
 5241SOL    HW216623   0.861   5.852   6.647
 5242SOL     OW16624   6.219   1.285   5.495
 5242SOL    HW116625   6.224   1.368   5.551
 5242SOL    HW216626   6.126   1.275   5.459
 5243SOL     OW16627   1.117   5.822   1.087
 5243SOL    HW116628   1.179   5.866   1.021
 5243SOL    HW216629   1.146   5.845   1.180
 5244SOL     OW16630   3.887   4.105   5.671
 5244SOL    HW116631   3.864   4.170   5.744
 5244SOL    HW216632   3.836   4.020   5.684
 5245SOL     OW16633   4.322   4.155   5.778
 5245SOL    HW116634   4.329   4.056   5.790
 5245SOL    HW216635   4.362   4.201   5.857
 5246SOL     OW16636   0.225   4.034   2.871
 5246SOL    HW116637   0.307   3.992   2.832
 5246SOL    HW216638   0.144   4.001   2.823
 5247SOL     OW16639   0.014   5.629   0.425
 5247SOL    HW116640   0.075   5.663   0.354
 5247SOL    HW216641   0.030   5.681   0.509
 5248SOL     OW16642   5.119   0.663   5.812
 5248SOL    HW116643   5.054   0.728   5.850
 5248SOL    HW216644   5.125   0.583   5.871
 5249SOL     OW16645   0.894   5.418   4.113
 5249SOL    HW116646   0.914   5.345   4.178
 5249SOL    HW216647   0.889   5.381   4.021
 5250SOL     OW16648   0.411   1.488   6.091
 5250SOL    HW116649   0.494   1.539   6.114
 5250SOL    HW216650   0.338   1.552   6.068
 5251SOL     OW16651   7.025   3.487   1.018
 5251SOL    HW116652   6.955   3.534   0.964
 5251SOL    HW216653   0.053   3.429   0.957
 5252SOL     OW16654   2.538   6.113   0.954
 5252SOL    HW116655   2.608   6.184   0.965
 5252SOL    HW216656   2.459   6.136   1.010
 5253SOL     OW16657   5.892   3.460   4.548
 5253SOL    HW116658   5.908   3.456   4.449
 5253SOL    HW216659   5.864   3.553   4.573
 5254SOL     OW16660   4.721   1.364   3.816
 5254SOL    HW116661   4.656   1.351   3.890
 5254SOL    HW216662   4.704   1.297   3.744
 5255SOL     OW16663   3.634   0.396   4.790
 5255SOL    HW116664   3.655   0.384   4.693
 5255SOL    HW216665   3.584   0.481   4.804
 5256SOL     OW16666   4.987   1.724   3.320
 5256SOL    HW116667   4.929   1.803   3.339
 5256SOL    HW216668   4.934   1.640   3.333
 5257SOL     OW16669   4.146   6.895   1.263
 5257SOL    HW116670   4.086   6.816   1.274
 5257SOL    HW216671   4.113   6.970   1.319
 5258SOL     OW16672   5.025   4.055   1.948
 5258SOL    HW116673   5.030   3.959   1.976
 5258SOL    HW216674   4.932   4.089   1.960
 5259SOL     OW16675   4.882   6.101   2.609
 5259SOL    HW116676   4.924   6.132   2.523
 5259SOL    HW216677   4.783   6.091   2.595
 5260SOL     OW16678   5.240   3.412   0.864
 5260SOL    HW116679   5.338   3.428   0.879
 5260SOL    HW216680   5.198   3.382   0.950
 5261SOL     OW16681   0.000   1.950   5.001
 5261SOL    HW116682   7.003   1.896   4.920
 5261SOL    HW216683   0.078   2.009   4.980
 5262SOL     OW16684   2.923   6.785   2.803
 5262SOL    HW116685   2.908   6.826   2.713
 5262SOL    HW216686   2.900   6.852   2.874
 5263SOL     OW16687   1.516   0.428   5.926
 5263SOL    HW116688   1.499   0.329   5.925
 5263SOL    HW216689   1.497   0.464   6.017
 5264SOL     OW16690   6.437   1.614   1.514
 5264SOL    HW116691   6.505   1.664   1.460
 5264SOL    HW216692   6.384   1.555   1.454
 5265SOL     OW16693   5.520   4.054   2.428
 5265SOL    HW116694   5.494   4.076   2.334
 5265SOL    HW216695   5.442   4.070   2.488
 5266SOL     OW16696   2.411   6.424   1.994
 5266SOL    HW116697   2.324   6.375   1.998
 5266SOL    HW216698   2.395   6.522   2.004
 5267SOL     OW16699   4.599   5.004   6.031
 5267SOL    HW116700   4.569   5.091   6.072
 5267SOL    HW216701   4.520   4.946   6.013
 5268SOL     OW16702   6.525   5.712   5.146
 5268SOL    HW116703   6.454   5.652   5.110
 5268SOL    HW216704   6.611   5.662   5.153
 5269SOL     OW16705   1.931   5.448   3.605
 5269SOL    HW116706   1.904   5.531   3.556
 5269SOL    HW216707   2.025   5.459   3.638
 5270SOL     OW16708   5.101   2.300   0.945
 5270SOL    HW116709   5.134   2.339   1.031
 5270SOL    HW216710   5.073   2.205   0.960
 5271SOL     OW16711   4.374   5.027   5.341
 5271SOL    HW116712   4.422   5.106   5.378
 5271SOL    HW216713   4.355   4.962   5.415
 5272SOL     OW16714   0.811   5.483   5.107
 5272SOL    HW116715   0.736   5.423   5.136
 5272SOL    HW216716   0.828   5.552   5.177
 5273SOL     OW16717   0.667   2.227   3.831
 5273SOL    HW116718   0.657   2.137   3.788
 5273SOL    HW216719   0.747   2.274   3.794
 5274SOL     OW16720   6.746   5.016   3.723
 5274SOL    HW116721   6.820   5.066   3.677
 5274SOL    HW216722   6.779   4.983   3.812
 5275SOL     OW16723   3.081   0.053   6.282
 5275SOL    HW116724   3.164   0.086   6.327
 5275SOL    HW216725   3.001   0.100   6.320
 5276SOL     OW16726   6.904   6.730   1.074
 5276SOL    HW116727   6.832   6.788   1.037
 5276SOL    HW216728   6.887   6.714   1.171
 5277SOL     OW16729   1.781   2.081   3.573
 5277SOL    HW116730   1.764   1.986   3.597
 5277SOL    HW216731   1.694   2.128   3.557
 5278SOL     OW16732   6.365   6.455   6.111
 5278SOL    HW116733   6.398   6.491   6.198
 5278SOL    HW216734   6.440   6.408   6.065
 5279SOL     OW16735   1.445   5.586   6.363
 5279SOL    HW116736   1.501   5.526   6.305
 5279SOL    HW216737   1.437   5.676   6.319
 5280SOL     OW16738   3.734   6.314   4.977
 5280SOL    HW116739   3.680   6.390   4.940
 5280SOL    HW216740   3.673   6.245   5.015
 5281SOL     OW16741   1.297   0.366   4.801
 5281SOL    HW116742   1.314   0.387   4.897
 5281SOL    HW216743   1.384   0.366   4.751
 5282SOL     OW16744   2.283   0.324   2.533
 5282SOL    HW116745   2.200   0.300   2.482
 5282SOL    HW216746   2.275   0.293   2.627
 5283SOL     OW16747   1.043   0.455   3.800
 5283SOL    HW116748   0.957   0.413   3.828
 5283SOL    HW216749   1.032   0.554   3.793
 5284SOL     OW16750   4.979   2.349   2.638
 5284SOL    HW116751   4.932   2.292   2.706
 5284SOL    HW216752   4.930   2.345   2.551
 5285SOL     OW16753   0.829   2.981   3.343
 5285SOL    HW116754   0.786   2.998   3.254
 5285SOL    HW216755   0.788   3.041   3.412
 5286SOL     OW16756   6.644   3.945   0.825
 5286SOL    HW116757   6.733   3.978   0.793
 5286SOL    HW216758   6.583   3.933   0.747
 5287SOL     OW16759   3.250   5.431   2.003
 5287SOL    HW116760   3.211   5.514   2.042
 5287SOL    HW216761   3.345   5.449   1.975
 5288SOL     OW16762   4.909   0.235   2.256
 5288SOL    HW116763   4.901   0.140   2.224
 5288SOL    HW216764   4.985   0.280   2.208
 5289SOL     OW16765   2.103   5.159   6.627
 5289SOL    HW116766   2.017   5.113   6.604
 5289SOL    HW216767   2.092   5.258   6.617
 5290SOL     OW16768   1.720   4.137   5.567
 5290SOL    HW116769   1.655   4.128   5.643
 5290SOL    HW216770   1.700   4.220   5.517
 5291SOL     OW16771   2.648   4.439   5.705
 5291SOL    HW116772   2.588   4.386   5.765
 5291SOL    HW216773   2.669   4.528   5.748
 5292SOL     OW16774   6.277   3.750   6.189
 5292SOL    HW116775   6.330   3.769   6.106
 5292SOL    HW216776   6.213   3.675   6.172
 5293SOL     OW16777   2.169   5.499   4.991
 5293SOL    HW116778   2.227   5.579   5.008
 5293SOL    HW216779   2.106   5.519   4.916
 5294SOL     OW16780   4.657   0.769   5.556
 5294SOL    HW116781   4.706   0.821   5.625
 5294SOL    HW216782   4.706   0.684   5.538
 5295SOL     OW16783   3.996   1.221   3.319
 5295SOL    HW116784   4.033   1.159   3.388
 5295SOL    HW216785   3.978   1.311   3.361
 5296SOL     OW16786   3.979   3.805   0.460
 5296SOL    HW116787   4.019   3.788   0.549
 5296SOL    HW216788   4.051   3.804   0.390
 5297SOL     OW16789   2.103   3.138   0.718
 5297SOL    HW116790   2.186   3.094   0.685
 5297SOL    HW216791   2.117   3.170   0.812
 5298SOL     OW16792   2.410   6.083   6.790
 5298SOL    HW116793   2.349   6.153   6.829
 5298SOL    HW216794   2.387   5.994   6.831
 5299SOL     OW16795   3.161   2.415   0.782
 5299SOL    HW116796   3.121   2.427   0.873
 5299SOL    HW216797   3.152   2.319   0.754
 5300SOL     OW16798   0.686   5.147   1.012
 5300SOL    HW116799   0.731   5.181   1.094
 5300SOL    HW216800   0.689   5.216   0.941
 5301SOL     OW16801   4.405   0.354   6.506
 5301SOL    HW116802   4.435   0.277   6.561
 5301SOL    HW216803   4.480   0.419   6.495
 5302SOL     OW16804   5.314   6.401   3.859
 5302SOL    HW116805   5.404   6.420   3.822
 5302SOL    HW216806   5.268   6.333   3.803
 5303SOL     OW16807   0.238   5.113   5.455
 5303SOL    HW116808   0.337   5.127   5.462
 5303SOL    HW216809   0.216   5.020   5.485
 5304SOL     OW16810   6.157   1.058   0.936
 5304SOL    HW116811   6.093   1.077   0.862
 5304SOL    HW216812   6.248   1.039   0.897
 5305SOL     OW16813   1.507   5.150   2.432
 5305SOL    HW116814   1.474   5.081   2.496
 5305SOL    HW216815   1.442   5.226   2.428
 5306SOL     OW16816   0.228   4.425   5.975
 5306SOL    HW116817   0.318   4.383   5.958
 5306SOL    HW216818   0.203   4.482   5.897
 5307SOL     OW16819   4.520   1.918   0.418
 5307SOL    HW116820   4.475   1.988   0.363
 5307SOL    HW216821   4.540   1.839   0.361
 5308SOL     OW16822   1.002   4.641   2.462
 5308SOL    HW116823   1.025   4.691   2.378
 5308SOL    HW216824   1.085   4.626   2.516
 5309SOL     OW16825   3.380   5.819   2.220
 5309SOL    HW116826   3.478   5.839   2.212
 5309SOL    HW216827   3.327   5.898   2.191
 5310SOL     OW16828   6.241   3.314   2.850
 5310SOL    HW116829   6.166   3.375   2.823
 5310SOL    HW216830   6.325   3.343   2.804
 5311SOL     OW16831   5.876   0.083   6.904
 5311SOL    HW116832   5.867   0.174   6.862
 5311SOL    HW216833   5.887   0.093   7.002
 5312SOL     OW16834   0.248   6.149   2.028
 5312SOL    HW116835   0.273   6.057   2.001
 5312SOL    HW216836   0.284   6.168   2.119
 5313SOL     OW16837   0.841   4.343   5.799
 5313SOL    HW116838   0.783   4.264   5.819
 5313SOL    HW216839   0.809   4.388   5.716
 5314SOL     OW16840   4.471   0.233   0.874
 5314SOL    HW116841   4.382   0.209   0.914
 5314SOL    HW216842   4.533   0.260   0.947
 5315SOL     OW16843   4.756   2.797   2.942
 5315SOL    HW116844   4.756   2.741   2.859
 5315SOL    HW216845   4.790   2.889   2.920
 5316SOL     OW16846   1.152   4.108   5.421
 5316SOL    HW116847   1.059   4.077   5.444
 5316SOL    HW216848   1.182   4.174   5.490
 5317SOL     OW16849   6.493   1.294   5.501
 5317SOL    HW116850   6.396   1.279   5.519
 5317SOL    HW216851   6.530   1.356   5.570
 5318SOL     OW16852   0.621   2.736   0.485
 5318SOL    HW116853   0.661   2.710   0.573
 5318SOL    HW216854   0.693   2.747   0.417
 5319SOL     OW16855   4.688   6.046   1.194
 5319SOL    HW116856   4.630   5.997   1.260
 5319SOL    HW216857   4.778   6.002   1.190
 5320SOL     OW16858   4.019   5.589   1.130
 5320SOL    HW116859   4.106   5.615   1.172
 5320SOL    HW216860   3.951   5.660   1.146
 5321SOL     OW16861   2.281   4.480   4.665
 5321SOL    HW116862   2.272   4.453   4.569
 5321SOL    HW216863   2.279   4.398   4.722
 5322SOL     OW16864   5.473   6.837   0.201
 5322SOL    HW116865   5.508   6.759   0.253
 5322SOL    HW216866   5.490   6.822   0.103
 5323SOL     OW16867   4.255   1.398   5.746
 5323SOL    HW116868   4.318   1.320   5.745
 5323SOL    HW216869   4.222   1.416   5.653
 5324SOL     OW16870   2.939   2.460   0.316
 5324SOL    HW116871   2.997   2.428   0.240
 5324SOL    HW216872   2.938   2.560   0.316
 5325SOL     OW16873   3.143   1.339   4.948
 5325SOL    HW116874   3.107   1.425   4.911
 5325SOL    HW216875   3.160   1.275   4.874
 5326SOL     OW16876   6.693   5.816   3.570
 5326SOL    HW116877   6.764   5.796   3.638
 5326SOL    HW216878   6.733   5.814   3.479
 5327SOL     OW16879   6.071   2.463   5.036
 5327SOL    HW116880   6.024   2.450   4.948
 5327SOL    HW216881   6.038   2.548   5.078
 5328SOL     OW16882   3.072   3.641   5.960
 5328SOL    HW116883   3.020   3.710   5.910
 5328SOL    HW216884   3.168   3.644   5.931
 5329SOL     OW16885   0.515   5.252   6.384
 5329SOL    HW116886   0.447   5.263   6.456
 5329SOL    HW216887   0.494   5.171   6.330
 5330SOL     OW16888   3.862   4.641   6.865
 5330SOL    HW116889   3.917   4.593   6.796
 5330SOL    HW216890   3.913   4.720   6.899
 5331SOL     OW16891   6.033   2.027   6.426
 5331SOL    HW116892   6.044   1.971   6.344
 5331SOL    HW216893   6.018   2.122   6.399
 5332SOL     OW16894   1.204   3.401   1.395
 5332SOL    HW116895   1.227   3.396   1.492
 5332SOL    HW216896   1.112   3.437   1.384
 5333SOL     OW16897   1.103   1.258   3.239
 5333SOL    HW116898   1.189   1.217   3.267
 5333SOL    HW216899   1.121   1.344   3.190
 5334SOL     OW16900   3.028   0.874   4.555
 5334SOL    HW116901   2.976   0.905   4.635
 5334SOL    HW216902   2.967   0.869   4.476
 5335SOL     OW16903   0.099   5.941   0.971
 5335SOL    HW116904   0.108   5.998   0.890
 5335SOL    HW216905   0.141   5.988   1.049
 5336SOL     OW16906   2.117   3.392   2.367
 5336SOL    HW116907   2.075   3.309   2.329
 5336SOL    HW216908   2.185   3.366   2.436
 5337SOL     OW16909   5.284   4.003   1.353
 5337SOL    HW116910   5.188   4.011   1.326
 5337SOL    HW216911   5.291   4.012   1.452
 5338SOL     OW16912   5.952   1.382   0.040
 5338SOL    HW116913   6.017   1.452   0.070
 5338SOL    HW216914   5.935   1.318   0.115
 5339SOL     OW16915   6.935   1.322   3.840
 5339SOL    HW116916   6.983   1.404   3.810
 5339SOL    HW216917   6.842   1.323   3.805
 5340SOL     OW16918   5.576   3.959   0.611
 5340SOL    HW116919   5.480   3.986   0.600
 5340SOL    HW216920   5.599   3.890   0.542
 5341SOL     OW16921   3.698   2.337   6.587
 5341SOL    HW116922   3.775   2.289   6.628
 5341SOL    HW216923   3.616   2.322   6.643
 5342SOL     OW16924   3.915   0.773   4.678
 5342SOL    HW116925   3.852   0.809   4.747
 5342SOL    HW216926   3.890   0.809   4.589
 5343SOL     OW16927   3.343   3.798   4.040
 5343SOL    HW116928   3.389   3.757   3.961
 5343SOL    HW216929   3.266   3.854   4.008
 5344SOL     OW16930   1.870   2.057   2.717
 5344SOL    HW116931   1.961   2.098   2.721
 5344SOL    HW216932   1.801   2.130   2.713
 5345SOL     OW16933   4.132   6.162   1.629
 5345SOL    HW116934   4.047   6.178   1.681
 5345SOL    HW216935   4.122   6.199   1.537
 5346SOL     OW16936   2.916   6.261   3.966
 5346SOL    HW116937   2.992   6.231   4.024
 5346SOL    HW216938   2.870   6.181   3.928
 5347SOL     OW16939   0.253   2.571   1.823
 5347SOL    HW116940   0.171   2.539   1.775
 5347SOL    HW216941   0.233   2.658   1.868
 5348SOL     OW16942   0.846   1.415   0.637
 5348SOL    HW116943   0.880   1.418   0.543
 5348SOL    HW216944   0.912   1.461   0.697
 5349SOL     OW16945   1.152   2.333   0.320
 5349SOL    HW116946   1.096   2.256   0.289
 5349SOL    HW216947   1.225   2.299   0.379
 5350SOL     OW16948   2.225   0.619   6.223
 5350SOL    HW116949   2.322   0.644   6.223
 5350SOL    HW216950   2.216   0.520   6.230
 5351SOL     OW16951   5.195   5.582   2.100
 5351SOL    HW116952   5.256   5.643   2.152
 5351SOL    HW216953   5.244   5.498   2.076
 5352SOL     OW16954   2.002   5.995   4.164
 5352SOL    HW116955   2.008   6.073   4.226
 5352SOL    HW216956   1.923   6.006   4.105
 5353SOL     OW16957   3.416   5.628   4.711
 5353SOL    HW116958   3.437   5.532   4.692
 5353SOL    HW216959   3.328   5.634   4.759
 5354SOL     OW16960   1.483   5.284   2.095
 5354SOL    HW116961   1.575   5.258   2.122
 5354SOL    HW216962   1.427   5.202   2.082
 5355SOL     OW16963   5.026   2.688   3.898
 5355SOL    HW116964   5.125   2.698   3.912
 5355SOL    HW216965   5.006   2.597   3.864
 5356SOL     OW16966   6.124   4.386   2.056
 5356SOL    HW116967   6.051   4.360   1.994
 5356SOL    HW216968   6.212   4.353   2.021
 5357SOL     OW16969   3.301   0.454   0.860
 5357SOL    HW116970   3.299   0.543   0.907
 5357SOL    HW216971   3.386   0.445   0.809
 5358SOL     OW16972   3.799   2.015   0.774
 5358SOL    HW116973   3.813   2.041   0.678
 5358SOL    HW216974   3.814   2.094   0.833
 5359SOL     OW16975   1.876   2.146   6.695
 5359SOL    HW116976   1.918   2.201   6.767
 5359SOL    HW216977   1.777   2.148   6.705
 5360SOL     OW16978   4.270   6.791   4.567
 5360SOL    HW116979   4.173   6.770   4.586
 5360SOL    HW216980   4.326   6.758   4.643
 5361SOL     OW16981   2.272   6.767   4.646
 5361SOL    HW116982   2.308   6.751   4.737
 5361SOL    HW216983   2.235   6.860   4.640
 5362SOL     OW16984   5.186   4.036   3.835
 5362SOL    HW116985   5.105   3.985   3.865
 5362SOL    HW216986   5.202   4.112   3.898
 5363SOL     OW16987   0.843   6.053   6.350
 5363SOL    HW116988   0.822   5.957   6.327
 5363SOL    HW216989   0.787   6.081   6.428
 5364SOL     OW16990   6.854   5.840   1.381
 5364SOL    HW116991   6.835   5.937   1.365
 5364SOL    HW216992   6.953   5.825   1.383
 5365SOL     OW16993   3.937   3.120   6.856
 5365SOL    HW116994   3.858   3.178   6.875
 5365SOL    HW216995   3.992   3.109   6.939
 5366SOL     OW16996   5.352   5.151   1.842
 5366SOL    HW116997   5.445   5.121   1.864
 5366SOL    HW216998   5.286   5.082   1.873
 5367SOL     OW16999   0.173   5.366   0.480
 5367SOL    HW117000   0.242   5.368   0.552
 5367SOL    HW217001   0.138   5.458   0.464
 5368SOL     OW17002   5.194   1.085   3.045
 5368SOL    HW117003   5.256   1.121   3.114
 5368SOL    HW217004   5.157   1.160   2.991
 5369SOL     OW17005   2.831   6.011   3.529
 5369SOL    HW117006   2.777   6.093   3.544
 5369SOL    HW217007   2.812   5.945   3.602
 5370SOL     OW17008   3.997   3.237   1.685
 5370SOL    HW117009   3.907   3.226   1.727
 5370SOL    HW217010   4.002   3.182   1.601
 5371SOL     OW17011   1.752   3.717   3.808
 5371SOL    HW117012   1.686   3.688   3.738
 5371SOL    HW217013   1.719   3.692   3.898
 5372SOL     OW17014   2.256   5.981   2.680
 5372SOL    HW117015   2.158   5.976   2.664
 5372SOL    HW217016   2.282   6.075   2.704
 5373SOL     OW17017   2.947   4.880   4.045
 5373SOL    HW117018   2.848   4.863   4.044
 5373SOL    HW217019   2.984   4.857   4.135
 5374SOL     OW17020   1.155   3.783   6.844
 5374SOL    HW117021   1.233   3.834   6.881
 5374SOL    HW217022   1.129   3.711   6.909
 5375SOL     OW17023   1.315   4.573   4.925
 5375SOL    HW117024   1.232   4.613   4.963
 5375SOL    HW217025   1.309   4.473   4.931
 5376SOL     OW17026   1.626   2.839   1.173
 5376SOL    HW117027   1.642   2.864   1.269
 5376SOL    HW217028   1.594   2.745   1.168
 5377SOL     OW17029   6.747   0.061   1.564
 5377SOL    HW117030   6.686   0.035   1.489
 5377SOL    HW217031   6.793   7.005   1.599
 5378SOL     OW17032   6.861   0.298   1.388
 5378SOL    HW117033   6.820   0.212   1.419
 5378SOL    HW217034   6.790   0.366   1.373
 5379SOL     OW17035   0.608   5.288   4.817
 5379SOL    HW117036   0.699   5.320   4.792
 5379SOL    HW217037   0.580   5.214   4.755
 5380SOL     OW17038   2.138   1.225   3.264
 5380SOL    HW117039   2.075   1.295   3.300
 5380SOL    HW217040   2.199   1.194   3.337
 5381SOL     OW17041   6.478   3.947   0.615
 5381SOL    HW117042   6.382   3.967   0.593
 5381SOL    HW217043   6.536   4.020   0.580
 5382SOL     OW17044   2.986   0.026   1.988
 5382SOL    HW117045   2.925   0.068   2.055
 5382SOL    HW217046   2.938   0.016   1.901
 5383SOL     OW17047   2.669   2.420   5.151
 5383SOL    HW117048   2.723   2.337   5.167
 5383SOL    HW217049   2.677   2.480   5.231
 5384SOL     OW17050   6.372   0.548   4.058
 5384SOL    HW117051   6.386   0.645   4.075
 5384SOL    HW217052   6.322   0.535   3.973
 5385SOL     OW17053   3.018   3.568   2.911
 5385SOL    HW117054   2.958   3.606   2.981
 5385SOL    HW217055   2.978   3.483   2.876
 5386SOL     OW17056   4.561   6.723   4.235
 5386SOL    HW117057   4.594   6.630   4.219
 5386SOL    HW217058   4.631   6.774   4.286
 5387SOL     OW17059   2.464   5.693   3.475
 5387SOL    HW117060   2.529   5.618   3.466
 5387SOL    HW217061   2.383   5.675   3.419
 5388SOL     OW17062   5.130   6.787   3.165
 5388SOL    HW117063   5.064   6.759   3.095
 5388SOL    HW217064   5.087   6.855   3.226
 5389SOL     OW17065   5.083   0.917   1.866
 5389SOL    HW117066   5.156   0.943   1.802
 5389SOL    HW217067   5.053   0.999   1.916
 5390SOL     OW17068   4.369   4.688   4.250
 5390SOL    HW117069   4.273   4.703   4.272
 5390SOL    HW217070   4.421   4.770   4.273
 5391SOL     OW17071   2.159   2.097   0.384
 5391SOL    HW117072   2.160   2.170   0.316
 5391SOL    HW217073   2.165   2.138   0.476
 5392SOL     OW17074   6.044   3.379   0.844
 5392SOL    HW117075   6.126   3.364   0.788
 5392SOL    HW217076   6.051   3.325   0.928
 5393SOL     OW17077   6.128   6.510   6.749
 5393SOL    HW117078   6.077   6.546   6.827
 5393SOL    HW217079   6.176   6.426   6.776
 5394SOL     OW17080   6.893   3.769   6.363
 5394SOL    HW117081   6.802   3.762   6.403
 5394SOL    HW217082   6.953   3.702   6.405
 5395SOL     OW17083   4.846   0.832   2.078
 5395SOL    HW117084   4.777   0.832   2.006
 5395SOL    HW217085   4.905   0.912   2.067
 5396SOL     OW17086   5.204   3.715   3.140
 5396SOL    HW117087   5.167   3.794   3.090
 5396SOL    HW217088   5.137   3.641   3.139
 5397SOL     OW17089   6.769   2.812   1.705
 5397SOL    HW117090   6.711   2.888   1.732
 5397SOL    HW217091   6.738   2.775   1.617
 5398SOL     OW17092   3.475   1.571   2.052
 5398SOL    HW117093   3.395   1.605   2.102
 5398SOL    HW217094   3.538   1.647   2.035
 5399SOL     OW17095   2.203   6.532   0.516
 5399SOL    HW117096   2.245   6.609   0.564
 5399SOL    HW217097   2.110   6.517   0.552
 5400SOL     OW17098   3.062   3.934   0.418
 5400SOL    HW117099   3.005   3.926   0.500
 5400SOL    HW217100   3.026   3.874   0.346
 5401SOL     OW17101   5.630   3.319   1.436
 5401SOL    HW117102   5.624   3.361   1.527
 5401SOL    HW217103   5.588   3.228   1.439
 5402SOL     OW17104   2.345   5.715   1.775
 5402SOL    HW117105   2.398   5.760   1.847
 5402SOL    HW217106   2.317   5.782   1.706
 5403SOL     OW17107   5.913   3.365   6.454
 5403SOL    HW117108   5.936   3.371   6.357
 5403SOL    HW217109   5.929   3.454   6.498
 5404SOL     OW17110   0.925   1.659   3.582
 5404SOL    HW117111   0.991   1.732   3.560
 5404SOL    HW217112   0.880   1.628   3.499
 5405SOL     OW17113   6.257   5.553   0.581
 5405SOL    HW117114   6.203   5.564   0.498
 5405SOL    HW217115   6.267   5.642   0.626
 5406SOL     OW17116   2.052   1.477   6.402
 5406SOL    HW117117   2.124   1.505   6.465
 5406SOL    HW217118   1.974   1.540   6.409
 5407SOL     OW17119   4.835   3.306   0.647
 5407SOL    HW117120   4.803   3.315   0.741
 5407SOL    HW217121   4.921   3.356   0.636
 5408SOL     OW17122   2.996   1.268   6.302
 5408SOL    HW117123   2.977   1.355   6.348
 5408SOL    HW217124   3.026   1.286   6.208
 5409SOL     OW17125   5.264   0.338   3.715
 5409SOL    HW117126   5.338   0.398   3.744
 5409SOL    HW217127   5.281   0.306   3.622
 5410SOL     OW17128   2.745   2.282   1.776
 5410SOL    HW117129   2.752   2.183   1.761
 5410SOL    HW217130   2.827   2.315   1.822
 5411SOL     OW17131   6.573   5.343   5.628
 5411SOL    HW117132   6.561   5.426   5.575
 5411SOL    HW217133   6.507   5.274   5.599
 5412SOL     OW17134   5.109   1.848   0.656
 5412SOL    HW117135   5.079   1.757   0.686
 5412SOL    HW217136   5.186   1.837   0.593
 5413SOL     OW17137   3.033   1.592   1.220
 5413SOL    HW117138   3.010   1.569   1.314
 5413SOL    HW217139   2.985   1.531   1.158
 5414SOL     OW17140   5.074   1.964   4.971
 5414SOL    HW117141   4.993   1.998   5.018
 5414SOL    HW217142   5.106   1.881   5.017
 5415SOL     OW17143   0.764   5.763   1.444
 5415SOL    HW117144   0.728   5.756   1.536
 5415SOL    HW217145   0.707   5.709   1.382
 5416SOL     OW17146   5.051   5.462   6.083
 5416SOL    HW117147   5.001   5.376   6.079
 5416SOL    HW217148   5.030   5.509   6.169
 5417SOL     OW17149   3.837   6.912   5.112
 5417SOL    HW117150   3.866   7.007   5.122
 5417SOL    HW217151   3.738   6.906   5.123
 5418SOL     OW17152   3.362   6.828   3.925
 5418SOL    HW117153   3.278   6.850   3.974
 5418SOL    HW217154   3.339   6.778   3.841
 5419SOL     OW17155   3.936   5.473   0.302
 5419SOL    HW117156   3.908   5.432   0.216
 5419SOL    HW217157   3.973   5.403   0.363
 5420SOL     OW17158   1.699   3.175   2.563
 5420SOL    HW117159   1.632   3.101   2.568
 5420SOL    HW217160   1.791   3.137   2.566
 5421SOL     OW17161   1.989   3.130   1.667
 5421SOL    HW117162   1.942   3.212   1.701
 5421SOL    HW217163   2.083   3.130   1.701
 5422SOL     OW17164   0.259   5.123   0.383
 5422SOL    HW117165   0.240   5.211   0.427
 5422SOL    HW217166   0.355   5.098   0.401
 5423SOL     OW17167   6.606   3.248   6.699
 5423SOL    HW117168   6.513   3.281   6.683
 5423SOL    HW217169   6.647   3.301   6.773
 5424SOL     OW17170   5.835   3.114   3.574
 5424SOL    HW117171   5.832   3.046   3.647
 5424SOL    HW217172   5.759   3.178   3.585
 5425SOL     OW17173   4.582   0.900   4.494
 5425SOL    HW117174   4.666   0.901   4.440
 5425SOL    HW217175   4.542   0.992   4.494
 5426SOL     OW17176   6.456   5.761   4.278
 5426SOL    HW117177   6.418   5.764   4.185
 5426SOL    HW217178   6.437   5.847   4.325
 5427SOL     OW17179   4.919   5.319   6.362
 5427SOL    HW117180   4.915   5.419   6.369
 5427SOL    HW217181   4.973   5.283   6.438
 5428SOL     OW17182   6.839   6.768   1.345
 5428SOL    HW117183   6.869   6.862   1.331
 5428SOL    HW217184   6.900   6.722   1.409
 5429SOL     OW17185   2.308   2.241   6.336
 5429SOL    HW117186   2.240   2.203   6.398
 5429SOL    HW217187   2.399   2.231   6.377
 5430SOL     OW17188   0.361   3.095   6.169
 5430SOL    HW117189   0.455   3.109   6.198
 5430SOL    HW217190   0.342   3.150   6.087
 5431SOL     OW17191   2.901   6.142   0.660
 5431SOL    HW117192   2.847   6.148   0.576
 5431SOL    HW217193   2.848   6.097   0.731
 5432SOL     OW17194   5.412   0.435   6.886
 5432SOL    HW117195   5.327   0.416   6.837
 5432SOL    HW217196   5.490   0.411   6.828
 5433SOL     OW17197   0.344   1.750   4.991
 5433SOL    HW117198   0.308   1.833   4.948
 5433SOL    HW217199   0.290   1.728   5.071
 5434SOL     OW17200   3.350   0.614   5.469
 5434SOL    HW117201   3.277   0.601   5.402
 5434SOL    HW217202   3.436   0.629   5.421
 5435SOL     OW17203   5.826   6.985   1.973
 5435SOL    HW117204   5.787   0.025   1.907
 5435SOL    HW217205   5.925   6.979   1.959
 5436SOL     OW17206   5.255   3.588   4.272
 5436SOL    HW117207   5.291   3.603   4.364
 5436SOL    HW217208   5.287   3.662   4.212
 5437SOL     OW17209   2.758   4.105   0.187
 5437SOL    HW117210   2.846   4.065   0.159
 5437SOL    HW217211   2.686   4.037   0.172
 5438SOL     OW17212   6.777   2.887   2.665
 5438SOL    HW117213   6.773   2.982   2.695
 5438SOL    HW217214   6.685   2.849   2.658
 5439SOL     OW17215   0.813   2.439   0.590
 5439SOL    HW117216   0.786   2.447   0.494
 5439SOL    HW217217   0.878   2.513   0.611
 5440SOL     OW17218   1.142   1.408   0.883
 5440SOL    HW117219   1.160   1.390   0.980
 5440SOL    HW217220   1.225   1.445   0.840
 5441SOL     OW17221   4.700   2.277   3.058
 5441SOL    HW117222   4.609   2.275   3.100
 5441SOL    HW217223   4.737   2.369   3.063
 5442SOL     OW17224   3.506   5.861   3.763
 5442SOL    HW117225   3.558   5.819   3.837
 5442SOL    HW217226   3.505   5.800   3.684
 5443SOL     OW17227   3.387   0.454   3.789
 5443SOL    HW117228   3.455   0.404   3.842
 5443SOL    HW217229   3.431   0.531   3.742
 5444SOL     OW17230   1.013   0.516   4.272
 5444SOL    HW117231   1.020   0.570   4.356
 5444SOL    HW217232   0.963   0.432   4.291
 5445SOL     OW17233   6.356   3.813   3.219
 5445SOL    HW117234   6.406   3.755   3.154
 5445SOL    HW217235   6.398   3.804   3.309
 5446SOL     OW17236   6.609   4.915   4.897
 5446SOL    HW117237   6.646   4.889   4.986
 5446SOL    HW217238   6.510   4.931   4.905
 5447SOL     OW17239   3.208   2.438   6.884
 5447SOL    HW117240   3.209   2.369   6.812
 5447SOL    HW217241   3.269   2.513   6.859
 5448SOL     OW17242   4.283   3.024   5.313
 5448SOL    HW117243   4.201   3.037   5.368
 5448SOL    HW217244   4.313   2.929   5.320
 5449SOL     OW17245   1.498   3.163   6.348
 5449SOL    HW117246   1.435   3.122   6.281
 5449SOL    HW217247   1.592   3.153   6.316
 5450SOL     OW17248   1.889   0.594   1.732
 5450SOL    HW117249   1.904   0.684   1.691
 5450SOL    HW217250   1.906   0.599   1.830
 5451SOL     OW17251   1.780   6.350   3.292
 5451SOL    HW117252   1.724   6.329   3.212
 5451SOL    HW217253   1.734   6.421   3.346
 5452SOL     OW17254   2.222   4.790   6.840
 5452SOL    HW117255   2.259   4.732   6.767
 5452SOL    HW217256   2.296   4.842   6.883
 5453SOL     OW17257   5.954   3.861   0.910
 5453SOL    HW117258   5.939   3.787   0.844
 5453SOL    HW217259   5.993   3.940   0.862
 5454SOL     OW17260   0.251   4.197   6.698
 5454SOL    HW117261   0.343   4.174   6.667
 5454SOL    HW217262   0.256   4.252   6.782
 5455SOL     OW17263   6.328   3.382   0.040
 5455SOL    HW117264   6.409   3.418   0.085
 5455SOL    HW217265   6.258   3.363   0.108
 5456SOL     OW17266   3.583   6.499   0.081
 5456SOL    HW117267   3.659   6.514   0.143
 5456SOL    HW217268   3.590   6.409   0.039
 5457SOL     OW17269   5.513   2.391   0.542
 5457SOL    HW117270   5.530   2.459   0.613
 5457SOL    HW217271   5.532   2.300   0.578
 5458SOL     OW17272   0.154   4.570   7.016
 5458SOL    HW117273   0.200   4.659   7.020
 5458SOL    HW217274   0.167   4.522   0.077
 5459SOL     OW17275   2.087   4.590   7.010
 5459SOL    HW117276   2.113   4.663   6.946
 5459SOL    HW217277   2.170   4.553   0.027
 5460SOL     OW17278   2.879   6.525   2.915
 5460SOL    HW117279   2.866   6.544   3.013
 5460SOL    HW217280   2.879   6.611   2.864
 5461SOL     OW17281   6.059   6.466   4.985
 5461SOL    HW117282   6.053   6.563   4.962
 5461SOL    HW217283   6.024   6.452   5.078
 5462SOL     OW17284   0.870   0.477   6.954
 5462SOL    HW117285   0.797   0.430   6.905
 5462SOL    HW217286   0.941   0.506   6.890
 5463SOL     OW17287   6.267   2.604   0.107
 5463SOL    HW117288   6.247   2.613   0.205
 5463SOL    HW217289   6.183   2.618   0.054
 5464SOL     OW17290   1.466   0.792   4.268
 5464SOL    HW117291   1.398   0.849   4.221
 5464SOL    HW217292   1.496   0.839   4.351
 5465SOL     OW17293   3.855   6.676   3.453
 5465SOL    HW117294   3.914   6.620   3.395
 5465SOL    HW217295   3.777   6.622   3.484
 5466SOL     OW17296   5.603   4.369   5.390
 5466SOL    HW117297   5.532   4.328   5.334
 5466SOL    HW217298   5.577   4.364   5.487
 5467SOL     OW17299   5.295   2.510   3.256
 5467SOL    HW117300   5.260   2.436   3.314
 5467SOL    HW217301   5.228   2.531   3.185
 5468SOL     OW17302   5.155   1.892   4.337
 5468SOL    HW117303   5.250   1.910   4.312
 5468SOL    HW217304   5.152   1.821   4.408
 5469SOL     OW17305   3.824   5.386   0.040
 5469SOL    HW117306   3.802   5.290   0.056
 5469SOL    HW217307   3.750   5.430   7.015
 5470SOL     OW17308   2.660   5.483   3.464
 5470SOL    HW117309   2.684   5.520   3.374
 5470SOL    HW217310   2.581   5.422   3.455
 5471SOL     OW17311   5.452   6.904   1.903
 5471SOL    HW117312   5.492   6.907   1.812
 5471SOL    HW217313   5.373   6.843   1.903
 5472SOL     OW17314   3.702   3.582   6.030
 5472SOL    HW117315   3.703   3.652   6.101
 5472SOL    HW217316   3.746   3.617   5.947
 5473SOL     OW17317   0.901   3.646   3.295
 5473SOL    HW117318   0.979   3.588   3.273
 5473SOL    HW217319   0.895   3.722   3.230
 5474SOL     OW17320   1.024   4.158   4.019
 5474SOL    HW117321   0.967   4.179   4.099
 5474SOL    HW217322   1.115   4.131   4.050
 5475SOL     OW17323   2.692   2.459   6.882
 5475SOL    HW117324   2.774   2.403   6.870
 5475SOL    HW217325   2.693   2.535   6.818
 5476SOL     OW17326   2.436   3.904   6.385
 5476SOL    HW117327   2.435   3.880   6.288
 5476SOL    HW217328   2.365   3.852   6.433
 5477SOL     OW17329   1.775   3.386   3.210
 5477SOL    HW117330   1.789   3.408   3.114
 5477SOL    HW217331   1.715   3.306   3.218
 5478SOL     OW17332   4.883   5.181   5.425
 5478SOL    HW117333   4.911   5.255   5.363
 5478SOL    HW217334   4.788   5.156   5.405
 5479SOL     OW17335   4.977   0.826   6.025
 5479SOL    HW117336   4.888   0.844   6.068
 5479SOL    HW217337   5.009   0.909   5.979
 5480SOL     OW17338   0.004   3.570   3.770
 5480SOL    HW117339   6.991   3.511   3.699
 5480SOL    HW217340   6.963   3.640   3.794
 5481SOL     OW17341   3.589   0.781   4.071
 5481SOL    HW117342   3.551   0.849   4.008
 5481SOL    HW217343   3.637   0.710   4.019
 5482SOL     OW17344   3.882   4.327   1.593
 5482SOL    HW117345   3.803   4.274   1.563
 5482SOL    HW217346   3.856   4.422   1.608
 5483SOL     OW17347   0.600   2.911   5.508
 5483SOL    HW117348   0.626   2.819   5.480
 5483SOL    HW217349   0.541   2.906   5.589
 5484SOL     OW17350   5.134   0.452   4.926
 5484SOL    HW117351   5.116   0.498   4.840
 5484SOL    HW217352   5.082   0.366   4.930
 5485SOL     OW17353   3.585   6.954   5.239
 5485SOL    HW117354   3.503   7.005   5.214
 5485SOL    HW217355   3.559   6.870   5.287
 5486SOL     OW17356   2.704   5.957   4.865
 5486SOL    HW117357   2.635   5.951   4.937
 5486SOL    HW217358   2.755   5.871   4.860
 5487SOL     OW17359   3.119   4.608   6.219
 5487SOL    HW117360   3.212   4.596   6.186
 5487SOL    HW217361   3.056   4.609   6.141
 5488SOL     OW17362   7.025   1.227   0.119
 5488SOL    HW117363   0.010   1.266   0.027
 5488SOL    HW217364   6.951   1.160   0.118
 5489SOL     OW17365   6.491   3.527   2.251
 5489SOL    HW117366   6.446   3.573   2.174
 5489SOL    HW217367   6.422   3.498   2.317
 5490SOL     OW17368   1.402   6.998   2.935
 5490SOL    HW117369   1.458   0.028   2.996
 5490SOL    HW217370   1.453   6.981   2.850
 5491SOL     OW17371   7.011   2.941   0.664
 5491SOL    HW117372   6.926   2.890   0.647
 5491SOL    HW217373   0.048   2.884   0.717
 5492SOL     OW17374   1.302   3.522   5.580
 5492SOL    HW117375   1.350   3.543   5.494
 5492SOL    HW217376   1.351   3.563   5.656
 5493SOL     OW17377   4.149   3.685   2.083
 5493SOL    HW117378   4.127   3.678   2.180
 5493SOL    HW217379   4.244   3.718   2.073
 5494SOL     OW17380   6.266   4.389   5.103
 5494SOL    HW117381   6.269   4.293   5.075
 5494SOL    HW217382   6.183   4.406   5.156
 5495SOL     OW17383   5.921   1.032   0.778
 5495SOL    HW117384   5.845   1.019   0.716
 5495SOL    HW217385   5.892   1.089   0.855
 5496SOL     OW17386   4.319   1.006   4.015
 5496SOL    HW117387   4.392   1.026   4.080
 5496SOL    HW217388   4.233   1.045   4.047
 5497SOL     OW17389   0.304   0.850   5.623
 5497SOL    HW117390   0.232   0.863   5.555
 5497SOL    HW217391   0.384   0.905   5.596
 5498SOL     OW17392   0.303   5.619   1.912
 5498SOL    HW117393   0.302   5.544   1.978
 5498SOL    HW217394   0.217   5.620   1.861
 5499SOL     OW17395   0.650   0.314   3.577
 5499SOL    HW117396   0.677   0.384   3.643
 5499SOL    HW217397   0.597   0.356   3.503
 5500SOL     OW17398   1.441   0.949   6.787
 5500SOL    HW117399   1.475   0.889   6.860
 5500SOL    HW217400   1.360   0.998   6.819
 5501SOL     OW17401   4.101   2.119   0.388
 5501SOL    HW117402   4.149   2.049   0.337
 5501SOL    HW217403   4.166   2.188   0.420
 5502SOL     OW17404   4.992   3.891   6.479
 5502SOL    HW117405   4.984   3.791   6.472
 5502SOL    HW217406   5.089   3.916   6.480
 5503SOL     OW17407   0.478   3.912   0.569
 5503SOL    HW117408   0.390   3.950   0.541
 5503SOL    HW217409   0.507   3.955   0.654
 5504SOL     OW17410   4.618   1.155   6.265
 5504SOL    HW117411   4.545   1.215   6.298
 5504SOL    HW217412   4.625   1.075   6.325
 5505SOL     OW17413   2.272   4.102   3.824
 5505SOL    HW117414   2.193   4.068   3.873
 5505SOL    HW217415   2.250   4.109   3.726
 5506SOL     OW17416   6.907   3.425   6.357
 5506SOL    HW117417   6.865   3.489   6.292
 5506SOL    HW217418   6.840   3.354   6.382
 5507SOL     OW17419   3.628   0.487   5.642
 5507SOL    HW117420   3.634   0.475   5.741
 5507SOL    HW217421   3.656   0.580   5.618
 5508SOL     OW17422   1.099   0.912   0.418
 5508SOL    HW117423   1.195   0.919   0.444
 5508SOL    HW217424   1.075   0.816   0.405
 5509SOL     OW17425   0.729   5.528   1.039
 5509SOL    HW117426   0.652   5.477   1.001
 5509SOL    HW217427   0.776   5.578   0.966
 5510SOL     OW17428   5.146   5.511   0.115
 5510SOL    HW117429   5.225   5.507   0.053
 5510SOL    HW217430   5.172   5.473   0.204
 5511SOL     OW17431   0.684   1.495   5.472
 5511SOL    HW117432   0.675   1.575   5.413
 5511SOL    HW217433   0.681   1.412   5.416
 5512SOL     OW17434   3.264   0.673   1.591
 5512SOL    HW117435   3.172   0.635   1.579
 5512SOL    HW217436   3.306   0.631   1.672
 5513SOL     OW17437   3.518   5.230   6.182
 5513SOL    HW117438   3.616   5.242   6.162
 5513SOL    HW217439   3.468   5.219   6.096
 5514SOL     OW17440   3.535   6.779   4.970
 5514SOL    HW117441   3.568   6.833   4.892
 5514SOL    HW217442   3.452   6.820   5.006
 5515SOL     OW17443   2.022   5.443   2.001
 5515SOL    HW117444   2.080   5.453   1.920
 5515SOL    HW217445   2.001   5.533   2.039
 5516SOL     OW17446   2.399   2.708   4.950
 5516SOL    HW117447   2.343   2.719   4.867
 5516SOL    HW217448   2.400   2.794   5.001
 5517SOL     OW17449   1.742   3.995   2.426
 5517SOL    HW117450   1.796   3.912   2.411
 5517SOL    HW217451   1.676   4.005   2.352
 5518SOL     OW17452   5.624   4.273   5.919
 5518SOL    HW117453   5.626   4.235   6.012
 5518SOL    HW217454   5.641   4.372   5.924
 5519SOL     OW17455   5.094   3.155   3.557
 5519SOL    HW117456   5.034   3.086   3.598
 5519SOL    HW217457   5.158   3.111   3.495
 5520SOL     OW17458   5.706   6.095   2.508
 5520SOL    HW117459   5.763   6.025   2.551
 5520SOL    HW217460   5.683   6.165   2.575
 5521SOL     OW17461   5.605   5.199   2.283
 5521SOL    HW117462   5.583   5.296   2.282
 5521SOL    HW217463   5.699   5.185   2.253
 5522SOL     OW17464   5.945   5.637   1.453
 5522SOL    HW117465   5.869   5.674   1.400
 5522SOL    HW217466   5.923   5.640   1.550
 5523SOL     OW17467   5.401   0.737   3.261
 5523SOL    HW117468   5.340   0.745   3.181
 5523SOL    HW217469   5.357   0.680   3.330
 5524SOL     OW17470   3.575   0.697   5.309
 5524SOL    HW117471   3.639   0.698   5.386
 5524SOL    HW217472   3.619   0.654   5.231
 5525SOL     OW17473   6.745   2.806   0.711
 5525SOL    HW117474   6.666   2.844   0.661
 5525SOL    HW217475   6.745   2.841   0.804
 5526SOL     OW17476   4.726   4.100   3.294
 5526SOL    HW117477   4.683   4.191   3.289
 5526SOL    HW217478   4.774   4.090   3.382
 5527SOL     OW17479   4.876   3.094   4.199
 5527SOL    HW117480   4.912   3.173   4.150
 5527SOL    HW217481   4.864   3.017   4.135
 5528SOL     OW17482   1.088   2.260   1.729
 5528SOL    HW117483   1.085   2.218   1.819
 5528SOL    HW217484   0.997   2.258   1.688
 5529SOL     OW17485   2.511   0.712   3.062
 5529SOL    HW117486   2.439   0.781   3.073
 5529SOL    HW217487   2.488   0.650   2.987
 5530SOL     OW17488   6.616   2.515   1.806
 5530SOL    HW117489   6.594   2.449   1.734
 5530SOL    HW217490   6.554   2.593   1.800
 5531SOL     OW17491   3.800   3.881   1.470
 5531SOL    HW117492   3.895   3.851   1.481
 5531SOL    HW217493   3.747   3.853   1.549
 5532SOL     OW17494   1.795   2.371   0.543
 5532SOL    HW117495   1.695   2.375   0.540
 5532SOL    HW217496   1.824   2.309   0.615
 5533SOL     OW17497   4.754   1.166   4.246
 5533SOL    HW117498   4.792   1.230   4.313
 5533SOL    HW217499   4.805   1.079   4.252
 5534SOL     OW17500   1.025   1.289   5.542
 5534SOL    HW117501   0.998   1.222   5.611
 5534SOL    HW217502   0.979   1.268   5.456
 5535SOL     OW17503   0.683   1.342   2.580
 5535SOL    HW117504   0.757   1.383   2.527
 5535SOL    HW217505   0.721   1.282   2.651
 5536SOL     OW17506   3.278   0.955   4.824
 5536SOL    HW117507   3.323   1.041   4.848
 5536SOL    HW217508   3.229   0.966   4.738
 5537SOL     OW17509   3.923   1.520   2.752
 5537SOL    HW117510   3.966   1.492   2.838
 5537SOL    HW217511   3.865   1.446   2.718
 5538SOL     OW17512   4.417   5.372   4.746
 5538SOL    HW117513   4.430   5.454   4.802
 5538SOL    HW217514   4.453   5.389   4.654
 5539SOL     OW17515   2.122   2.510   0.642
 5539SOL    HW117516   2.031   2.508   0.683
 5539SOL    HW217517   2.137   2.599   0.599
 5540SOL     OW17518   5.065   4.742   3.327
 5540SOL    HW117519   4.996   4.741   3.400
 5540SOL    HW217520   5.155   4.722   3.367
 5541SOL     OW17521   4.831   1.695   6.466
 5541SOL    HW117522   4.836   1.606   6.420
 5541SOL    HW217523   4.816   1.767   6.398
 5542SOL     OW17524   3.662   4.542   6.097
 5542SOL    HW117525   3.630   4.523   6.004
 5542SOL    HW217526   3.652   4.459   6.153
 5543SOL     OW17527   6.427   3.621   6.717
 5543SOL    HW117528   6.421   3.719   6.698
 5543SOL    HW217529   6.523   3.596   6.731
 5544SOL     OW17530   5.801   1.018   5.597
 5544SOL    HW117531   5.721   0.959   5.606
 5544SOL    HW217532   5.882   0.963   5.579
 5545SOL     OW17533   4.165   1.929   2.594
 5545SOL    HW117534   4.259   1.899   2.608
 5545SOL    HW217535   4.149   2.013   2.646
 5546SOL     OW17536   2.138   5.435   6.124
 5546SOL    HW117537   2.113   5.507   6.058
 5546SOL    HW217538   2.140   5.347   6.077
 5547SOL     OW17539   3.391   4.950   5.432
 5547SOL    HW117540   3.357   5.011   5.361
 5547SOL    HW217541   3.421   4.864   5.391
 5548SOL     OW17542   6.178   3.614   5.427
 5548SOL    HW117543   6.134   3.682   5.367
 5548SOL    HW217544   6.259   3.577   5.381
 5549SOL     OW17545   2.870   4.647   6.970
 5549SOL    HW117546   2.918   4.562   6.952
 5549SOL    HW217547   2.861   4.699   6.885
 5550SOL     OW17548   2.414   6.091   1.416
 5550SOL    HW117549   2.436   6.128   1.506
 5550SOL    HW217550   2.323   6.123   1.389
 5551SOL     OW17551   1.613   1.797   3.348
 5551SOL    HW117552   1.578   1.886   3.321
 5551SOL    HW217553   1.624   1.795   3.448
 5552SOL     OW17554   6.877   2.389   1.277
 5552SOL    HW117555   6.787   2.382   1.322
 5552SOL    HW217556   6.874   2.461   1.208
 5553SOL     OW17557   4.586   6.005   0.438
 5553SOL    HW117558   4.511   6.055   0.396
 5553SOL    HW217559   4.553   5.959   0.521
 5554SOL     OW17560   3.040   2.048   5.138
 5554SOL    HW117561   3.078   2.138   5.117
 5554SOL    HW217562   2.947   2.042   5.102
 5555SOL     OW17563   0.358   4.858   3.614
 5555SOL    HW117564   0.352   4.840   3.516
 5555SOL    HW217565   0.416   4.790   3.657
 5556SOL     OW17566   0.421   2.106   5.205
 5556SOL    HW117567   0.511   2.098   5.249
 5556SOL    HW217568   0.351   2.068   5.265
 5557SOL     OW17569   2.119   6.346   3.973
 5557SOL    HW117570   2.177   6.300   4.040
 5557SOL    HW217571   2.165   6.348   3.884
 5558SOL     OW17572   5.447   3.161   5.019
 5558SOL    HW117573   5.506   3.199   5.090
 5558SOL    HW217574   5.351   3.178   5.043
 5559SOL     OW17575   1.688   0.665   0.979
 5559SOL    HW117576   1.659   0.607   1.055
 5559SOL    HW217577   1.618   0.735   0.963
 5560SOL     OW17578   0.389   1.194   3.710
 5560SOL    HW117579   0.337   1.238   3.636
 5560SOL    HW217580   0.327   1.141   3.768
 5561SOL     OW17581   1.640   3.152   3.178
 5561SOL    HW117582   1.717   3.114   3.229
 5561SOL    HW217583   1.564   3.087   3.181
 5562SOL     OW17584   2.375   3.559   6.328
 5562SOL    HW117585   2.306   3.611   6.277
 5562SOL    HW217586   2.429   3.503   6.265
 5563SOL     OW17587   4.647   5.811   2.578
 5563SOL    HW117588   4.595   5.896   2.576
 5563SOL    HW217589   4.603   5.746   2.640
 5564SOL     OW17590   5.090   3.485   1.724
 5564SOL    HW117591   5.031   3.504   1.803
 5564SOL    HW217592   5.060   3.400   1.680
 5565SOL     OW17593   3.433   2.440   5.603
 5565SOL    HW117594   3.533   2.445   5.608
 5565SOL    HW217595   3.403   2.456   5.509
 5566SOL     OW17596   1.930   4.914   1.449
 5566SOL    HW117597   2.009   4.853   1.443
 5566SOL    HW217598   1.961   5.006   1.473
 5567SOL     OW17599   1.709   5.443   1.783
 5567SOL    HW117600   1.669   5.414   1.696
 5567SOL    HW217601   1.636   5.458   1.850
 5568SOL     OW17602   3.823   1.332   1.607
 5568SOL    HW117603   3.875   1.384   1.540
 5568SOL    HW217604   3.727   1.327   1.579
 5569SOL     OW17605   4.086   1.674   0.421
 5569SOL    HW117606   4.033   1.752   0.388
 5569SOL    HW217607   4.145   1.640   0.348
 5570SOL     OW17608   6.356   3.957   5.759
 5570SOL    HW117609   6.318   3.931   5.670
 5570SOL    HW217610   6.454   3.939   5.759
 5571SOL     OW17611   6.732   5.936   0.054
 5571SOL    HW117612   6.667   5.889   7.020
 5571SOL    HW217613   6.756   5.877   0.131
 5572SOL     OW17614   4.729   2.547   6.481
 5572SOL    HW117615   4.659   2.601   6.435
 5572SOL    HW217616   4.818   2.563   6.436
 5573SOL     OW17617   1.288   3.912   1.118
 5573SOL    HW117618   1.276   3.813   1.113
 5573SOL    HW217619   1.218   3.957   1.062
 5574SOL     OW17620   0.872   6.044   5.286
 5574SOL    HW117621   0.931   5.978   5.241
 5574SOL    HW217622   0.820   6.095   5.217
 5575SOL     OW17623   1.397   1.479   0.784
 5575SOL    HW117624   1.459   1.460   0.707
 5575SOL    HW217625   1.441   1.544   0.846
 5576SOL     OW17626   5.956   6.225   0.674
 5576SOL    HW117627   6.004   6.259   0.755
 5576SOL    HW217628   5.876   6.282   0.656
 5577SOL     OW17629   1.829   3.730   5.253
 5577SOL    HW117630   1.874   3.814   5.221
 5577SOL    HW217631   1.898   3.659   5.266
 5578SOL     OW17632   4.360   2.494   0.117
 5578SOL    HW117633   4.444   2.540   0.147
 5578SOL    HW217634   4.297   2.562   0.080
 5579SOL     OW17635   4.959   4.094   6.841
 5579SOL    HW117636   4.990   4.122   6.750
 5579SOL    HW217637   5.002   4.007   6.866
 5580SOL     OW17638   5.845   1.603   0.389
 5580SOL    HW117639   5.940   1.631   0.403
 5580SOL    HW217640   5.821   1.613   0.293
 5581SOL     OW17641   2.251   1.611   6.559
 5581SOL    HW117642   2.285   1.705   6.568
 5581SOL    HW217643   2.209   1.583   6.646
 5582SOL     OW17644   3.779   3.398   3.558
 5582SOL    HW117645   3.849   3.368   3.622
 5582SOL    HW217646   3.810   3.480   3.510
 5583SOL     OW17647   3.668   0.145   1.415
 5583SOL    HW117648   3.683   0.178   1.508
 5583SOL    HW217649   3.673   0.222   1.351
 5584SOL     OW17650   6.296   3.235   3.533
 5584SOL    HW117651   6.286   3.139   3.561
 5584SOL    HW217652   6.262   3.246   3.440
 5585SOL     OW17653   5.981   0.500   4.438
 5585SOL    HW117654   5.974   0.421   4.376
 5585SOL    HW217655   5.892   0.519   4.478
 5586SOL     OW17656   1.792   1.391   5.620
 5586SOL    HW117657   1.799   1.303   5.573
 5586SOL    HW217658   1.860   1.394   5.694
 5587SOL     OW17659   3.389   0.663   4.279
 5587SOL    HW117660   3.447   0.704   4.209
 5587SOL    HW217661   3.412   0.703   4.368
 5588SOL     OW17662   2.701   0.084   5.884
 5588SOL    HW117663   2.744   0.038   5.807
 5588SOL    HW217664   2.602   0.073   5.880
 5589SOL     OW17665   4.518   2.656   6.321
 5589SOL    HW117666   4.548   2.638   6.228
 5589SOL    HW217667   4.450   2.729   6.321
 5590SOL     OW17668   0.221   5.852   4.033
 5590SOL    HW117669   0.208   5.795   4.113
 5590SOL    HW217670   0.234   5.947   4.061
 5591SOL     OW17671   5.571   0.690   0.843
 5591SOL    HW117672   5.652   0.743   0.869
 5591SOL    HW217673   5.539   0.637   0.921
 5592SOL     OW17674   1.764   3.395   2.745
 5592SOL    HW117675   1.808   3.344   2.820
 5592SOL    HW217676   1.714   3.331   2.687
 5593SOL     OW17677   1.075   2.996   5.681
 5593SOL    HW117678   1.034   3.061   5.745
 5593SOL    HW217679   1.015   2.983   5.602
 5594SOL     OW17680   1.894   0.673   0.114
 5594SOL    HW117681   1.848   0.586   0.096
 5594SOL    HW217682   1.987   0.655   0.148
 5595SOL     OW17683   0.126   2.375   6.016
 5595SOL    HW117684   0.117   2.465   6.058
 5595SOL    HW217685   0.170   2.312   6.080
 5596SOL     OW17686   4.932   0.566   2.947
 5596SOL    HW117687   4.942   0.627   3.025
 5596SOL    HW217688   4.928   0.471   2.979
 5597SOL     OW17689   6.823   0.357   6.203
 5597SOL    HW117690   6.808   0.406   6.117
 5597SOL    HW217691   6.769   0.273   6.204
 5598SOL     OW17692   6.644   1.662   3.864
 5598SOL    HW117693   6.551   1.687   3.889
 5598SOL    HW217694   6.653   1.562   3.862
 5599SOL     OW17695   5.085   3.279   3.184
 5599SOL    HW117696   5.184   3.279   3.176
 5599SOL    HW217697   5.051   3.186   3.200
 5600SOL     OW17698   2.285   1.462   2.236
 5600SOL    HW117699   2.230   1.380   2.228
 5600SOL    HW217700   2.291   1.508   2.147
 5601SOL     OW17701   5.717   2.738   5.364
 5601SOL    HW117702   5.785   2.754   5.436
 5601SOL    HW217703   5.704   2.823   5.311
 5602SOL     OW17704   0.431   2.164   2.670
 5602SOL    HW117705   0.368   2.238   2.693
 5602SOL    HW217706   0.383   2.077   2.671
 5603SOL     OW17707   4.198   2.033   4.506
 5603SOL    HW117708   4.117   1.976   4.520
 5603SOL    HW217709   4.178   2.103   4.438
 5604SOL     OW17710   0.530   0.253   4.259
 5604SOL    HW117711   0.550   0.188   4.332
 5604SOL    HW217712   0.579   0.227   4.176
 5605SOL     OW17713   3.175   5.911   4.137
 5605SOL    HW117714   3.160   5.823   4.090
 5605SOL    HW217715   3.219   5.894   4.225
 5606SOL     OW17716   4.459   2.231   0.934
 5606SOL    HW117717   4.408   2.237   0.848
 5606SOL    HW217718   4.552   2.199   0.915
 5607SOL     OW17719   6.150   2.802   2.261
 5607SOL    HW117720   6.237   2.816   2.214
 5607SOL    HW217721   6.166   2.758   2.349
 5608SOL     OW17722   4.463   1.162   3.327
 5608SOL    HW117723   4.418   1.234   3.380
 5608SOL    HW217724   4.532   1.202   3.268
 5609SOL     OW17725   6.686   6.882   0.995
 5609SOL    HW117726   6.605   6.908   1.047
 5609SOL    HW217727   6.659   6.823   0.919
 5610SOL     OW17728   4.843   4.579   7.024
 5610SOL    HW117729   4.793   4.496   0.025
 5610SOL    HW217730   4.797   4.659   0.038
 5611SOL     OW17731   6.930   4.911   1.123
 5611SOL    HW117732   6.851   4.972   1.126
 5611SOL    HW217733   7.008   4.960   1.085
 5612SOL     OW17734   2.637   1.460   0.784
 5612SOL    HW117735   2.723   1.417   0.810
 5612SOL    HW217736   2.655   1.538   0.724
 5613SOL     OW17737   6.890   5.613   5.555
 5613SOL    HW117738   6.872   5.630   5.652
 5613SOL    HW217739   6.830   5.671   5.500
 5614SOL     OW17740   5.606   2.321   3.983
 5614SOL    HW117741   5.586   2.231   3.943
 5614SOL    HW217742   5.549   2.335   4.064
 5615SOL     OW17743   0.373   3.541   3.340
 5615SOL    HW117744   0.461   3.513   3.301
 5615SOL    HW217745   0.300   3.520   3.275
 5616SOL     OW17746   1.909   3.523   2.487
 5616SOL    HW117747   1.937   3.512   2.582
 5616SOL    HW217748   1.981   3.491   2.426
 5617SOL     OW17749   1.721   5.346   6.468
 5617SOL    HW117750   1.651   5.340   6.397
 5617SOL    HW217751   1.677   5.364   6.556
 5618SOL     OW17752   6.853   6.088   3.372
 5618SOL    HW117753   6.913   6.146   3.317
 5618SOL    HW217754   6.888   6.086   3.466
 5619SOL     OW17755   3.993   3.068   3.932
 5619SOL    HW117756   3.991   3.023   4.021
 5619SOL    HW217757   3.924   3.141   3.930
 5620SOL     OW17758   4.610   4.560   5.739
 5620SOL    HW117759   4.663   4.490   5.690
 5620SOL    HW217760   4.533   4.590   5.682
 5621SOL     OW17761   1.149   2.393   5.747
 5621SOL    HW117762   1.139   2.349   5.836
 5621SOL    HW217763   1.211   2.471   5.755
 5622SOL     OW17764   4.915   6.064   4.498
 5622SOL    HW117765   4.943   6.116   4.579
 5622SOL    HW217766   4.977   5.986   4.485
 5623SOL     OW17767   5.126   5.822   3.574
 5623SOL    HW117768   5.201   5.796   3.635
 5623SOL    HW217769   5.086   5.907   3.606
 5624SOL     OW17770   6.698   4.557   4.574
 5624SOL    HW117771   6.721   4.574   4.479
 5624SOL    HW217772   6.783   4.547   4.628
 5625SOL     OW17773   0.905   5.871   5.633
 5625SOL    HW117774   0.897   5.828   5.543
 5625SOL    HW217775   0.889   5.969   5.624
 5626SOL     OW17776   1.315   4.305   4.944
 5626SOL    HW117777   1.257   4.260   5.011
 5626SOL    HW217778   1.396   4.249   4.927
 5627SOL     OW17779   1.096   5.679   6.807
 5627SOL    HW117780   1.064   5.662   6.900
 5627SOL    HW217781   1.039   5.750   6.765
 5628SOL     OW17782   2.482   2.481   1.346
 5628SOL    HW117783   2.441   2.393   1.323
 5628SOL    HW217784   2.441   2.552   1.289
 5629SOL     OW17785   5.318   3.588   1.611
 5629SOL    HW117786   5.308   3.686   1.627
 5629SOL    HW217787   5.227   3.545   1.611
 5630SOL     OW17788   2.069   4.161   0.008
 5630SOL    HW117789   2.002   4.233   7.014
 5630SOL    HW217790   2.143   4.198   0.064
 5631SOL     OW17791   4.213   1.250   1.538
 5631SOL    HW117792   4.237   1.343   1.564
 5631SOL    HW217793   4.127   1.224   1.582
 5632SOL     OW17794   5.793   0.114   5.889
 5632SOL    HW117795   5.885   0.118   5.851
 5632SOL    HW217796   5.727   0.101   5.815
 5633SOL     OW17797   0.958   5.528   5.741
 5633SOL    HW117798   0.957   5.488   5.649
 5633SOL    HW217799   0.941   5.456   5.808
 5634SOL     OW17800   2.369   7.017   0.251
 5634SOL    HW117801   2.405   6.925   0.265
 5634SOL    HW217802   2.327   7.023   0.160
 5635SOL     OW17803   1.958   0.965   6.597
 5635SOL    HW117804   1.876   0.918   6.632
 5635SOL    HW217805   1.987   0.922   6.512
 5636SOL     OW17806   6.245   1.934   5.657
 5636SOL    HW117807   6.225   1.978   5.570
 5636SOL    HW217808   6.234   1.835   5.648
 5637SOL     OW17809   5.009   6.717   4.842
 5637SOL    HW117810   4.978   6.808   4.815
 5637SOL    HW217811   4.940   6.673   4.899
 5638SOL     OW17812   5.717   5.307   0.781
 5638SOL    HW117813   5.712   5.211   0.751
 5638SOL    HW217814   5.813   5.335   0.787
 5639SOL     OW17815   1.109   0.498   1.254
 5639SOL    HW117816   1.012   0.509   1.234
 5639SOL    HW217817   1.133   0.401   1.251
 5640SOL     OW17818   2.477   5.535   2.845
 5640SOL    HW117819   2.419   5.522   2.765
 5640SOL    HW217820   2.437   5.605   2.904
 5641SOL     OW17821   0.812   4.027   3.905
 5641SOL    HW117822   0.831   3.940   3.951
 5641SOL    HW217823   0.889   4.089   3.920
 5642SOL     OW17824   1.540   4.990   0.554
 5642SOL    HW117825   1.617   4.944   0.598
 5642SOL    HW217826   1.484   5.036   0.623
 5643SOL     OW17827   4.655   2.006   4.673
 5643SOL    HW117828   4.734   1.951   4.702
 5643SOL    HW217829   4.670   2.041   4.581
 5644SOL     OW17830   4.157   0.957   4.987
 5644SOL    HW117831   4.064   0.952   5.023
 5644SOL    HW217832   4.158   0.924   4.892
 5645SOL     OW17833   5.891   5.516   3.457
 5645SOL    HW117834   5.904   5.456   3.378
 5645SOL    HW217835   5.812   5.576   3.441
 5646SOL     OW17836   0.537   6.641   3.945
 5646SOL    HW117837   0.485   6.699   3.884
 5646SOL    HW217838   0.550   6.551   3.903
 5647SOL     OW17839   5.765   5.381   5.911
 5647SOL    HW117840   5.713   5.326   5.975
 5647SOL    HW217841   5.771   5.475   5.944
 5648SOL     OW17842   1.901   1.761   3.825
 5648SOL    HW117843   1.994   1.770   3.860
 5648SOL    HW217844   1.846   1.708   3.890
 5649SOL     OW17845   0.668   0.972   5.327
 5649SOL    HW117846   0.606   0.993   5.251
 5649SOL    HW217847   0.758   1.010   5.308
 5650SOL     OW17848   6.849   4.814   0.072
 5650SOL    HW117849   6.759   4.838   0.038
 5650SOL    HW217850   6.910   4.894   0.064
 5651SOL     OW17851   6.650   0.647   2.166
 5651SOL    HW117852   6.619   0.688   2.252
 5651SOL    HW217853   6.598   0.564   2.148
 5652SOL     OW17854   4.862   5.231   0.942
 5652SOL    HW117855   4.795   5.156   0.940
 5652SOL    HW217856   4.897   5.248   0.850
 5653SOL     OW17857   0.184   5.915   6.116
 5653SOL    HW117858   0.211   6.000   6.072
 5653SOL    HW217859   0.155   5.849   6.046
 5654SOL     OW17860   6.851   0.082   5.006
 5654SOL    HW117861   6.826   0.070   4.910
 5654SOL    HW217862   6.803   0.162   5.043
 5655SOL     OW17863   0.029   3.552   4.331
 5655SOL    HW117864   6.970   3.499   4.321
 5655SOL    HW217865   0.076   3.555   4.243
 5656SOL     OW17866   3.591   4.178   0.144
 5656SOL    HW117867   3.524   4.251   0.151
 5656SOL    HW217868   3.646   4.191   0.061
 5657SOL     OW17869   3.672   0.097   1.892
 5657SOL    HW117870   3.578   0.113   1.862
 5657SOL    HW217871   3.677   0.007   1.936
 5658SOL     OW17872   3.461   6.885   5.735
 5658SOL    HW117873   3.560   6.893   5.736
 5658SOL    HW217874   3.428   6.882   5.641
 5659SOL     OW17875   3.128   3.727   2.660
 5659SOL    HW117876   3.076   3.667   2.721
 5659SOL    HW217877   3.103   3.822   2.677
 5660SOL     OW17878   4.823   6.769   6.558
 5660SOL    HW117879   4.773   6.797   6.476
 5660SOL    HW217880   4.824   6.669   6.564
 5661SOL     OW17881   6.614   5.486   4.134
 5661SOL    HW117882   6.526   5.450   4.165
 5661SOL    HW217883   6.628   5.462   4.038
 5662SOL     OW17884   2.108   4.474   4.115
 5662SOL    HW117885   2.075   4.547   4.055
 5662SOL    HW217886   2.198   4.444   4.084
 5663SOL     OW17887   1.633   3.978   0.898
 5663SOL    HW117888   1.613   3.893   0.946
 5663SOL    HW217889   1.551   4.035   0.897
 5664SOL     OW17890   6.942   4.696   2.003
 5664SOL    HW117891   6.871   4.699   1.933
 5664SOL    HW217892   6.904   4.659   2.088
 5665SOL     OW17893   2.329   3.398   5.640
 5665SOL    HW117894   2.295   3.491   5.622
 5665SOL    HW217895   2.299   3.337   5.568
 5666SOL     OW17896   5.375   4.449   1.067
 5666SOL    HW117897   5.296   4.398   1.102
 5666SOL    HW217898   5.445   4.384   1.036
 5667SOL     OW17899   6.366   5.209   2.915
 5667SOL    HW117900   6.439   5.263   2.958
 5667SOL    HW217901   6.285   5.212   2.973
 5668SOL     OW17902   5.498   1.893   6.581
 5668SOL    HW117903   5.543   1.804   6.578
 5668SOL    HW217904   5.556   1.962   6.538
 5669SOL     OW17905   0.881   5.008   6.350
 5669SOL    HW117906   0.967   4.964   6.324
 5669SOL    HW217907   0.816   5.002   6.274
 5670SOL     OW17908   0.511   3.531   4.609
 5670SOL    HW117909   0.600   3.486   4.617
 5670SOL    HW217910   0.476   3.554   4.700
 5671SOL     OW17911   1.596   0.773   6.193
 5671SOL    HW117912   1.570   0.774   6.097
 5671SOL    HW217913   1.658   0.849   6.212
 5672SOL     OW17914   4.993   4.555   5.791
 5672SOL    HW117915   4.954   4.635   5.837
 5672SOL    HW217916   5.024   4.580   5.699
 5673SOL     OW17917   0.332   0.656   1.725
 5673SOL    HW117918   0.362   0.560   1.722
 5673SOL    HW217919   0.320   0.690   1.632
 5674SOL     OW17920   6.618   3.416   1.460
 5674SOL    HW117921   6.622   3.512   1.488
 5674SOL    HW217922   6.667   3.405   1.373
 5675SOL     OW17923   4.396   2.481   5.230
 5675SOL    HW117924   4.467   2.546   5.203
 5675SOL    HW217925   4.308   2.529   5.238
 5676SOL     OW17926   2.122   0.146   1.722
 5676SOL    HW117927   2.078   0.141   1.632
 5676SOL    HW217928   2.113   0.239   1.758
 5677SOL     OW17929   6.169   0.912   3.625
 5677SOL    HW117930   6.079   0.870   3.622
 5677SOL    HW217931   6.171   0.981   3.697
 5678SOL     OW17932   2.970   6.889   3.168
 5678SOL    HW117933   2.948   6.948   3.090
 5678SOL    HW217934   2.978   6.943   3.251
 5679SOL     OW17935   1.843   6.593   5.205
 5679SOL    HW117936   1.838   6.494   5.209
 5679SOL    HW217937   1.793   6.626   5.125
 5680SOL     OW17938   2.050   5.753   6.556
 5680SOL    HW117939   2.052   5.853   6.549
 5680SOL    HW217940   1.963   5.719   6.521
 5681SOL     OW17941   0.986   3.075   6.919
 5681SOL    HW117942   1.015   3.060   7.014
 5681SOL    HW217943   1.041   3.148   6.879
 5682SOL     OW17944   0.893   2.972   5.473
 5682SOL    HW117945   0.807   2.927   5.498
 5682SOL    HW217946   0.928   2.931   5.388
 5683SOL     OW17947   3.485   2.755   6.379
 5683SOL    HW117948   3.415   2.771   6.310
 5683SOL    HW217949   3.496   2.656   6.392
 5684SOL     OW17950   3.579   4.174   4.158
 5684SOL    HW117951   3.663   4.121   4.164
 5684SOL    HW217952   3.546   4.176   4.064
 5685SOL     OW17953   0.091   4.910   1.949
 5685SOL    HW117954   0.027   4.833   1.953
 5685SOL    HW217955   0.143   4.906   1.863
 5686SOL     OW17956   3.827   0.090   0.583
 5686SOL    HW117957   3.852   0.039   0.501
 5686SOL    HW217958   3.821   0.027   0.661
 5687SOL     OW17959   5.248   5.133   5.335
 5687SOL    HW117960   5.204   5.117   5.424
 5687SOL    HW217961   5.197   5.084   5.264
 5688SOL     OW17962   5.688   2.444   1.246
 5688SOL    HW117963   5.646   2.430   1.335
 5688SOL    HW217964   5.700   2.356   1.199
 5689SOL     OW17965   4.233   1.770   0.986
 5689SOL    HW117966   4.296   1.705   0.943
 5689SOL    HW217967   4.180   1.818   0.916
 5690SOL     OW17968   4.184   5.815   0.984
 5690SOL    HW117969   4.214   5.846   1.075
 5690SOL    HW217970   4.089   5.843   0.970
 5691SOL     OW17971   2.135   6.906   1.536
 5691SOL    HW117972   2.226   6.899   1.495
 5691SOL    HW217973   2.119   7.000   1.567
 5692SOL     OW17974   6.202   3.242   5.869
 5692SOL    HW117975   6.194   3.205   5.961
 5692SOL    HW217976   6.291   3.286   5.858
 5693SOL     OW17977   4.584   2.630   2.368
 5693SOL    HW117978   4.575   2.563   2.294
 5693SOL    HW217979   4.595   2.721   2.329
 5694SOL     OW17980   0.470   0.968   3.424
 5694SOL    HW117981   0.523   0.968   3.338
 5694SOL    HW217982   0.525   1.011   3.496
 5695SOL     OW17983   1.795   3.080   3.381
 5695SOL    HW117984   1.884   3.124   3.382
 5695SOL    HW217985   1.731   3.132   3.438
 5696SOL     OW17986   2.589   1.065   5.055
 5696SOL    HW117987   2.597   0.992   5.123
 5696SOL    HW217988   2.679   1.101   5.033
 5697SOL     OW17989   6.931   2.481   0.266
 5697SOL    HW117990   6.856   2.526   0.217
 5697SOL    HW217991   6.990   2.549   0.307
 5698SOL     OW17992   0.974   3.211   1.590
 5698SOL    HW117993   0.879   3.187   1.608
 5698SOL    HW217994   1.023   3.218   1.677
 5699SOL     OW17995   6.056   1.216   5.037
 5699SOL    HW117996   6.098   1.291   4.985
 5699SOL    HW217997   5.963   1.200   5.002
 5700SOL     OW17998   1.410   5.853   5.430
 5700SOL    HW117999   1.425   5.950   5.453
 5700SOL    HW218000   1.414   5.843   5.330
 5701SOL     OW18001   6.911   5.738   2.363
 5701SOL    HW118002   6.855   5.807   2.410
 5701SOL    HW218003   6.965   5.687   2.429
 5702SOL     OW18004   2.181   6.460   6.630
 5702SOL    HW118005   2.279   6.437   6.631
 5702SOL    HW218006   2.151   6.472   6.535
 5703SOL     OW18007   4.529   4.717   0.373
 5703SOL    HW118008   4.544   4.642   0.437
 5703SOL    HW218009   4.547   4.804   0.418
 5704SOL     OW18010   4.698   5.094   3.706
 5704SOL    HW118011   4.768   5.135   3.648
 5704SOL    HW218012   4.616   5.151   3.703
 5705SOL     OW18013   5.971   0.050   1.245
 5705SOL    HW118014   5.976   0.148   1.263
 5705SOL    HW218015   5.900   0.032   1.176
 5706SOL     OW18016   1.188   1.393   6.845
 5706SOL    HW118017   1.202   1.340   6.761
 5706SOL    HW218018   1.165   1.332   6.920
 5707SOL     OW18019   1.884   1.194   6.166
 5707SOL    HW118020   1.836   1.251   6.233
 5707SOL    HW218021   1.981   1.218   6.166
 5708SOL     OW18022   5.177   0.120   2.229
 5708SOL    HW118023   5.140   0.175   2.154
 5708SOL    HW218024   5.245   0.173   2.279
 5709SOL     OW18025   0.548   6.299   3.001
 5709SOL    HW118026   0.539   6.399   2.998
 5709SOL    HW218027   0.513   6.266   3.089
 5710SOL     OW18028   2.950   3.384   6.049
 5710SOL    HW118029   3.003   3.464   6.020
 5710SOL    HW218030   3.013   3.311   6.076
 5711SOL     OW18031   4.991   1.192   3.735
 5711SOL    HW118032   4.947   1.150   3.815
 5711SOL    HW218033   4.928   1.187   3.657
 5712SOL     OW18034   6.960   6.378   5.822
 5712SOL    HW118035   6.960   6.297   5.881
 5712SOL    HW218036   6.881   6.375   5.761
 5713SOL     OW18037   0.251   2.999   2.526
 5713SOL    HW118038   0.257   3.068   2.598
 5713SOL    HW218039   0.155   2.985   2.501
 5714SOL     OW18040   1.518   0.771   5.940
 5714SOL    HW118041   1.452   0.713   5.894
 5714SOL    HW218042   1.576   0.817   5.872
 5715SOL     OW18043   1.652   6.552   2.183
 5715SOL    HW118044   1.570   6.510   2.145
 5715SOL    HW218045   1.705   6.594   2.110
 5716SOL     OW18046   1.574   3.847   6.299
 5716SOL    HW118047   1.537   3.900   6.223
 5716SOL    HW218048   1.670   3.870   6.312
 5717SOL     OW18049   1.163   4.442   1.463
 5717SOL    HW118050   1.177   4.346   1.488
 5717SOL    HW218051   1.069   4.455   1.431
 5718SOL     OW18052   2.370   4.975   6.251
 5718SOL    HW118053   2.461   5.010   6.227
 5718SOL    HW218054   2.343   4.904   6.187
 5719SOL     OW18055   3.257   0.451   6.404
 5719SOL    HW118056   3.188   0.464   6.476
 5719SOL    HW218057   3.335   0.401   6.442
 5720SOL     OW18058   1.267   5.660   5.163
 5720SOL    HW118059   1.228   5.618   5.245
 5720SOL    HW218060   1.277   5.590   5.092
 5721SOL     OW18061   0.232   3.083   0.760
 5721SOL    HW118062   0.278   3.148   0.820
 5721SOL    HW218063   0.161   3.035   0.812
 5722SOL     OW18064   5.928   0.347   4.902
 5722SOL    HW118065   6.011   0.404   4.900
 5722SOL    HW218066   5.922   0.293   4.818
 5723SOL     OW18067   3.783   5.870   0.216
 5723SOL    HW118068   3.818   5.904   0.129
 5723SOL    HW218069   3.852   5.812   0.259
 5724SOL     OW18070   5.699   2.011   6.081
 5724SOL    HW118071   5.683   1.938   6.147
 5724SOL    HW218072   5.612   2.056   6.060
 5725SOL     OW18073   5.128   5.163   4.389
 5725SOL    HW118074   5.143   5.108   4.307
 5725SOL    HW218075   5.030   5.172   4.406
 5726SOL     OW18076   5.480   3.653   5.585
 5726SOL    HW118077   5.441   3.687   5.499
 5726SOL    HW218078   5.454   3.715   5.659
 5727SOL     OW18079   5.678   1.930   3.090
 5727SOL    HW118080   5.737   1.849   3.088
 5727SOL    HW218081   5.645   1.945   3.183
 5728SOL     OW18082   6.262   0.731   5.294
 5728SOL    HW118083   6.247   0.829   5.309
 5728SOL    HW218084   6.356   0.708   5.317
 5729SOL     OW18085   6.995   1.389   6.283
 5729SOL    HW118086   0.008   1.385   6.191
 5729SOL    HW218087   0.007   1.315   6.338
 5730SOL     OW18088   3.906   5.682   5.790
 5730SOL    HW118089   3.883   5.753   5.724
 5730SOL    HW218090   3.956   5.722   5.866
 5731SOL     OW18091   2.212   0.935   4.040
 5731SOL    HW118092   2.272   0.855   4.051
 5731SOL    HW218093   2.244   0.991   3.965
 5732SOL     OW18094   5.995   5.186   4.891
 5732SOL    HW118095   6.024   5.259   4.953
 5732SOL    HW218096   5.951   5.114   4.945
 5733SOL     OW18097   3.277   0.614   6.967
 5733SOL    HW118098   3.179   0.602   6.980
 5733SOL    HW218099   3.326   0.557   0.007
 5734SOL     OW18100   1.713   6.945   5.718
 5734SOL    HW118101   1.669   7.020   5.667
 5734SOL    HW218102   1.671   6.937   5.808
 5735SOL     OW18103   4.156   0.742   2.188
 5735SOL    HW118104   4.178   0.728   2.284
 5735SOL    HW218105   4.072   0.693   2.165
 5736SOL     OW18106   4.714   4.315   6.725
 5736SOL    HW118107   4.709   4.309   6.825
 5736SOL    HW218108   4.728   4.224   6.687
 5737SOL     OW18109   5.053   5.037   1.447
 5737SOL    HW118110   4.981   5.034   1.377
 5737SOL    HW218111   5.074   5.132   1.469
 5738SOL     OW18112   3.480   0.956   6.563
 5738SOL    HW118113   3.456   1.007   6.646
 5738SOL    HW218114   3.579   0.940   6.562
 5739SOL     OW18115   2.555   0.509   5.992
 5739SOL    HW118116   2.532   0.454   5.912
 5739SOL    HW218117   2.577   0.449   6.068
 5740SOL     OW18118   5.464   3.491   1.196
 5740SOL    HW118119   5.556   3.476   1.230
 5740SOL    HW218120   5.399   3.436   1.249
 5741SOL     OW18121   0.628   3.638   4.389
 5741SOL    HW118122   0.645   3.570   4.317
 5741SOL    HW218123   0.579   3.595   4.464
 5742SOL     OW18124   4.278   0.212   3.397
 5742SOL    HW118125   4.295   0.168   3.309
 5742SOL    HW218126   4.241   0.304   3.381
 5743SOL     OW18127   3.488   4.211   5.636
 5743SOL    HW118128   3.467   4.272   5.712
 5743SOL    HW218129   3.467   4.117   5.662
 5744SOL     OW18130   5.613   6.815   2.947
 5744SOL    HW118131   5.543   6.859   3.002
 5744SOL    HW218132   5.596   6.834   2.850
 5745SOL     OW18133   2.459   2.630   3.630
 5745SOL    HW118134   2.433   2.713   3.678
 5745SOL    HW218135   2.486   2.560   3.695
 5746SOL     OW18136   3.888   0.295   3.505
 5746SOL    HW118137   3.960   0.274   3.438
 5746SOL    HW218138   3.930   0.333   3.587
 5747SOL     OW18139   1.209   6.143   2.118
 5747SOL    HW118140   1.141   6.211   2.145
 5747SOL    HW218141   1.166   6.053   2.111
 5748SOL     OW18142   0.273   5.882   0.509
 5748SOL    HW118143   0.372   5.870   0.518
 5748SOL    HW218144   0.230   5.863   0.597
 5749SOL     OW18145   1.707   6.340   5.173
 5749SOL    HW118146   1.724   6.293   5.086
 5749SOL    HW218147   1.753   6.291   5.247
 5750SOL     OW18148   0.134   4.044   4.341
 5750SOL    HW118149   0.061   3.980   4.319
 5750SOL    HW218150   0.202   3.999   4.399
 5751SOL     OW18151   2.112   3.779   4.187
 5751SOL    HW118152   2.063   3.754   4.103
 5751SOL    HW218153   2.122   3.698   4.245
 5752SOL     OW18154   5.532   0.345   0.839
 5752SOL    HW118155   5.484   0.355   0.752
 5752SOL    HW218156   5.467   0.345   0.914
 5753SOL     OW18157   3.109   4.032   4.858
 5753SOL    HW118158   3.068   3.949   4.896
 5753SOL    HW218159   3.145   4.088   4.933
 5754SOL     OW18160   0.995   6.188   1.690
 5754SOL    HW118161   0.915   6.237   1.656
 5754SOL    HW218162   1.025   6.230   1.776
 5755SOL     OW18163   2.253   2.412   6.766
 5755SOL    HW118164   2.340   2.396   6.813
 5755SOL    HW218165   2.177   2.391   6.828
 5756SOL     OW18166   6.217   6.233   1.911
 5756SOL    HW118167   6.227   6.283   1.825
 5756SOL    HW218168   6.276   6.153   1.910
 5757SOL     OW18169   6.967   6.400   3.635
 5757SOL    HW118170   6.979   6.302   3.617
 5757SOL    HW218171   6.880   6.431   3.597
 5758SOL     OW18172   1.470   6.495   3.129
 5758SOL    HW118173   1.564   6.485   3.095
 5758SOL    HW218174   1.466   6.570   3.194
 5759SOL     OW18175   4.625   7.008   1.662
 5759SOL    HW118176   4.699   0.004   1.724
 5759SOL    HW218177   4.598   0.065   1.612
 5760SOL     OW18178   6.685   3.361   2.091
 5760SOL    HW118179   6.639   3.438   2.135
 5760SOL    HW218180   6.643   3.343   2.002
 5761SOL     OW18181   5.636   5.895   4.773
 5761SOL    HW118182   5.699   5.838   4.720
 5761SOL    HW218183   5.679   5.983   4.793
 5762SOL     OW18184   5.424   4.159   0.037
 5762SOL    HW118185   5.445   4.242   7.011
 5762SOL    HW218186   5.396   4.184   0.130
 5763SOL     OW18187   5.348   0.610   0.666
 5763SOL    HW118188   5.339   0.514   0.638
 5763SOL    HW218189   5.431   0.622   0.720
 5764SOL     OW18190   4.420   5.234   3.574
 5764SOL    HW118191   4.436   5.327   3.543
 5764SOL    HW218192   4.378   5.235   3.665
 5765SOL     OW18193   6.398   5.083   1.022
 5765SOL    HW118194   6.355   5.024   1.091
 5765SOL    HW218195   6.352   5.070   0.934
 5766SOL     OW18196   1.386   1.920   4.491
 5766SOL    HW118197   1.342   1.850   4.435
 5766SOL    HW218198   1.343   1.922   4.581
 5767SOL     OW18199   1.823   0.585   0.619
 5767SOL    HW118200   1.874   0.623   0.696
 5767SOL    HW218201   1.739   0.637   0.606
 5768SOL     OW18202   6.839   6.834   3.912
 5768SOL    HW118203   6.890   6.853   3.996
 5768SOL    HW218204   6.831   6.735   3.899
 5769SOL     OW18205   1.832   5.611   6.481
 5769SOL    HW118206   1.885   5.593   6.397
 5769SOL    HW218207   1.839   5.532   6.542
 5770SOL     OW18208   0.759   5.792   0.817
 5770SOL    HW118209   0.804   5.805   0.905
 5770SOL    HW218210   0.706   5.873   0.795
 5771SOL     OW18211   1.898   5.554   3.966
 5771SOL    HW118212   1.837   5.616   3.916
 5771SOL    HW218213   1.987   5.598   3.978
 5772SOL     OW18214   4.633   0.806   1.918
 5772SOL    HW118215   4.609   0.717   1.879
 5772SOL    HW218216   4.617   0.878   1.851
 5773SOL     OW18217   4.291   1.924   2.105
 5773SOL    HW118218   4.204   1.905   2.150
 5773SOL    HW218219   4.293   1.881   2.015
 5774SOL     OW18220   1.077   6.575   3.923
 5774SOL    HW118221   1.148   6.524   3.874
 5774SOL    HW218222   1.108   6.669   3.939
 5775SOL     OW18223   0.592   5.474   3.230
 5775SOL    HW118224   0.523   5.504   3.165
 5775SOL    HW218225   0.616   5.551   3.291
 5776SOL     OW18226   1.846   0.563   3.320
 5776SOL    HW118227   1.833   0.498   3.245
 5776SOL    HW218228   1.759   0.574   3.369
 5777SOL     OW18229   1.537   0.411   3.037
 5777SOL    HW118230   1.481   0.397   2.955
 5777SOL    HW218231   1.491   0.477   3.097
 5778SOL     OW18232   1.198   1.191   6.608
 5778SOL    HW118233   1.126   1.122   6.613
 5778SOL    HW218234   1.285   1.148   6.582
 5779SOL     OW18235   4.601   2.304   6.583
 5779SOL    HW118236   4.594   2.248   6.666
 5779SOL    HW218237   4.647   2.390   6.605
 5780SOL     OW18238   5.960   5.533   4.323
 5780SOL    HW118239   5.865   5.556   4.304
 5780SOL    HW218240   5.987   5.452   4.271
 5781SOL     OW18241   6.842   4.772   5.342
 5781SOL    HW118242   6.777   4.713   5.389
 5781SOL    HW218243   6.926   4.721   5.324
 5782SOL     OW18244   1.018   1.162   6.969
 5782SOL    HW118245   0.932   1.137   7.012
 5782SOL    HW218246   1.066   1.229   0.001
 5783SOL     OW18247   1.286   1.664   1.849
 5783SOL    HW118248   1.285   1.656   1.750
 5783SOL    HW218249   1.378   1.642   1.883
 5784SOL     OW18250   0.649   6.101   6.542
 5784SOL    HW118251   0.573   6.121   6.603
 5784SOL    HW218252   0.614   6.093   6.448
 5785SOL     OW18253   2.903   1.918   0.422
 5785SOL    HW118254   2.811   1.881   0.427
 5785SOL    HW218255   2.928   1.932   0.326
 5786SOL     OW18256   6.978   4.125   0.227
 5786SOL    HW118257   6.988   4.206   0.285
 5786SOL    HW218258   6.954   4.154   0.134
 5787SOL     OW18259   1.719   2.115   5.546
 5787SOL    HW118260   1.656   2.093   5.472
 5787SOL    HW218261   1.719   2.214   5.561
 5788SOL     OW18262   2.483   1.380   2.636
 5788SOL    HW118263   2.468   1.434   2.552
 5788SOL    HW218264   2.455   1.286   2.620
 5789SOL     OW18265   3.286   5.185   6.474
 5789SOL    HW118266   3.361   5.137   6.428
 5789SOL    HW218267   3.203   5.130   6.469
 5790SOL     OW18268   0.154   3.226   4.315
 5790SOL    HW118269   0.208   3.294   4.267
 5790SOL    HW218270   0.094   3.272   4.381
 5791SOL     OW18271   3.075   0.225   2.443
 5791SOL    HW118272   3.150   0.289   2.457
 5791SOL    HW218273   3.111   0.135   2.421
 5792SOL     OW18274   0.658   2.299   3.008
 5792SOL    HW118275   0.649   2.344   2.919
 5792SOL    HW218276   0.635   2.364   3.080
 5793SOL     OW18277   6.666   0.973   3.467
 5793SOL    HW118278   6.758   0.949   3.498
 5793SOL    HW218279   6.610   1.000   3.546
 5794SOL     OW18280   3.842   2.359   6.979
 5794SOL    HW118281   3.843   2.259   6.971
 5794SOL    HW218282   3.904   2.387   0.026
 5795SOL     OW18283   5.888   5.143   5.555
 5795SOL    HW118284   5.799   5.105   5.533
 5795SOL    HW218285   5.881   5.243   5.561
 5796SOL     OW18286   3.480   0.887   6.942
 5796SOL    HW118287   3.444   0.914   0.006
 5796SOL    HW218288   3.440   0.798   6.916
 5797SOL     OW18289   3.808   1.774   5.122
 5797SOL    HW118290   3.713   1.802   5.118
 5797SOL    HW218291   3.839   1.770   5.217
 5798SOL     OW18292   0.607   3.744   5.582
 5798SOL    HW118293   0.515   3.706   5.577
 5798SOL    HW218294   0.646   3.748   5.490
 5799SOL     OW18295   5.373   0.679   4.008
 5799SOL    HW118296   5.437   0.684   4.084
 5799SOL    HW218297   5.394   0.599   3.951
 5800SOL     OW18298   5.621   6.027   1.364
 5800SOL    HW118299   5.538   6.065   1.406
 5800SOL    HW218300   5.616   6.038   1.265
 5801SOL     OW18301   0.705   2.177   4.391
 5801SOL    HW118302   0.786   2.132   4.430
 5801SOL    HW218303   0.644   2.108   4.353
 5802SOL     OW18304   0.853   4.278   6.770
 5802SOL    HW118305   0.862   4.349   6.840
 5802SOL    HW218306   0.808   4.198   6.809
 5803SOL     OW18307   1.227   5.126   1.779
 5803SOL    HW118308   1.189   5.050   1.728
 5803SOL    HW218309   1.279   5.185   1.716
 5804SOL     OW18310   6.357   4.348   3.953
 5804SOL    HW118311   6.424   4.408   3.910
 5804SOL    HW218312   6.393   4.254   3.957
 5805SOL     OW18313   3.744   4.113   6.678
 5805SOL    HW118314   3.837   4.113   6.642
 5805SOL    HW218315   3.679   4.112   6.603
 5806SOL     OW18316   0.382   6.467   6.819
 5806SOL    HW118317   0.478   6.491   6.833
 5806SOL    HW218318   0.331   6.548   6.790
 5807SOL     OW18319   1.357   3.856   1.873
 5807SOL    HW118320   1.302   3.799   1.935
 5807SOL    HW218321   1.338   3.952   1.890
 5808SOL     OW18322   5.429   3.657   2.794
 5808SOL    HW118323   5.359   3.598   2.832
 5808SOL    HW218324   5.509   3.656   2.854
 5809SOL     OW18325   6.529   2.423   4.079
 5809SOL    HW118326   6.534   2.323   4.082
 5809SOL    HW218327   6.527   2.453   3.983
 5810SOL     OW18328   3.248   0.927   4.064
 5810SOL    HW118329   3.162   0.936   4.014
 5810SOL    HW218330   3.274   0.831   4.069
 5811SOL     OW18331   2.964   0.589   4.826
 5811SOL    HW118332   2.985   0.678   4.866
 5811SOL    HW218333   3.017   0.518   4.872
 5812SOL     OW18334   5.134   0.250   4.401
 5812SOL    HW118335   5.088   0.289   4.480
 5812SOL    HW218336   5.141   0.319   4.329
 5813SOL     OW18337   1.188   0.969   6.354
 5813SOL    HW118338   1.255   0.999   6.421
 5813SOL    HW218339   1.109   1.031   6.355
 5814SOL     OW18340   6.416   4.584   0.783
 5814SOL    HW118341   6.498   4.624   0.743
 5814SOL    HW218342   6.347   4.570   0.711
 5815SOL     OW18343   4.770   2.610   3.469
 5815SOL    HW118344   4.843   2.597   3.401
 5815SOL    HW218345   4.773   2.704   3.502
 5816SOL     OW18346   5.842   6.447   0.433
 5816SOL    HW118347   5.801   6.433   0.524
 5816SOL    HW218348   5.862   6.359   0.392
 5817SOL     OW18349   5.722   3.025   5.537
 5817SOL    HW118350   5.767   2.944   5.575
 5817SOL    HW218351   5.705   3.091   5.610
 5818SOL     OW18352   0.021   6.033   4.537
 5818SOL    HW118353   6.993   5.984   4.469
 5818SOL    HW218354   0.012   5.987   4.626
 5819SOL     OW18355   4.148   0.472   0.482
 5819SOL    HW118356   4.189   0.541   0.423
 5819SOL    HW218357   4.152   0.383   0.436
 5820SOL     OW18358   4.335   0.175   3.772
 5820SOL    HW118359   4.308   0.263   3.811
 5820SOL    HW218360   4.259   0.138   3.718
 5821SOL     OW18361   1.819   0.658   2.246
 5821SOL    HW118362   1.730   0.623   2.213
 5821SOL    HW218363   1.809   0.690   2.340
 5822SOL     OW18364   0.700   1.981   1.690
 5822SOL    HW118365   0.794   1.972   1.723
 5822SOL    HW218366   0.642   1.913   1.736
 5823SOL     OW18367   0.906   1.097   5.285
 5823SOL    HW118368   0.995   1.071   5.322
 5823SOL    HW218369   0.898   1.063   5.191
 5824SOL     OW18370   6.891   6.646   3.030
 5824SOL    HW118371   6.799   6.668   2.996
 5824SOL    HW218372   6.882   6.594   3.115
 5825SOL     OW18373   2.082   2.342   5.698
 5825SOL    HW118374   2.073   2.404   5.620
 5825SOL    HW218375   2.174   2.303   5.699
 5826SOL     OW18376   6.930   6.098   5.830
 5826SOL    HW118377   6.840   6.055   5.825
 5826SOL    HW218378   6.966   6.111   5.738
 5827SOL     OW18379   1.389   5.621   4.461
 5827SOL    HW118380   1.472   5.592   4.510
 5827SOL    HW218381   1.319   5.551   4.470
 5828SOL     OW18382   6.987   3.153   1.868
 5828SOL    HW118383   0.055   3.118   1.866
 5828SOL    HW218384   6.929   3.090   1.918
 5829SOL     OW18385   2.745   1.343   2.655
 5829SOL    HW118386   2.804   1.400   2.712
 5829SOL    HW218387   2.651   1.379   2.658
 5830SOL     OW18388   3.992   0.676   5.587
 5830SOL    HW118389   3.977   0.600   5.650
 5830SOL    HW218390   4.040   0.750   5.634
 5831SOL     OW18391   6.452   6.882   3.974
 5831SOL    HW118392   6.512   6.952   3.937
 5831SOL    HW218393   6.405   6.917   4.055
 5832SOL     OW18394   4.200   3.702   5.400
 5832SOL    HW118395   4.236   3.792   5.423
 5832SOL    HW218396   4.200   3.690   5.301
 5833SOL     OW18397   3.373   3.231   4.269
 5833SOL    HW118398   3.302   3.172   4.231
 5833SOL    HW218399   3.374   3.318   4.221
 5834SOL     OW18400   6.098   1.911   0.603
 5834SOL    HW118401   6.059   1.828   0.643
 5834SOL    HW218402   6.071   1.917   0.507
 5835SOL     OW18403   5.090   2.619   3.110
 5835SOL    HW118404   5.099   2.719   3.109
 5835SOL    HW218405   5.060   2.587   3.020
 5836SOL     OW18406   2.655   6.244   3.539
 5836SOL    HW118407   2.568   6.199   3.557
 5836SOL    HW218408   2.640   6.342   3.524
 5837SOL     OW18409   4.272   4.707   6.533
 5837SOL    HW118410   4.303   4.695   6.438
 5837SOL    HW218411   4.178   4.742   6.532
 5838SOL     OW18412   1.952   1.518   6.145
 5838SOL    HW118413   1.999   1.510   6.232
 5838SOL    HW218414   1.899   1.603   6.143
 5839SOL     OW18415   0.454   2.707   2.187
 5839SOL    HW118416   0.418   2.776   2.125
 5839SOL    HW218417   0.473   2.748   2.276
 5840SOL     OW18418   1.332   5.592   7.022
 5840SOL    HW118419   1.342   5.686   6.992
 5840SOL    HW218420   1.271   5.543   6.960
 5841SOL     OW18421   5.733   2.763   2.328
 5841SOL    HW118422   5.645   2.741   2.371
 5841SOL    HW218423   5.789   2.680   2.321
 5842SOL     OW18424   3.644   3.230   0.837
 5842SOL    HW118425   3.716   3.269   0.894
 5842SOL    HW218426   3.638   3.282   0.751
 5843SOL     OW18427   2.148   4.082   2.458
 5843SOL    HW118428   2.160   4.017   2.534
 5843SOL    HW218429   2.105   4.036   2.381
 5844SOL     OW18430   0.317   6.707   5.852
 5844SOL    HW118431   0.218   6.699   5.860
 5844SOL    HW218432   0.341   6.761   5.772
 5845SOL     OW18433   0.916   1.093   3.086
 5845SOL    HW118434   0.970   1.155   3.142
 5845SOL    HW218435   0.823   1.128   3.076
 5846SOL     OW18436   6.806   3.101   5.077
 5846SOL    HW118437   6.893   3.101   5.027
 5846SOL    HW218438   6.748   3.174   5.041
 5847SOL     OW18439   1.724   1.752   2.079
 5847SOL    HW118440   1.789   1.818   2.041
 5847SOL    HW218441   1.744   1.738   2.176
 5848SOL     OW18442   2.529   4.991   3.914
 5848SOL    HW118443   2.523   4.976   3.815
 5848SOL    HW218444   2.440   5.022   3.948
 5849SOL     OW18445   0.341   0.444   6.000
 5849SOL    HW118446   0.331   0.465   5.903
 5849SOL    HW218447   0.278   0.501   6.053
 5850SOL     OW18448   1.083   3.227   1.829
 5850SOL    HW118449   1.108   3.147   1.884
 5850SOL    HW218450   1.166   3.276   1.803
 5851SOL     OW18451   5.334   3.037   3.083
 5851SOL    HW118452   5.397   3.047   3.161
 5851SOL    HW218453   5.385   3.008   3.003
 5852SOL     OW18454   4.410   6.619   3.035
 5852SOL    HW118455   4.353   6.538   3.054
 5852SOL    HW218456   4.454   6.608   2.946
 5853SOL     OW18457   3.300   5.889   5.812
 5853SOL    HW118458   3.386   5.921   5.852
 5853SOL    HW218459   3.318   5.809   5.755
 5854SOL     OW18460   6.463   3.312   5.851
 5854SOL    HW118461   6.469   3.333   5.948
 5854SOL    HW218462   6.555   3.294   5.814
 5855SOL     OW18463   0.889   0.951   4.996
 5855SOL    HW118464   0.979   0.922   5.028
 5855SOL    HW218465   0.864   0.900   4.914
 5856SOL     OW18466   2.010   5.449   3.244
 5856SOL    HW118467   1.941   5.454   3.171
 5856SOL    HW218468   1.964   5.444   3.333
 5857SOL     OW18469   5.534   2.536   5.092
 5857SOL    HW118470   5.489   2.473   5.029
 5857SOL    HW218471   5.542   2.626   5.049
 5858SOL     OW18472   2.612   2.459   1.941
 5858SOL    HW118473   2.643   2.397   1.870
 5858SOL    HW218474   2.625   2.416   2.031
 5859SOL     OW18475   5.565   6.065   1.092
 5859SOL    HW118476   5.497   6.139   1.088
 5859SOL    HW218477   5.656   6.102   1.075
 5860SOL     OW18478   2.296   3.915   1.857
 5860SOL    HW118479   2.286   3.815   1.860
 5860SOL    HW218480   2.256   3.955   1.939
 5861SOL     OW18481   5.424   1.662   3.795
 5861SOL    HW118482   5.391   1.673   3.889
 5861SOL    HW218483   5.449   1.566   3.780
 5862SOL     OW18484   4.151   5.375   3.263
 5862SOL    HW118485   4.181   5.461   3.303
 5862SOL    HW218486   4.109   5.391   3.174
 5863SOL     OW18487   2.785   0.763   5.263
 5863SOL    HW118488   2.741   0.766   5.173
 5863SOL    HW218489   2.715   0.759   5.335
 5864SOL     OW18490   4.122   3.980   1.703
 5864SOL    HW118491   4.085   3.922   1.630
 5864SOL    HW218492   4.061   3.978   1.782
 5865SOL     OW18493   5.109   0.607   4.031
 5865SOL    HW118494   5.101   0.539   3.958
 5865SOL    HW218495   5.203   0.641   4.034
 5866SOL     OW18496   3.936   6.218   6.649
 5866SOL    HW118497   3.864   6.166   6.603
 5866SOL    HW218498   3.907   6.240   6.742
 5867SOL     OW18499   0.350   3.352   0.695
 5867SOL    HW118500   0.340   3.253   0.679
 5867SOL    HW218501   0.422   3.388   0.635
 5868SOL     OW18502   0.072   0.439   4.832
 5868SOL    HW118503   0.010   0.370   4.794
 5868SOL    HW218504   0.044   0.530   4.802
 5869SOL     OW18505   1.983   4.951   3.552
 5869SOL    HW118506   2.006   5.039   3.508
 5869SOL    HW218507   1.967   4.882   3.481
 5870SOL     OW18508   4.783   5.558   4.709
 5870SOL    HW118509   4.878   5.537   4.684
 5870SOL    HW218510   4.764   5.523   4.800
 5871SOL     OW18511   4.341   3.823   0.009
 5871SOL    HW118512   4.367   3.873   0.092
 5871SOL    HW218513   4.337   3.725   0.030
 5872SOL     OW18514   3.867   5.984   6.988
 5872SOL    HW118515   3.927   5.906   6.972
 5872SOL    HW218516   3.921   6.068   6.991
 5873SOL     OW18517   1.902   2.526   0.336
 5873SOL    HW118518   1.895   2.459   0.410
 5873SOL    HW218519   1.897   2.618   0.374
 5874SOL     OW18520   2.568   2.977   1.404
 5874SOL    HW118521   2.552   2.944   1.497
 5874SOL    HW218522   2.586   3.075   1.405
 5875SOL     OW18523   3.967   1.277   0.347
 5875SOL    HW118524   3.951   1.284   0.248
 5875SOL    HW218525   3.958   1.182   0.375
 5876SOL     OW18526   3.472   3.043   6.780
 5876SOL    HW118527   3.497   2.958   6.735
 5876SOL    HW218528   3.412   3.024   6.858
 5877SOL     OW18529   6.089   6.526   1.390
 5877SOL    HW118530   6.096   6.624   1.370
 5877SOL    HW218531   6.181   6.487   1.396
 5878SOL     OW18532   5.524   5.712   2.984
 5878SOL    HW118533   5.551   5.766   2.905
 5878SOL    HW218534   5.544   5.762   3.068
 5879SOL     OW18535   3.851   2.931   6.087
 5879SOL    HW118536   3.776   2.924   6.152
 5879SOL    HW218537   3.817   2.969   6.000
 5880SOL     OW18538   4.513   3.756   5.684
 5880SOL    HW118539   4.525   3.670   5.735
 5880SOL    HW218540   4.469   3.736   5.596
 5881SOL     OW18541   1.407   6.795   2.542
 5881SOL    HW118542   1.417   6.698   2.564
 5881SOL    HW218543   1.448   6.813   2.453
 5882SOL     OW18544   1.430   6.475   5.843
 5882SOL    HW118545   1.501   6.406   5.857
 5882SOL    HW218546   1.406   6.515   5.931
 5883SOL     OW18547   0.101   2.647   0.419
 5883SOL    HW118548   0.077   2.743   0.401
 5883SOL    HW218549   0.199   2.641   0.439
 5884SOL     OW18550   6.639   0.842   3.997
 5884SOL    HW118551   6.712   0.775   4.010
 5884SOL    HW218552   6.584   0.817   3.917
 5885SOL     OW18553   0.483   5.671   0.779
 5885SOL    HW118554   0.579   5.679   0.753
 5885SOL    HW218555   0.433   5.750   0.744
 5886SOL     OW18556   1.469   2.960   3.147
 5886SOL    HW118557   1.509   2.868   3.145
 5886SOL    HW218558   1.390   2.962   3.086
 5887SOL     OW18559   2.493   1.913   1.988
 5887SOL    HW118560   2.455   1.974   2.058
 5887SOL    HW218561   2.465   1.945   1.897
 5888SOL     OW18562   2.958   0.021   0.885
 5888SOL    HW118563   2.891   0.021   0.959
 5888SOL    HW218564   2.920   6.996   0.807
 5889SOL     OW18565   6.956   1.775   1.565
 5889SOL    HW118566   0.023   1.743   1.545
 5889SOL    HW218567   6.957   1.829   1.649
 5890SOL     OW18568   2.008   6.617   2.497
 5890SOL    HW118569   2.045   6.560   2.570
 5890SOL    HW218570   1.911   6.597   2.486
 5891SOL     OW18571   2.869   3.414   0.403
 5891SOL    HW118572   2.801   3.420   0.330
 5891SOL    HW218573   2.932   3.339   0.384
 5892SOL     OW18574   0.381   4.207   0.674
 5892SOL    HW118575   0.461   4.151   0.697
 5892SOL    HW218576   0.341   4.174   0.589
 5893SOL     OW18577   0.934   5.204   1.773
 5893SOL    HW118578   1.034   5.204   1.769
 5893SOL    HW218579   0.904   5.140   1.844
 5894SOL     OW18580   0.794   5.837   5.948
 5894SOL    HW118581   0.795   5.937   5.938
 5894SOL    HW218582   0.881   5.800   5.915
 5895SOL     OW18583   6.385   3.284   4.906
 5895SOL    HW118584   6.339   3.277   4.817
 5895SOL    HW218585   6.341   3.357   4.959
 5896SOL     OW18586   5.407   1.650   1.977
 5896SOL    HW118587   5.391   1.708   1.897
 5896SOL    HW218588   5.344   1.677   2.050
 5897SOL     OW18589   3.890   1.657   1.770
 5897SOL    HW118590   3.809   1.609   1.737
 5897SOL    HW218591   3.935   1.704   1.694
 5898SOL     OW18592   2.114   1.869   5.610
 5898SOL    HW118593   2.014   1.868   5.609
 5898SOL    HW218594   2.147   1.803   5.678
 5899SOL     OW18595   6.710   5.258   6.091
 5899SOL    HW118596   6.671   5.328   6.150
 5899SOL    HW218597   6.738   5.300   6.004
 5900SOL     OW18598   0.264   5.314   2.915
 5900SOL    HW118599   0.238   5.225   2.953
 5900SOL    HW218600   0.360   5.332   2.936
 5901SOL     OW18601   0.757   0.393   6.541
 5901SOL    HW118602   0.731   0.469   6.601
 5901SOL    HW218603   0.850   0.407   6.507
 5902SOL     OW18604   5.574   3.617   4.791
 5902SOL    HW118605   5.534   3.574   4.872
 5902SOL    HW218606   5.536   3.574   4.709
 5903SOL     OW18607   5.443   2.835   6.784
 5903SOL    HW118608   5.515   2.806   6.846
 5903SOL    HW218609   5.483   2.865   6.697
 5904SOL     OW18610   0.948   4.970   1.909
 5904SOL    HW118611   1.018   4.969   1.838
 5904SOL    HW218612   0.952   4.886   1.962
 5905SOL     OW18613   5.115   1.042   3.528
 5905SOL    HW118614   5.038   0.996   3.485
 5905SOL    HW218615   5.088   1.080   3.616
 5906SOL     OW18616   5.699   1.273   5.620
 5906SOL    HW118617   5.639   1.277   5.699
 5906SOL    HW218618   5.735   1.180   5.610
 5907SOL     OW18619   1.505   1.055   0.351
 5907SOL    HW118620   1.544   1.064   0.442
 5907SOL    HW218621   1.577   1.037   0.284
 5908SOL     OW18622   4.658   3.276   7.007
 5908SOL    HW118623   4.603   3.302   0.061
 5908SOL    HW218624   4.617   3.314   6.925
 5909SOL     OW18625   0.721   4.429   5.561
 5909SOL    HW118626   0.763   4.519   5.547
 5909SOL    HW218627   0.633   4.426   5.515
 5910SOL     OW18628   1.640   4.073   1.798
 5910SOL    HW118629   1.663   4.023   1.714
 5910SOL    HW218630   1.679   4.165   1.794
 5911SOL     OW18631   0.095   5.260   6.222
 5911SOL    HW118632   0.016   5.245   6.281
 5911SOL    HW218633   0.175   5.279   6.279
 5912SOL     OW18634   6.059   3.191   6.855
 5912SOL    HW118635   6.019   3.279   6.881
 5912SOL    HW218636   6.122   3.161   6.926
 5913SOL     OW18637   2.353   2.930   5.588
 5913SOL    HW118638   2.443   2.943   5.630
 5913SOL    HW218639   2.362   2.873   5.506
 5914SOL     OW18640   2.553   6.187   0.369
 5914SOL    HW118641   2.598   6.270   0.400
 5914SOL    HW218642   2.455   6.192   0.391
 5915SOL     OW18643   5.698   2.809   3.017
 5915SOL    HW118644   5.599   2.795   3.028
 5915SOL    HW218645   5.715   2.855   2.931
 5916SOL     OW18646   4.377   0.151   5.678
 5916SOL    HW118647   4.375   0.130   5.776
 5916SOL    HW218648   4.307   0.097   5.631
 5917SOL     OW18649   3.578   2.868   3.573
 5917SOL    HW118650   3.570   2.772   3.600
 5917SOL    HW218651   3.566   2.876   3.474
 5918SOL     OW18652   1.440   3.741   4.352
 5918SOL    HW118653   1.379   3.776   4.424
 5918SOL    HW218654   1.532   3.731   4.389
 5919SOL     OW18655   2.814   2.392   0.848
 5919SOL    HW118656   2.793   2.490   0.855
 5919SOL    HW218657   2.838   2.370   0.753
 5920SOL     OW18658   3.029   6.614   0.066
 5920SOL    HW118659   3.056   6.520   0.086
 5920SOL    HW218660   3.010   6.663   0.151
 5921SOL     OW18661   3.788   5.426   5.841
 5921SOL    HW118662   3.838   5.508   5.814
 5921SOL    HW218663   3.707   5.416   5.783
 5922SOL     OW18664   6.619   4.957   3.002
 5922SOL    HW118665   6.706   4.974   3.049
 5922SOL    HW218666   6.549   4.936   3.070
 5923SOL     OW18667   6.178   0.408   3.867
 5923SOL    HW118668   6.125   0.368   3.792
 5923SOL    HW218669   6.129   0.394   3.953
 5924SOL     OW18670   5.351   2.546   4.598
 5924SOL    HW118671   5.253   2.548   4.576
 5924SOL    HW218672   5.393   2.466   4.555
 5925SOL     OW18673   4.874   5.669   2.629
 5925SOL    HW118674   4.797   5.733   2.631
 5925SOL    HW218675   4.960   5.719   2.630
 5926SOL     OW18676   3.782   5.668   1.526
 5926SOL    HW118677   3.722   5.703   1.454
 5926SOL    HW218678   3.781   5.732   1.603
 5927SOL     OW18679   2.459   6.107   1.692
 5927SOL    HW118680   2.436   6.057   1.776
 5927SOL    HW218681   2.554   6.089   1.668
 5928SOL     OW18682   2.091   0.655   2.408
 5928SOL    HW118683   2.085   0.587   2.481
 5928SOL    HW218684   2.014   0.643   2.345
 5929SOL     OW18685   1.116   6.647   5.889
 5929SOL    HW118686   1.140   6.619   5.796
 5929SOL    HW218687   1.086   6.568   5.942
 5930SOL     OW18688   6.175   1.599   4.002
 5930SOL    HW118689   6.270   1.629   3.998
 5930SOL    HW218690   6.142   1.581   3.909
 5931SOL     OW18691   5.939   5.389   1.878
 5931SOL    HW118692   5.983   5.460   1.823
 5931SOL    HW218693   6.005   5.316   1.898
 5932SOL     OW18694   2.388   6.582   0.939
 5932SOL    HW118695   2.467   6.618   0.989
 5932SOL    HW218696   2.333   6.526   1.001
 5933SOL     OW18697   0.392   3.990   2.121
 5933SOL    HW118698   0.306   4.026   2.158
 5933SOL    HW218699   0.405   3.896   2.153
 5934SOL     OW18700   3.642   3.407   3.218
 5934SOL    HW118701   3.638   3.321   3.268
 5934SOL    HW218702   3.634   3.483   3.283
 5935SOL     OW18703   3.729   4.127   4.742
 5935SOL    HW118704   3.806   4.099   4.799
 5935SOL    HW218705   3.645   4.126   4.797
 5936SOL     OW18706   4.739   4.570   6.628
 5936SOL    HW118707   4.708   4.477   6.647
 5936SOL    HW218708   4.720   4.592   6.532
 5937SOL     OW18709   0.632   3.762   1.472
 5937SOL    HW118710   0.700   3.807   1.414
 5937SOL    HW218711   0.545   3.756   1.424
 5938SOL     OW18712   1.824   4.692   3.438
 5938SOL    HW118713   1.795   4.596   3.436
 5938SOL    HW218714   1.751   4.750   3.401
 5939SOL     OW18715   3.389   0.706   2.981
 5939SOL    HW118716   3.352   0.617   3.007
 5939SOL    HW218717   3.382   0.769   3.059
 5940SOL     OW18718   3.700   6.612   2.123
 5940SOL    HW118719   3.691   6.640   2.219
 5940SOL    HW218720   3.662   6.520   2.112
 5941SOL     OW18721   6.120   4.949   1.894
 5941SOL    HW118722   6.152   4.978   1.984
 5941SOL    HW218723   6.100   4.851   1.896
 5942SOL     OW18724   4.024   2.848   6.533
 5942SOL    HW118725   4.061   2.791   6.461
 5942SOL    HW218726   4.079   2.839   6.616
 5943SOL     OW18727   2.070   5.964   0.957
 5943SOL    HW118728   2.145   6.021   0.990
 5943SOL    HW218729   2.054   5.982   0.860
 5944SOL     OW18730   5.121   1.345   2.027
 5944SOL    HW118731   5.107   1.444   2.035
 5944SOL    HW218732   5.056   1.308   1.960
 5945SOL     OW18733   6.902   5.046   5.324
 5945SOL    HW118734   6.864   4.958   5.354
 5945SOL    HW218735   6.933   5.038   5.230
 5946SOL     OW18736   3.447   4.312   5.952
 5946SOL    HW118737   3.435   4.233   6.011
 5946SOL    HW218738   3.358   4.349   5.925
 5947SOL     OW18739   4.210   3.270   1.853
 5947SOL    HW118740   4.127   3.246   1.802
 5947SOL    HW218741   4.184   3.300   1.946
 5948SOL     OW18742   3.846   4.869   2.882
 5948SOL    HW118743   3.875   4.780   2.915
 5948SOL    HW218744   3.904   4.940   2.922
 5949SOL     OW18745   3.805   4.633   1.171
 5949SOL    HW118746   3.768   4.589   1.089
 5949SOL    HW218747   3.853   4.717   1.146
 5950SOL     OW18748   6.155   2.117   4.393
 5950SOL    HW118749   6.163   2.178   4.314
 5950SOL    HW218750   6.208   2.034   4.377
 5951SOL     OW18751   1.360   6.744   4.606
 5951SOL    HW118752   1.268   6.716   4.576
 5951SOL    HW218753   1.422   6.741   4.528
 5952SOL     OW18754   6.530   5.878   3.965
 5952SOL    HW118755   6.544   5.939   4.043
 5952SOL    HW218756   6.492   5.791   3.997
 5953SOL     OW18757   0.023   3.045   4.940
 5953SOL    HW118758   0.091   3.117   4.925
 5953SOL    HW218759   0.020   2.984   4.861
 5954SOL     OW18760   6.748   4.670   6.155
 5954SOL    HW118761   6.844   4.696   6.168
 5954SOL    HW218762   6.689   4.742   6.190
 5955SOL     OW18763   5.607   5.492   2.264
 5955SOL    HW118764   5.666   5.516   2.188
 5955SOL    HW218765   5.522   5.545   2.259
 5956SOL     OW18766   3.987   1.870   0.052
 5956SOL    HW118767   3.924   1.798   0.025
 5956SOL    HW218768   3.996   1.870   0.152
 5957SOL     OW18769   5.159   6.351   6.413
 5957SOL    HW118770   5.231   6.310   6.358
 5957SOL    HW218771   5.177   6.334   6.510
 5958SOL     OW18772   6.496   6.287   2.306
 5958SOL    HW118773   6.471   6.284   2.403
 5958SOL    HW218774   6.444   6.358   2.260
 5959SOL     OW18775   3.070   1.931   5.687
 5959SOL    HW118776   3.013   1.988   5.745
 5959SOL    HW218777   3.059   1.959   5.591
 5960SOL     OW18778   3.009   0.053   3.936
 5960SOL    HW118779   3.013   0.139   3.886
 5960SOL    HW218780   3.030   0.069   4.033
 5961SOL     OW18781   3.896   1.156   4.300
 5961SOL    HW118782   3.911   1.222   4.374
 5961SOL    HW218783   3.798   1.141   4.289
 5962SOL     OW18784   4.986   5.329   2.927
 5962SOL    HW118785   5.047   5.259   2.964
 5962SOL    HW218786   5.014   5.419   2.962
 5963SOL     OW18787   3.584   3.805   3.649
 5963SOL    HW118788   3.634   3.757   3.722
 5963SOL    HW218789   3.494   3.833   3.682
 5964SOL     OW18790   6.579   5.134   6.744
 5964SOL    HW118791   6.677   5.137   6.727
 5964SOL    HW218792   6.562   5.097   6.835
 5965SOL     OW18793   1.626   2.371   6.265
 5965SOL    HW118794   1.706   2.362   6.206
 5965SOL    HW218795   1.654   2.409   6.354
 5966SOL     OW18796   3.062   5.786   5.048
 5966SOL    HW118797   3.151   5.742   5.061
 5966SOL    HW218798   3.056   5.866   5.107
 5967SOL     OW18799   4.593   6.304   2.499
 5967SOL    HW118800   4.676   6.310   2.444
 5967SOL    HW218801   4.516   6.340   2.447
 5968SOL     OW18802   6.321   2.011   2.997
 5968SOL    HW118803   6.313   2.110   2.987
 5968SOL    HW218804   6.375   1.974   2.921
 5969SOL     OW18805   6.281   2.923   4.796
 5969SOL    HW118806   6.333   2.949   4.878
 5969SOL    HW218807   6.185   2.909   4.821
 5970SOL     OW18808   0.987   3.806   2.766
 5970SOL    HW118809   1.046   3.748   2.824
 5970SOL    HW218810   1.043   3.868   2.713
 5971SOL     OW18811   2.067   0.401   3.044
 5971SOL    HW118812   2.076   0.418   2.946
 5971SOL    HW218813   1.970   0.397   3.068
 5972SOL     OW18814   4.847   6.461   0.537
 5972SOL    HW118815   4.813   6.535   0.596
 5972SOL    HW218816   4.831   6.373   0.582
 5973SOL     OW18817   2.161   5.001   2.500
 5973SOL    HW118818   2.066   5.027   2.479
 5973SOL    HW218819   2.194   5.055   2.578
 5974SOL     OW18820   6.582   3.978   6.098
 5974SOL    HW118821   6.664   4.032   6.115
 5974SOL    HW218822   6.503   4.025   6.136
 5975SOL     OW18823   3.926   2.474   0.685
 5975SOL    HW118824   3.903   2.381   0.656
 5975SOL    HW218825   3.847   2.516   0.729
 5976SOL     OW18826   3.365   2.927   4.653
 5976SOL    HW118827   3.319   2.974   4.577
 5976SOL    HW218828   3.302   2.861   4.694
 5977SOL     OW18829   1.232   4.791   1.968
 5977SOL    HW118830   1.318   4.775   1.919
 5977SOL    HW218831   1.221   4.723   2.040
 5978SOL     OW18832   5.189   3.889   2.922
 5978SOL    HW118833   5.090   3.878   2.907
 5978SOL    HW218834   5.233   3.920   2.838
 5979SOL     OW18835   6.050   0.287   3.457
 5979SOL    HW118836   6.137   0.327   3.485
 5979SOL    HW218837   6.059   0.252   3.363
 5980SOL     OW18838   4.465   4.536   6.951
 5980SOL    HW118839   4.543   4.480   6.981
 5980SOL    HW218840   4.482   4.569   6.858
 5981SOL     OW18841   6.583   1.777   1.948
 5981SOL    HW118842   6.544   1.706   1.890
 5981SOL    HW218843   6.681   1.762   1.959
 5982SOL     OW18844   6.173   2.122   6.682
 5982SOL    HW118845   6.268   2.122   6.651
 5982SOL    HW218846   6.120   2.057   6.628
 5983SOL     OW18847   2.207   1.983   4.393
 5983SOL    HW118848   2.226   1.977   4.491
 5983SOL    HW218849   2.108   1.986   4.379
 5984SOL     OW18850   0.498   6.214   4.611
 5984SOL    HW118851   0.420   6.160   4.580
 5984SOL    HW218852   0.534   6.175   4.696
 5985SOL     OW18853   5.512   1.965   3.328
 5985SOL    HW118854   5.431   2.013   3.294
 5985SOL    HW218855   5.484   1.888   3.385
 5986SOL     OW18856   3.195   3.012   3.504
 5986SOL    HW118857   3.257   3.007   3.582
 5986SOL    HW218858   3.120   3.074   3.525
 5987SOL     OW18859   4.753   0.475   5.121
 5987SOL    HW118860   4.830   0.538   5.129
 5987SOL    HW218861   4.682   0.516   5.064
 5988SOL     OW18862   3.964   0.058   4.727
 5988SOL    HW118863   3.933   7.001   4.774
 5988SOL    HW218864   3.957   0.045   4.628
 5989SOL     OW18865   2.272   6.957   6.507
 5989SOL    HW118866   2.281   7.007   6.420
 5989SOL    HW218867   2.194   6.894   6.501
 5990SOL     OW18868   3.618   4.655   0.305
 5990SOL    HW118869   3.581   4.696   0.222
 5990SOL    HW218870   3.714   4.631   0.291
 5991SOL     OW18871   3.969   4.973   5.334
 5991SOL    HW118872   3.879   4.962   5.291
 5991SOL    HW218873   4.040   4.959   5.265
 5992SOL     OW18874   3.558   1.024   3.825
 5992SOL    HW118875   3.614   1.041   3.744
 5992SOL    HW218876   3.614   1.035   3.907
 5993SOL     OW18877   3.148   6.378   5.303
 5993SOL    HW118878   3.199   6.298   5.333
 5993SOL    HW218879   3.052   6.368   5.330
 5994SOL     OW18880   6.300   2.282   1.824
 5994SOL    HW118881   6.273   2.261   1.918
 5994SOL    HW218882   6.369   2.215   1.794
 5995SOL     OW18883   0.154   5.242   1.063
 5995SOL    HW118884   0.163   5.285   1.153
 5995SOL    HW218885   0.236   5.188   1.044
 5996SOL     OW18886   0.374   5.359   6.745
 5996SOL    HW118887   0.352   5.281   6.686
 5996SOL    HW218888   0.309   5.364   6.821
 5997SOL     OW18889   0.422   0.342   1.868
 5997SOL    HW118890   0.428   0.363   1.966
 5997SOL    HW218891   0.490   0.395   1.818
 5998SOL     OW18892   5.373   2.188   2.500
 5998SOL    HW118893   5.318   2.219   2.578
 5998SOL    HW218894   5.460   2.152   2.533
 5999SOL     OW18895   1.172   1.821   3.518
 5999SOL    HW118896   1.199   1.788   3.608
 5999SOL    HW218897   1.216   1.910   3.501
 6000SOL     OW18898   4.128   5.183   2.241
 6000SOL    HW118899   4.157   5.250   2.310
 6000SOL    HW218900   4.209   5.137   2.204
 6001SOL     OW18901   0.036   3.192   6.620
 6001SOL    HW118902   0.110   3.247   6.659
 6001SOL    HW218903   6.979   3.247   6.614
 6002SOL     OW18904   0.488   6.821   1.308
 6002SOL    HW118905   0.446   6.888   1.369
 6002SOL    HW218906   0.418   6.778   1.252
 6003SOL     OW18907   5.342   3.887   4.904
 6003SOL    HW118908   5.314   3.816   4.839
 6003SOL    HW218909   5.261   3.924   4.949
 6004SOL     OW18910   0.581   3.798   3.187
 6004SOL    HW118911   0.635   3.865   3.135
 6004SOL    HW218912   0.531   3.845   3.260
 6005SOL     OW18913   3.981   5.348   4.054
 6005SOL    HW118914   3.899   5.311   4.009
 6005SOL    HW218915   4.047   5.273   4.069
 6006SOL     OW18916   3.013   0.028   6.696
 6006SOL    HW118917   3.071   6.973   6.686
 6006SOL    HW218918   3.068   0.104   6.730
 6007SOL     OW18919   5.579   3.097   3.755
 6007SOL    HW118920   5.521   3.046   3.692
 6007SOL    HW218921   5.587   3.192   3.725
 6008SOL     OW18922   3.386   5.670   5.325
 6008SOL    HW118923   3.463   5.733   5.326
 6008SOL    HW218924   3.420   5.575   5.325
 6009SOL     OW18925   2.789   1.960   4.829
 6009SOL    HW118926   2.690   1.965   4.814
 6009SOL    HW218927   2.831   2.047   4.804
 6010SOL     OW18928   2.278   4.315   2.507
 6010SOL    HW118929   2.329   4.339   2.424
 6010SOL    HW218930   2.240   4.224   2.497
 6011SOL     OW18931   4.970   2.679   1.859
 6011SOL    HW118932   4.879   2.648   1.832
 6011SOL    HW218933   5.036   2.653   1.788
 6012SOL     OW18934   6.772   2.160   0.012
 6012SOL    HW118935   6.710   2.082   0.001
 6012SOL    HW218936   6.718   2.244   0.020
 6013SOL     OW18937   6.483   1.385   1.940
 6013SOL    HW118938   6.559   1.402   2.003
 6013SOL    HW218939   6.412   1.333   1.988
 6014SOL     OW18940   5.968   1.692   0.736
 6014SOL    HW118941   5.969   1.621   0.807
 6014SOL    HW218942   5.875   1.701   0.701
 6015SOL     OW18943   5.837   2.021   5.208
 6015SOL    HW118944   5.855   1.933   5.253
 6015SOL    HW218945   5.780   2.077   5.268
 6016SOL     OW18946   0.751   0.933   5.742
 6016SOL    HW118947   0.655   0.908   5.730
 6016SOL    HW218948   0.792   0.876   5.812
 6017SOL     OW18949   5.997   5.387   3.674
 6017SOL    HW118950   5.964   5.436   3.594
 6017SOL    HW218951   6.074   5.329   3.648
 6018SOL     OW18952   3.207   3.089   0.304
 6018SOL    HW118953   3.178   2.996   0.282
 6018SOL    HW218954   3.143   3.130   0.369
 6019SOL     OW18955   4.583   1.303   3.145
 6019SOL    HW118956   4.642   1.241   3.093
 6019SOL    HW218957   4.515   1.343   3.083
 6020SOL     OW18958   3.128   6.980   2.393
 6020SOL    HW118959   3.105   7.019   2.303
 6020SOL    HW218960   3.088   6.889   2.400
 6021SOL     OW18961   4.567   0.717   2.886
 6021SOL    HW118962   4.604   0.731   2.978
 6021SOL    HW218963   4.622   0.769   2.820
 6022SOL     OW18964   4.812   1.165   3.277
 6022SOL    HW118965   4.799   1.095   3.206
 6022SOL    HW218966   4.834   1.252   3.233
 6023SOL     OW18967   6.312   0.775   3.337
 6023SOL    HW118968   6.288   0.778   3.434
 6023SOL    HW218969   6.405   0.740   3.327
 6024SOL     OW18970   0.728   4.510   2.085
 6024SOL    HW118971   0.664   4.441   2.051
 6024SOL    HW218972   0.696   4.543   2.175
 6025SOL     OW18973   4.336   0.712   1.728
 6025SOL    HW118974   4.281   0.772   1.670
 6025SOL    HW218975   4.359   0.760   1.813
 6026SOL     OW18976   0.385   5.259   5.014
 6026SOL    HW118977   0.332   5.186   5.056
 6026SOL    HW218978   0.351   5.278   4.922
 6027SOL     OW18979   2.308   4.329   6.363
 6027SOL    HW118980   2.396   4.281   6.357
 6027SOL    HW218981   2.241   4.286   6.303
 6028SOL     OW18982   1.559   4.373   0.463
 6028SOL    HW118983   1.469   4.329   0.453
 6028SOL    HW218984   1.565   4.417   0.553
 6029SOL     OW18985   1.883   6.317   0.533
 6029SOL    HW118986   1.794   6.272   0.526
 6029SOL    HW218987   1.938   6.270   0.603
 6030SOL     OW18988   2.746   1.110   2.795
 6030SOL    HW118989   2.658   1.072   2.766
 6030SOL    HW218990   2.771   1.186   2.735
 6031SOL     OW18991   5.216   6.137   5.636
 6031SOL    HW118992   5.135   6.128   5.578
 6031SOL    HW218993   5.286   6.189   5.589
 6032SOL     OW18994   1.683   3.659   2.759
 6032SOL    HW118995   1.715   3.564   2.749
 6032SOL    HW218996   1.643   3.690   2.672
 6033SOL     OW18997   2.464   2.228   3.026
 6033SOL    HW118998   2.451   2.197   3.120
 6033SOL    HW218999   2.515   2.314   3.027
 6034SOL     OW19000   2.624   4.708   4.464
 6034SOL    HW119001   2.713   4.730   4.505
 6034SOL    HW219002   2.566   4.664   4.532
 6035SOL     OW19003   5.126   0.966   4.342
 6035SOL    HW119004   5.148   0.871   4.366
 6035SOL    HW219005   5.201   1.026   4.371
 6036SOL     OW19006   0.088   6.622   5.079
 6036SOL    HW119007   0.032   6.701   5.106
 6036SOL    HW219008   0.037   6.566   5.014
 6037SOL     OW19009   4.703   4.749   5.954
 6037SOL    HW119010   4.681   4.846   5.944
 6037SOL    HW219011   4.686   4.701   5.868
 6038SOL     OW19012   0.614   3.164   6.217
 6038SOL    HW119013   0.645   3.070   6.232
 6038SOL    HW219014   0.694   3.225   6.210
 6039SOL     OW19015   3.262   3.583   2.337
 6039SOL    HW119016   3.247   3.680   2.319
 6039SOL    HW219017   3.360   3.566   2.348
 6040SOL     OW19018   0.879   1.687   6.320
 6040SOL    HW119019   0.928   1.665   6.404
 6040SOL    HW219020   0.895   1.616   6.252
 6041SOL     OW19021   0.875   2.204   6.838
 6041SOL    HW119022   0.907   2.148   6.761
 6041SOL    HW219023   0.804   2.154   6.888
 6042SOL     OW19024   5.606   5.152   2.583
 6042SOL    HW119025   5.593   5.056   2.612
 6042SOL    HW219026   5.570   5.164   2.491
 6043SOL     OW19027   1.559   4.933   4.623
 6043SOL    HW119028   1.466   4.917   4.655
 6043SOL    HW219029   1.616   4.854   4.648
 6044SOL     OW19030   0.217   1.676   1.478
 6044SOL    HW119031   0.275   1.598   1.501
 6044SOL    HW219032   0.269   1.761   1.492
 6045SOL     OW19033   5.511   5.892   0.690
 6045SOL    HW119034   5.582   5.833   0.730
 6045SOL    HW219035   5.421   5.851   0.706
 6046SOL     OW19036   2.687   2.308   0.310
 6046SOL    HW119037   2.679   2.248   0.390
 6046SOL    HW219038   2.769   2.365   0.320
 6047SOL     OW19039   6.270   1.003   4.048
 6047SOL    HW119040   6.208   1.075   4.015
 6047SOL    HW219041   6.234   0.966   4.134
 6048SOL     OW19042   3.663   0.858   3.541
 6048SOL    HW119043   3.658   0.851   3.442
 6048SOL    HW219044   3.737   0.799   3.575
 6049SOL     OW19045   4.277   3.233   6.410
 6049SOL    HW119046   4.235   3.323   6.419
 6049SOL    HW219047   4.220   3.175   6.352
 6050SOL     OW19048   3.801   4.469   5.709
 6050SOL    HW119049   3.884   4.522   5.729
 6050SOL    HW219050   3.798   4.389   5.770
 6051SOL     OW19051   2.025   2.434   2.626
 6051SOL    HW119052   2.050   2.431   2.723
 6051SOL    HW219053   2.087   2.377   2.573
 6052SOL     OW19054   6.598   0.592   0.373
 6052SOL    HW119055   6.573   0.540   0.291
 6052SOL    HW219056   6.536   0.567   0.448
 6053SOL     OW19057   3.662   0.495   6.975
 6053SOL    HW119058   3.588   0.485   6.909
 6053SOL    HW219059   3.716   0.411   6.976
 6054SOL     OW19060   2.153   4.427   1.328
 6054SOL    HW119061   2.149   4.392   1.234
 6054SOL    HW219062   2.217   4.504   1.332
 6055SOL     OW19063   5.369   1.093   5.402
 6055SOL    HW119064   5.282   1.050   5.376
 6055SOL    HW219065   5.430   1.096   5.323
 6056SOL     OW19066   4.372   1.689   5.883
 6056SOL    HW119067   4.312   1.745   5.940
 6056SOL    HW219068   4.341   1.594   5.884
 6057SOL     OW19069   4.518   1.034   4.941
 6057SOL    HW119070   4.479   0.996   5.026
 6057SOL    HW219071   4.526   0.961   4.873
 6058SOL     OW19072   5.774   3.024   3.970
 6058SOL    HW119073   5.758   2.943   4.026
 6058SOL    HW219074   5.712   3.023   3.892
 6059SOL     OW19075   4.539   5.569   6.334
 6059SOL    HW119076   4.471   5.627   6.380
 6059SOL    HW219077   4.624   5.621   6.324
 6060SOL     OW19078   3.866   4.259   5.901
 6060SOL    HW119079   3.914   4.267   5.989
 6060SOL    HW219080   3.775   4.221   5.917
 6061SOL     OW19081   3.208   2.217   6.656
 6061SOL    HW119082   3.169   2.194   6.567
 6061SOL    HW219083   3.222   2.133   6.708
 6062SOL     OW19084   2.296   1.210   4.760
 6062SOL    HW119085   2.288   1.110   4.764
 6062SOL    HW219086   2.250   1.251   4.838
 6063SOL     OW19087   4.367   0.867   6.312
 6063SOL    HW119088   4.421   0.787   6.287
 6063SOL    HW219089   4.381   0.887   6.409
 6064SOL     OW19090   1.590   5.605   3.056
 6064SOL    HW119091   1.532   5.673   3.101
 6064SOL    HW219092   1.584   5.616   2.957
 6065SOL     OW19093   6.341   6.567   0.881
 6065SOL    HW119094   6.300   6.652   0.848
 6065SOL    HW219095   6.439   6.568   0.864
 6066SOL     OW19096   4.398   1.636   1.342
 6066SOL    HW119097   4.463   1.659   1.269
 6066SOL    HW219098   4.305   1.640   1.306
 6067SOL     OW19099   6.484   1.850   6.163
 6067SOL    HW119100   6.482   1.775   6.229
 6067SOL    HW219101   6.577   1.885   6.155
 6068SOL     OW19102   5.182   3.184   5.059
 6068SOL    HW119103   5.156   3.278   5.039
 6068SOL    HW219104   5.128   3.121   5.003
 6069SOL     OW19105   6.966   3.843   5.613
 6069SOL    HW119106   6.869   3.867   5.615
 6069SOL    HW219107   6.980   3.764   5.553
 6070SOL     OW19108   3.987   1.663   6.435
 6070SOL    HW119109   4.065   1.726   6.441
 6070SOL    HW219110   3.980   1.627   6.342
 6071SOL     OW19111   4.301   5.977   5.778
 6071SOL    HW119112   4.347   6.019   5.857
 6071SOL    HW219113   4.209   6.015   5.769
 6072SOL     OW19114   1.092   1.818   1.585
 6072SOL    HW119115   1.110   1.915   1.568
 6072SOL    HW219116   1.027   1.810   1.661
 6073SOL     OW19117   6.141   3.338   0.225
 6073SOL    HW119118   6.145   3.339   0.325
 6073SOL    HW219119   6.083   3.262   0.195
 6074SOL     OW19120   0.976   6.653   4.869
 6074SOL    HW119121   0.936   6.575   4.918
 6074SOL    HW219122   0.910   6.691   4.806
 6075SOL     OW19123   6.601   3.354   6.949
 6075SOL    HW119124   6.524   3.291   6.960
 6075SOL    HW219125   6.619   3.401   0.010
 6076SOL     OW19126   2.543   6.499   4.812
 6076SOL    HW119127   2.564   6.409   4.849
 6076SOL    HW219128   2.595   6.513   4.728
 6077SOL     OW19129   5.200   5.662   2.831
 6077SOL    HW119130   5.252   5.739   2.794
 6077SOL    HW219131   5.255   5.615   2.901
 6078SOL     OW19132   3.315   5.305   3.798
 6078SOL    HW119133   3.362   5.310   3.886
 6078SOL    HW219134   3.269   5.392   3.779
 6079SOL     OW19135   2.557   3.277   0.040
 6079SOL    HW119136   2.583   3.256   6.972
 6079SOL    HW219137   2.513   3.198   0.081
 6080SOL     OW19138   6.445   2.045   0.916
 6080SOL    HW119139   6.420   1.953   0.944
 6080SOL    HW219140   6.489   2.092   0.992
 6081SOL     OW19141   6.542   3.646   4.378
 6081SOL    HW119142   6.624   3.596   4.404
 6081SOL    HW219143   6.537   3.732   4.429
 6082SOL     OW19144   3.711   0.102   3.009
 6082SOL    HW119145   3.701   0.199   3.033
 6082SOL    HW219146   3.804   0.085   2.976
 6083SOL     OW19147   1.386   5.212   6.544
 6083SOL    HW119148   1.457   5.141   6.547
 6083SOL    HW219149   1.392   5.261   6.457
 6084SOL     OW19150   6.688   5.185   4.856
 6084SOL    HW119151   6.624   5.236   4.798
 6084SOL    HW219152   6.646   5.099   4.884
 6085SOL     OW19153   0.080   3.899   0.122
 6085SOL    HW119154   0.022   3.956   0.180
 6085SOL    HW219155   0.060   3.920   0.026
 6086SOL     OW19156   3.721   1.131   4.035
 6086SOL    HW119157   3.694   1.221   4.071
 6086SOL    HW219158   3.806   1.102   4.080
 6087SOL     OW19159   5.744   6.657   0.100
 6087SOL    HW119160   5.760   6.692   0.193
 6087SOL    HW219161   5.663   6.701   0.062
 6088SOL     OW19162   0.071   6.545   4.374
 6088SOL    HW119163   0.134   6.585   4.307
 6088SOL    HW219164   0.054   6.610   4.448
 6089SOL     OW19165   0.600   3.619   1.109
 6089SOL    HW119166   0.562   3.552   1.045
 6089SOL    HW219167   0.527   3.654   1.167
 6090SOL     OW19168   0.664   6.098   6.041
 6090SOL    HW119169   0.687   6.163   5.968
 6090SOL    HW219170   0.618   6.018   6.001
 6091SOL     OW19171   0.248   2.038   1.824
 6091SOL    HW119172   0.212   1.965   1.766
 6091SOL    HW219173   0.209   2.125   1.796
 6092SOL     OW19174   2.647   0.732   2.333
 6092SOL    HW119175   2.742   0.712   2.359
 6092SOL    HW219176   2.633   0.706   2.238
 6093SOL     OW19177   1.961   3.428   1.696
 6093SOL    HW119178   1.966   3.469   1.787
 6093SOL    HW219179   2.046   3.447   1.647
 6094SOL     OW19180   2.083   1.445   1.326
 6094SOL    HW119181   2.047   1.356   1.296
 6094SOL    HW219182   2.036   1.474   1.409
 6095SOL     OW19183   5.216   3.088   0.112
 6095SOL    HW119184   5.154   3.162   0.138
 6095SOL    HW219185   5.169   3.027   0.047
 6096SOL     OW19186   5.182   1.099   3.939
 6096SOL    HW119187   5.148   1.171   3.879
 6096SOL    HW219188   5.109   1.034   3.958
 6097SOL     OW19189   2.334   0.634   2.623
 6097SOL    HW119190   2.331   0.559   2.557
 6097SOL    HW219191   2.378   0.714   2.581
 6098SOL     OW19192   1.863   2.391   6.134
 6098SOL    HW119193   1.915   2.348   6.208
 6098SOL    HW219194   1.852   2.325   6.059
 6099SOL     OW19195   5.727   5.364   5.141
 6099SOL    HW119196   5.770   5.383   5.229
 6099SOL    HW219197   5.633   5.398   5.141
 6100SOL     OW19198   6.449   3.438   6.105
 6100SOL    HW119199   6.361   3.481   6.127
 6100SOL    HW219200   6.522   3.490   6.150
 6101SOL     OW19201   6.740   2.192   5.777
 6101SOL    HW119202   6.752   2.228   5.869
 6101SOL    HW219203   6.661   2.236   5.734
 6102SOL     OW19204   2.763   1.031   4.386
 6102SOL    HW119205   2.776   1.082   4.471
 6102SOL    HW219206   2.853   1.005   4.349
 6103SOL     OW19207   0.364   0.716   4.047
 6103SOL    HW119208   0.374   0.653   4.124
 6103SOL    HW219209   0.268   0.723   4.021
 6104SOL     OW19210   5.829   1.766   6.823
 6104SOL    HW119211   5.768   1.717   6.884
 6104SOL    HW219212   5.865   1.848   6.869
 6105SOL     OW19213   3.575   5.883   5.873
 6105SOL    HW119214   3.640   5.916   5.805
 6105SOL    HW219215   3.598   5.789   5.897
 6106SOL     OW19216   3.076   5.005   6.545
 6106SOL    HW119217   3.134   4.931   6.508
 6106SOL    HW219218   2.981   4.986   6.523
 6107SOL     OW19219   2.229   4.722   4.784
 6107SOL    HW119220   2.248   4.637   4.734
 6107SOL    HW219221   2.283   4.725   4.867
 6108SOL     OW19222   0.746   1.808   4.159
 6108SOL    HW119223   0.742   1.768   4.068
 6108SOL    HW219224   0.716   1.904   4.155
 6109SOL     OW19225   5.021   2.456   0.390
 6109SOL    HW119226   5.069   2.456   0.477
 6109SOL    HW219227   5.071   2.399   0.324
 6110SOL     OW19228   3.303   2.568   6.040
 6110SOL    HW119229   3.386   2.539   6.087
 6110SOL    HW219230   3.275   2.496   5.975
 6111SOL     OW19231   1.079   4.892   3.056
 6111SOL    HW119232   1.112   4.807   3.098
 6111SOL    HW219233   1.070   4.963   3.126
 6112SOL     OW19234   1.910   1.685   3.033
 6112SOL    HW119235   2.001   1.665   2.996
 6112SOL    HW219236   1.907   1.779   3.067
 6113SOL     OW19237   1.163   0.246   6.109
 6113SOL    HW119238   1.069   0.219   6.128
 6113SOL    HW219239   1.206   0.179   6.048
 6114SOL     OW19240   5.372   5.573   6.983
 6114SOL    HW119241   5.444   5.516   7.023
 6114SOL    HW219242   5.413   5.641   6.921
 6115SOL     OW19243   5.176   5.291   3.285
 6115SOL    HW119244   5.168   5.235   3.203
 6115SOL    HW219245   5.239   5.367   3.268
 6116SOL     OW19246   2.629   0.974   1.800
 6116SOL    HW119247   2.614   0.878   1.776
 6116SOL    HW219248   2.649   0.981   1.898
 6117SOL     OW19249   6.016   6.963   4.296
 6117SOL    HW119250   6.006   6.998   4.203
 6117SOL    HW219251   5.926   6.942   4.334
 6118SOL     OW19252   6.573   1.701   2.633
 6118SOL    HW119253   6.577   1.647   2.717
 6118SOL    HW219254   6.486   1.684   2.587
 6119SOL     OW19255   0.644   4.822   4.987
 6119SOL    HW119256   0.635   4.921   4.985
 6119SOL    HW219257   0.659   4.788   4.893
 6120SOL     OW19258   2.912   6.918   3.722
 6120SOL    HW119259   2.828   6.870   3.743
 6120SOL    HW219260   2.941   6.972   3.802
 6121SOL     OW19261   0.629   2.796   3.832
 6121SOL    HW119262   0.548   2.756   3.791
 6121SOL    HW219263   0.704   2.795   3.766
 6122SOL     OW19264   3.778   6.038   3.009
 6122SOL    HW119265   3.724   6.075   3.085
 6122SOL    HW219266   3.745   5.947   2.986
 6123SOL     OW19267   6.752   1.037   1.227
 6123SOL    HW119268   6.664   1.060   1.270
 6123SOL    HW219269   6.795   1.121   1.194
 6124SOL     OW19270   3.505   0.150   5.097
 6124SOL    HW119271   3.588   0.155   5.042
 6124SOL    HW219272   3.512   0.213   5.174
 6125SOL     OW19273   2.284   6.414   1.453
 6125SOL    HW119274   2.341   6.495   1.441
 6125SOL    HW219275   2.289   6.384   1.548
 6126SOL     OW19276   5.089   5.105   4.071
 6126SOL    HW119277   5.063   5.012   4.096
 6126SOL    HW219278   5.006   5.157   4.048
 6127SOL     OW19279   2.427   6.870   1.445
 6127SOL    HW119280   2.478   6.869   1.360
 6127SOL    HW219281   2.462   6.798   1.506
 6128SOL     OW19282   0.082   3.308   0.445
 6128SOL    HW119283   0.119   3.338   0.357
 6128SOL    HW219284   0.097   3.210   0.456
 6129SOL     OW19285   6.055   3.635   3.080
 6129SOL    HW119286   6.023   3.641   2.986
 6129SOL    HW219287   6.049   3.725   3.124
 6130SOL     OW19288   5.871   2.804   3.788
 6130SOL    HW119289   5.827   2.757   3.864
 6130SOL    HW219290   5.883   2.740   3.712
 6131SOL     OW19291   0.104   1.265   5.738
 6131SOL    HW119292   0.171   1.306   5.676
 6131SOL    HW219293   0.077   1.175   5.704
 6132SOL     OW19294   3.850   2.070   6.951
 6132SOL    HW119295   3.799   2.055   6.867
 6132SOL    HW219296   3.884   1.983   6.985
 6133SOL     OW19297   0.378   3.490   1.720
 6133SOL    HW119298   0.430   3.407   1.700
 6133SOL    HW219299   0.437   3.570   1.710
 6134SOL     OW19300   3.364   3.308   6.848
 6134SOL    HW119301   3.446   3.339   6.898
 6134SOL    HW219302   3.291   3.375   6.859
 6135SOL     OW19303   6.474   6.923   1.165
 6135SOL    HW119304   6.382   6.961   1.176
 6135SOL    HW219305   6.467   6.824   1.153
 6136SOL     OW19306   0.891   1.480   2.449
 6136SOL    HW119307   0.990   1.493   2.455
 6136SOL    HW219308   0.845   1.550   2.504
 6137SOL     OW19309   3.423   7.013   5.481
 6137SOL    HW119310   3.500   0.034   5.438
 6137SOL    HW219311   3.355   6.991   5.411
 6138SOL     OW19312   3.910   6.404   2.522
 6138SOL    HW119313   3.892   6.436   2.615
 6138SOL    HW219314   3.826   6.407   2.469
 6139SOL     OW19315   1.516   4.171   5.256
 6139SOL    HW119316   1.556   4.088   5.295
 6139SOL    HW219317   1.550   4.251   5.306
 6140SOL     OW19318   0.907   0.218   1.683
 6140SOL    HW119319   0.846   0.221   1.763
 6140SOL    HW219320   1.000   0.242   1.711
 6141SOL     OW19321   6.793   5.524   5.255
 6141SOL    HW119322   6.755   5.444   5.208
 6141SOL    HW219323   6.853   5.495   5.329
 6142SOL     OW19324   6.637   4.218   0.864
 6142SOL    HW119325   6.595   4.129   0.846
 6142SOL    HW219326   6.567   4.282   0.895
 6143SOL     OW19327   6.139   5.053   6.326
 6143SOL    HW119328   6.135   5.153   6.327
 6143SOL    HW219329   6.107   5.018   6.238
 6144SOL     OW19330   0.294   4.082   3.141
 6144SOL    HW119331   0.253   4.081   3.049
 6144SOL    HW219332   0.287   3.992   3.182
 6145SOL     OW19333   5.214   4.966   3.635
 6145SOL    HW119334   5.270   4.950   3.716
 6145SOL    HW219335   5.122   4.931   3.651
 6146SOL     OW19336   4.913   1.484   3.469
 6146SOL    HW119337   4.888   1.390   3.493
 6146SOL    HW219338   4.954   1.529   3.549
 6147SOL     OW19339   2.293   4.456   2.986
 6147SOL    HW119340   2.233   4.536   2.982
 6147SOL    HW219341   2.314   4.425   2.893
 6148SOL     OW19342   6.786   6.020   4.394
 6148SOL    HW119343   6.742   6.108   4.378
 6148SOL    HW219344   6.717   5.954   4.424
 6149SOL     OW19345   3.394   5.001   3.250
 6149SOL    HW119346   3.462   5.066   3.284
 6149SOL    HW219347   3.439   4.929   3.198
 6150SOL     OW19348   5.039   5.972   6.588
 6150SOL    HW119349   4.983   6.006   6.513
 6150SOL    HW219350   5.049   5.873   6.580
 6151SOL     OW19351   5.386   2.751   5.256
 6151SOL    HW119352   5.422   2.664   5.289
 6151SOL    HW219353   5.457   2.821   5.263
 6152SOL     OW19354   5.311   4.781   6.565
 6152SOL    HW119355   5.241   4.816   6.627
 6152SOL    HW219356   5.322   4.683   6.578
 6153SOL     OW19357   4.672   4.055   1.467
 6153SOL    HW119358   4.696   3.964   1.433
 6153SOL    HW219359   4.593   4.090   1.418
 6154SOL     OW19360   6.203   1.680   1.965
 6154SOL    HW119361   6.166   1.763   1.922
 6154SOL    HW219362   6.284   1.650   1.916
 6155SOL     OW19363   0.322   3.601   4.409
 6155SOL    HW119364   0.225   3.579   4.423
 6155SOL    HW219365   0.378   3.547   4.471
 6156SOL     OW19366   5.413   6.532   2.976
 6156SOL    HW119367   5.458   6.594   2.912
 6156SOL    HW219368   5.329   6.575   3.010
 6157SOL     OW19369   2.534   2.120   3.879
 6157SOL    HW119370   2.606   2.141   3.814
 6157SOL    HW219371   2.448   2.163   3.850
 6158SOL     OW19372   4.369   0.863   6.589
 6158SOL    HW119373   4.445   0.928   6.596
 6158SOL    HW219374   4.332   0.846   6.680
 6159SOL     OW19375   5.386   1.636   6.924
 6159SOL    HW119376   5.329   1.598   6.851
 6159SOL    HW219377   5.351   1.606   7.013
 6160SOL     OW19378   5.393   5.624   0.876
 6160SOL    HW119379   5.324   5.687   0.842
 6160SOL    HW219380   5.409   5.642   0.973
 6161SOL     OW19381   5.778   0.701   5.776
 6161SOL    HW119382   5.765   0.781   5.834
 6161SOL    HW219383   5.842   0.637   5.819
 6162SOL     OW19384   1.382   5.600   4.171
 6162SOL    HW119385   1.423   5.517   4.132
 6162SOL    HW219386   1.398   5.602   4.269
 6163SOL     OW19387   5.794   3.999   1.099
 6163SOL    HW119388   5.837   3.935   1.035
 6163SOL    HW219389   5.727   3.950   1.155
 6164SOL     OW19390   2.060   2.109   1.215
 6164SOL    HW119391   2.073   2.036   1.148
 6164SOL    HW219392   2.048   2.069   1.306
 6165SOL     OW19393   3.897   6.044   0.409
 6165SOL    HW119394   3.824   5.982   0.439
 6165SOL    HW219395   3.869   6.091   0.326
 6166SOL     OW19396   3.317   1.616   5.930
 6166SOL    HW119397   3.235   1.596   5.877
 6166SOL    HW219398   3.296   1.609   6.028
 6167SOL     OW19399   0.214   4.370   2.579
 6167SOL    HW119400   0.178   4.333   2.665
 6167SOL    HW219401   0.211   4.299   2.509
 6168SOL     OW19402   0.290   3.627   1.471
 6168SOL    HW119403   0.345   3.558   1.519
 6168SOL    HW219404   0.197   3.593   1.459
 6169SOL     OW19405   2.154   4.064   2.049
 6169SOL    HW119406   2.140   4.022   2.138
 6169SOL    HW219407   2.170   4.162   2.060
 6170SOL     OW19408   0.113   3.414   5.432
 6170SOL    HW119409   0.186   3.449   5.373
 6170SOL    HW219410   0.084   3.324   5.400
 6171SOL     OW19411   1.006   0.438   0.552
 6171SOL    HW119412   0.915   0.479   0.540
 6171SOL    HW219413   1.028   0.435   0.650
 6172SOL     OW19414   0.630   3.031   3.166
 6172SOL    HW119415   0.602   2.984   3.082
 6172SOL    HW219416   0.630   3.130   3.150
 6173SOL     OW19417   0.054   6.832   2.995
 6173SOL    HW119418   6.995   6.793   3.032
 6173SOL    HW219419   0.060   6.928   3.023
 6174SOL     OW19420   5.429   4.705   3.089
 6174SOL    HW119421   5.384   4.768   3.151
 6174SOL    HW219422   5.362   4.664   3.027
 6175SOL     OW19423   2.836   1.146   5.014
 6175SOL    HW119424   2.913   1.136   5.078
 6175SOL    HW219425   2.847   1.232   4.963
 6176SOL     OW19426   4.044   4.398   5.345
 6176SOL    HW119427   4.090   4.383   5.258
 6176SOL    HW219428   4.055   4.318   5.404
 6177SOL     OW19429   5.339   1.255   2.140
 6177SOL    HW119430   5.416   1.279   2.081
 6177SOL    HW219431   5.254   1.286   2.097
 6178SOL     OW19432   4.987   3.629   2.627
 6178SOL    HW119433   5.036   3.709   2.592
 6178SOL    HW219434   4.946   3.579   2.551
 6179SOL     OW19435   6.543   4.997   1.817
 6179SOL    HW119436   6.605   5.059   1.865
 6179SOL    HW219437   6.465   5.048   1.781
 6180SOL     OW19438   3.050   5.157   0.636
 6180SOL    HW119439   3.104   5.073   0.631
 6180SOL    HW219440   2.998   5.157   0.722
 6181SOL     OW19441   4.633   5.103   6.641
 6181SOL    HW119442   4.672   5.122   6.550
 6181SOL    HW219443   4.631   5.187   6.694
 6182SOL     OW19444   3.345   3.517   0.286
 6182SOL    HW119445   3.354   3.603   0.235
 6182SOL    HW219446   3.251   3.484   0.280
 6183SOL     OW19447   1.233   2.407   0.696
 6183SOL    HW119448   1.158   2.357   0.653
 6183SOL    HW219449   1.270   2.474   0.632
 6184SOL     OW19450   2.740   1.147   6.231
 6184SOL    HW119451   2.829   1.184   6.258
 6184SOL    HW219452   2.674   1.222   6.226
 6185SOL     OW19453   3.704   2.976   5.042
 6185SOL    HW119454   3.687   2.890   4.994
 6185SOL    HW219455   3.631   2.992   5.109
 6186SOL     OW19456   6.056   1.907   1.870
 6186SOL    HW119457   5.971   1.864   1.902
 6186SOL    HW219458   6.091   1.967   1.942
 6187SOL     OW19459   5.193   2.867   5.113
 6187SOL    HW119460   5.133   2.873   5.193
 6187SOL    HW219461   5.279   2.824   5.139
 6188SOL     OW19462   2.184   2.282   5.373
 6188SOL    HW119463   2.271   2.250   5.410
 6188SOL    HW219464   2.110   2.223   5.405
 6189SOL     OW19465   4.809   6.009   2.187
 6189SOL    HW119466   4.726   6.045   2.231
 6189SOL    HW219467   4.783   5.953   2.109
 6190SOL     OW19468   6.186   2.507   5.372
 6190SOL    HW119469   6.267   2.469   5.326
 6190SOL    HW219470   6.176   2.463   5.461
 6191SOL     OW19471   2.729   3.566   6.290
 6191SOL    HW119472   2.723   3.578   6.191
 6191SOL    HW219473   2.719   3.655   6.335
 6192SOL     OW19474   2.002   2.211   6.937
 6192SOL    HW119475   1.914   2.213   6.986
 6192SOL    HW219476   2.077   2.212   7.003
 6193SOL     OW19477   5.256   5.401   0.328
 6193SOL    HW119478   5.323   5.352   0.272
 6193SOL    HW219479   5.239   5.349   0.412
 6194SOL     OW19480   6.736   0.464   6.457
 6194SOL    HW119481   6.768   0.439   6.366
 6194SOL    HW219482   6.737   0.563   6.467
 6195SOL     OW19483   6.168   0.336   5.518
 6195SOL    HW119484   6.102   0.301   5.452
 6195SOL    HW219485   6.255   0.353   5.473
 6196SOL     OW19486   5.049   4.309   2.960
 6196SOL    HW119487   5.100   4.380   2.912
 6196SOL    HW219488   4.999   4.253   2.894
 6197SOL     OW19489   2.247   5.365   2.409
 6197SOL    HW119490   2.294   5.440   2.362
 6197SOL    HW219491   2.300   5.281   2.401
 6198SOL     OW19492   6.110   6.165   6.478
 6198SOL    HW119493   6.104   6.265   6.470
 6198SOL    HW219494   6.028   6.130   6.523
 6199SOL     OW19495   0.897   0.374   0.973
 6199SOL    HW119496   0.906   0.279   1.003
 6199SOL    HW219497   0.989   0.413   0.961
 6200SOL     OW19498   1.746   1.968   1.867
 6200SOL    HW119499   1.837   1.988   1.905
 6200SOL    HW219500   1.677   1.978   1.938
 6201SOL     OW19501   6.701   3.778   4.177
 6201SOL    HW119502   6.618   3.775   4.232
 6201SOL    HW219503   6.693   3.714   4.100
 6202SOL     OW19504   6.559   1.235   3.091
 6202SOL    HW119505   6.471   1.188   3.082
 6202SOL    HW219506   6.607   1.200   3.172
 6203SOL     OW19507   6.447   5.420   1.985
 6203SOL    HW119508   6.418   5.346   2.046
 6203SOL    HW219509   6.406   5.406   1.895
 6204SOL     OW19510   1.463   6.777   5.411
 6204SOL    HW119511   1.372   6.803   5.446
 6204SOL    HW219512   1.497   6.698   5.461
 6205SOL     OW19513   4.989   3.867   2.241
 6205SOL    HW119514   4.934   3.950   2.248
 6205SOL    HW219515   5.031   3.846   2.329
 6206SOL     OW19516   5.053   1.936   3.758
 6206SOL    HW119517   5.143   1.971   3.785
 6206SOL    HW219518   5.030   1.970   3.667
 6207SOL     OW19519   1.415   5.890   4.482
 6207SOL    HW119520   1.395   5.793   4.470
 6207SOL    HW219521   1.501   5.913   4.438
 6208SOL     OW19522   3.788   2.901   5.647
 6208SOL    HW119523   3.862   2.835   5.660
 6208SOL    HW219524   3.725   2.868   5.577
 6209SOL     OW19525   3.834   4.344   1.273
 6209SOL    HW119526   3.921   4.352   1.322
 6209SOL    HW219527   3.777   4.275   1.318
 6210SOL     OW19528   4.851   2.907   3.308
 6210SOL    HW119529   4.949   2.893   3.320
 6210SOL    HW219530   4.821   2.864   3.223
 6211SOL     OW19531   4.676   5.738   4.879
 6211SOL    HW119532   4.759   5.791   4.896
 6211SOL    HW219533   4.684   5.691   4.791
 6212SOL     OW19534   3.392   5.259   5.930
 6212SOL    HW119535   3.407   5.229   5.836
 6212SOL    HW219536   3.303   5.304   5.936
 6213SOL     OW19537   4.389   5.940   0.831
 6213SOL    HW119538   4.304   5.911   0.875
 6213SOL    HW219539   4.377   6.031   0.792
 6214SOL     OW19540   5.917   6.271   5.263
 6214SOL    HW119541   5.836   6.220   5.235
 6214SOL    HW219542   5.999   6.231   5.221
 6215SOL     OW19543   5.232   2.391   6.129
 6215SOL    HW119544   5.289   2.387   6.211
 6215SOL    HW219545   5.227   2.486   6.097
 6216SOL     OW19546   5.317   3.087   3.402
 6216SOL    HW119547   5.384   3.094   3.328
 6216SOL    HW219548   5.253   3.012   3.382
 6217SOL     OW19549   0.914   4.407   2.567
 6217SOL    HW119550   0.940   4.494   2.526
 6217SOL    HW219551   0.842   4.364   2.513
 6218SOL     OW19552   5.055   6.526   0.317
 6218SOL    HW119553   4.983   6.519   0.386
 6218SOL    HW219554   5.013   6.523   0.226
 6219SOL     OW19555   1.116   0.882   5.127
 6219SOL    HW119556   1.166   0.837   5.053
 6219SOL    HW219557   1.157   0.857   5.215
 6220SOL     OW19558   3.731   1.291   0.967
 6220SOL    HW119559   3.731   1.388   0.988
 6220SOL    HW219560   3.652   1.268   0.911
 6221SOL     OW19561   6.520   6.030   6.729
 6221SOL    HW119562   6.438   6.031   6.672
 6221SOL    HW219563   6.532   6.119   6.773
 6222SOL     OW19564   6.011   1.116   2.491
 6222SOL    HW119565   5.977   1.156   2.577
 6222SOL    HW219566   5.941   1.056   2.453
 6223SOL     OW19567   0.203   4.946   4.041
 6223SOL    HW119568   0.224   4.851   4.063
 6223SOL    HW219569   0.207   5.002   4.124
 6224SOL     OW19570   4.498   2.000   6.569
 6224SOL    HW119571   4.406   1.965   6.548
 6224SOL    HW219572   4.558   1.924   6.594
 6225SOL     OW19573   3.585   0.015   6.584
 6225SOL    HW119574   3.669   7.005   6.624
 6225SOL    HW219575   3.539   0.075   6.650
 6226SOL     OW19576   1.324   1.045   3.771
 6226SOL    HW119577   1.337   1.130   3.720
 6226SOL    HW219578   1.400   1.032   3.834
 6227SOL     OW19579   2.758   3.816   5.488
 6227SOL    HW119580   2.689   3.860   5.432
 6227SOL    HW219581   2.766   3.865   5.575
 6228SOL     OW19582   2.177   2.569   3.897
 6228SOL    HW119583   2.208   2.555   3.991
 6228SOL    HW219584   2.231   2.641   3.854
 6229SOL     OW19585   0.388   3.608   4.842
 6229SOL    HW119586   0.307   3.656   4.808
 6229SOL    HW219587   0.364   3.559   4.926
 6230SOL     OW19588   0.519   1.150   1.881
 6230SOL    HW119589   0.451   1.107   1.822
 6230SOL    HW219590   0.490   1.243   1.903
 6231SOL     OW19591   6.187   4.838   7.001
 6231SOL    HW119592   6.195   4.745   6.967
 6231SOL    HW219593   6.258   4.895   6.959
 6232SOL     OW19594   5.570   0.880   0.217
 6232SOL    HW119595   5.563   0.841   0.125
 6232SOL    HW219596   5.609   0.972   0.211
 6233SOL     OW19597   0.061   3.508   1.472
 6233SOL    HW119598   0.106   3.438   1.528
 6233SOL    HW219599   7.013   3.550   1.524
 6234SOL     OW19600   6.517   6.780   4.676
 6234SOL    HW119601   6.599   6.808   4.626
 6234SOL    HW219602   6.451   6.855   4.675
 6235SOL     OW19603   6.607   0.773   2.393
 6235SOL    HW119604   6.665   0.854   2.387
 6235SOL    HW219605   6.590   0.752   2.489
 6236SOL     OW19606   0.593   4.540   0.700
 6236SOL    HW119607   0.562   4.483   0.777
 6236SOL    HW219608   0.561   4.634   0.714
 6237SOL     OW19609   3.820   0.523   1.394
 6237SOL    HW119610   3.857   0.448   1.339
 6237SOL    HW219611   3.895   0.580   1.426
 6238SOL     OW19612   2.625   6.478   4.332
 6238SOL    HW119613   2.527   6.477   4.315
 6238SOL    HW219614   2.672   6.523   4.255
 6239SOL     OW19615   5.144   0.588   2.473
 6239SOL    HW119616   5.177   0.656   2.539
 6239SOL    HW219617   5.098   0.514   2.522
 6240SOL     OW19618   3.890   2.983   4.479
 6240SOL    HW119619   3.930   3.017   4.564
 6240SOL    HW219620   3.795   2.958   4.495
 6241SOL     OW19621   2.257   6.718   3.632
 6241SOL    HW119622   2.343   6.759   3.601
 6241SOL    HW219623   2.205   6.784   3.686
 6242SOL     OW19624   2.854   1.864   3.365
 6242SOL    HW119625   2.869   1.816   3.278
 6242SOL    HW219626   2.936   1.917   3.388
 6243SOL     OW19627   5.844   1.686   6.143
 6243SOL    HW119628   5.940   1.659   6.136
 6243SOL    HW219629   5.823   1.710   6.238
 6244SOL     OW19630   4.257   4.679   2.486
 6244SOL    HW119631   4.166   4.722   2.487
 6244SOL    HW219632   4.273   4.639   2.396
 6245SOL     OW19633   0.947   4.543   1.944
 6245SOL    HW119634   1.004   4.461   1.936
 6245SOL    HW219635   0.861   4.521   1.991
 6246SOL     OW19636   1.091   6.545   4.627
 6246SOL    HW119637   1.053   6.577   4.714
 6246SOL    HW219638   1.107   6.447   4.632
 6247SOL     OW19639   6.894   5.780   3.763
 6247SOL    HW119640   6.901   5.701   3.824
 6247SOL    HW219641   6.972   5.840   3.777
 6248SOL     OW19642   3.682   3.220   6.897
 6248SOL    HW119643   3.622   3.142   6.883
 6248SOL    HW219644   3.646   3.277   6.972
 6249SOL     OW19645   6.807   2.536   0.710
 6249SOL    HW119646   6.856   2.508   0.793
 6249SOL    HW219647   6.788   2.634   0.715
 6250SOL     OW19648   0.005   0.183   0.745
 6250SOL    HW119649   0.083   0.163   0.686
 6250SOL    HW219650   6.978   0.259   0.707
 6251SOL     OW19651   2.886   6.822   4.329
 6251SOL    HW119652   2.842   6.894   4.382
 6251SOL    HW219653   2.948   6.770   4.389
 6252SOL     OW19654   2.659   5.253   6.951
 6252SOL    HW119655   2.606   5.173   6.977
 6252SOL    HW219656   2.718   5.231   6.874
 6253SOL     OW19657   3.168   4.885   4.595
 6253SOL    HW119658   3.248   4.896   4.537
 6253SOL    HW219659   3.116   4.970   4.597
 6254SOL     OW19660   0.565   5.905   1.083
 6254SOL    HW119661   0.561   5.980   1.150
 6254SOL    HW219662   0.660   5.885   1.061
 6255SOL     OW19663   0.461   1.830   0.899
 6255SOL    HW119664   0.400   1.757   0.868
 6255SOL    HW219665   0.452   1.909   0.838
 6256SOL     OW19666   4.818   5.350   3.159
 6256SOL    HW119667   4.868   5.318   3.079
 6256SOL    HW219668   4.725   5.314   3.158
 6257SOL     OW19669   4.062   4.050   1.236
 6257SOL    HW119670   4.065   4.135   1.290
 6257SOL    HW219671   4.004   3.983   1.281
 6258SOL     OW19672   4.139   6.727   6.114
 6258SOL    HW119673   4.206   6.666   6.072
 6258SOL    HW219674   4.049   6.712   6.073
 6259SOL     OW19675   2.296   0.091   5.347
 6259SOL    HW119676   2.257   0.178   5.318
 6259SOL    HW219677   2.249   0.060   5.430
 6260SOL     OW19678   2.046   1.136   0.179
 6260SOL    HW119679   2.065   1.221   0.228
 6260SOL    HW219680   2.109   1.064   0.210
 6261SOL     OW19681   3.867   6.362   1.567
 6261SOL    HW119682   3.790   6.418   1.537
 6261SOL    HW219683   3.931   6.349   1.492
 6262SOL     OW19684   6.340   6.429   2.121
 6262SOL    HW119685   6.390   6.501   2.071
 6262SOL    HW219686   6.292   6.370   2.056
 6263SOL     OW19687   7.011   5.733   4.634
 6263SOL    HW119688   6.987   5.636   4.633
 6263SOL    HW219689   6.999   5.770   4.726
 6264SOL     OW19690   1.131   0.214   1.247
 6264SOL    HW119691   1.043   0.186   1.208
 6264SOL    HW219692   1.202   0.148   1.220
 6265SOL     OW19693   4.536   1.635   0.305
 6265SOL    HW119694   4.542   1.536   0.314
 6265SOL    HW219695   4.442   1.662   0.287
 6266SOL     OW19696   2.939   5.397   3.524
 6266SOL    HW119697   2.876   5.319   3.531
 6266SOL    HW219698   2.904   5.461   3.456
 6267SOL     OW19699   1.458   6.688   5.086
 6267SOL    HW119700   1.446   6.729   5.177
 6267SOL    HW219701   1.422   6.595   5.086
 6268SOL     OW19702   2.965   0.444   1.936
 6268SOL    HW119703   2.931   0.434   2.029
 6268SOL    HW219704   2.892   0.478   1.877
 6269SOL     OW19705   5.674   5.798   1.558
 6269SOL    HW119706   5.584   5.762   1.584
 6269SOL    HW219707   5.667   5.846   1.470
 6270SOL     OW19708   1.667   6.180   0.446
 6270SOL    HW119709   1.635   6.085   0.445
 6270SOL    HW219710   1.609   6.236   0.387
 6271SOL     OW19711   6.126   3.182   6.554
 6271SOL    HW119712   6.059   3.238   6.507
 6271SOL    HW219713   6.109   3.184   6.652
 6272SOL     OW19714   5.911   0.161   0.213
 6272SOL    HW119715   5.903   0.246   0.265
 6272SOL    HW219716   6.005   0.150   0.181
 6273SOL     OW19717   0.027   0.312   1.596
 6273SOL    HW119718   0.060   0.404   1.617
 6273SOL    HW219719   6.994   0.316   1.515
 6274SOL     OW19720   3.752   5.887   5.045
 6274SOL    HW119721   3.817   5.902   4.970
 6274SOL    HW219722   3.686   5.962   5.046
 6275SOL     OW19723   2.026   5.911   0.688
 6275SOL    HW119724   2.006   5.815   0.667
 6275SOL    HW219725   1.946   5.968   0.666
 6276SOL     OW19726   2.108   5.389   2.877
 6276SOL    HW119727   2.027   5.360   2.928
 6276SOL    HW219728   2.151   5.466   2.923
 6277SOL     OW19729   5.185   2.558   1.136
 6277SOL    HW119730   5.234   2.559   1.223
 6277SOL    HW219731   5.087   2.567   1.153
 6278SOL     OW19732   2.857   6.743   5.375
 6278SOL    HW119733   2.936   6.725   5.316
 6278SOL    HW219734   2.884   6.735   5.471
 6279SOL     OW19735   3.163   6.605   1.742
 6279SOL    HW119736   3.147   6.672   1.814
 6279SOL    HW219737   3.164   6.650   1.653
 6280SOL     OW19738   7.024   1.681   6.541
 6280SOL    HW119739   0.075   1.663   6.602
 6280SOL    HW219740   6.940   1.643   6.580
 6281SOL     OW19741   6.141   4.156   5.536
 6281SOL    HW119742   6.226   4.188   5.495
 6281SOL    HW219743   6.069   4.224   5.519
 6282SOL     OW19744   0.966   3.560   6.351
 6282SOL    HW119745   0.952   3.595   6.444
 6282SOL    HW219746   1.055   3.591   6.317
 6283SOL     OW19747   1.401   6.061   6.052
 6283SOL    HW119748   1.307   6.079   6.079
 6283SOL    HW219749   1.426   5.967   6.077
 6284SOL     OW19750   2.485   4.153   0.239
 6284SOL    HW119751   2.519   4.067   0.202
 6284SOL    HW219752   2.389   4.142   0.265
 6285SOL     OW19753   1.433   3.385   3.076
 6285SOL    HW119754   1.444   3.484   3.077
 6285SOL    HW219755   1.450   3.348   3.168
 6286SOL     OW19756   0.689   3.124   4.807
 6286SOL    HW119757   0.788   3.124   4.793
 6286SOL    HW219758   0.652   3.034   4.782
 6287SOL     OW19759   4.492   4.928   5.130
 6287SOL    HW119760   4.456   4.984   5.204
 6287SOL    HW219761   4.429   4.931   5.052
 6288SOL     OW19762   3.663   3.180   6.488
 6288SOL    HW119763   3.659   3.110   6.417
 6288SOL    HW219764   3.753   3.181   6.530
 6289SOL     OW19765   2.787   4.702   6.280
 6289SOL    HW119766   2.819   4.748   6.363
 6289SOL    HW219767   2.773   4.769   6.208
 6290SOL     OW19768   5.485   5.516   5.169
 6290SOL    HW119769   5.433   5.492   5.251
 6290SOL    HW219770   5.448   5.600   5.130
 6291SOL     OW19771   3.304   3.390   2.846
 6291SOL    HW119772   3.340   3.381   2.939
 6291SOL    HW219773   3.344   3.470   2.803
 6292SOL     OW19774   2.146   3.325   4.508
 6292SOL    HW119775   2.093   3.299   4.588
 6292SOL    HW219776   2.182   3.243   4.463
 6293SOL     OW19777   5.133   1.137   6.986
 6293SOL    HW119778   5.048   1.125   0.012
 6293SOL    HW219779   5.198   1.067   7.013
 6294SOL     OW19780   2.548   1.478   3.535
 6294SOL    HW119781   2.624   1.537   3.562
 6294SOL    HW219782   2.549   1.464   3.436
 6295SOL     OW19783   5.965   4.393   5.552
 6295SOL    HW119784   6.045   4.427   5.502
 6295SOL    HW219785   5.897   4.466   5.561
 6296SOL     OW19786   0.451   2.695   6.604
 6296SOL    HW119787   0.488   2.656   6.688
 6296SOL    HW219788   0.355   2.719   6.618
 6297SOL     OW19789   5.835   0.679   4.261
 6297SOL    HW119790   5.871   0.590   4.233
 6297SOL    HW219791   5.859   0.696   4.356
 6298SOL     OW19792   5.968   4.622   0.264
 6298SOL    HW119793   5.914   4.666   0.336
 6298SOL    HW219794   5.920   4.629   0.177
 6299SOL     OW19795   4.831   2.189   2.793
 6299SOL    HW119796   4.807   2.193   2.890
 6299SOL    HW219797   4.749   2.193   2.737
 6300SOL     OW19798   3.428   0.121   5.809
 6300SOL    HW119799   3.332   0.149   5.819
 6300SOL    HW219800   3.433   0.024   5.785
 6301SOL     OW19801   3.400   6.774   0.651
 6301SOL    HW119802   3.465   6.846   0.674
 6301SOL    HW219803   3.401   6.759   0.552
 6302SOL     OW19804   3.090   1.272   5.628
 6302SOL    HW119805   3.069   1.322   5.543
 6302SOL    HW219806   3.176   1.223   5.618
 6303SOL     OW19807   1.527   5.838   6.163
 6303SOL    HW119808   1.602   5.839   6.229
 6303SOL    HW219809   1.441   5.858   6.211
 6304SOL     OW19810   4.108   0.808   3.265
 6304SOL    HW119811   4.045   0.813   3.187
 6304SOL    HW219812   4.152   0.897   3.278
 6305SOL     OW19813   0.657   5.719   5.607
 6305SOL    HW119814   0.648   5.797   5.545
 6305SOL    HW219815   0.732   5.737   5.671
 6306SOL     OW19816   6.600   4.789   3.970
 6306SOL    HW119817   6.626   4.692   3.976
 6306SOL    HW219818   6.680   4.844   3.946
 6307SOL     OW19819   4.043   3.675   3.210
 6307SOL    HW119820   4.108   3.602   3.190
 6307SOL    HW219821   4.010   3.715   3.125
 6308SOL     OW19822   0.381   2.758   0.218
 6308SOL    HW119823   0.292   2.755   0.174
 6308SOL    HW219824   0.390   2.843   0.269
 6309SOL     OW19825   1.362   6.441   4.771
 6309SOL    HW119826   1.304   6.505   4.821
 6309SOL    HW219827   1.305   6.373   4.725
 6310SOL     OW19828   1.847   0.066   3.029
 6310SOL    HW119829   1.932   0.014   3.034
 6310SOL    HW219830   1.826   0.085   2.933
 6311SOL     OW19831   5.490   1.254   5.804
 6311SOL    HW119832   5.436   1.284   5.725
 6311SOL    HW219833   5.478   1.320   5.879
 6312SOL     OW19834   3.328   6.691   6.847
 6312SOL    HW119835   3.256   6.716   6.783
 6312SOL    HW219836   3.402   6.644   6.798
 6313SOL     OW19837   5.634   6.005   3.110
 6313SOL    HW119838   5.698   6.066   3.156
 6313SOL    HW219839   5.618   5.924   3.168
 6314SOL     OW19840   2.388   0.288   1.566
 6314SOL    HW119841   2.306   0.331   1.604
 6314SOL    HW219842   2.451   0.266   1.640
 6315SOL     OW19843   2.350   2.801   3.824
 6315SOL    HW119844   2.367   2.824   3.920
 6315SOL    HW219845   2.296   2.873   3.781
 6316SOL     OW19846   5.482   1.738   4.735
 6316SOL    HW119847   5.433   1.655   4.758
 6316SOL    HW219848   5.523   1.729   4.644
 6317SOL     OW19849   5.248   4.186   1.848
 6317SOL    HW119850   5.161   4.149   1.882
 6317SOL    HW219851   5.302   4.217   1.926
 6318SOL     OW19852   6.463   0.222   5.991
 6318SOL    HW119853   6.391   0.152   6.000
 6318SOL    HW219854   6.502   0.241   6.080
 6319SOL     OW19855   5.743   2.269   4.365
 6319SOL    HW119856   5.794   2.302   4.286
 6319SOL    HW219857   5.805   2.219   4.426
 6320SOL     OW19858   6.793   1.283   4.072
 6320SOL    HW119859   6.856   1.301   3.996
 6320SOL    HW219860   6.736   1.364   4.087
 6321SOL     OW19861   5.511   2.132   0.721
 6321SOL    HW119862   5.458   2.057   0.762
 6321SOL    HW219863   5.460   2.217   0.732
 6322SOL     OW19864   1.792   1.048   1.193
 6322SOL    HW119865   1.735   1.049   1.275
 6322SOL    HW219866   1.732   1.046   1.112
 6323SOL     OW19867   2.555   2.788   1.224
 6323SOL    HW119868   2.648   2.752   1.220
 6323SOL    HW219869   2.547   2.850   1.302
 6324SOL     OW19870   4.512   1.448   1.047
 6324SOL    HW119871   4.448   1.494   0.985
 6324SOL    HW219872   4.562   1.516   1.100
 6325SOL     OW19873   1.685   2.460   3.209
 6325SOL    HW119874   1.650   2.444   3.116
 6325SOL    HW219875   1.717   2.373   3.247
 6326SOL     OW19876   5.496   5.292   5.760
 6326SOL    HW119877   5.498   5.359   5.685
 6326SOL    HW219878   5.405   5.292   5.801
 6327SOL     OW19879   6.968   0.704   3.128
 6327SOL    HW119880   6.924   0.622   3.091
 6327SOL    HW219881   0.041   0.696   3.119
 6328SOL     OW19882   4.232   2.992   6.005
 6328SOL    HW119883   4.288   3.031   5.932
 6328SOL    HW219884   4.155   3.053   6.025
 6329SOL     OW19885   1.305   2.849   5.577
 6329SOL    HW119886   1.229   2.913   5.578
 6329SOL    HW219887   1.380   2.885   5.633
 6330SOL     OW19888   5.324   0.588   3.473
 6330SOL    HW119889   5.413   0.591   3.519
 6330SOL    HW219890   5.286   0.496   3.480
 6331SOL     OW19891   6.835   3.121   2.871
 6331SOL    HW119892   6.859   3.213   2.901
 6331SOL    HW219893   6.860   3.055   2.941
 6332SOL     OW19894   2.114   1.987   0.881
 6332SOL    HW119895   2.092   1.934   0.799
 6332SOL    HW219896   2.164   1.929   0.946
 6333SOL     OW19897   5.137   0.816   0.690
 6333SOL    HW119898   5.153   0.717   0.683
 6333SOL    HW219899   5.210   0.857   0.744
 6334SOL     OW19900   2.614   1.357   1.869
 6334SOL    HW119901   2.652   1.404   1.949
 6334SOL    HW219902   2.585   1.424   1.801
 6335SOL     OW19903   5.708   1.396   0.496
 6335SOL    HW119904   5.769   1.317   0.506
 6335SOL    HW219905   5.762   1.476   0.471
 6336SOL     OW19906   0.859   3.301   6.214
 6336SOL    HW119907   0.890   3.351   6.294
 6336SOL    HW219908   0.884   3.351   6.131
 6337SOL     OW19909   4.959   5.410   5.261
 6337SOL    HW119910   5.014   5.491   5.243
 6337SOL    HW219911   4.982   5.338   5.196
 6338SOL     OW19912   3.220   1.858   3.899
 6338SOL    HW119913   3.159   1.813   3.833
 6338SOL    HW219914   3.187   1.840   3.992
 6339SOL     OW19915   1.160   4.478   3.498
 6339SOL    HW119916   1.218   4.453   3.575
 6339SOL    HW219917   1.066   4.450   3.516
 6340SOL     OW19918   2.415   4.300   1.338
 6340SOL    HW119919   2.404   4.205   1.366
 6340SOL    HW219920   2.326   4.346   1.340
 6341SOL     OW19921   1.216   4.628   3.879
 6341SOL    HW119922   1.256   4.635   3.970
 6341SOL    HW219923   1.151   4.551   3.877
 6342SOL     OW19924   1.824   1.502   1.965
 6342SOL    HW119925   1.772   1.587   1.980
 6342SOL    HW219926   1.890   1.517   1.892
 6343SOL     OW19927   2.618   5.900   0.504
 6343SOL    HW119928   2.625   5.962   0.583
 6343SOL    HW219929   2.572   5.947   0.429
 6344SOL     OW19930   6.985   1.504   3.553
 6344SOL    HW119931   6.996   1.531   3.649
 6344SOL    HW219932   0.049   1.502   3.509
 6345SOL     OW19933   5.921   3.787   1.672
 6345SOL    HW119934   5.826   3.798   1.703
 6345SOL    HW219935   5.984   3.808   1.747
 6346SOL     OW19936   7.014   4.503   5.778
 6346SOL    HW119937   0.047   4.583   5.789
 6346SOL    HW219938   0.004   4.463   5.688
 6347SOL     OW19939   2.747   2.366   2.822
 6347SOL    HW119940   2.721   2.276   2.857
 6347SOL    HW219941   2.741   2.433   2.895
 6348SOL     OW19942   0.144   2.230   5.403
 6348SOL    HW119943   0.218   2.289   5.434
 6348SOL    HW219944   0.168   2.135   5.418
 6349SOL     OW19945   7.003   0.651   6.932
 6349SOL    HW119946   7.019   0.740   6.973
 6349SOL    HW219947   6.910   0.620   6.952
 6350SOL     OW19948   1.220   4.395   1.988
 6350SOL    HW119949   1.248   4.453   2.064
 6350SOL    HW219950   1.255   4.432   1.902
 6351SOL     OW19951   5.657   3.268   2.570
 6351SOL    HW119952   5.646   3.216   2.654
 6351SOL    HW219953   5.609   3.356   2.578
 6352SOL     OW19954   2.173   0.661   4.650
 6352SOL    HW119955   2.199   0.618   4.564
 6352SOL    HW219956   2.133   0.592   4.711
 6353SOL     OW19957   3.182   5.834   6.717
 6353SOL    HW119958   3.222   5.916   6.759
 6353SOL    HW219959   3.216   5.753   6.765
 6354SOL     OW19960   4.969   4.301   2.571
 6354SOL    HW119961   4.972   4.234   2.645
 6354SOL    HW219962   4.909   4.377   2.597
 6355SOL     OW19963   2.648   4.815   0.858
 6355SOL    HW119964   2.723   4.759   0.894
 6355SOL    HW219965   2.562   4.786   0.899
 6356SOL     OW19966   5.392   4.259   6.726
 6356SOL    HW119967   5.322   4.188   6.726
 6356SOL    HW219968   5.417   4.282   6.820
 6357SOL     OW19969   5.618   1.804   1.771
 6357SOL    HW119970   5.556   1.817   1.694
 6357SOL    HW219971   5.585   1.730   1.829
 6358SOL     OW19972   1.609   2.700   6.588
 6358SOL    HW119973   1.565   2.642   6.657
 6358SOL    HW219974   1.539   2.751   6.538
 6359SOL     OW19975   5.773   6.120   0.437
 6359SOL    HW119976   5.675   6.107   0.446
 6359SOL    HW219977   5.806   6.067   0.359
 6360SOL     OW19978   0.601   2.378   2.756
 6360SOL    HW119979   0.571   2.290   2.719
 6360SOL    HW219980   0.549   2.452   2.712
 6361SOL     OW19981   0.681   0.330   6.820
 6361SOL    HW119982   0.631   0.351   6.736
 6361SOL    HW219983   0.706   0.233   6.821
 6362SOL     OW19984   1.276   5.523   6.659
 6362SOL    HW119985   1.359   5.579   6.657
 6362SOL    HW219986   1.206   5.570   6.713
 6363SOL     OW19987   3.062   5.283   3.923
 6363SOL    HW119988   3.138   5.257   3.863
 6363SOL    HW219989   2.983   5.225   3.904
 6364SOL     OW19990   2.597   2.461   4.888
 6364SOL    HW119991   2.629   2.431   4.978
 6364SOL    HW219992   2.560   2.554   4.895
 6365SOL     OW19993   5.989   5.028   3.752
 6365SOL    HW119994   5.903   5.046   3.801
 6365SOL    HW219995   6.064   5.025   3.818
 6366SOL     OW19996   6.129   6.852   4.533
 6366SOL    HW119997   6.200   6.908   4.576
 6366SOL    HW219998   6.102   6.893   4.446
 6367SOL     OW19999   3.024   1.795   2.872
 6367SOL    HW120000   3.102   1.854   2.853
 6367SOL    HW220001   2.950   1.815   2.808
 6368SOL     OW20002   5.009   3.337   4.829
 6368SOL    HW120003   4.992   3.344   4.927
 6368SOL    HW220004   5.098   3.378   4.808
 6369SOL     OW20005   3.135   5.904   6.089
 6369SOL    HW120006   3.190   5.896   6.006
 6369SOL    HW220007   3.066   5.831   6.090
 6370SOL     OW20008   5.651   3.542   3.805
 6370SOL    HW120009   5.598   3.579   3.729
 6370SOL    HW220010   5.601   3.465   3.845
 6371SOL     OW20011   5.644   3.746   1.627
 6371SOL    HW120012   5.638   3.646   1.618
 6371SOL    HW220013   5.584   3.776   1.701
 6372SOL     OW20014   6.864   0.684   2.729
 6372SOL    HW120015   6.770   0.655   2.715
 6372SOL    HW220016   6.866   0.780   2.757
 6373SOL     OW20017   5.181   3.730   1.369
 6373SOL    HW120018   5.113   3.693   1.306
 6373SOL    HW220019   5.235   3.800   1.322
 6374SOL     OW20020   4.655   2.844   0.513
 6374SOL    HW120021   4.669   2.937   0.478
 6374SOL    HW220022   4.736   2.816   0.564
 6375SOL     OW20023   6.734   2.874   2.259
 6375SOL    HW120024   6.693   2.950   2.309
 6375SOL    HW220025   6.664   2.807   2.235
 6376SOL     OW20026   3.464   0.811   5.957
 6376SOL    HW120027   3.367   0.811   5.934
 6376SOL    HW220028   3.491   0.719   5.986
 6377SOL     OW20029   6.785   0.328   0.431
 6377SOL    HW120030   6.712   0.261   0.416
 6377SOL    HW220031   6.852   0.321   0.357
 6378SOL     OW20032   5.640   5.401   3.174
 6378SOL    HW120033   5.550   5.374   3.140
 6378SOL    HW220034   5.684   5.461   3.107
 6379SOL     OW20035   3.208   6.068   6.877
 6379SOL    HW120036   3.123   6.085   6.926
 6379SOL    HW220037   3.281   6.045   6.942
 6380SOL     OW20038   1.199   3.087   5.214
 6380SOL    HW120039   1.255   3.025   5.268
 6380SOL    HW220040   1.132   3.035   5.160
 6381SOL     OW20041   4.507   3.147   0.255
 6381SOL    HW120042   4.474   3.123   0.164
 6381SOL    HW220043   4.508   3.247   0.265
 6382SOL     OW20044   2.275   1.287   1.460
 6382SOL    HW120045   2.265   1.325   1.368
 6382SOL    HW220046   2.277   1.361   1.527
 6383SOL     OW20047   1.901   1.902   2.467
 6383SOL    HW120048   1.900   1.960   2.548
 6383SOL    HW220049   1.967   1.938   2.401
 6384SOL     OW20050   6.309   2.494   2.163
 6384SOL    HW120051   6.245   2.568   2.140
 6384SOL    HW220052   6.271   2.407   2.132
 6385SOL     OW20053   0.055   3.015   0.960
 6385SOL    HW120054   7.003   3.032   1.021
 6385SOL    HW220055   0.115   2.946   1.001
 6386SOL     OW20056   2.123   3.323   0.113
 6386SOL    HW120057   2.071   3.239   0.099
 6386SOL    HW220058   2.094   3.391   0.045
 6387SOL     OW20059   6.348   0.665   6.549
 6387SOL    HW120060   6.366   0.572   6.582
 6387SOL    HW220061   6.428   0.700   6.500
 6388SOL     OW20062   6.375   5.389   2.718
 6388SOL    HW120063   6.403   5.307   2.768
 6388SOL    HW220064   6.403   5.470   2.768
 6389SOL     OW20065   1.370   0.739   6.471
 6389SOL    HW120066   1.336   0.829   6.500
 6389SOL    HW220067   1.435   0.751   6.395
 6390SOL     OW20068   6.733   1.130   6.617
 6390SOL    HW120069   6.734   1.093   6.524
 6390SOL    HW220070   6.700   1.224   6.614
 6391SOL     OW20071   1.632   1.858   4.994
 6391SOL    HW120072   1.631   1.864   5.094
 6391SOL    HW220073   1.613   1.949   4.955
 6392SOL     OW20074   3.506   6.127   3.693
 6392SOL    HW120075   3.499   6.038   3.737
 6392SOL    HW220076   3.548   6.193   3.756
 6393SOL     OW20077   6.511   5.850   1.600
 6393SOL    HW120078   6.428   5.852   1.544
 6393SOL    HW220079   6.538   5.943   1.624
 6394SOL     OW20080   1.102   5.170   1.165
 6394SOL    HW120081   1.164   5.152   1.089
 6394SOL    HW220082   1.069   5.084   1.203
 6395SOL     OW20083   1.699   4.056   3.160
 6395SOL    HW120084   1.679   4.072   3.063
 6395SOL    HW220085   1.796   4.037   3.172
 6396SOL     OW20086   6.814   3.985   0.434
 6396SOL    HW120087   6.864   4.027   0.359
 6396SOL    HW220088   6.794   3.889   0.412
 6397SOL     OW20089   5.873   2.173   3.664
 6397SOL    HW120090   5.806   2.247   3.668
 6397SOL    HW220091   5.946   2.190   3.730
 6398SOL     OW20092   0.811   7.015   1.213
 6398SOL    HW120093   0.837   7.012   1.309
 6398SOL    HW220094   0.796   6.922   1.179
 6399SOL     OW20095   2.463   0.728   6.153
 6399SOL    HW120096   2.512   0.651   6.112
 6399SOL    HW220097   2.529   0.796   6.185
 6400SOL     OW20098   1.523   5.329   3.260
 6400SOL    HW120099   1.468   5.368   3.334
 6400SOL    HW220100   1.553   5.401   3.198
 6401SOL     OW20101   3.882   5.618   3.408
 6401SOL    HW120102   3.808   5.652   3.351
 6401SOL    HW220103   3.868   5.521   3.428
 6402SOL     OW20104   2.242   4.429   4.993
 6402SOL    HW120105   2.232   4.347   5.050
 6402SOL    HW220106   2.263   4.401   4.899
 6403SOL     OW20107   5.053   6.310   4.964
 6403SOL    HW120108   5.052   6.250   5.044
 6403SOL    HW220109   5.141   6.358   4.960
 6404SOL     OW20110   3.894   0.506   2.487
 6404SOL    HW120111   3.938   0.500   2.398
 6404SOL    HW220112   3.865   0.415   2.517
 6405SOL     OW20113   5.489   1.327   2.371
 6405SOL    HW120114   5.429   1.369   2.438
 6405SOL    HW220115   5.435   1.280   2.302
 6406SOL     OW20116   1.100   2.771   2.700
 6406SOL    HW120117   1.007   2.781   2.664
 6406SOL    HW220118   1.160   2.838   2.658
 6407SOL     OW20119   1.994   5.835   2.895
 6407SOL    HW120120   1.985   5.932   2.871
 6407SOL    HW220121   1.938   5.816   2.977
 6408SOL     OW20122   6.540   0.548   0.644
 6408SOL    HW120123   6.638   0.568   0.651
 6408SOL    HW220124   6.487   0.626   0.678
 6409SOL     OW20125   6.366   4.841   4.102
 6409SOL    HW120126   6.395   4.918   4.159
 6409SOL    HW220127   6.444   4.806   4.050
 6410SOL     OW20128   3.328   1.865   5.777
 6410SOL    HW120129   3.241   1.908   5.754
 6410SOL    HW220130   3.313   1.771   5.805
 6411SOL     OW20131   0.241   2.332   2.690
 6411SOL    HW120132   0.235   2.388   2.772
 6411SOL    HW220133   0.149   2.299   2.665
 6412SOL     OW20134   2.998   0.627   6.988
 6412SOL    HW120135   2.912   0.616   6.938
 6412SOL    HW220136   2.995   0.712   0.015
 6413SOL     OW20137   4.555   4.950   4.092
 6413SOL    HW120138   4.541   4.956   4.190
 6413SOL    HW220139   4.496   5.016   4.045
 6414SOL     OW20140   1.129   6.797   0.120
 6414SOL    HW120141   1.148   6.851   0.038
 6414SOL    HW220142   1.089   6.856   0.190
 6415SOL     OW20143   1.114   2.475   3.340
 6415SOL    HW120144   1.061   2.552   3.375
 6415SOL    HW220145   1.200   2.509   3.301
 6416SOL     OW20146   2.827   0.569   6.592
 6416SOL    HW120147   2.749   0.510   6.612
 6416SOL    HW220148   2.818   0.655   6.642
 6417SOL     OW20149   4.607   1.849   0.944
 6417SOL    HW120150   4.592   1.816   0.850
 6417SOL    HW220151   4.607   1.948   0.944
 6418SOL     OW20152   4.351   5.165   1.460
 6418SOL    HW120153   4.424   5.101   1.485
 6418SOL    HW220154   4.274   5.155   1.523
 6419SOL     OW20155   0.648   6.560   6.615
 6419SOL    HW120156   0.742   6.540   6.587
 6419SOL    HW220157   0.635   6.660   6.617
 6420SOL     OW20158   1.845   3.294   4.024
 6420SOL    HW120159   1.879   3.269   4.115
 6420SOL    HW220160   1.805   3.385   4.028
 6421SOL     OW20161   4.900   0.181   1.554
 6421SOL    HW120162   4.899   0.230   1.640
 6421SOL    HW220163   4.896   0.083   1.571
 6422SOL     OW20164   6.526   2.558   4.835
 6422SOL    HW120165   6.442   2.580   4.884
 6422SOL    HW220166   6.588   2.637   4.836
 6423SOL     OW20167   2.246   4.477   4.411
 6423SOL    HW120168   2.154   4.470   4.375
 6423SOL    HW220169   2.296   4.393   4.391
 6424SOL     OW20170   0.219   4.289   5.097
 6424SOL    HW120171   0.286   4.358   5.071
 6424SOL    HW220172   0.193   4.301   5.193
 6425SOL     OW20173   0.384   6.128   2.807
 6425SOL    HW120174   0.444   6.188   2.859
 6425SOL    HW220175   0.290   6.139   2.840
 6426SOL     OW20176   4.650   4.582   4.734
 6426SOL    HW120177   4.729   4.593   4.795
 6426SOL    HW220178   4.673   4.517   4.662
 6427SOL     OW20179   2.876   3.406   3.816
 6427SOL    HW120180   2.778   3.399   3.833
 6427SOL    HW220181   2.899   3.497   3.783
 6428SOL     OW20182   5.120   2.330   0.166
 6428SOL    HW120183   5.210   2.307   0.204
 6428SOL    HW220184   5.123   2.422   0.127
 6429SOL     OW20185   2.440   0.654   5.571
 6429SOL    HW120186   2.531   0.623   5.597
 6429SOL    HW220187   2.444   0.749   5.540
 6430SOL     OW20188   6.852   0.278   4.769
 6430SOL    HW120189   6.852   0.181   4.746
 6430SOL    HW220190   6.802   0.329   4.698
 6431SOL     OW20191   4.033   4.903   1.894
 6431SOL    HW120192   4.029   4.830   1.962
 6431SOL    HW220193   3.959   4.891   1.828
 6432SOL     OW20194   4.138   4.485   6.133
 6432SOL    HW120195   4.216   4.541   6.159
 6432SOL    HW220196   4.053   4.533   6.156
 6433SOL     OW20197   2.764   5.696   6.447
 6433SOL    HW120198   2.862   5.711   6.457
 6433SOL    HW220199   2.747   5.636   6.369
 6434SOL     OW20200   3.386   5.605   5.835
 6434SOL    HW120201   3.324   5.621   5.759
 6434SOL    HW220202   3.334   5.573   5.914
 6435SOL     OW20203   5.098   1.246   0.739
 6435SOL    HW120204   5.004   1.259   0.770
 6435SOL    HW220205   5.146   1.183   0.800
 6436SOL     OW20206   0.024   3.914   3.892
 6436SOL    HW120207   0.006   4.012   3.897
 6436SOL    HW220208   0.090   3.888   3.962
 6437SOL     OW20209   0.606   1.287   5.645
 6437SOL    HW120210   0.659   1.309   5.727
 6437SOL    HW220211   0.619   1.358   5.576
 6438SOL     OW20212   0.503   5.673   0.338
 6438SOL    HW120213   0.509   5.764   0.379
 6438SOL    HW220214   0.455   5.679   0.250
 6439SOL     OW20215   5.366   7.002   3.523
 6439SOL    HW120216   5.408   6.933   3.464
 6439SOL    HW220217   5.291   0.021   3.475
 6440SOL     OW20218   2.137   1.245   6.151
 6440SOL    HW120219   2.222   1.221   6.198
 6440SOL    HW220220   2.137   1.342   6.128
 6441SOL     OW20221   0.141   0.916   2.507
 6441SOL    HW120222   0.193   1.001   2.513
 6441SOL    HW220223   0.199   0.839   2.535
 6442SOL     OW20224   3.058   2.719   5.476
 6442SOL    HW120225   3.005   2.651   5.426
 6442SOL    HW220226   3.049   2.703   5.575
 6443SOL     OW20227   4.531   2.382   1.133
 6443SOL    HW120228   4.489   2.312   1.075
 6443SOL    HW220229   4.509   2.473   1.098
 6444SOL     OW20230   0.288   3.153   5.021
 6444SOL    HW120231   0.344   3.235   5.027
 6444SOL    HW220232   0.244   3.136   5.110
 6445SOL     OW20233   2.997   3.846   3.074
 6445SOL    HW120234   2.942   3.793   3.138
 6445SOL    HW220235   3.058   3.907   3.124
 6446SOL     OW20236   2.313   1.613   6.959
 6446SOL    HW120237   2.228   1.590   6.910
 6446SOL    HW220238   2.297   1.694   7.016
 6447SOL     OW20239   6.350   4.478   1.058
 6447SOL    HW120240   6.312   4.496   0.967
 6447SOL    HW220241   6.444   4.513   1.062
 6448SOL     OW20242   4.729   5.302   1.748
 6448SOL    HW120243   4.658   5.369   1.771
 6448SOL    HW220244   4.720   5.222   1.806
 6449SOL     OW20245   2.340   5.815   1.527
 6449SOL    HW120246   2.374   5.729   1.489
 6449SOL    HW220247   2.375   5.891   1.473
 6450SOL     OW20248   0.234   3.628   0.823
 6450SOL    HW120249   0.233   3.607   0.921
 6450SOL    HW220250   0.160   3.577   0.778
 6451SOL     OW20251   3.354   2.465   1.246
 6451SOL    HW120252   3.416   2.485   1.322
 6451SOL    HW220253   3.267   2.512   1.260
 6452SOL     OW20254   5.350   2.765   3.259
 6452SOL    HW120255   5.432   2.783   3.313
 6452SOL    HW220256   5.319   2.671   3.276
 6453SOL     OW20257   3.586   0.065   0.958
 6453SOL    HW120258   3.618   0.160   0.958
 6453SOL    HW220259   3.532   0.048   0.875
 6454SOL     OW20260   6.072   2.726   2.764
 6454SOL    HW120261   5.976   2.720   2.739
 6454SOL    HW220262   6.085   2.803   2.826
 6455SOL     OW20263   6.309   3.820   3.513
 6455SOL    HW120264   6.294   3.724   3.489
 6455SOL    HW220265   6.266   3.840   3.600
 6456SOL     OW20266   6.290   1.225   3.133
 6456SOL    HW120267   6.221   1.202   3.064
 6456SOL    HW220268   6.295   1.325   3.143
 6457SOL     OW20269   4.601   0.335   1.813
 6457SOL    HW120270   4.606   0.433   1.794
 6457SOL    HW220271   4.518   0.316   1.866
 6458SOL     OW20272   1.064   5.066   3.728
 6458SOL    HW120273   1.041   4.969   3.716
 6458SOL    HW220274   1.111   5.099   3.647
 6459SOL     OW20275   6.265   3.061   2.773
 6459SOL    HW120276   6.213   3.067   2.687
 6459SOL    HW220277   6.255   3.146   2.824
 6460SOL     OW20278   0.135   5.760   6.493
 6460SOL    HW120279   0.040   5.745   6.522
 6460SOL    HW220280   0.150   5.858   6.478
 6461SOL     OW20281   2.830   4.864   1.457
 6461SOL    HW120282   2.745   4.911   1.433
 6461SOL    HW220283   2.812   4.796   1.528
 6462SOL     OW20284   1.241   4.227   5.177
 6462SOL    HW120285   1.339   4.240   5.189
 6462SOL    HW220286   1.200   4.199   5.264
 6463SOL     OW20287   4.020   1.285   1.275
 6463SOL    HW120288   4.004   1.349   1.350
 6463SOL    HW220289   4.117   1.289   1.249
 6464SOL     OW20290   1.006   5.620   4.264
 6464SOL    HW120291   0.954   5.543   4.227
 6464SOL    HW220292   1.048   5.670   4.189
 6465SOL     OW20293   4.763   2.097   3.602
 6465SOL    HW120294   4.766   2.189   3.565
 6465SOL    HW220295   4.766   2.101   3.702
 6466SOL     OW20296   0.471   3.502   0.174
 6466SOL    HW120297   0.525   3.577   0.212
 6466SOL    HW220298   0.526   3.419   0.171
 6467SOL     OW20299   3.359   1.354   1.041
 6467SOL    HW120300   3.353   1.287   1.115
 6467SOL    HW220301   3.397   1.439   1.076
 6468SOL     OW20302   3.076   0.298   0.392
 6468SOL    HW120303   3.081   0.388   0.349
 6468SOL    HW220304   3.106   0.305   0.487
 6469SOL     OW20305   3.792   1.810   3.044
 6469SOL    HW120306   3.816   1.859   2.961
 6469SOL    HW220307   3.711   1.753   3.026
 6470SOL     OW20308   6.299   2.346   0.004
 6470SOL    HW120309   6.299   2.434   0.053
 6470SOL    HW220310   6.254   2.357   6.941
 6471SOL     OW20311   0.145   6.353   4.790
 6471SOL    HW120312   0.051   6.353   4.826
 6471SOL    HW220313   0.143   6.344   4.691
 6472SOL     OW20314   6.955   5.985   2.685
 6472SOL    HW120315   6.934   5.908   2.745
 6472SOL    HW220316   0.023   5.976   2.651
 6473SOL     OW20317   2.021   1.266   4.077
 6473SOL    HW120318   2.111   1.235   4.106
 6473SOL    HW220319   2.027   1.359   4.043
 6474SOL     OW20320   4.033   6.367   4.988
 6474SOL    HW120321   3.942   6.327   4.978
 6474SOL    HW220322   4.025   6.461   5.019
 6475SOL     OW20323   5.787   4.912   3.212
 6475SOL    HW120324   5.711   4.879   3.156
 6475SOL    HW220325   5.843   4.975   3.158
 6476SOL     OW20326   4.147   1.281   6.316
 6476SOL    HW120327   4.136   1.282   6.416
 6476SOL    HW220328   4.193   1.365   6.287
 6477SOL     OW20329   6.675   6.214   1.590
 6477SOL    HW120330   6.740   6.201   1.664
 6477SOL    HW220331   6.718   6.263   1.515
 6478SOL     OW20332   3.651   6.021   1.696
 6478SOL    HW120333   3.633   6.055   1.604
 6478SOL    HW220334   3.575   6.045   1.756
 6479SOL     OW20335   3.379   6.358   4.133
 6479SOL    HW120336   3.380   6.366   4.232
 6479SOL    HW220337   3.395   6.447   4.091
 6480SOL     OW20338   3.390   1.093   6.782
 6480SOL    HW120339   3.364   1.171   6.838
 6480SOL    HW220340   3.434   1.023   6.839
 6481SOL     OW20341   3.227   2.505   1.721
 6481SOL    HW120342   3.149   2.566   1.734
 6481SOL    HW220343   3.223   2.465   1.630
 6482SOL     OW20344   6.755   3.362   5.319
 6482SOL    HW120345   6.674   3.310   5.294
 6482SOL    HW220346   6.750   3.454   5.279
 6483SOL     OW20347   1.069   5.851   5.167
 6483SOL    HW120348   1.072   5.924   5.099
 6483SOL    HW220349   1.142   5.785   5.148
 6484SOL     OW20350   2.635   0.911   4.186
 6484SOL    HW120351   2.678   0.939   4.272
 6484SOL    HW220352   2.590   0.823   4.199
 6485SOL     OW20353   2.253   6.929   4.364
 6485SOL    HW120354   2.159   6.960   4.365
 6485SOL    HW220355   2.304   6.979   4.294
 6486SOL     OW20356   1.642   5.202   2.961
 6486SOL    HW120357   1.672   5.232   2.871
 6486SOL    HW220358   1.558   5.148   2.951
 6487SOL     OW20359   0.071   4.610   4.307
 6487SOL    HW120360   0.110   4.633   4.396
 6487SOL    HW220361   0.145   4.599   4.240
 6488SOL     OW20362   4.552   5.408   4.495
 6488SOL    HW120363   4.643   5.444   4.515
 6488SOL    HW220364   4.517   5.450   4.411
 6489SOL     OW20365   4.113   2.669   6.321
 6489SOL    HW120366   4.030   2.634   6.278
 6489SOL    HW220367   4.171   2.711   6.251
 6490SOL     OW20368   1.870   2.003   6.322
 6490SOL    HW120369   1.892   2.100   6.335
 6490SOL    HW220370   1.954   1.949   6.326
 6491SOL     OW20371   1.390   0.518   0.467
 6491SOL    HW120372   1.451   0.483   0.396
 6491SOL    HW220373   1.313   0.566   0.423
 6492SOL     OW20374   3.662   3.741   4.943
 6492SOL    HW120375   3.581   3.778   4.898
 6492SOL    HW220376   3.672   3.644   4.921
 6493SOL     OW20377   1.004   4.281   6.127
 6493SOL    HW120378   0.965   4.199   6.170
 6493SOL    HW220379   0.934   4.327   6.073
 6494SOL     OW20380   6.017   6.711   1.910
 6494SOL    HW120381   5.975   6.691   1.998
 6494SOL    HW220382   5.995   6.638   1.845
 6495SOL     OW20383   0.241   6.975   3.585
 6495SOL    HW120384   0.323   0.007   3.590
 6495SOL    HW220385   0.170   7.014   3.643
 6496SOL     OW20386   5.114   0.322   2.032
 6496SOL    HW120387   5.140   0.344   1.938
 6496SOL    HW220388   5.151   0.391   2.094
 6497SOL     OW20389   0.275   1.648   0.830
 6497SOL    HW120390   0.289   1.579   0.759
 6497SOL    HW220391   0.178   1.653   0.853
 6498SOL     OW20392   1.232   4.292   3.717
 6498SOL    HW120393   1.139   4.257   3.729
 6498SOL    HW220394   1.266   4.326   3.805
 6499SOL     OW20395   5.817   3.917   4.299
 6499SOL    HW120396   5.760   3.932   4.218
 6499SOL    HW220397   5.882   3.844   4.281
 6500SOL     OW20398   1.493   3.756   2.576
 6500SOL    HW120399   1.497   3.731   2.479
 6500SOL    HW220400   1.501   3.855   2.586
 6501SOL     OW20401   6.390   2.120   1.310
 6501SOL    HW120402   6.326   2.077   1.246
 6501SOL    HW220403   6.353   2.112   1.403
 6502SOL     OW20404   6.113   3.843   1.840
 6502SOL    HW120405   6.179   3.834   1.765
 6502SOL    HW220406   6.153   3.807   1.924
 6503SOL     OW20407   6.670   3.262   5.683
 6503SOL    HW120408   6.656   3.285   5.586
 6503SOL    HW220409   6.720   3.176   5.690
 6504SOL     OW20410   4.450   6.083   6.687
 6504SOL    HW120411   4.354   6.078   6.658
 6504SOL    HW220412   4.502   6.009   6.646
 6505SOL     OW20413   6.061   5.749   6.860
 6505SOL    HW120414   6.029   5.665   6.815
 6505SOL    HW220415   6.093   5.814   6.790
 6506SOL     OW20416   0.252   2.885   2.866
 6506SOL    HW120417   0.211   2.837   2.789
 6506SOL    HW220418   0.199   2.967   2.887
 6507SOL     OW20419   3.982   4.551   6.646
 6507SOL    HW120420   3.984   4.522   6.550
 6507SOL    HW220421   4.070   4.531   6.689
 6508SOL     OW20422   1.393   6.666   1.806
 6508SOL    HW120423   1.413   6.578   1.762
 6508SOL    HW220424   1.296   6.668   1.831
 6509SOL     OW20425   3.860   1.532   5.589
 6509SOL    HW120426   3.929   1.578   5.646
 6509SOL    HW220427   3.774   1.524   5.641
 6510SOL     OW20428   4.383   6.160   5.980
 6510SOL    HW120429   4.384   6.186   6.076
 6510SOL    HW220430   4.350   6.237   5.925
 6511SOL     OW20431   3.182   0.736   0.247
 6511SOL    HW120432   3.255   0.799   0.219
 6511SOL    HW220433   3.094   0.774   0.220
 6512SOL     OW20434   3.440   0.938   0.925
 6512SOL    HW120435   3.511   0.962   0.992
 6512SOL    HW220436   3.394   1.022   0.895
 6513SOL     OW20437   2.816   5.411   4.475
 6513SOL    HW120438   2.762   5.439   4.554
 6513SOL    HW220439   2.774   5.448   4.391
 6514SOL     OW20440   5.805   0.340   5.667
 6514SOL    HW120441   5.789   0.250   5.627
 6514SOL    HW220442   5.786   0.337   5.765
 6515SOL     OW20443   2.129   5.064   2.213
 6515SOL    HW120444   2.212   5.068   2.158
 6515SOL    HW220445   2.142   5.000   2.289
 6516SOL     OW20446   0.251   3.230   1.002
 6516SOL    HW120447   0.263   3.219   1.100
 6516SOL    HW220448   0.153   3.226   0.980
 6517SOL     OW20449   6.610   2.982   6.760
 6517SOL    HW120450   6.693   2.926   6.751
 6517SOL    HW220451   6.616   3.059   6.697
 6518SOL     OW20452   1.025   1.573   2.910
 6518SOL    HW120453   1.058   1.566   3.004
 6518SOL    HW220454   1.011   1.481   2.873
 6519SOL     OW20455   1.247   1.740   3.265
 6519SOL    HW120456   1.294   1.816   3.221
 6519SOL    HW220457   1.214   1.770   3.355
 6520SOL     OW20458   0.378   5.753   0.113
 6520SOL    HW120459   0.385   5.848   0.083
 6520SOL    HW220460   0.289   5.738   0.156
 6521SOL     OW20461   1.632   3.055   4.327
 6521SOL    HW120462   1.714   3.093   4.368
 6521SOL    HW220463   1.554   3.114   4.349
 6522SOL     OW20464   2.576   4.078   5.333
 6522SOL    HW120465   2.504   4.046   5.271
 6522SOL    HW220466   2.586   4.177   5.323
 6523SOL     OW20467   5.815   0.522   0.156
 6523SOL    HW120468   5.718   0.507   0.138
 6523SOL    HW220469   5.865   0.527   0.070
 6524SOL     OW20470   1.988   2.538   1.244
 6524SOL    HW120471   1.988   2.501   1.337
 6524SOL    HW220472   1.961   2.634   1.246
 6525SOL     OW20473   1.388   4.767   3.465
 6525SOL    HW120474   1.412   4.687   3.520
 6525SOL    HW220475   1.404   4.850   3.519
 6526SOL     OW20476   0.193   0.151   0.542
 6526SOL    HW120477   0.155   0.206   0.468
 6526SOL    HW220478   0.285   0.182   0.564
 6527SOL     OW20479   0.835   2.681   0.148
 6527SOL    HW120480   0.836   2.671   0.049
 6527SOL    HW220481   0.855   2.775   0.173
 6528SOL     OW20482   6.191   0.882   5.743
 6528SOL    HW120483   6.125   0.842   5.680
 6528SOL    HW220484   6.283   0.868   5.708
 6529SOL     OW20485   6.816   1.492   2.264
 6529SOL    HW120486   6.902   1.444   2.279
 6529SOL    HW220487   6.753   1.434   2.213
 6530SOL     OW20488   0.681   2.536   2.203
 6530SOL    HW120489   0.607   2.602   2.194
 6530SOL    HW220490   0.699   2.494   2.114
 6531SOL     OW20491   3.785   3.208   5.769
 6531SOL    HW120492   3.731   3.280   5.812
 6531SOL    HW220493   3.731   3.162   5.699
 6532SOL     OW20494   1.406   0.800   0.904
 6532SOL    HW120495   1.351   0.763   0.979
 6532SOL    HW220496   1.345   0.846   0.838
 6533SOL     OW20497   4.223   3.809   6.796
 6533SOL    HW120498   4.244   3.742   6.725
 6533SOL    HW220499   4.291   3.801   6.869
 6534SOL     OW20500   5.949   4.949   2.315
 6534SOL    HW120501   5.988   4.929   2.405
 6534SOL    HW220502   5.860   4.904   2.306
 6535SOL     OW20503   6.281   3.418   5.115
 6535SOL    HW120504   6.235   3.334   5.086
 6535SOL    HW220505   6.313   3.408   5.209
 6536SOL     OW20506   0.620   3.368   5.301
 6536SOL    HW120507   0.611   3.269   5.295
 6536SOL    HW220508   0.541   3.407   5.349
 6537SOL     OW20509   6.190   4.817   4.651
 6537SOL    HW120510   6.182   4.751   4.724
 6537SOL    HW220511   6.099   4.849   4.624
 6538SOL     OW20512   2.303   3.641   5.266
 6538SOL    HW120513   2.397   3.606   5.271
 6538SOL    HW220514   2.243   3.571   5.228
 6539SOL     OW20515   6.488   0.644   6.263
 6539SOL    HW120516   6.543   0.682   6.189
 6539SOL    HW220517   6.431   0.716   6.302
 6540SOL     OW20518   4.575   2.546   6.084
 6540SOL    HW120519   4.666   2.507   6.070
 6540SOL    HW220520   4.533   2.566   5.996
 6541SOL     OW20521   5.974   1.209   4.712
 6541SOL    HW120522   6.066   1.170   4.717
 6541SOL    HW220523   5.913   1.160   4.775
 6542SOL     OW20524   1.846   3.410   4.586
 6542SOL    HW120525   1.806   3.465   4.512
 6542SOL    HW220526   1.815   3.446   4.674
 6543SOL     OW20527   3.858   1.998   4.851
 6543SOL    HW120528   3.877   2.060   4.927
 6543SOL    HW220529   3.845   2.051   4.768
 6544SOL     OW20530   0.866   7.007   1.477
 6544SOL    HW120531   0.884   0.047   1.550
 6544SOL    HW220532   0.952   6.974   1.439
 6545SOL     OW20533   4.234   0.339   1.250
 6545SOL    HW120534   4.275   0.372   1.335
 6545SOL    HW220535   4.277   0.384   1.173
 6546SOL     OW20536   5.391   4.025   6.250
 6546SOL    HW120537   5.358   4.044   6.157
 6546SOL    HW220538   5.409   4.112   6.297
 6547SOL     OW20539   5.776   5.850   0.356
 6547SOL    HW120540   5.679   5.835   0.339
 6547SOL    HW220541   5.829   5.813   0.279
 6548SOL     OW20542   0.673   2.456   5.602
 6548SOL    HW120543   0.671   2.518   5.524
 6548SOL    HW220544   0.766   2.453   5.640
 6549SOL     OW20545   4.987   6.879   2.002
 6549SOL    HW120546   5.018   6.961   1.953
 6549SOL    HW220547   4.933   6.906   2.081
 6550SOL     OW20548   6.552   6.894   3.092
 6550SOL    HW120549   6.455   6.868   3.099
 6550SOL    HW220550   6.560   6.994   3.093
 6551SOL     OW20551   3.165   3.552   1.663
 6551SOL    HW120552   3.135   3.597   1.747
 6551SOL    HW220553   3.160   3.617   1.587
 6552SOL     OW20554   2.206   0.445   0.494
 6552SOL    HW120555   2.205   0.357   0.446
 6552SOL    HW220556   2.292   0.492   0.476
 6553SOL     OW20557   0.351   0.760   2.918
 6553SOL    HW120558   0.448   0.779   2.927
 6553SOL    HW220559   0.315   0.725   3.005
 6554SOL     OW20560   3.207   1.067   4.473
 6554SOL    HW120561   3.239   1.064   4.378
 6554SOL    HW220562   3.190   0.974   4.505
 6555SOL     OW20563   6.514   2.101   4.449
 6555SOL    HW120564   6.483   2.196   4.441
 6555SOL    HW220565   6.444   2.047   4.497
 6556SOL     OW20566   6.068   3.334   3.677
 6556SOL    HW120567   6.145   3.308   3.620
 6556SOL    HW220568   6.002   3.259   3.680
 6557SOL     OW20569   1.683   6.831   2.320
 6557SOL    HW120570   1.679   6.737   2.354
 6557SOL    HW220571   1.591   6.861   2.295
 6558SOL     OW20572   5.473   5.030   0.433
 6558SOL    HW120573   5.484   5.068   0.524
 6558SOL    HW220574   5.378   5.040   0.404
 6559SOL     OW20575   6.126   2.897   6.117
 6559SOL    HW120576   6.062   2.860   6.050
 6559SOL    HW220577   6.219   2.892   6.081
 6560SOL     OW20578   4.813   4.883   0.649
 6560SOL    HW120579   4.827   4.953   0.579
 6560SOL    HW220580   4.881   4.893   0.721
 6561SOL     OW20581   3.629   5.170   0.378
 6561SOL    HW120582   3.667   5.205   0.292
 6561SOL    HW220583   3.551   5.110   0.359
 6562SOL     OW20584   5.946   2.537   0.809
 6562SOL    HW120585   6.007   2.485   0.750
 6562SOL    HW220586   5.999   2.594   0.871
 6563SOL     OW20587   5.367   6.652   4.767
 6563SOL    HW120588   5.316   6.719   4.821
 6563SOL    HW220589   5.367   6.680   4.671
 6564SOL     OW20590   0.284   4.058   2.566
 6564SOL    HW120591   0.213   4.038   2.634
 6564SOL    HW220592   0.302   3.975   2.512
 6565SOL     OW20593   5.914   6.858   2.400
 6565SOL    HW120594   5.891   6.956   2.403
 6565SOL    HW220595   5.896   6.817   2.489
 6566SOL     OW20596   3.783   5.980   2.390
 6566SOL    HW120597   3.711   6.037   2.428
 6566SOL    HW220598   3.856   6.038   2.353
 6567SOL     OW20599   4.462   0.845   1.480
 6567SOL    HW120600   4.418   0.927   1.443
 6567SOL    HW220601   4.424   0.764   1.435
 6568SOL     OW20602   3.380   0.887   1.477
 6568SOL    HW120603   3.480   0.879   1.484
 6568SOL    HW220604   3.338   0.802   1.510
 6569SOL     OW20605   1.114   3.338   5.655
 6569SOL    HW120606   1.189   3.389   5.612
 6569SOL    HW220607   1.053   3.303   5.585
 6570SOL     OW20608   3.949   6.855   1.950
 6570SOL    HW120609   3.851   6.852   1.969
 6570SOL    HW220610   3.964   6.891   1.858
 6571SOL     OW20611   2.525   4.980   3.653
 6571SOL    HW120612   2.594   4.911   3.631
 6571SOL    HW220613   2.449   4.973   3.588
 6572SOL     OW20614   0.433   5.547   4.175
 6572SOL    HW120615   0.363   5.601   4.222
 6572SOL    HW220616   0.517   5.601   4.167
 6573SOL     OW20617   2.233   1.150   3.023
 6573SOL    HW120618   2.316   1.191   2.984
 6573SOL    HW220619   2.207   1.198   3.106
 6574SOL     OW20620   2.086   5.691   2.089
 6574SOL    HW120621   2.074   5.787   2.064
 6574SOL    HW220622   2.140   5.685   2.173
 6575SOL     OW20623   0.083   0.106   2.685
 6575SOL    HW120624   0.058   0.194   2.645
 6575SOL    HW220625   0.179   0.108   2.714
 6576SOL     OW20626   3.689   5.389   0.549
 6576SOL    HW120627   3.749   5.354   0.621
 6576SOL    HW220628   3.659   5.313   0.491
 6577SOL     OW20629   2.494   1.982   4.346
 6577SOL    HW120630   2.407   2.022   4.375
 6577SOL    HW220631   2.528   2.031   4.266
 6578SOL     OW20632   1.612   5.291   1.562
 6578SOL    HW120633   1.683   5.301   1.492
 6578SOL    HW220634   1.563   5.205   1.548
 6579SOL     OW20635   0.162   1.190   3.927
 6579SOL    HW120636   0.079   1.234   3.891
 6579SOL    HW220637   0.200   1.247   4.000
 6580SOL     OW20638   0.827   0.039   6.906
 6580SOL    HW120639   0.911   0.090   6.885
 6580SOL    HW220640   0.826   0.015   7.003
 6581SOL     OW20641   1.678   1.877   6.843
 6581SOL    HW120642   1.761   1.873   6.788
 6581SOL    HW220643   1.658   1.787   6.881
 6582SOL     OW20644   6.221   0.688   2.940
 6582SOL    HW120645   6.198   0.660   3.033
 6582SOL    HW220646   6.172   0.631   2.875
 6583SOL     OW20647   4.261   6.556   6.477
 6583SOL    HW120648   4.240   6.648   6.512
 6583SOL    HW220649   4.176   6.504   6.468
 6584SOL     OW20650   3.408   2.494   0.663
 6584SOL    HW120651   3.399   2.585   0.622
 6584SOL    HW220652   3.318   2.461   0.692
 6585SOL     OW20653   6.245   6.816   0.800
 6585SOL    HW120654   6.158   6.790   0.759
 6585SOL    HW220655   6.314   6.829   0.728
 6586SOL     OW20656   6.231   2.416   5.611
 6586SOL    HW120657   6.200   2.504   5.649
 6586SOL    HW220658   6.304   2.379   5.669
 6587SOL     OW20659   1.489   4.069   5.796
 6587SOL    HW120660   1.450   4.030   5.712
 6587SOL    HW220661   1.417   4.115   5.848
 6588SOL     OW20662   0.210   3.049   0.495
 6588SOL    HW120663   0.301   3.012   0.473
 6588SOL    HW220664   0.204   3.066   0.593
 6589SOL     OW20665   6.581   1.145   1.500
 6589SOL    HW120666   6.560   1.054   1.537
 6589SOL    HW220667   6.561   1.215   1.569
 6590SOL     OW20668   0.759   0.685   5.078
 6590SOL    HW120669   0.770   0.693   5.177
 6590SOL    HW220670   0.847   0.698   5.033
 6591SOL     OW20671   4.850   5.237   4.385
 6591SOL    HW120672   4.783   5.166   4.362
 6591SOL    HW220673   4.820   5.325   4.348
 6592SOL     OW20674   4.918   6.738   2.997
 6592SOL    HW120675   4.830   6.710   3.036
 6592SOL    HW220676   4.906   6.826   2.951
 6593SOL     OW20677   2.748   2.113   2.564
 6593SOL    HW120678   2.712   2.157   2.646
 6593SOL    HW220679   2.839   2.077   2.583
 6594SOL     OW20680   3.753   1.475   6.081
 6594SOL    HW120681   3.821   1.538   6.119
 6594SOL    HW220682   3.795   1.423   6.005
 6595SOL     OW20683   2.037   2.297   4.888
 6595SOL    HW120684   2.081   2.259   4.969
 6595SOL    HW220685   2.014   2.223   4.825
 6596SOL     OW20686   5.246   5.505   2.627
 6596SOL    HW120687   5.167   5.525   2.570
 6596SOL    HW220688   5.257   5.576   2.696
 6597SOL     OW20689   1.005   5.383   2.585
 6597SOL    HW120690   1.090   5.373   2.636
 6597SOL    HW220691   0.946   5.305   2.603
 6598SOL     OW20692   1.928   4.631   4.278
 6598SOL    HW120693   1.991   4.582   4.218
 6598SOL    HW220694   1.945   4.729   4.270
 6599SOL     OW20695   5.885   6.347   6.189
 6599SOL    HW120696   5.864   6.420   6.255
 6599SOL    HW220697   5.870   6.381   6.096
 6600SOL     OW20698   4.583   6.855   5.518
 6600SOL    HW120699   4.490   6.820   5.511
 6600SOL    HW220700   4.583   6.954   5.509
 6601SOL     OW20701   1.332   2.936   2.698
 6601SOL    HW120702   1.321   3.000   2.621
 6601SOL    HW220703   1.396   2.975   2.764
 6602SOL     OW20704   2.018   0.185   1.476
 6602SOL    HW120705   2.061   0.161   1.389
 6602SOL    HW220706   1.977   0.276   1.469
 6603SOL     OW20707   0.627   2.820   3.478
 6603SOL    HW120708   0.682   2.755   3.531
 6603SOL    HW220709   0.676   2.845   3.395
 6604SOL     OW20710   2.462   6.685   1.671
 6604SOL    HW120711   2.364   6.669   1.661
 6604SOL    HW220712   2.477   6.769   1.724
 6605SOL     OW20713   6.228   5.371   1.724
 6605SOL    HW120714   6.249   5.460   1.683
 6605SOL    HW220715   6.147   5.332   1.681
 6606SOL     OW20716   1.496   3.293   3.836
 6606SOL    HW120717   1.453   3.204   3.852
 6606SOL    HW220718   1.562   3.285   3.762
 6607SOL     OW20719   6.150   4.317   3.744
 6607SOL    HW120720   6.222   4.330   3.812
 6607SOL    HW220721   6.188   4.332   3.653
 6608SOL     OW20722   6.938   6.827   6.629
 6608SOL    HW120723   7.010   6.781   6.577
 6608SOL    HW220724   6.936   6.924   6.605
 6609SOL     OW20725   4.504   2.027   5.845
 6609SOL    HW120726   4.602   2.029   5.828
 6609SOL    HW220727   4.475   2.113   5.886
 6610SOL     OW20728   3.103   5.851   1.091
 6610SOL    HW120729   3.171   5.866   1.163
 6610SOL    HW220730   3.109   5.757   1.059
 6611SOL     OW20731   5.280   2.345   3.927
 6611SOL    HW120732   5.329   2.272   3.878
 6611SOL    HW220733   5.223   2.305   3.998
 6612SOL     OW20734   5.696   2.044   6.447
 6612SOL    HW120735   5.793   2.055   6.426
 6612SOL    HW220736   5.657   2.132   6.471
 6613SOL     OW20737   4.904   0.337   6.530
 6613SOL    HW120738   4.912   0.436   6.518
 6613SOL    HW220739   4.819   0.316   6.579
 6614SOL     OW20740   4.520   5.695   2.010
 6614SOL    HW120741   4.488   5.643   2.089
 6614SOL    HW220742   4.457   5.682   1.934
 6615SOL     OW20743   3.073   5.687   0.386
 6615SOL    HW120744   3.020   5.617   0.339
 6615SOL    HW220745   3.013   5.736   0.450
 6616SOL     OW20746   4.669   0.500   6.338
 6616SOL    HW120747   4.657   0.534   6.431
 6616SOL    HW220748   4.658   0.400   6.337
 6617SOL     OW20749   3.874   0.629   3.604
 6617SOL    HW120750   3.904   0.721   3.631
 6617SOL    HW220751   3.917   0.561   3.663
 6618SOL     OW20752   0.589   1.770   3.448
 6618SOL    HW120753   0.530   1.851   3.448
 6618SOL    HW220754   0.582   1.725   3.537
 6619SOL     OW20755   4.660   6.412   4.197
 6619SOL    HW120756   4.748   6.368   4.214
 6619SOL    HW220757   4.662   6.457   4.107
 6620SOL     OW20758   0.442   3.655   3.587
 6620SOL    HW120759   0.367   3.641   3.651
 6620SOL    HW220760   0.424   3.603   3.503
 6621SOL     OW20761   4.083   3.179   5.198
 6621SOL    HW120762   4.028   3.098   5.179
 6621SOL    HW220763   4.174   3.153   5.229
 6622SOL     OW20764   6.589   5.655   0.921
 6622SOL    HW120765   6.624   5.584   0.982
 6622SOL    HW220766   6.594   5.744   0.967
 6623SOL     OW20767   3.511   4.697   5.414
 6623SOL    HW120768   3.480   4.743   5.497
 6623SOL    HW220769   3.592   4.642   5.435
 6624SOL     OW20770   0.864   2.624   4.655
 6624SOL    HW120771   0.905   2.573   4.579
 6624SOL    HW220772   0.903   2.591   4.741
 6625SOL     OW20773   5.931   3.050   5.146
 6625SOL    HW120774   5.975   3.040   5.235
 6625SOL    HW220775   5.835   3.023   5.153
 6626SOL     OW20776   2.917   6.839   4.681
 6626SOL    HW120777   3.000   6.798   4.642
 6626SOL    HW220778   2.898   6.925   4.635
 6627SOL     OW20779   1.257   6.045   4.643
 6627SOL    HW120780   1.244   6.004   4.733
 6627SOL    HW220781   1.304   5.981   4.584
 6628SOL     OW20782   4.924   5.525   3.956
 6628SOL    HW120783   4.946   5.616   3.991
 6628SOL    HW220784   4.993   5.497   3.890
 6629SOL     OW20785   5.363   5.938   6.795
 6629SOL    HW120786   5.373   5.959   6.892
 6629SOL    HW220787   5.265   5.931   6.773
 6630SOL     OW20788   2.299   1.512   1.619
 6630SOL    HW120789   2.389   1.489   1.657
 6630SOL    HW220790   2.306   1.598   1.568
 6631SOL     OW20791   1.707   4.759   6.184
 6631SOL    HW120792   1.646   4.711   6.121
 6631SOL    HW220793   1.668   4.848   6.207
 6632SOL     OW20794   1.106   0.224   0.446
 6632SOL    HW120795   1.172   0.195   0.515
 6632SOL    HW220796   1.060   0.308   0.476
 6633SOL     OW20797   3.060   5.611   6.312
 6633SOL    HW120798   3.081   5.670   6.389
 6633SOL    HW220799   3.122   5.533   6.312
 6634SOL     OW20800   5.004   1.918   5.493
 6634SOL    HW120801   5.056   1.905   5.578
 6634SOL    HW220802   5.050   1.870   5.418
 6635SOL     OW20803   5.306   4.314   2.126
 6635SOL    HW120804   5.230   4.290   2.186
 6635SOL    HW220805   5.296   4.410   2.098
 6636SOL     OW20806   3.156   0.115   2.171
 6636SOL    HW120807   3.109   0.096   2.085
 6636SOL    HW220808   3.196   0.207   2.168
 6637SOL     OW20809   1.571   1.030   0.972
 6637SOL    HW120810   1.525   0.943   0.988
 6637SOL    HW220811   1.517   1.085   0.907
 6638SOL     OW20812   3.083   3.875   3.842
 6638SOL    HW120813   3.154   3.862   3.773
 6638SOL    HW220814   3.106   3.954   3.899
 6639SOL     OW20815   4.552   2.845   1.032
 6639SOL    HW120816   4.508   2.756   1.017
 6639SOL    HW220817   4.606   2.842   1.116
 6640SOL     OW20818   0.678   2.812   5.141
 6640SOL    HW120819   0.698   2.824   5.044
 6640SOL    HW220820   0.763   2.789   5.190
 6641SOL     OW20821   3.621   1.817   0.852
 6641SOL    HW120822   3.566   1.868   0.919
 6641SOL    HW220823   3.707   1.865   0.835
 6642SOL     OW20824   1.671   5.375   0.559
 6642SOL    HW120825   1.701   5.383   0.464
 6642SOL    HW220826   1.592   5.435   0.574
 6643SOL     OW20827   5.192   6.263   0.445
 6643SOL    HW120828   5.118   6.231   0.386
 6643SOL    HW220829   5.246   6.185   0.477
 6644SOL     OW20830   1.679   6.348   2.606
 6644SOL    HW120831   1.591   6.394   2.612
 6644SOL    HW220832   1.735   6.373   2.685
 6645SOL     OW20833   6.121   2.867   0.305
 6645SOL    HW120834   6.115   2.880   0.206
 6645SOL    HW220835   6.030   2.872   0.345
 6646SOL     OW20836   4.192   0.408   6.654
 6646SOL    HW120837   4.284   0.391   6.620
 6646SOL    HW220838   4.133   0.438   6.579
 6647SOL     OW20839   4.180   4.836   1.244
 6647SOL    HW120840   4.179   4.841   1.144
 6647SOL    HW220841   4.138   4.918   1.282
 6648SOL     OW20842   2.871   6.502   4.481
 6648SOL    HW120843   2.826   6.566   4.543
 6648SOL    HW220844   2.804   6.467   4.415
 6649SOL     OW20845   5.773   2.537   6.829
 6649SOL    HW120846   5.748   2.440   6.834
 6649SOL    HW220847   5.871   2.545   6.812
 6650SOL     OW20848   3.517   0.852   5.040
 6650SOL    HW120849   3.549   0.874   5.132
 6650SOL    HW220850   3.417   0.855   5.038
 6651SOL     OW20851   0.783   1.438   6.995
 6651SOL    HW120852   0.768   1.394   0.058
 6651SOL    HW220853   0.697   1.441   6.944
 6652SOL     OW20854   0.994   4.728   0.042
 6652SOL    HW120855   1.086   4.731   0.081
 6652SOL    HW220856   0.980   4.641   7.021
 6653SOL     OW20857   5.179   3.107   0.411
 6653SOL    HW120858   5.145   3.119   0.504
 6653SOL    HW220859   5.200   3.196   0.371
 6654SOL     OW20860   0.425   4.665   3.306
 6654SOL    HW120861   0.499   4.728   3.283
 6654SOL    HW220862   0.337   4.711   3.292
 6655SOL     OW20863   6.730   5.404   1.782
 6655SOL    HW120864   6.687   5.494   1.772
 6655SOL    HW220865   6.818   5.413   1.828
 6656SOL     OW20866   3.964   1.169   2.474
 6656SOL    HW120867   4.048   1.204   2.514
 6656SOL    HW220868   3.963   1.186   2.376
 6657SOL     OW20869   5.672   2.602   4.498
 6657SOL    HW120870   5.607   2.606   4.422
 6657SOL    HW220871   5.653   2.521   4.554
 6658SOL     OW20872   5.997   6.722   4.950
 6658SOL    HW120873   5.977   6.769   5.036
 6658SOL    HW220874   5.964   6.777   4.873
 6659SOL     OW20875   0.716   5.170   2.145
 6659SOL    HW120876   0.804   5.211   2.167
 6659SOL    HW220877   0.725   5.071   2.140
 6660SOL     OW20878   1.030   5.769   2.696
 6660SOL    HW120879   1.035   5.836   2.622
 6660SOL    HW220880   0.997   5.682   2.659
 6661SOL     OW20881   3.084   6.505   4.085
 6661SOL    HW120882   3.131   6.479   4.169
 6661SOL    HW220883   3.082   6.427   4.022
 6662SOL     OW20884   2.590   0.288   1.745
 6662SOL    HW120885   2.657   0.352   1.708
 6662SOL    HW220886   2.617   0.194   1.721
 6663SOL     OW20887   1.644   5.166   6.064
 6663SOL    HW120888   1.724   5.226   6.071
 6663SOL    HW220889   1.622   5.151   5.968
 6664SOL     OW20890   2.277   0.790   1.686
 6664SOL    HW120891   2.220   0.871   1.672
 6664SOL    HW220892   2.256   0.750   1.775
 6665SOL     OW20893   2.629   0.257   6.089
 6665SOL    HW120894   2.649   0.219   5.999
 6665SOL    HW220895   2.665   0.197   6.160
 6666SOL     OW20896   6.280   5.656   4.917
 6666SOL    HW120897   6.332   5.572   4.932
 6666SOL    HW220898   6.183   5.634   4.914
 6667SOL     OW20899   6.737   6.296   5.678
 6667SOL    HW120900   6.688   6.269   5.760
 6667SOL    HW220901   6.700   6.247   5.599
 6668SOL     OW20902   6.836   6.393   1.429
 6668SOL    HW120903   6.789   6.470   1.386
 6668SOL    HW220904   6.935   6.410   1.428
 6669SOL     OW20905   1.931   1.500   1.531
 6669SOL    HW120906   1.954   1.496   1.629
 6669SOL    HW220907   1.832   1.501   1.520
 6670SOL     OW20908   3.006   1.816   6.676
 6670SOL    HW120909   2.956   1.794   6.759
 6670SOL    HW220910   2.942   1.835   6.602
 6671SOL     OW20911   5.397   6.449   0.534
 6671SOL    HW120912   5.380   6.516   0.462
 6671SOL    HW220913   5.329   6.376   0.528
 6672SOL     OW20914   1.139   2.621   0.377
 6672SOL    HW120915   1.088   2.562   0.316
 6672SOL    HW220916   1.165   2.705   0.329
 6673SOL     OW20917   5.359   3.340   4.214
 6673SOL    HW120918   5.300   3.265   4.181
 6673SOL    HW220919   5.302   3.417   4.243
 6674SOL     OW20920   0.293   2.927   6.902
 6674SOL    HW120921   0.389   2.954   6.899
 6674SOL    HW220922   0.271   2.871   6.822
 6675SOL     OW20923   4.687   2.527   0.027
 6675SOL    HW120924   4.613   2.580   7.012
 6675SOL    HW220925   4.734   2.474   6.982
 6676SOL     OW20926   1.157   3.869   3.852
 6676SOL    HW120927   1.098   3.817   3.913
 6676SOL    HW220928   1.223   3.922   3.905
 6677SOL     OW20929   0.351   0.866   0.127
 6677SOL    HW120930   0.353   0.794   0.057
 6677SOL    HW220931   0.308   0.830   0.210
 6678SOL     OW20932   1.588   4.498   0.717
 6678SOL    HW120933   1.670   4.442   0.733
 6678SOL    HW220934   1.598   4.586   0.763
 6679SOL     OW20935   2.419   0.814   3.793
 6679SOL    HW120936   2.513   0.798   3.763
 6679SOL    HW220937   2.404   0.772   3.882
 6680SOL     OW20938   5.453   6.664   0.758
 6680SOL    HW120939   5.504   6.748   0.740
 6680SOL    HW220940   5.460   6.603   0.679
 6681SOL     OW20941   4.566   5.349   1.361
 6681SOL    HW120942   4.619   5.364   1.278
 6681SOL    HW220943   4.548   5.251   1.373
 6682SOL     OW20944   3.107   5.341   6.977
 6682SOL    HW120945   3.197   5.337   6.933
 6682SOL    HW220946   3.036   5.321   6.909
 6683SOL     OW20947   5.975   3.498   6.832
 6683SOL    HW120948   6.074   3.500   6.848
 6683SOL    HW220949   5.957   3.502   6.734
 6684SOL     OW20950   3.144   6.977   1.342
 6684SOL    HW120951   3.150   6.961   1.244
 6684SOL    HW220952   3.230   7.017   1.374
 6685SOL     OW20953   3.963   3.589   6.544
 6685SOL    HW120954   3.975   3.688   6.538
 6685SOL    HW220955   3.906   3.568   6.623
 6686SOL     OW20956   6.106   5.775   4.037
 6686SOL    HW120957   6.149   5.856   3.997
 6686SOL    HW220958   6.013   5.765   4.003
 6687SOL     OW20959   6.814   2.491   1.976
 6687SOL    HW120960   6.822   2.392   1.987
 6687SOL    HW220961   6.740   2.511   1.911
 6688SOL     OW20962   3.917   4.895   1.104
 6688SOL    HW120963   3.952   4.951   1.179
 6688SOL    HW220964   3.917   4.949   1.019
 6689SOL     OW20965   3.403   4.730   5.672
 6689SOL    HW120966   3.320   4.686   5.639
 6689SOL    HW220967   3.461   4.663   5.717
 6690SOL     OW20968   0.761   0.338   5.979
 6690SOL    HW120969   0.808   0.421   6.009
 6690SOL    HW220970   0.829   0.270   5.950
 6691SOL     OW20971   1.818   1.605   2.694
 6691SOL    HW120972   1.789   1.558   2.778
 6691SOL    HW220973   1.768   1.691   2.685
 6692SOL     OW20974   4.272   4.612   1.881
 6692SOL    HW120975   4.216   4.567   1.951
 6692SOL    HW220976   4.331   4.544   1.837
 6693SOL     OW20977   4.445   1.431   5.115
 6693SOL    HW120978   4.518   1.363   5.112
 6693SOL    HW220979   4.462   1.501   5.046
 6694SOL     OW20980   3.890   6.006   1.308
 6694SOL    HW120981   3.792   6.021   1.321
 6694SOL    HW220982   3.906   5.955   1.224
 6695SOL     OW20983   2.905   2.302   0.596
 6695SOL    HW120984   2.944   2.358   0.523
 6695SOL    HW220985   2.975   2.240   0.632
 6696SOL     OW20986   3.766   4.068   3.850
 6696SOL    HW120987   3.861   4.070   3.880
 6696SOL    HW220988   3.761   4.043   3.753
 6697SOL     OW20989   4.920   2.280   2.370
 6697SOL    HW120990   4.915   2.352   2.300
 6697SOL    HW220991   5.005   2.229   2.358
 6698SOL     OW20992   3.483   4.199   1.617
 6698SOL    HW120993   3.498   4.131   1.688
 6698SOL    HW220994   3.451   4.284   1.658
 6699SOL     OW20995   1.730   5.487   5.849
 6699SOL    HW120996   1.677   5.438   5.781
 6699SOL    HW220997   1.695   5.467   5.940
 6700SOL     OW20998   5.762   0.438   0.721
 6700SOL    HW120999   5.676   0.416   0.767
 6700SOL    HW221000   5.767   0.388   0.635
 6701SOL     OW21001   5.893   6.815   1.623
 6701SOL    HW121002   5.961   6.819   1.697
 6701SOL    HW221003   5.930   6.761   1.548
 6702SOL     OW21004   2.302   2.179   0.839
 6702SOL    HW121005   2.306   2.237   0.921
 6702SOL    HW221006   2.210   2.141   0.829
 6703SOL     OW21007   1.438   1.701   5.904
 6703SOL    HW121008   1.527   1.662   5.879
 6703SOL    HW221009   1.449   1.759   5.985
 6704SOL     OW21010   3.807   1.579   4.347
 6704SOL    HW121011   3.757   1.635   4.413
 6704SOL    HW221012   3.832   1.492   4.389
 6705SOL     OW21013   6.255   3.679   1.314
 6705SOL    HW121014   6.301   3.761   1.348
 6705SOL    HW221015   6.177   3.705   1.258
 6706SOL     OW21016   0.854   6.175   0.999
 6706SOL    HW121017   0.931   6.233   0.971
 6706SOL    HW221018   0.889   6.087   1.031
 6707SOL     OW21019   6.126   0.483   2.524
 6707SOL    HW121020   6.194   0.412   2.510
 6707SOL    HW221021   6.092   0.515   2.435
 6708SOL     OW21022   6.793   4.594   1.474
 6708SOL    HW121023   6.718   4.648   1.513
 6708SOL    HW221024   6.842   4.650   1.406
 6709SOL     OW21025   1.419   4.816   2.215
 6709SOL    HW121026   1.488   4.874   2.258
 6709SOL    HW221027   1.328   4.854   2.233
 6710SOL     OW21028   4.022   1.169   1.709
 6710SOL    HW121029   4.024   1.124   1.798
 6710SOL    HW221030   3.935   1.215   1.696
 6711SOL     OW21031   4.711   6.069   6.790
 6711SOL    HW121032   4.612   6.072   6.777
 6711SOL    HW221033   4.742   5.974   6.788
 6712SOL     OW21034   6.211   3.923   0.515
 6712SOL    HW121035   6.162   3.881   0.591
 6712SOL    HW221036   6.191   3.872   0.431
 6713SOL     OW21037   1.651   0.552   4.248
 6713SOL    HW121038   1.586   0.628   4.254
 6713SOL    HW221039   1.626   0.482   4.314
 6714SOL     OW21040   5.740   1.206   0.964
 6714SOL    HW121041   5.750   1.266   0.884
 6714SOL    HW221042   5.736   1.261   1.047
 6715SOL     OW21043   1.387   1.114   1.285
 6715SOL    HW121044   1.464   1.098   1.347
 6715SOL    HW221045   1.361   1.028   1.241
 6716SOL     OW21046   6.720   5.459   2.543
 6716SOL    HW121047   6.669   5.506   2.471
 6716SOL    HW221048   6.730   5.519   2.622
 6717SOL     OW21049   3.184   2.653   0.062
 6717SOL    HW121050   3.274   2.668   0.105
 6717SOL    HW221051   3.185   2.565   0.015
 6718SOL     OW21052   3.388   1.150   1.461
 6718SOL    HW121053   3.399   1.052   1.477
 6718SOL    HW221054   3.395   1.199   1.548
 6719SOL     OW21055   1.868   0.391   0.027
 6719SOL    HW121056   1.813   0.311   0.002
 6719SOL    HW221057   1.922   0.371   0.109
 6720SOL     OW21058   2.615   1.148   5.818
 6720SOL    HW121059   2.527   1.111   5.788
 6720SOL    HW221060   2.665   1.184   5.739
 6721SOL     OW21061   7.015   0.814   0.263
 6721SOL    HW121062   6.968   0.746   0.319
 6721SOL    HW221063   0.088   0.799   0.268
 6722SOL     OW21064   6.564   3.008   0.287
 6722SOL    HW121065   6.588   2.983   0.193
 6722SOL    HW221066   6.499   2.942   0.324
 6723SOL     OW21067   1.589   1.665   6.563
 6723SOL    HW121068   1.590   1.672   6.663
 6723SOL    HW221069   1.590   1.568   6.537
 6724SOL     OW21070   2.382   2.985   5.921
 6724SOL    HW121071   2.315   2.954   5.854
 6724SOL    HW221072   2.381   3.085   5.926
 6725SOL     OW21073   5.944   2.922   2.985
 6725SOL    HW121074   5.877   2.867   3.033
 6725SOL    HW221075   6.036   2.891   3.008
 6726SOL     OW21076   0.127   1.378   5.262
 6726SOL    HW121077   0.160   1.298   5.314
 6726SOL    HW221078   0.033   1.398   5.289
 6727SOL     OW21079   1.374   5.075   5.579
 6727SOL    HW121080   1.437   5.146   5.548
 6727SOL    HW221081   1.411   4.985   5.556
 6728SOL     OW21082   4.170   1.979   3.289
 6728SOL    HW121083   4.140   2.074   3.276
 6728SOL    HW221084   4.129   1.942   3.373
 6729SOL     OW21085   5.903   2.202   0.929
 6729SOL    HW121086   5.867   2.165   0.844
 6729SOL    HW221087   5.908   2.302   0.923
 6730SOL     OW21088   1.475   1.343   1.163
 6730SOL    HW121089   1.463   1.247   1.191
 6730SOL    HW221090   1.422   1.402   1.225
 6731SOL     OW21091   2.207   6.419   1.054
 6731SOL    HW121092   2.158   6.412   1.141
 6731SOL    HW221093   2.144   6.450   0.982
 6732SOL     OW21094   5.657   4.284   4.351
 6732SOL    HW121095   5.720   4.219   4.393
 6732SOL    HW221096   5.693   4.314   4.263
 6733SOL     OW21097   3.435   5.990   7.019
 6733SOL    HW121098   3.474   5.934   6.945
 6733SOL    HW221099   3.463   5.952   0.081
 6734SOL     OW21100   4.818   1.974   5.043
 6734SOL    HW121101   4.793   1.881   5.015
 6734SOL    HW221102   4.746   2.012   5.102
 6735SOL     OW21103   6.162   3.294   4.168
 6735SOL    HW121104   6.260   3.310   4.170
 6735SOL    HW221105   6.141   3.204   4.205
 6736SOL     OW21106   3.213   4.419   1.146
 6736SOL    HW121107   3.212   4.319   1.157
 6736SOL    HW221108   3.119   4.451   1.132
 6737SOL     OW21109   0.491   2.874   1.170
 6737SOL    HW121110   0.549   2.799   1.203
 6737SOL    HW221111   0.506   2.954   1.227
 6738SOL     OW21112   1.386   5.716   3.507
 6738SOL    HW121113   1.303   5.728   3.562
 6738SOL    HW221114   1.466   5.720   3.566
 6739SOL     OW21115   6.738   6.842   3.639
 6739SOL    HW121116   6.805   6.785   3.593
 6739SOL    HW221117   6.749   6.833   3.738
 6740SOL     OW21118   6.376   0.202   3.994
 6740SOL    HW121119   6.436   0.181   4.072
 6740SOL    HW221120   6.428   0.253   3.925
 6741SOL     OW21121   4.768   2.104   5.828
 6741SOL    HW121122   4.755   2.192   5.782
 6741SOL    HW221123   4.860   2.098   5.865
 6742SOL     OW21124   5.580   5.256   4.015
 6742SOL    HW121125   5.581   5.253   4.115
 6742SOL    HW221126   5.502   5.311   3.984
 6743SOL     OW21127   3.449   4.268   6.444
 6743SOL    HW121128   3.480   4.174   6.431
 6743SOL    HW221129   3.365   4.268   6.499
 6744SOL     OW21130   6.440   5.654   6.240
 6744SOL    HW121131   6.514   5.721   6.237
 6744SOL    HW221132   6.390   5.655   6.154
 6745SOL     OW21133   0.232   6.063   4.191
 6745SOL    HW121134   0.320   6.080   4.148
 6745SOL    HW221135   0.243   6.057   4.290
 6746SOL     OW21136   1.481   1.610   2.345
 6746SOL    HW121137   1.570   1.657   2.352
 6746SOL    HW221138   1.414   1.672   2.306
 6747SOL     OW21139   0.054   6.814   6.174
 6747SOL    HW121140   0.025   6.856   6.088
 6747SOL    HW221141   0.033   6.717   6.172
 6748SOL     OW21142   3.204   1.721   4.131
 6748SOL    HW121143   3.169   1.629   4.114
 6748SOL    HW221144   3.196   1.742   4.229
 6749SOL     OW21145   3.586   3.971   0.648
 6749SOL    HW121146   3.525   4.050   0.651
 6749SOL    HW221147   3.636   3.963   0.734
 6750SOL     OW21148   2.731   1.521   4.417
 6750SOL    HW121149   2.830   1.511   4.412
 6750SOL    HW221150   2.706   1.580   4.493
 6751SOL     OW21151   4.624   0.502   3.543
 6751SOL    HW121152   4.597   0.406   3.548
 6751SOL    HW221153   4.579   0.545   3.465
 6752SOL     OW21154   1.543   6.723   2.875
 6752SOL    HW121155   1.465   6.663   2.859
 6752SOL    HW221156   1.532   6.770   2.963
 6753SOL     OW21157   3.674   2.409   5.903
 6753SOL    HW121158   3.664   2.495   5.952
 6753SOL    HW221159   3.658   2.423   5.806
 6754SOL     OW21160   6.000   0.323   1.043
 6754SOL    HW121161   6.065   0.300   0.970
 6754SOL    HW221162   5.951   0.407   1.018
 6755SOL     OW21163   3.084   4.948   1.357
 6755SOL    HW121164   2.997   4.920   1.399
 6755SOL    HW221165   3.155   4.950   1.428
 6756SOL     OW21166   2.799   1.204   5.616
 6756SOL    HW121167   2.788   1.146   5.535
 6756SOL    HW221168   2.894   1.200   5.646
 6757SOL     OW21169   3.309   1.474   1.424
 6757SOL    HW121170   3.312   1.526   1.339
 6757SOL    HW221171   3.328   1.535   1.501
 6758SOL     OW21172   4.950   3.148   1.194
 6758SOL    HW121173   4.854   3.174   1.178
 6758SOL    HW221174   4.953   3.059   1.239
 6759SOL     OW21175   6.474   2.942   2.933
 6759SOL    HW121176   6.421   2.957   2.850
 6759SOL    HW221177   6.509   3.029   2.967
 6760SOL     OW21178   5.930   3.315   2.397
 6760SOL    HW121179   5.836   3.289   2.416
 6760SOL    HW221180   5.957   3.391   2.457
 6761SOL     OW21181   5.083   2.548   4.501
 6761SOL    HW121182   5.033   2.568   4.585
 6761SOL    HW221183   5.053   2.609   4.428
 6762SOL     OW21184   0.685   4.546   4.103
 6762SOL    HW121185   0.741   4.617   4.060
 6762SOL    HW221186   0.661   4.574   4.196
 6763SOL     OW21187   5.132   5.724   4.817
 6763SOL    HW121188   5.218   5.772   4.796
 6763SOL    HW221189   5.144   5.670   4.900
 6764SOL     OW21190   1.454   5.778   2.136
 6764SOL    HW121191   1.419   5.687   2.160
 6764SOL    HW221192   1.494   5.820   2.217
 6765SOL     OW21193   6.540   4.257   3.678
 6765SOL    HW121194   6.544   4.347   3.722
 6765SOL    HW221195   6.630   4.214   3.681
 6766SOL     OW21196   4.693   6.151   0.062
 6766SOL    HW121197   4.737   6.111   7.007
 6766SOL    HW221198   4.723   6.102   0.144
 6767SOL     OW21199   2.995   0.626   0.456
 6767SOL    HW121200   3.024   0.556   0.522
 6767SOL    HW221201   3.073   0.654   0.400
 6768SOL     OW21202   2.136   0.770   5.658
 6768SOL    HW121203   2.116   0.868   5.664
 6768SOL    HW221204   2.228   0.752   5.692
 6769SOL     OW21205   3.140   2.299   0.108
 6769SOL    HW121206   3.213   2.303   0.177
 6769SOL    HW221207   3.172   2.341   0.023
 6770SOL     OW21208   6.861   0.439   1.984
 6770SOL    HW121209   6.904   0.481   1.904
 6770SOL    HW221210   6.871   0.500   2.062
 6771SOL     OW21211   4.759   2.529   3.031
 6771SOL    HW121212   4.829   2.535   2.960
 6771SOL    HW221213   4.714   2.618   3.041
 6772SOL     OW21214   3.222   1.136   2.347
 6772SOL    HW121215   3.122   1.130   2.344
 6772SOL    HW221216   3.256   1.085   2.425
 6773SOL     OW21217   6.591   4.680   1.799
 6773SOL    HW121218   6.527   4.738   1.850
 6773SOL    HW221219   6.677   4.728   1.786
 6774SOL     OW21220   0.363   2.836   6.075
 6774SOL    HW121221   0.344   2.778   6.154
 6774SOL    HW221222   0.337   2.930   6.096
 6775SOL     OW21223   2.525   3.235   1.261
 6775SOL    HW121224   2.597   3.252   1.328
 6775SOL    HW221225   2.523   3.309   1.194
 6776SOL     OW21226   4.365   4.721   0.162
 6776SOL    HW121227   4.421   4.740   0.242
 6776SOL    HW221228   4.414   4.659   0.101
 6777SOL     OW21229   3.873   4.068   6.336
 6777SOL    HW121230   3.904   4.117   6.254
 6777SOL    HW221231   3.951   4.052   6.396
 6778SOL     OW21232   0.485   4.339   2.016
 6778SOL    HW121233   0.407   4.287   1.983
 6778SOL    HW221234   0.556   4.343   1.946
 6779SOL     OW21235   6.462   4.169   6.307
 6779SOL    HW121236   6.401   4.111   6.360
 6779SOL    HW221237   6.549   4.180   6.355
 6780SOL     OW21238   0.981   2.232   2.715
 6780SOL    HW121239   0.896   2.180   2.722
 6780SOL    HW221240   0.981   2.306   2.782
 6781SOL     OW21241   5.651   0.023   4.629
 6781SOL    HW121242   5.616   0.097   4.572
 6781SOL    HW221243   5.692   0.062   4.712
 6782SOL     OW21244   0.110   0.463   2.852
 6782SOL    HW121245   0.178   0.438   2.921
 6782SOL    HW221246   0.019   0.462   2.893
 6783SOL     OW21247   0.044   6.983   6.390
 6783SOL    HW121248   0.037   6.917   6.316
 6783SOL    HW221249   6.979   7.022   6.409
 6784SOL     OW21250   3.439   4.174   0.393
 6784SOL    HW121251   3.510   4.105   0.407
 6784SOL    HW221252   3.479   4.265   0.396
 6785SOL     OW21253   5.482   4.439   2.837
 6785SOL    HW121254   5.505   4.360   2.895
 6785SOL    HW221255   5.547   4.445   2.761
 6786SOL     OW21256   0.974   1.668   6.584
 6786SOL    HW121257   0.918   1.737   6.630
 6786SOL    HW221258   0.941   1.577   6.607
 6787SOL     OW21259   1.406   3.498   0.666
 6787SOL    HW121260   1.344   3.556   0.719
 6787SOL    HW221261   1.436   3.548   0.584
 6788SOL     OW21262   2.599   3.894   1.606
 6788SOL    HW121263   2.697   3.882   1.622
 6788SOL    HW221264   2.564   3.817   1.554
 6789SOL     OW21265   0.300   6.827   2.598
 6789SOL    HW121266   0.359   6.759   2.554
 6789SOL    HW221267   0.356   6.892   2.650
 6790SOL     OW21268   1.136   4.040   0.924
 6790SOL    HW121269   1.066   3.970   0.912
 6790SOL    HW221270   1.121   4.114   0.858
 6791SOL     OW21271   3.717   2.594   0.782
 6791SOL    HW121272   3.627   2.581   0.824
 6791SOL    HW221273   3.775   2.647   0.844
 6792SOL     OW21274   6.548   5.765   5.929
 6792SOL    HW121275   6.577   5.798   6.019
 6792SOL    HW221276   6.457   5.725   5.936
 6793SOL     OW21277   0.765   2.473   0.335
 6793SOL    HW121278   0.815   2.522   0.264
 6793SOL    HW221279   0.686   2.427   0.294
 6794SOL     OW21280   5.213   1.197   4.955
 6794SOL    HW121281   5.236   1.135   4.880
 6794SOL    HW221282   5.297   1.234   4.995
 6795SOL     OW21283   2.344   6.073   0.750
 6795SOL    HW121284   2.363   6.127   0.668
 6795SOL    HW221285   2.409   6.096   0.822
 6796SOL     OW21286   5.886   0.805   2.794
 6796SOL    HW121287   5.797   0.782   2.834
 6796SOL    HW221288   5.913   0.896   2.824
 6797SOL     OW21289   4.857   3.185   1.529
 6797SOL    HW121290   4.799   3.202   1.449
 6797SOL    HW221291   4.822   3.105   1.578
 6798SOL     OW21292   5.814   6.179   3.180
 6798SOL    HW121293   5.783   6.272   3.159
 6798SOL    HW221294   5.906   6.166   3.143
 6799SOL     OW21295   6.245   5.754   0.023
 6799SOL    HW121296   6.166   5.757   6.988
 6799SOL    HW221297   6.241   5.671   0.078
 6800SOL     OW21298   2.568   4.587   0.688
 6800SOL    HW121299   2.495   4.609   0.753
 6800SOL    HW221300   2.598   4.492   0.703
 6801SOL     OW21301   1.720   1.220   2.549
 6801SOL    HW121302   1.810   1.259   2.568
 6801SOL    HW221303   1.669   1.282   2.489
 6802SOL     OW21304   2.911   5.817   0.580
 6802SOL    HW121305   2.821   5.846   0.548
 6802SOL    HW221306   2.903   5.779   0.672
 6803SOL     OW21307   4.363   2.238   6.446
 6803SOL    HW121308   4.301   2.264   6.520
 6803SOL    HW221309   4.458   2.244   6.479
 6804SOL     OW21310   2.284   5.160   3.913
 6804SOL    HW121311   2.246   5.204   3.994
 6804SOL    HW221312   2.210   5.125   3.856
 6805SOL     OW21313   6.015   5.957   4.606
 6805SOL    HW121314   6.050   5.883   4.548
 6805SOL    HW221315   5.920   5.937   4.630
 6806SOL     OW21316   5.652   1.351   3.847
 6806SOL    HW121317   5.584   1.311   3.908
 6806SOL    HW221318   5.619   1.347   3.753
 6807SOL     OW21319   2.546   3.388   0.958
 6807SOL    HW121320   2.489   3.315   0.920
 6807SOL    HW221321   2.597   3.432   0.884
 6808SOL     OW21322   0.429   2.896   5.235
 6808SOL    HW121323   0.505   2.849   5.190
 6808SOL    HW221324   0.400   2.843   5.315
 6809SOL     OW21325   1.866   3.650   0.665
 6809SOL    HW121326   1.918   3.596   0.731
 6809SOL    HW221327   1.808   3.590   0.611
 6810SOL     OW21328   1.450   0.404   1.994
 6810SOL    HW121329   1.405   0.479   1.945
 6810SOL    HW221330   1.505   0.351   1.931
 6811SOL     OW21331   4.675   4.044   0.031
 6811SOL    HW121332   4.723   4.131   0.024
 6811SOL    HW221333   4.694   3.989   6.975
 6812SOL     OW21334   3.705   3.168   3.386
 6812SOL    HW121335   3.715   3.257   3.430
 6812SOL    HW221336   3.765   3.102   3.431
 6813SOL     OW21337   4.528   1.848   2.236
 6813SOL    HW121338   4.432   1.872   2.222
 6813SOL    HW221339   4.567   1.815   2.150
 6814SOL     OW21340   3.046   3.202   0.500
 6814SOL    HW121341   3.016   3.128   0.559
 6814SOL    HW221342   3.030   3.290   0.545
 6815SOL     OW21343   2.951   0.394   0.897
 6815SOL    HW121344   2.977   0.490   0.905
 6815SOL    HW221345   2.870   0.386   0.839
 6816SOL     OW21346   0.098   5.740   6.927
 6816SOL    HW121347   0.157   5.774   6.854
 6816SOL    HW221348   0.062   5.817   6.979
 6817SOL     OW21349   6.510   1.994   5.353
 6817SOL    HW121350   6.473   1.926   5.290
 6817SOL    HW221351   6.607   2.008   5.334
 6818SOL     OW21352   2.516   5.822   1.967
 6818SOL    HW121353   2.481   5.856   2.054
 6818SOL    HW221354   2.560   5.733   1.981
 6819SOL     OW21355   4.531   1.543   4.134
 6819SOL    HW121356   4.569   1.614   4.075
 6819SOL    HW221357   4.518   1.580   4.226
 6820SOL     OW21358   1.413   5.024   2.990
 6820SOL    HW121359   1.323   5.002   2.951
 6820SOL    HW221360   1.484   4.987   2.931
 6821SOL     OW21361   3.055   1.691   5.522
 6821SOL    HW121362   3.125   1.686   5.451
 6821SOL    HW221363   3.060   1.779   5.568
 6822SOL     OW21364   5.680   1.914   5.806
 6822SOL    HW121365   5.729   1.924   5.893
 6822SOL    HW221366   5.634   1.825   5.805
 6823SOL     OW21367   4.107   3.273   3.771
 6823SOL    HW121368   4.089   3.265   3.673
 6823SOL    HW221369   4.079   3.189   3.817
 6824SOL     OW21370   0.745   2.913   6.229
 6824SOL    HW121371   0.679   2.869   6.290
 6824SOL    HW221372   0.757   2.857   6.147
 6825SOL     OW21373   5.650   6.630   2.490
 6825SOL    HW121374   5.667   6.697   2.417
 6825SOL    HW221375   5.559   6.590   2.476
 6826SOL     OW21376   2.190   4.099   2.833
 6826SOL    HW121377   2.109   4.118   2.778
 6826SOL    HW221378   2.270   4.141   2.791
 6827SOL     OW21379   4.829   5.947   0.742
 6827SOL    HW121380   4.777   6.031   0.761
 6827SOL    HW221381   4.772   5.884   0.690
 6828SOL     OW21382   2.345   1.789   1.486
 6828SOL    HW121383   2.251   1.786   1.521
 6828SOL    HW221384   2.344   1.781   1.386
 6829SOL     OW21385   4.787   6.852   4.299
 6829SOL    HW121386   4.841   6.785   4.349
 6829SOL    HW221387   4.802   6.943   4.339
 6830SOL     OW21388   5.840   1.205   3.506
 6830SOL    HW121389   5.754   1.230   3.462
 6830SOL    HW221390   5.889   1.139   3.449
 6831SOL     OW21391   0.951   0.079   6.073
 6831SOL    HW121392   1.029   0.041   6.024
 6831SOL    HW221393   0.866   0.040   6.038
 6832SOL     OW21394   2.754   4.348   1.461
 6832SOL    HW121395   2.670   4.354   1.407
 6832SOL    HW221396   2.735   4.382   1.554
 6833SOL     OW21397   4.323   5.042   6.984
 6833SOL    HW121398   4.334   4.986   6.901
 6833SOL    HW221399   4.253   5.001   0.017
 6834SOL     OW21400   4.900   6.924   1.446
 6834SOL    HW121401   4.883   6.843   1.391
 6834SOL    HW221402   4.818   6.981   1.449
 6835SOL     OW21403   4.330   6.925   5.203
 6835SOL    HW121404   4.242   6.964   5.175
 6835SOL    HW221405   4.315   6.832   5.236
 6836SOL     OW21406   3.127   6.001   0.564
 6836SOL    HW121407   3.077   5.918   0.589
 6836SOL    HW221408   3.067   6.081   0.575
 6837SOL     OW21409   1.403   2.817   2.173
 6837SOL    HW121410   1.411   2.775   2.264
 6837SOL    HW221411   1.351   2.902   2.181
 6838SOL     OW21412   1.634   0.228   0.883
 6838SOL    HW121413   1.631   0.143   0.936
 6838SOL    HW221414   1.655   0.305   0.943
 6839SOL     OW21415   5.214   1.017   0.376
 6839SOL    HW121416   5.163   0.974   0.301
 6839SOL    HW221417   5.246   0.947   0.439
 6840SOL     OW21418   2.256   1.898   5.158
 6840SOL    HW121419   2.163   1.877   5.128
 6840SOL    HW221420   2.321   1.841   5.108
 6841SOL     OW21421   5.176   3.608   6.340
 6841SOL    HW121422   5.137   3.519   6.363
 6841SOL    HW221423   5.127   3.646   6.261
 6842SOL     OW21424   2.684   4.711   1.176
 6842SOL    HW121425   2.661   4.771   1.252
 6842SOL    HW221426   2.635   4.624   1.185
 6843SOL     OW21427   5.566   6.777   6.951
 6843SOL    HW121428   5.505   6.711   6.909
 6843SOL    HW221429   5.592   6.846   6.884
 6844SOL     OW21430   5.596   1.214   4.573
 6844SOL    HW121431   5.678   1.225   4.518
 6844SOL    HW221432   5.548   1.302   4.580
 6845SOL     OW21433   6.197   2.872   3.009
 6845SOL    HW121434   6.216   2.948   2.946
 6845SOL    HW221435   6.244   2.790   2.978
 6846SOL     OW21436   3.212   4.261   6.615
 6846SOL    HW121437   3.169   4.331   6.558
 6846SOL    HW221438   3.152   4.181   6.620
 6847SOL     OW21439   6.959   3.384   5.008
 6847SOL    HW121440   6.874   3.339   4.983
 6847SOL    HW221441   6.986   3.358   5.101
 6848SOL     OW21442   5.488   4.132   4.199
 6848SOL    HW121443   5.544   4.195   4.253
 6848SOL    HW221444   5.546   4.082   4.135
 6849SOL     OW21445   3.563   4.544   5.795
 6849SOL    HW121446   3.649   4.507   5.760
 6849SOL    HW221447   3.513   4.472   5.844
 6850SOL     OW21448   4.564   2.491   2.822
 6850SOL    HW121449   4.468   2.482   2.847
 6850SOL    HW221450   4.622   2.466   2.899
 6851SOL     OW21451   1.571   2.709   2.667
 6851SOL    HW121452   1.666   2.678   2.678
 6851SOL    HW221453   1.531   2.725   2.757
 6852SOL     OW21454   2.808   5.316   1.369
 6852SOL    HW121455   2.860   5.353   1.292
 6852SOL    HW221456   2.748   5.242   1.337
 6853SOL     OW21457   5.221   3.532   5.914
 6853SOL    HW121458   5.199   3.454   5.856
 6853SOL    HW221459   5.320   3.546   5.916
 6854SOL     OW21460   5.845   6.852   5.623
 6854SOL    HW121461   5.895   6.842   5.709
 6854SOL    HW221462   5.757   6.805   5.631
 6855SOL     OW21463   4.603   5.816   3.726
 6855SOL    HW121464   4.648   5.727   3.717
 6855SOL    HW221465   4.569   5.845   3.637
 6856SOL     OW21466   0.474   2.577   5.756
 6856SOL    HW121467   0.477   2.569   5.855
 6856SOL    HW221468   0.543   2.517   5.716
 6857SOL     OW21469   0.843   3.635   6.582
 6857SOL    HW121470   0.793   3.559   6.540
 6857SOL    HW221471   0.835   3.628   6.682
 6858SOL     OW21472   3.392   4.442   1.698
 6858SOL    HW121473   3.296   4.466   1.712
 6858SOL    HW221474   3.451   4.511   1.741
 6859SOL     OW21475   0.995   1.224   2.051
 6859SOL    HW121476   1.088   1.192   2.036
 6859SOL    HW221477   0.990   1.322   2.030
 6860SOL     OW21478   6.754   4.568   2.210
 6860SOL    HW121479   6.723   4.478   2.240
 6860SOL    HW221480   6.675   4.621   2.178
 6861SOL     OW21481   4.752   3.349   6.094
 6861SOL    HW121482   4.778   3.335   6.190
 6861SOL    HW221483   4.787   3.437   6.062
 6862SOL     OW21484   0.894   5.307   5.914
 6862SOL    HW121485   0.891   5.380   5.983
 6862SOL    HW221486   0.930   5.224   5.956
 6863SOL     OW21487   0.084   5.806   5.168
 6863SOL    HW121488   0.114   5.895   5.205
 6863SOL    HW221489   0.157   5.739   5.180
 6864SOL     OW21490   1.937   4.504   5.895
 6864SOL    HW121491   1.841   4.526   5.875
 6864SOL    HW221492   1.974   4.445   5.824
 6865SOL     OW21493   2.070   0.681   5.401
 6865SOL    HW121494   2.140   0.613   5.378
 6865SOL    HW221495   2.084   0.713   5.494
 6866SOL     OW21496   5.890   4.217   2.348
 6866SOL    HW121497   5.859   4.173   2.432
 6866SOL    HW221498   5.925   4.308   2.369
 6867SOL     OW21499   2.035   4.188   1.416
 6867SOL    HW121500   2.082   4.273   1.392
 6867SOL    HW221501   2.030   4.179   1.515
 6868SOL     OW21502   2.149   6.097   5.212
 6868SOL    HW121503   2.052   6.074   5.206
 6868SOL    HW221504   2.180   6.137   5.126
 6869SOL     OW21505   3.896   0.120   5.833
 6869SOL    HW121506   3.950   0.175   5.898
 6869SOL    HW221507   3.873   0.175   5.753
 6870SOL     OW21508   0.832   3.499   0.322
 6870SOL    HW121509   0.759   3.477   0.387
 6870SOL    HW221510   0.854   3.418   0.268
 6871SOL     OW21511   0.278   3.829   2.395
 6871SOL    HW121512   0.233   3.814   2.307
 6871SOL    HW221513   0.372   3.793   2.391
 6872SOL     OW21514   1.138   2.400   2.105
 6872SOL    HW121515   1.146   2.488   2.060
 6872SOL    HW221516   1.060   2.349   2.067
 6873SOL     OW21517   0.900   3.768   4.037
 6873SOL    HW121518   0.957   3.694   4.000
 6873SOL    HW221519   0.950   3.817   4.109
 6874SOL     OW21520   6.208   5.762   3.488
 6874SOL    HW121521   6.184   5.764   3.391
 6874SOL    HW221522   6.241   5.852   3.517
 6875SOL     OW21523   2.032   2.515   1.915
 6875SOL    HW121524   2.115   2.514   1.860
 6875SOL    HW221525   2.054   2.546   2.008
 6876SOL     OW21526   3.227   0.271   3.571
 6876SOL    HW121527   3.307   0.327   3.593
 6876SOL    HW221528   3.257   0.180   3.540
 6877SOL     OW21529   3.021   4.537   1.465
 6877SOL    HW121530   2.990   4.442   1.461
 6877SOL    HW221531   2.972   4.592   1.398
 6878SOL     OW21532   2.560   1.571   3.947
 6878SOL    HW121533   2.508   1.487   3.937
 6878SOL    HW221534   2.533   1.617   4.032
 6879SOL     OW21535   1.895   2.593   6.888
 6879SOL    HW121536   1.962   2.580   6.961
 6879SOL    HW221537   1.823   2.524   6.897
 6880SOL     OW21538   1.335   5.845   6.337
 6880SOL    HW121539   1.354   5.911   6.410
 6880SOL    HW221540   1.239   5.854   6.309
 6881SOL     OW21541   1.497   3.645   1.504
 6881SOL    HW121542   1.528   3.740   1.501
 6881SOL    HW221543   1.577   3.585   1.504
 6882SOL     OW21544   3.030   1.268   0.068
 6882SOL    HW121545   3.026   1.362   0.035
 6882SOL    HW221546   2.953   1.216   0.030
 6883SOL     OW21547   5.342   0.195   5.882
 6883SOL    HW121548   5.255   0.228   5.846
 6883SOL    HW221549   5.390   0.270   5.927
 6884SOL     OW21550   1.739   4.284   2.907
 6884SOL    HW121551   1.797   4.365   2.898
 6884SOL    HW221552   1.772   4.212   2.846
 6885SOL     OW21553   4.962   4.809   4.254
 6885SOL    HW121554   4.881   4.809   4.313
 6885SOL    HW221555   5.044   4.819   4.311
 6886SOL     OW21556   6.225   1.444   4.986
 6886SOL    HW121557   6.304   1.390   4.958
 6886SOL    HW221558   6.216   1.442   5.085
 6887SOL     OW21559   4.740   5.772   0.331
 6887SOL    HW121560   4.836   5.801   0.326
 6887SOL    HW221561   4.688   5.839   0.384
 6888SOL     OW21562   5.207   4.351   6.183
 6888SOL    HW121563   5.186   4.442   6.219
 6888SOL    HW221564   5.259   4.299   6.250
 6889SOL     OW21565   1.548   2.657   5.945
 6889SOL    HW121566   1.549   2.691   6.039
 6889SOL    HW221567   1.599   2.720   5.886
 6890SOL     OW21568   3.686   5.702   2.818
 6890SOL    HW121569   3.600   5.753   2.818
 6890SOL    HW221570   3.740   5.727   2.737
 6891SOL     OW21571   2.521   2.701   1.537
 6891SOL    HW121572   2.496   2.617   1.488
 6891SOL    HW221573   2.598   2.683   1.598
 6892SOL     OW21574   3.178   1.353   3.963
 6892SOL    HW121575   3.138   1.375   3.874
 6892SOL    HW221576   3.274   1.330   3.952
 6893SOL     OW21577   6.234   3.481   6.845
 6893SOL    HW121578   6.311   3.525   6.799
 6893SOL    HW221579   6.266   3.442   6.932
 6894SOL     OW21580   5.531   3.992   1.242
 6894SOL    HW121581   5.435   3.994   1.272
 6894SOL    HW221582   5.591   3.993   1.322
 6895SOL     OW21583   1.600   5.809   1.059
 6895SOL    HW121584   1.695   5.779   1.069
 6895SOL    HW221585   1.586   5.843   0.965
 6896SOL     OW21586   3.453   1.689   3.829
 6896SOL    HW121587   3.485   1.763   3.769
 6896SOL    HW221588   3.382   1.724   3.889
 6897SOL     OW21589   4.797   3.978   5.118
 6897SOL    HW121590   4.756   3.887   5.120
 6897SOL    HW221591   4.897   3.969   5.122
 6898SOL     OW21592   3.094   1.162   1.431
 6898SOL    HW121593   3.071   1.121   1.519
 6898SOL    HW221594   3.193   1.177   1.427
 6899SOL     OW21595   5.048   5.940   3.108
 6899SOL    HW121596   4.995   5.986   3.179
 6899SOL    HW221597   5.041   5.990   3.022
 6900SOL     OW21598   6.584   4.856   6.292
 6900SOL    HW121599   6.502   4.802   6.271
 6900SOL    HW221600   6.595   4.928   6.224
 6901SOL     OW21601   4.652   5.437   6.721
 6901SOL    HW121602   4.637   5.445   6.819
 6901SOL    HW221603   4.564   5.433   6.674
 6902SOL     OW21604   6.726   5.809   5.460
 6902SOL    HW121605   6.774   5.820   5.373
 6902SOL    HW221606   6.701   5.898   5.497
 6903SOL     OW21607   2.836   4.990   5.175
 6903SOL    HW121608   2.849   5.035   5.263
 6903SOL    HW221609   2.775   4.911   5.187
 6904SOL     OW21610   0.107   6.175   5.237
 6904SOL    HW121611   0.012   6.195   5.216
 6904SOL    HW221612   0.158   6.159   5.152
 6905SOL     OW21613   5.794   5.459   7.005
 6905SOL    HW121614   5.877   5.406   7.019
 6905SOL    HW221615   5.790   5.491   6.910
 6906SOL     OW21616   3.473   1.891   3.502
 6906SOL    HW121617   3.464   1.796   3.471
 6906SOL    HW221618   3.550   1.898   3.566
 6907SOL     OW21619   6.257   2.092   1.525
 6907SOL    HW121620   6.258   1.995   1.502
 6907SOL    HW221621   6.166   2.118   1.556
 6908SOL     OW21622   2.532   4.533   6.940
 6908SOL    HW121623   2.471   4.483   6.880
 6908SOL    HW221624   2.602   4.472   6.976
 6909SOL     OW21625   4.872   5.056   2.091
 6909SOL    HW121626   4.941   5.125   2.116
 6909SOL    HW221627   4.863   4.991   2.166
 6910SOL     OW21628   1.619   2.747   3.181
 6910SOL    HW121629   1.624   2.649   3.165
 6910SOL    HW221630   1.703   2.791   3.149
 6911SOL     OW21631   3.915   0.168   5.144
 6911SOL    HW121632   3.924   0.178   5.243
 6911SOL    HW221633   4.004   0.184   5.101
 6912SOL     OW21634   2.432   3.319   6.217
 6912SOL    HW121635   2.504   3.279   6.274
 6912SOL    HW221636   2.441   3.283   6.124
 6913SOL     OW21637   5.374   6.103   5.102
 6913SOL    HW121638   5.453   6.158   5.076
 6913SOL    HW221639   5.371   6.020   5.046
 6914SOL     OW21640   5.853   3.984   2.185
 6914SOL    HW121641   5.856   3.926   2.267
 6914SOL    HW221642   5.878   4.078   2.210
 6915SOL     OW21643   0.935   2.770   1.783
 6915SOL    HW121644   0.940   2.800   1.879
 6915SOL    HW221645   1.015   2.804   1.734
 6916SOL     OW21646   5.327   1.297   5.609
 6916SOL    HW121647   5.334   1.219   5.547
 6916SOL    HW221648   5.254   1.279   5.675
 6917SOL     OW21649   5.010   5.726   1.976
 6917SOL    HW121650   5.046   5.808   1.931
 6917SOL    HW221651   5.086   5.671   2.012
 6918SOL     OW21652   0.540   2.858   2.951
 6918SOL    HW121653   0.482   2.861   2.870
 6918SOL    HW221654   0.623   2.806   2.930
 6919SOL     OW21655   6.383   6.555   3.221
 6919SOL    HW121656   6.396   6.456   3.228
 6919SOL    HW221657   6.450   6.602   3.279
 6920SOL     OW21658   5.282   6.781   5.866
 6920SOL    HW121659   5.235   6.790   5.954
 6920SOL    HW221660   5.216   6.792   5.792
 6921SOL     OW21661   4.025   0.266   4.403
 6921SOL    HW121662   4.105   0.208   4.417
 6921SOL    HW221663   3.942   0.214   4.425
 6922SOL     OW21664   1.875   6.161   4.715
 6922SOL    HW121665   1.905   6.145   4.621
 6922SOL    HW221666   1.776   6.172   4.717
 6923SOL     OW21667   6.171   6.349   2.401
 6923SOL    HW121668   6.079   6.339   2.363
 6923SOL    HW221669   6.211   6.435   2.368
 6924SOL     OW21670   3.082   5.345   1.497
 6924SOL    HW121671   3.010   5.330   1.428
 6924SOL    HW221672   3.084   5.268   1.560
 6925SOL     OW21673   4.966   6.020   6.309
 6925SOL    HW121674   5.060   6.012   6.276
 6925SOL    HW221675   4.909   5.950   6.265
 6926SOL     OW21676   1.995   1.940   6.966
 6926SOL    HW121677   1.972   1.898   6.879
 6926SOL    HW221678   2.014   2.038   6.952
 6927SOL     OW21679   4.033   0.978   0.093
 6927SOL    HW121680   4.132   0.968   0.101
 6927SOL    HW221681   3.993   0.987   0.184
 6928SOL     OW21682   5.094   5.503   1.251
 6928SOL    HW121683   5.089   5.475   1.347
 6928SOL    HW221684   5.143   5.434   1.198
 6929SOL     OW21685   5.620   5.265   1.300
 6929SOL    HW121686   5.571   5.196   1.247
 6929SOL    HW221687   5.673   5.323   1.238
 6930SOL     OW21688   0.817   1.166   0.151
 6930SOL    HW121689   0.877   1.169   0.230
 6930SOL    HW221690   0.739   1.107   0.170
 6931SOL     OW21691   1.844   2.169   0.713
 6931SOL    HW121692   1.818   2.073   0.706
 6931SOL    HW221693   1.888   2.186   0.802
 6932SOL     OW21694   4.724   4.966   0.982
 6932SOL    HW121695   4.643   5.019   1.005
 6932SOL    HW221696   4.718   4.876   1.025
 6933SOL     OW21697   3.880   6.711   6.402
 6933SOL    HW121698   3.806   6.776   6.391
 6933SOL    HW221699   3.892   6.658   6.318
 6934SOL     OW21700   4.795   3.283   6.343
 6934SOL    HW121701   4.861   3.215   6.375
 6934SOL    HW221702   4.766   3.340   6.421
 6935SOL     OW21703   4.637   5.393   2.866
 6935SOL    HW121704   4.668   5.381   2.960
 6935SOL    HW221705   4.622   5.490   2.847
 6936SOL     OW21706   0.102   2.099   4.303
 6936SOL    HW121707   0.085   2.118   4.207
 6936SOL    HW221708   0.175   2.031   4.312
 6937SOL     OW21709   5.648   6.127   0.781
 6937SOL    HW121710   5.678   6.032   0.795
 6937SOL    HW221711   5.549   6.132   0.795
 6938SOL     OW21712   0.514   1.403   4.794
 6938SOL    HW121713   0.471   1.323   4.834
 6938SOL    HW221714   0.446   1.475   4.782
 6939SOL     OW21715   6.210   5.253   3.545
 6939SOL    HW121716   6.266   5.170   3.550
 6939SOL    HW221717   6.251   5.316   3.478
 6940SOL     OW21718   4.711   6.706   0.258
 6940SOL    HW121719   4.729   6.695   0.161
 6940SOL    HW221720   4.792   6.744   0.303
 6941SOL     OW21721   2.935   3.756   2.109
 6941SOL    HW121722   2.881   3.714   2.181
 6941SOL    HW221723   2.999   3.688   2.071
 6942SOL     OW21724   5.983   6.506   1.717
 6942SOL    HW121725   6.076   6.471   1.704
 6942SOL    HW221726   5.934   6.504   1.630
 6943SOL     OW21727   4.224   4.836   0.418
 6943SOL    HW121728   4.139   4.798   0.382
 6943SOL    HW221729   4.263   4.773   0.485
 6944SOL     OW21730   1.309   4.878   6.564
 6944SOL    HW121731   1.324   4.858   6.467
 6944SOL    HW221732   1.295   4.793   6.614
 6945SOL     OW21733   6.627   2.351   0.638
 6945SOL    HW121734   6.676   2.266   0.660
 6945SOL    HW221735   6.689   2.428   0.651
 6946SOL     OW21736   3.935   6.081   1.834
 6946SOL    HW121737   3.875   6.157   1.809
 6946SOL    HW221738   3.898   5.996   1.799
 6947SOL     OW21739   4.100   5.531   6.056
 6947SOL    HW121740   4.194   5.519   6.086
 6947SOL    HW221741   4.074   5.456   5.995
 6948SOL     OW21742   0.070   6.371   1.299
 6948SOL    HW121743   0.156   6.412   1.329
 6948SOL    HW221744   0.084   6.319   1.215
 6949SOL     OW21745   2.611   2.460   3.081
 6949SOL    HW121746   2.587   2.557   3.086
 6949SOL    HW221747   2.583   2.415   3.166
 6950SOL     OW21748   1.528   0.060   4.314
 6950SOL    HW121749   1.482   0.147   4.330
 6950SOL    HW221750   1.625   0.069   4.334
 6951SOL     OW21751   6.309   5.285   6.472
 6951SOL    HW121752   6.284   5.198   6.515
 6951SOL    HW221753   6.393   5.319   6.515
 6952SOL     OW21754   2.506   4.589   3.512
 6952SOL    HW121755   2.447   4.667   3.493
 6952SOL    HW221756   2.591   4.622   3.555
 6953SOL     OW21757   5.159   6.886   0.501
 6953SOL    HW121758   5.227   6.950   0.537
 6953SOL    HW221759   5.155   6.895   0.401
 6954SOL     OW21760   0.025   3.641   1.234
 6954SOL    HW121761   0.049   3.586   1.314
 6954SOL    HW221762   7.025   3.581   1.158
 6955SOL     OW21763   5.358   0.260   2.383
 6955SOL    HW121764   5.334   0.337   2.325
 6955SOL    HW221765   5.394   0.293   2.470
 6956SOL     OW21766   6.107   5.411   2.671
 6956SOL    HW121767   6.201   5.381   2.689
 6956SOL    HW221768   6.051   5.397   2.752
 6957SOL     OW21769   5.087   5.714   6.617
 6957SOL    HW121770   5.080   5.685   6.712
 6957SOL    HW221771   5.172   5.677   6.578
 6958SOL     OW21772   3.558   3.683   4.282
 6958SOL    HW121773   3.473   3.705   4.234
 6958SOL    HW221774   3.536   3.644   4.371
 6959SOL     OW21775   1.513   4.015   2.621
 6959SOL    HW121776   1.595   4.011   2.564
 6959SOL    HW221777   1.463   4.100   2.602
 6960SOL     OW21778   2.018   4.760   1.155
 6960SOL    HW121779   2.037   4.858   1.158
 6960SOL    HW221780   2.020   4.722   1.248
 6961SOL     OW21781   4.815   0.914   4.334
 6961SOL    HW121782   4.792   0.856   4.256
 6961SOL    HW221783   4.911   0.901   4.357
 6962SOL     OW21784   3.631   6.370   0.641
 6962SOL    HW121785   3.597   6.443   0.581
 6962SOL    HW221786   3.578   6.368   0.726
 6963SOL     OW21787   5.384   5.500   6.701
 6963SOL    HW121788   5.481   5.503   6.676
 6963SOL    HW221789   5.375   5.473   6.797
 6964SOL     OW21790   3.101   6.981   5.607
 6964SOL    HW121791   3.132   0.022   5.675
 6964SOL    HW221792   3.012   6.944   5.636
 6965SOL     OW21793   1.332   1.939   6.545
 6965SOL    HW121794   1.381   1.988   6.473
 6965SOL    HW221795   1.336   1.840   6.528
 6966SOL     OW21796   1.347   0.947   2.230
 6966SOL    HW121797   1.406   1.025   2.252
 6966SOL    HW221798   1.273   0.978   2.169
 6967SOL     OW21799   3.910   1.246   5.591
 6967SOL    HW121800   3.826   1.206   5.554
 6967SOL    HW221801   3.897   1.345   5.603
 6968SOL     OW21802   2.943   0.345   2.913
 6968SOL    HW121803   2.885   0.300   2.981
 6968SOL    HW221804   2.921   0.308   2.822
 6969SOL     OW21805   2.926   1.956   0.899
 6969SOL    HW121806   2.887   1.884   0.842
 6969SOL    HW221807   2.855   2.022   0.923
 6970SOL     OW21808   3.422   4.942   5.871
 6970SOL    HW121809   3.513   4.952   5.910
 6970SOL    HW221810   3.423   4.869   5.802
 6971SOL     OW21811   5.320   4.662   1.403
 6971SOL    HW121812   5.248   4.680   1.336
 6971SOL    HW221813   5.281   4.619   1.485
 6972SOL     OW21814   5.217   3.461   2.944
 6972SOL    HW121815   5.268   3.418   3.019
 6972SOL    HW221816   5.157   3.532   2.981
 6973SOL     OW21817   0.908   2.216   3.068
 6973SOL    HW121818   0.892   2.182   3.161
 6973SOL    HW221819   0.825   2.258   3.032
 6974SOL     OW21820   2.943   3.760   2.477
 6974SOL    HW121821   2.907   3.703   2.404
 6974SOL    HW221822   3.010   3.708   2.530
 6975SOL     OW21823   2.709   5.561   4.690
 6975SOL    HW121824   2.691   5.548   4.787
 6975SOL    HW221825   2.778   5.633   4.678
 6976SOL     OW21826   5.260   4.208   5.578
 6976SOL    HW121827   5.206   4.190   5.660
 6976SOL    HW221828   5.219   4.162   5.500
 6977SOL     OW21829   4.165   4.267   1.605
 6977SOL    HW121830   4.178   4.170   1.623
 6977SOL    HW221831   4.067   4.288   1.599
 6978SOL     OW21832   5.120   2.834   1.039
 6978SOL    HW121833   5.132   2.890   0.957
 6978SOL    HW221834   5.110   2.738   1.013
 6979SOL     OW21835   1.383   3.242   1.231
 6979SOL    HW121836   1.329   3.317   1.269
 6979SOL    HW221837   1.362   3.231   1.134
 6980SOL     OW21838   1.566   0.856   3.516
 6980SOL    HW121839   1.583   0.920   3.441
 6980SOL    HW221840   1.484   0.803   3.497
 6981SOL     OW21841   3.416   3.457   6.578
 6981SOL    HW121842   3.392   3.512   6.658
 6981SOL    HW221843   3.348   3.471   6.506
 6982SOL     OW21844   0.951   1.019   3.497
 6982SOL    HW121845   0.989   1.009   3.588
 6982SOL    HW221846   0.934   1.116   3.477
 6983SOL     OW21847   4.513   1.558   5.331
 6983SOL    HW121848   4.458   1.557   5.248
 6983SOL    HW221849   4.515   1.467   5.372
 6984SOL     OW21850   1.677   1.838   2.698
 6984SOL    HW121851   1.594   1.856   2.645
 6984SOL    HW221852   1.736   1.918   2.696
 6985SOL     OW21853   6.340   4.639   0.291
 6985SOL    HW121854   6.352   4.653   0.193
 6985SOL    HW221855   6.426   4.606   0.331
 6986SOL     OW21856   3.702   6.484   6.463
 6986SOL    HW121857   3.696   6.412   6.393
 6986SOL    HW221858   3.673   6.571   6.423
 6987SOL     OW21859   6.999   1.853   5.652
 6987SOL    HW121860   0.024   1.938   5.667
 6987SOL    HW221861   0.038   1.777   5.640
 6988SOL     OW21862   2.432   0.339   5.810
 6988SOL    HW121863   2.420   0.259   5.868
 6988SOL    HW221864   2.343   0.372   5.779
 6989SOL     OW21865   6.375   4.521   2.195
 6989SOL    HW121866   6.458   4.574   2.215
 6989SOL    HW221867   6.396   4.453   2.124
 6990SOL     OW21868   3.924   2.992   1.882
 6990SOL    HW121869   3.948   2.953   1.793
 6990SOL    HW221870   3.929   3.092   1.877
 6991SOL     OW21871   5.299   4.714   3.446
 6991SOL    HW121872   5.326   4.776   3.519
 6991SOL    HW221873   5.372   4.647   3.431
 6992SOL     OW21874   6.988   6.329   0.625
 6992SOL    HW121875   6.900   6.355   0.665
 6992SOL    HW221876   0.035   6.386   0.666
 6993SOL     OW21877   6.262   0.411   1.601
 6993SOL    HW121878   6.311   0.369   1.525
 6993SOL    HW221879   6.189   0.350   1.632
 6994SOL     OW21880   1.420   0.208   3.861
 6994SOL    HW121881   1.353   0.242   3.926
 6994SOL    HW221882   1.502   0.265   3.864
 6995SOL     OW21883   0.425   3.641   0.618
 6995SOL    HW121884   0.462   3.734   0.616
 6995SOL    HW221885   0.363   3.631   0.695
 6996SOL     OW21886   1.163   0.344   0.011
 6996SOL    HW121887   1.092   0.388   0.066
 6996SOL    HW221888   1.236   0.311   0.071
 6997SOL     OW21889   0.070   4.680   5.344
 6997SOL    HW121890   0.125   4.705   5.264
 6997SOL    HW221891   0.107   4.724   5.425
 6998SOL     OW21892   0.370   1.430   1.448
 6998SOL    HW121893   0.448   1.368   1.451
 6998SOL    HW221894   0.360   1.466   1.355
 6999SOL     OW21895   0.313   2.382   6.531
 6999SOL    HW121896   0.214   2.379   6.517
 6999SOL    HW221897   0.347   2.473   6.507
 7000SOL     OW21898   6.048   0.164   2.473
 7000SOL    HW121899   6.089   0.211   2.551
 7000SOL    HW221900   5.949   0.174   2.475
 7001SOL     OW21901   0.916   1.658   4.741
 7001SOL    HW121902   1.010   1.683   4.718
 7001SOL    HW221903   0.883   1.590   4.676
 7002SOL     OW21904   1.287   5.519   3.736
 7002SOL    HW121905   1.311   5.613   3.764
 7002SOL    HW221906   1.340   5.494   3.655
 7003SOL     OW21907   5.768   4.581   1.391
 7003SOL    HW121908   5.687   4.578   1.332
 7003SOL    HW221909   5.765   4.505   1.456
 7004SOL     OW21910   1.419   5.510   0.549
 7004SOL    HW121911   1.334   5.460   0.565
 7004SOL    HW221912   1.426   5.533   0.452
 7005SOL     OW21913   0.905   6.855   6.711
 7005SOL    HW121914   0.895   6.922   6.785
 7005SOL    HW221915   0.885   6.898   6.623
 7006SOL     OW21916   6.573   6.663   3.431
 7006SOL    HW121917   6.640   6.631   3.498
 7006SOL    HW221918   6.557   6.761   3.444
 7007SOL     OW21919   4.314   0.538   5.674
 7007SOL    HW121920   4.322   0.620   5.618
 7007SOL    HW221921   4.404   0.494   5.681
 7008SOL     OW21922   6.520   4.516   3.772
 7008SOL    HW121923   6.610   4.543   3.806
 7008SOL    HW221924   6.462   4.597   3.761
 7009SOL     OW21925   4.408   6.690   2.076
 7009SOL    HW121926   4.454   6.739   2.003
 7009SOL    HW221927   4.315   6.725   2.086
 7010SOL     OW21928   5.627   3.972   2.803
 7010SOL    HW121929   5.613   3.912   2.724
 7010SOL    HW221930   5.717   3.955   2.843
 7011SOL     OW21931   4.040   6.797   0.743
 7011SOL    HW121932   4.130   6.839   0.731
 7011SOL    HW221933   3.969   6.867   0.740
 7012SOL     OW21934   1.319   2.971   0.827
 7012SOL    HW121935   1.257   2.962   0.905
 7012SOL    HW221936   1.394   2.906   0.835
 7013SOL     OW21937   2.329   0.997   6.650
 7013SOL    HW121938   2.407   1.033   6.598
 7013SOL    HW221939   2.313   0.902   6.624
 7014SOL     OW21940   5.921   3.682   1.382
 7014SOL    HW121941   5.952   3.588   1.395
 7014SOL    HW221942   5.952   3.739   1.458
 7015SOL     OW21943   5.870   4.638   2.656
 7015SOL    HW121944   5.796   4.611   2.718
 7015SOL    HW221945   5.851   4.602   2.565
 7016SOL     OW21946   3.095   5.114   1.114
 7016SOL    HW121947   3.193   5.129   1.131
 7016SOL    HW221948   3.060   5.049   1.182
 7017SOL     OW21949   3.916   5.117   3.357
 7017SOL    HW121950   3.881   5.039   3.409
 7017SOL    HW221951   4.014   5.105   3.341
 7018SOL     OW21952   5.471   3.402   3.963
 7018SOL    HW121953   5.441   3.387   4.057
 7018SOL    HW221954   5.405   3.361   3.899
 7019SOL     OW21955   4.729   5.281   2.391
 7019SOL    HW121956   4.746   5.294   2.489
 7019SOL    HW221957   4.816   5.272   2.343
 7020SOL     OW21958   0.540   3.652   6.657
 7020SOL    HW121959   0.615   3.674   6.720
 7020SOL    HW221960   0.577   3.632   6.567
 7021SOL     OW21961   1.081   2.732   4.849
 7021SOL    HW121962   1.164   2.772   4.888
 7021SOL    HW221963   1.087   2.734   4.749
 7022SOL     OW21964   4.393   0.578   0.096
 7022SOL    HW121965   4.347   0.605   0.181
 7022SOL    HW221966   4.333   0.597   0.019
 7023SOL     OW21967   0.489   2.402   1.818
 7023SOL    HW121968   0.405   2.451   1.841
 7023SOL    HW221969   0.475   2.352   1.732
 7024SOL     OW21970   3.735   2.904   3.934
 7024SOL    HW121971   3.825   2.864   3.920
 7024SOL    HW221972   3.744   3.003   3.949
 7025SOL     OW21973   3.385   0.453   0.142
 7025SOL    HW121974   3.469   0.501   0.165
 7025SOL    HW221975   3.331   0.438   0.225
 7026SOL     OW21976   3.386   1.662   1.595
 7026SOL    HW121977   3.364   1.627   1.686
 7026SOL    HW221978   3.385   1.762   1.597
 7027SOL     OW21979   2.456   6.045   3.611
 7027SOL    HW121980   2.365   6.031   3.650
 7027SOL    HW221981   2.466   5.988   3.530
 7028SOL     OW21982   2.349   0.347   3.336
 7028SOL    HW121983   2.419   0.417   3.322
 7028SOL    HW221984   2.286   0.376   3.407
 7029SOL     OW21985   2.774   3.658   5.742
 7029SOL    HW121986   2.679   3.675   5.715
 7029SOL    HW221987   2.807   3.574   5.698
 7030SOL     OW21988   0.879   2.177   4.870
 7030SOL    HW121989   0.878   2.246   4.798
 7030SOL    HW221990   0.791   2.176   4.916
 7031SOL     OW21991   4.431   6.454   0.543
 7031SOL    HW121992   4.484   6.397   0.480
 7031SOL    HW221993   4.441   6.550   0.517
 7032SOL     OW21994   4.270   0.661   4.451
 7032SOL    HW121995   4.240   0.710   4.533
 7032SOL    HW221996   4.368   0.643   4.457
 7033SOL     OW21997   1.614   2.797   4.399
 7033SOL    HW121998   1.661   2.751   4.323
 7033SOL    HW221999   1.613   2.896   4.381
 7034SOL     OW22000   6.395   2.617   3.496
 7034SOL    HW122001   6.321   2.653   3.553
 7034SOL    HW222002   6.368   2.620   3.400
 7035SOL     OW22003   1.990   0.004   1.926
 7035SOL    HW122004   1.968   0.044   2.016
 7035SOL    HW222005   2.035   0.072   1.870
 7036SOL     OW22006   0.378   1.895   2.387
 7036SOL    HW122007   0.326   1.924   2.467
 7036SOL    HW222008   0.458   1.955   2.376
 7037SOL     OW22009   0.475   0.642   5.526
 7037SOL    HW122010   0.404   0.703   5.561
 7037SOL    HW222011   0.544   0.627   5.597
 7038SOL     OW22012   2.964   4.428   5.637
 7038SOL    HW122013   2.913   4.445   5.553
 7038SOL    HW222014   2.960   4.330   5.659
 7039SOL     OW22015   0.904   5.254   3.871
 7039SOL    HW122016   0.807   5.236   3.855
 7039SOL    HW222017   0.959   5.177   3.839
 7040SOL     OW22018   4.482   2.336   4.941
 7040SOL    HW122019   4.575   2.303   4.921
 7040SOL    HW222020   4.464   2.418   4.886
 7041SOL     OW22021   1.335   1.397   3.535
 7041SOL    HW122022   1.390   1.437   3.462
 7041SOL    HW222023   1.330   1.298   3.523
 7042SOL     OW22024   4.701   6.057   4.792
 7042SOL    HW122025   4.763   5.999   4.844
 7042SOL    HW222026   4.696   6.024   4.698
 7043SOL     OW22027   2.295   4.301   3.994
 7043SOL    HW122028   2.283   4.225   3.931
 7043SOL    HW222029   2.364   4.364   3.958
 7044SOL     OW22030   4.858   6.930   4.788
 7044SOL    HW122031   4.827   6.952   4.880
 7044SOL    HW222032   4.788   6.956   4.722
 7045SOL     OW22033   5.982   5.263   2.501
 7045SOL    HW122034   5.929   5.334   2.455
 7045SOL    HW222035   6.042   5.305   2.570
 7046SOL     OW22036   3.372   2.101   4.290
 7046SOL    HW122037   3.284   2.147   4.298
 7046SOL    HW222038   3.423   2.109   4.375
 7047SOL     OW22039   0.675   0.996   1.386
 7047SOL    HW122040   0.598   0.948   1.344
 7047SOL    HW222041   0.658   1.008   1.484
 7048SOL     OW22042   6.158   6.367   4.740
 7048SOL    HW122043   6.130   6.413   4.824
 7048SOL    HW222044   6.145   6.268   4.750
 7049SOL     OW22045   4.087   1.410   2.137
 7049SOL    HW122046   4.062   1.490   2.191
 7049SOL    HW222047   4.134   1.344   2.195
 7050SOL     OW22048   3.677   4.871   0.912
 7050SOL    HW122049   3.711   4.881   1.005
 7050SOL    HW222050   3.701   4.780   0.877
 7051SOL     OW22051   0.190   0.093   1.320
 7051SOL    HW122052   0.090   0.086   1.325
 7051SOL    HW222053   0.216   0.190   1.316
 7052SOL     OW22054   5.219   6.602   3.336
 7052SOL    HW122055   5.311   6.612   3.376
 7052SOL    HW222056   5.209   6.667   3.261
 7053SOL     OW22057   1.535   3.409   4.097
 7053SOL    HW122058   1.524   3.380   4.001
 7053SOL    HW222059   1.448   3.446   4.130
 7054SOL     OW22060   0.323   0.460   1.032
 7054SOL    HW122061   0.242   0.462   0.973
 7054SOL    HW222062   0.357   0.366   1.039
 7055SOL     OW22063   2.035   0.496   6.871
 7055SOL    HW122064   1.971   0.468   6.942
 7055SOL    HW222065   2.062   0.416   6.817
 7056SOL     OW22066   6.906   5.793   1.025
 7056SOL    HW122067   6.906   5.698   0.992
 7056SOL    HW222068   6.987   5.840   0.992
 7057SOL     OW22069   3.134   5.217   4.220
 7057SOL    HW122070   3.094   5.259   4.139
 7057SOL    HW222071   3.061   5.190   4.283
 7058SOL     OW22072   5.226   1.929   6.554
 7058SOL    HW122073   5.224   1.999   6.626
 7058SOL    HW222074   5.320   1.901   6.538
 7059SOL     OW22075   2.030   1.579   4.584
 7059SOL    HW122076   2.014   1.619   4.494
 7059SOL    HW222077   1.943   1.572   4.633
 7060SOL     OW22078   3.348   6.624   2.464
 7060SOL    HW122079   3.248   6.631   2.464
 7060SOL    HW222080   3.384   6.670   2.382
 7061SOL     OW22081   1.200   2.038   2.335
 7061SOL    HW122082   1.205   2.068   2.430
 7061SOL    HW222083   1.234   2.110   2.275
 7062SOL     OW22084   4.435   1.973   4.353
 7062SOL    HW122085   4.439   2.048   4.288
 7062SOL    HW222086   4.362   1.989   4.418
 7063SOL     OW22087   0.482   6.644   2.510
 7063SOL    HW122088   0.453   6.585   2.435
 7063SOL    HW222089   0.530   6.590   2.579
 7064SOL     OW22090   5.088   1.508   5.851
 7064SOL    HW122091   5.132   1.489   5.939
 7064SOL    HW222092   4.992   1.533   5.866
 7065SOL     OW22093   3.343   4.455   5.306
 7065SOL    HW122094   3.342   4.362   5.342
 7065SOL    HW222095   3.433   4.497   5.324
 7066SOL     OW22096   5.075   0.845   6.764
 7066SOL    HW122097   4.977   0.862   6.778
 7066SOL    HW222098   5.106   0.775   6.829
 7067SOL     OW22099   1.583   3.719   7.017
 7067SOL    HW122100   1.499   3.710   0.044
 7067SOL    HW222101   1.655   3.756   0.050
 7068SOL     OW22102   5.790   4.426   4.151
 7068SOL    HW122103   5.862   4.459   4.211
 7068SOL    HW222104   5.829   4.396   4.064
 7069SOL     OW22105   6.114   1.465   5.721
 7069SOL    HW122106   6.127   1.504   5.812
 7069SOL    HW222107   6.045   1.393   5.725
 7070SOL     OW22108   0.425   6.417   4.852
 7070SOL    HW122109   0.332   6.393   4.824
 7070SOL    HW222110   0.472   6.335   4.884
 7071SOL     OW22111   5.277   6.598   6.624
 7071SOL    HW122112   5.186   6.559   6.616
 7071SOL    HW222113   5.328   6.581   6.540
 7072SOL     OW22114   1.480   4.465   6.784
 7072SOL    HW122115   1.553   4.397   6.774
 7072SOL    HW222116   1.479   4.525   6.704
 7073SOL     OW22117   3.980   0.261   3.221
 7073SOL    HW122118   4.047   0.187   3.214
 7073SOL    HW222119   4.028   0.348   3.237
 7074SOL     OW22120   6.492   3.690   3.686
 7074SOL    HW122121   6.442   3.767   3.646
 7074SOL    HW222122   6.479   3.609   3.630
 7075SOL     OW22123   3.039   4.811   5.036
 7075SOL    HW122124   2.994   4.724   5.053
 7075SOL    HW222125   2.991   4.884   5.084
 7076SOL     OW22126   6.126   3.143   1.533
 7076SOL    HW122127   6.059   3.081   1.492
 7076SOL    HW222128   6.212   3.139   1.482
 7077SOL     OW22129   2.838   5.287   2.587
 7077SOL    HW122130   2.929   5.326   2.600
 7077SOL    HW222131   2.779   5.316   2.662
 7078SOL     OW22132   5.631   6.911   0.672
 7078SOL    HW122133   5.674   6.916   0.762
 7078SOL    HW222134   5.696   6.940   0.602
 7079SOL     OW22135   1.217   6.815   3.782
 7079SOL    HW122136   1.218   6.735   3.723
 7079SOL    HW222137   1.303   6.865   3.772
 7080SOL     OW22138   4.162   1.685   4.557
 7080SOL    HW122139   4.176   1.590   4.585
 7080SOL    HW222140   4.126   1.737   4.635
 7081SOL     OW22141   1.499   0.758   6.969
 7081SOL    HW122142   1.492   0.752   0.042
 7081SOL    HW222143   1.553   0.681   6.934
 7082SOL     OW22144   6.606   3.627   1.680
 7082SOL    HW122145   6.590   3.726   1.682
 7082SOL    HW222146   6.626   3.596   1.773
 7083SOL     OW22147   0.084   2.292   2.338
 7083SOL    HW122148   0.073   2.288   2.239
 7083SOL    HW222149   0.129   2.378   2.364
 7084SOL     OW22150   0.465   5.380   5.950
 7084SOL    HW122151   0.498   5.473   5.962
 7084SOL    HW222152   0.365   5.379   5.954
 7085SOL     OW22153   0.059   2.614   2.405
 7085SOL    HW122154   0.142   2.590   2.355
 7085SOL    HW222155   7.011   2.634   2.341
 7086SOL     OW22156   5.996   0.570   6.961
 7086SOL    HW122157   6.028   0.611   0.020
 7086SOL    HW222158   6.073   0.523   6.916
 7087SOL     OW22159   4.925   3.329   2.902
 7087SOL    HW122160   4.947   3.312   2.806
 7087SOL    HW222161   5.009   3.332   2.956
 7088SOL     OW22162   5.973   1.533   4.956
 7088SOL    HW122163   5.911   1.504   4.884
 7088SOL    HW222164   6.068   1.522   4.925
 7089SOL     OW22165   3.862   5.738   2.482
 7089SOL    HW122166   3.824   5.828   2.464
 7089SOL    HW222167   3.934   5.745   2.551
 7090SOL     OW22168   3.355   1.396   0.559
 7090SOL    HW122169   3.385   1.441   0.643
 7090SOL    HW222170   3.417   1.419   0.484
 7091SOL     OW22171   0.884   0.339   0.167
 7091SOL    HW122172   0.927   0.394   0.239
 7091SOL    HW222173   0.880   0.392   0.082
 7092SOL     OW22174   4.110   2.044   6.624
 7092SOL    HW122175   4.077   2.106   6.553
 7092SOL    HW222176   4.139   2.096   6.704
 7093SOL     OW22177   3.624   3.884   1.249
 7093SOL    HW122178   3.680   3.876   1.331
 7093SOL    HW222179   3.632   3.976   1.212
 7094SOL     OW22180   1.742   6.635   5.957
 7094SOL    HW122181   1.838   6.605   5.950
 7094SOL    HW222182   1.687   6.559   5.992
 7095SOL     OW22183   3.353   4.878   5.114
 7095SOL    HW122184   3.321   4.909   5.024
 7095SOL    HW222185   3.279   4.830   5.161
 7096SOL     OW22186   6.692   0.766   1.170
 7096SOL    HW122187   6.694   0.864   1.190
 7096SOL    HW222188   6.694   0.752   1.071
 7097SOL     OW22189   5.357   0.158   1.808
 7097SOL    HW122190   5.401   0.154   1.719
 7097SOL    HW222191   5.370   0.071   1.856
 7098SOL     OW22192   1.975   6.946   4.381
 7098SOL    HW122193   1.906   7.018   4.380
 7098SOL    HW222194   1.965   6.891   4.464
 7099SOL     OW22195   3.499   2.102   4.055
 7099SOL    HW122196   3.457   2.114   4.144
 7099SOL    HW222197   3.430   2.115   3.983
 7100SOL     OW22198   0.642   3.501   0.545
 7100SOL    HW122199   0.562   3.560   0.558
 7100SOL    HW222200   0.688   3.488   0.633
 7101SOL     OW22201   2.314   6.111   5.451
 7101SOL    HW122202   2.258   6.102   5.369
 7101SOL    HW222203   2.368   6.196   5.446
 7102SOL     OW22204   5.076   1.176   1.344
 7102SOL    HW122205   5.113   1.227   1.267
 7102SOL    HW222206   4.983   1.208   1.364
 7103SOL     OW22207   4.994   5.242   2.271
 7103SOL    HW122208   5.093   5.247   2.287
 7103SOL    HW222209   4.966   5.313   2.207
 7104SOL     OW22210   5.533   3.078   3.262
 7104SOL    HW122211   5.575   2.997   3.302
 7104SOL    HW222212   5.605   3.144   3.238
 7105SOL     OW22213   3.223   4.112   3.987
 7105SOL    HW122214   3.311   4.111   3.940
 7105SOL    HW222215   3.236   4.136   4.083
 7106SOL     OW22216   3.350   2.947   1.212
 7106SOL    HW122217   3.392   2.898   1.289
 7106SOL    HW222218   3.253   2.926   1.209
 7107SOL     OW22219   4.341   0.037   6.903
 7107SOL    HW122220   4.339   0.080   6.994
 7107SOL    HW222221   4.303   6.971   6.909
 7108SOL     OW22222   2.509   6.268   2.940
 7108SOL    HW122223   2.453   6.340   2.981
 7108SOL    HW222224   2.591   6.254   2.997
 7109SOL     OW22225   1.315   0.475   6.602
 7109SOL    HW122226   1.316   0.407   6.528
 7109SOL    HW222227   1.309   0.567   6.562
 7110SOL     OW22228   3.058   6.692   4.497
 7110SOL    HW122229   3.155   6.669   4.484
 7110SOL    HW222230   3.004   6.608   4.494
 7111SOL     OW22231   1.308   0.961   4.147
 7111SOL    HW122232   1.308   1.059   4.170
 7111SOL    HW222233   1.217   0.934   4.117
 7112SOL     OW22234   1.971   4.218   4.442
 7112SOL    HW122235   1.926   4.238   4.529
 7112SOL    HW222236   2.053   4.164   4.458
 7113SOL     OW22237   2.742   4.742   5.293
 7113SOL    HW122238   2.811   4.696   5.237
 7113SOL    HW222239   2.658   4.752   5.240
 7114SOL     OW22240   4.708   5.357   1.137
 7114SOL    HW122241   4.754   5.300   1.069
 7114SOL    HW222242   4.771   5.430   1.167
 7115SOL     OW22243   5.866   4.313   6.702
 7115SOL    HW122244   5.911   4.231   6.738
 7115SOL    HW222245   5.928   4.359   6.639
 7116SOL     OW22246   6.702   4.023   3.975
 7116SOL    HW122247   6.696   3.934   4.020
 7116SOL    HW222248   6.661   4.093   4.034
 7117SOL     OW22249   6.172   0.025   3.936
 7117SOL    HW122250   6.226   0.102   3.971
 7117SOL    HW222251   6.227   6.998   3.872
 7118SOL     OW22252   4.012   4.657   5.365
 7118SOL    HW122253   3.992   4.560   5.352
 7118SOL    HW222254   3.927   4.708   5.372
 7119SOL     OW22255   5.253   0.790   5.144
 7119SOL    HW122256   5.263   0.690   5.146
 7119SOL    HW222257   5.157   0.813   5.162
 7120SOL     OW22258   5.142   1.445   1.166
 7120SOL    HW122259   5.224   1.402   1.128
 7120SOL    HW222260   5.150   1.544   1.159
 7121SOL     OW22261   0.737   6.207   3.598
 7121SOL    HW122262   0.751   6.209   3.697
 7121SOL    HW222263   0.730   6.112   3.567
 7122SOL     OW22264   2.646   6.938   5.412
 7122SOL    HW122265   2.732   6.887   5.401
 7122SOL    HW222266   2.653   0.000   5.365
 7123SOL     OW22267   6.008   4.854   4.917
 7123SOL    HW122268   5.922   4.902   4.904
 7123SOL    HW222269   6.049   4.881   5.005
 7124SOL     OW22270   1.180   2.800   1.654
 7124SOL    HW122271   1.214   2.717   1.608
 7124SOL    HW222272   1.248   2.830   1.720
 7125SOL     OW22273   0.617   0.535   1.737
 7125SOL    HW122274   0.658   0.571   1.653
 7125SOL    HW222275   0.634   0.599   1.813
 7126SOL     OW22276   4.041   6.263   1.378
 7126SOL    HW122277   4.064   6.317   1.297
 7126SOL    HW222278   3.988   6.182   1.350
 7127SOL     OW22279   3.566   6.124   5.074
 7127SOL    HW122280   3.570   6.142   5.173
 7127SOL    HW222281   3.500   6.051   5.056
 7128SOL     OW22282   3.366   4.944   6.150
 7128SOL    HW122283   3.437   4.888   6.193
 7128SOL    HW222284   3.392   4.965   6.056
 7129SOL     OW22285   0.461   1.750   1.139
 7129SOL    HW122286   0.392   1.678   1.146
 7129SOL    HW222287   0.470   1.780   1.044
 7130SOL     OW22288   2.830   0.013   4.506
 7130SOL    HW122289   2.906   0.073   4.484
 7130SOL    HW222290   2.744   0.058   4.484
 7131SOL     OW22291   3.704   0.615   2.708
 7131SOL    HW122292   3.775   0.630   2.640
 7131SOL    HW222293   3.616   0.605   2.661
 7132SOL     OW22294   5.305   3.836   6.844
 7132SOL    HW122295   5.298   3.921   6.791
 7132SOL    HW222296   5.327   3.761   6.783
 7133SOL     OW22297   3.503   5.624   3.593
 7133SOL    HW122298   3.409   5.594   3.581
 7133SOL    HW222299   3.565   5.558   3.550
 7134SOL     OW22300   5.968   5.669   1.739
 7134SOL    HW122301   5.890   5.691   1.798
 7134SOL    HW222302   6.053   5.693   1.786
 7135SOL     OW22303   1.987   3.322   1.992
 7135SOL    HW122304   1.911   3.378   1.958
 7135SOL    HW222305   2.071   3.376   1.991
 7136SOL     OW22306   2.804   1.717   1.772
 7136SOL    HW122307   2.847   1.795   1.727
 7136SOL    HW222308   2.748   1.749   1.848
 7137SOL     OW22309   2.795   2.017   1.735
 7137SOL    HW122310   2.700   1.985   1.727
 7137SOL    HW222311   2.850   1.975   1.662
 7138SOL     OW22312   1.743   1.390   1.117
 7138SOL    HW122313   1.817   1.347   1.168
 7138SOL    HW222314   1.655   1.354   1.149
 7139SOL     OW22315   5.421   5.682   2.246
 7139SOL    HW122316   5.408   5.765   2.191
 7139SOL    HW222317   5.448   5.708   2.339
 7140SOL     OW22318   6.250   3.703   0.816
 7140SOL    HW122319   6.294   3.691   0.728
 7140SOL    HW222320   6.240   3.801   0.835
 7141SOL     OW22321   4.487   6.646   1.007
 7141SOL    HW122322   4.440   6.613   0.925
 7141SOL    HW222323   4.437   6.723   1.046
 7142SOL     OW22324   3.380   1.100   4.225
 7142SOL    HW122325   3.470   1.056   4.224
 7142SOL    HW222326   3.321   1.056   4.157
 7143SOL     OW22327   2.346   5.021   6.550
 7143SOL    HW122328   2.261   4.986   6.510
 7143SOL    HW222329   2.325   5.087   6.622
 7144SOL     OW22330   6.996   1.169   4.242
 7144SOL    HW122331   0.034   1.245   4.256
 7144SOL    HW222332   6.924   1.198   4.179
 7145SOL     OW22333   4.814   1.743   0.596
 7145SOL    HW122334   4.838   1.812   0.528
 7145SOL    HW222335   4.867   1.660   0.579
 7146SOL     OW22336   2.233   1.374   5.114
 7146SOL    HW122337   2.145   1.336   5.088
 7146SOL    HW222338   2.257   1.450   5.053
 7147SOL     OW22339   5.668   4.719   2.886
 7147SOL    HW122340   5.751   4.716   2.941
 7147SOL    HW222341   5.602   4.652   2.922
 7148SOL     OW22342   6.383   6.015   1.936
 7148SOL    HW122343   6.453   6.001   2.006
 7148SOL    HW222344   6.341   5.927   1.913
 7149SOL     OW22345   6.997   4.490   4.036
 7149SOL    HW122346   0.062   4.532   4.045
 7149SOL    HW222347   6.984   4.423   4.108
 7150SOL     OW22348   4.315   3.539   0.008
 7150SOL    HW122349   4.216   3.543   0.020
 7150SOL    HW222350   4.338   3.470   6.965
 7151SOL     OW22351   3.723   0.357   0.939
 7151SOL    HW122352   3.736   0.456   0.927
 7151SOL    HW222353   3.723   0.335   1.037
 7152SOL     OW22354   0.116   0.766   6.564
 7152SOL    HW122355   0.028   0.720   6.580
 7152SOL    HW222356   0.126   0.783   6.466
 7153SOL     OW22357   4.599   6.201   1.548
 7153SOL    HW122358   4.693   6.166   1.542
 7153SOL    HW222359   4.597   6.296   1.517
 7154SOL     OW22360   4.200   1.242   2.300
 7154SOL    HW122361   4.261   1.173   2.262
 7154SOL    HW222362   4.223   1.258   2.396
 7155SOL     OW22363   3.416   1.863   2.318
 7155SOL    HW122364   3.455   1.940   2.268
 7155SOL    HW222365   3.339   1.826   2.267
 7156SOL     OW22366   5.769   3.443   1.232
 7156SOL    HW122367   5.802   3.521   1.285
 7156SOL    HW222368   5.722   3.379   1.293
 7157SOL     OW22369   6.325   3.945   6.407
 7157SOL    HW122370   6.318   3.881   6.331
 7157SOL    HW222371   6.236   3.986   6.425
 7158SOL     OW22372   5.211   6.616   4.034
 7158SOL    HW122373   5.250   6.559   3.961
 7158SOL    HW222374   5.114   6.593   4.045
 7159SOL     OW22375   0.035   5.100   4.409
 7159SOL    HW122376   0.009   5.166   4.479
 7159SOL    HW222377   0.087   5.025   4.451
 7160SOL     OW22378   5.292   6.721   2.809
 7160SOL    HW122379   5.222   6.651   2.795
 7160SOL    HW222380   5.274   6.799   2.749
 7161SOL     OW22381   4.103   3.392   3.290
 7161SOL    HW122382   4.141   3.392   3.382
 7161SOL    HW222383   4.036   3.318   3.282
 7162SOL     OW22384   0.200   5.571   2.322
 7162SOL    HW122385   0.249   5.516   2.254
 7162SOL    HW222386   0.204   5.667   2.295
 7163SOL     OW22387   1.261   1.772   2.246
 7163SOL    HW122388   1.209   1.786   2.162
 7163SOL    HW222389   1.255   1.853   2.304
 7164SOL     OW22390   1.330   1.084   5.967
 7164SOL    HW122391   1.386   1.151   5.918
 7164SOL    HW222392   1.346   1.093   6.066
 7165SOL     OW22393   5.690   0.045   0.321
 7165SOL    HW122394   5.640   7.013   0.257
 7165SOL    HW222395   5.762   0.095   0.272
 7166SOL     OW22396   4.930   6.517   6.122
 7166SOL    HW122397   4.883   6.573   6.054
 7166SOL    HW222398   4.947   6.571   6.204
 7167SOL     OW22399   6.143   1.807   4.836
 7167SOL    HW122400   6.098   1.818   4.924
 7167SOL    HW222401   6.242   1.807   4.849
 7168SOL     OW22402   2.380   1.148   2.602
 7168SOL    HW122403   2.397   1.078   2.671
 7168SOL    HW222404   2.288   1.186   2.615
 7169SOL     OW22405   1.964   4.058   5.694
 7169SOL    HW122406   1.884   4.118   5.698
 7169SOL    HW222407   1.980   4.031   5.599
 7170SOL     OW22408   4.251   0.457   1.771
 7170SOL    HW122409   4.316   0.533   1.762
 7170SOL    HW222410   4.158   0.493   1.771
 7171SOL     OW22411   5.641   4.959   0.827
 7171SOL    HW122412   5.717   4.937   0.766
 7171SOL    HW222413   5.656   4.916   0.916
 7172SOL     OW22414   1.764   1.331   4.544
 7172SOL    HW122415   1.826   1.358   4.471
 7172SOL    HW222416   1.684   1.286   4.504
 7173SOL     OW22417   5.757   5.618   6.747
 7173SOL    HW122418   5.796   5.693   6.694
 7173SOL    HW222419   5.674   5.649   6.793
 7174SOL     OW22420   5.943   4.521   0.968
 7174SOL    HW122421   6.001   4.508   1.048
 7174SOL    HW222422   5.899   4.435   0.944
 7175SOL     OW22423   5.918   3.944   5.029
 7175SOL    HW122424   5.842   3.976   5.084
 7175SOL    HW222425   5.888   3.869   4.970
 7176SOL     OW22426   0.420   1.529   4.390
 7176SOL    HW122427   0.481   1.607   4.399
 7176SOL    HW222428   0.342   1.540   4.451
 7177SOL     OW22429   2.268   5.310   5.399
 7177SOL    HW122430   2.235   5.249   5.471
 7177SOL    HW222431   2.211   5.299   5.318
 7178SOL     OW22432   0.638   0.463   5.318
 7178SOL    HW122433   0.619   0.416   5.404
 7178SOL    HW222434   0.734   0.450   5.293
 7179SOL     OW22435   3.002   5.500   6.702
 7179SOL    HW122436   2.967   5.590   6.728
 7179SOL    HW222437   3.099   5.507   6.681
 7180SOL     OW22438   1.290   4.883   1.480
 7180SOL    HW122439   1.341   4.799   1.460
 7180SOL    HW222440   1.353   4.958   1.495
 7181SOL     OW22441   2.250   1.670   5.775
 7181SOL    HW122442   2.302   1.588   5.750
 7181SOL    HW222443   2.280   1.703   5.864
 7182SOL     OW22444   0.713   3.413   3.930
 7182SOL    HW122445   0.671   3.327   3.956
 7182SOL    HW222446   0.671   3.447   3.846
 7183SOL     OW22447   1.454   6.415   1.695
 7183SOL    HW122448   1.466   6.376   1.604
 7183SOL    HW222449   1.442   6.341   1.761
 7184SOL     OW22450   6.766   0.431   3.642
 7184SOL    HW122451   6.690   0.451   3.705
 7184SOL    HW222452   6.810   0.346   3.669
 7185SOL     OW22453   4.993   0.888   5.108
 7185SOL    HW122454   4.907   0.917   5.149
 7185SOL    HW222455   5.051   0.968   5.094
 7186SOL     OW22456   0.267   0.230   0.090
 7186SOL    HW122457   0.244   0.133   0.095
 7186SOL    HW222458   0.260   0.271   0.181
 7187SOL     OW22459   3.122   2.940   5.081
 7187SOL    HW122460   3.054   2.995   5.033
 7187SOL    HW222461   3.212   2.958   5.042
 7188SOL     OW22462   4.174   4.921   0.136
 7188SOL    HW122463   4.257   4.871   0.164
 7188SOL    HW222464   4.102   4.905   0.203
 7189SOL     OW22465   6.429   2.453   5.263
 7189SOL    HW122466   6.418   2.411   5.173
 7189SOL    HW222467   6.442   2.381   5.332
 7190SOL     OW22468   6.124   5.487   1.326
 7190SOL    HW122469   6.107   5.390   1.311
 7190SOL    HW222470   6.051   5.525   1.383
 7191SOL     OW22471   0.670   4.104   3.576
 7191SOL    HW122472   0.638   4.030   3.637
 7191SOL    HW222473   0.767   4.090   3.556
 7192SOL     OW22474   1.736   5.149   6.854
 7192SOL    HW122475   1.663   5.089   6.888
 7192SOL    HW222476   1.824   5.101   6.859
 7193SOL     OW22477   3.041   2.139   2.568
 7193SOL    HW122478   3.032   2.040   2.554
 7193SOL    HW222479   3.137   2.165   2.558
 7194SOL     OW22480   2.773   2.683   6.715
 7194SOL    HW122481   2.681   2.721   6.708
 7194SOL    HW222482   2.838   2.756   6.738
 7195SOL     OW22483   0.271   3.691   6.690
 7195SOL    HW122484   0.252   3.741   6.774
 7195SOL    HW222485   0.369   3.679   6.680
 7196SOL     OW22486   3.046   3.985   2.428
 7196SOL    HW122487   3.005   3.896   2.448
 7196SOL    HW222488   3.006   4.023   2.345
 7197SOL     OW22489   1.456   3.757   5.463
 7197SOL    HW122490   1.447   3.688   5.391
 7197SOL    HW222491   1.547   3.799   5.458
 7198SOL     OW22492   6.592   0.965   0.511
 7198SOL    HW122493   6.662   0.978   0.440
 7198SOL    HW222494   6.543   1.052   0.525
 7199SOL     OW22495   1.065   0.989   2.775
 7199SOL    HW122496   0.983   1.037   2.743
 7199SOL    HW222497   1.080   0.908   2.719
 7200SOL     OW22498   2.204   2.299   0.083
 7200SOL    HW122499   2.290   2.331   0.122
 7200SOL    HW222500   2.135   2.372   0.087
 7201SOL     OW22501   6.089   5.957   4.277
 7201SOL    HW122502   6.107   5.902   4.196
 7201SOL    HW222503   6.010   6.016   4.261
 7202SOL     OW22504   5.187   6.446   6.121
 7202SOL    HW122505   5.232   6.525   6.163
 7202SOL    HW222506   5.088   6.462   6.116
 7203SOL     OW22507   0.366   1.360   1.993
 7203SOL    HW122508   0.390   1.418   2.070
 7203SOL    HW222509   0.343   1.268   2.025
 7204SOL     OW22510   6.850   1.488   1.053
 7204SOL    HW122511   6.772   1.513   1.110
 7204SOL    HW222512   6.825   1.411   0.994
 7205SOL     OW22513   1.935   2.398   5.263
 7205SOL    HW122514   2.032   2.406   5.287
 7205SOL    HW222515   1.922   2.433   5.170
 7206SOL     OW22516   1.585   2.128   1.078
 7206SOL    HW122517   1.537   2.163   0.998
 7206SOL    HW222518   1.676   2.170   1.084
 7207SOL     OW22519   2.057   2.218   3.969
 7207SOL    HW122520   2.011   2.154   3.907
 7207SOL    HW222521   2.120   2.168   4.028
 7208SOL     OW22522   3.802   0.596   4.362
 7208SOL    HW122523   3.838   0.583   4.270
 7208SOL    HW222524   3.863   0.551   4.428
 7209SOL     OW22525   2.273   2.284   2.492
 7209SOL    HW122526   2.333   2.315   2.565
 7209SOL    HW222527   2.313   2.305   2.403
 7210SOL     OW22528   2.428   1.775   2.826
 7210SOL    HW122529   2.384   1.865   2.829
 7210SOL    HW222530   2.491   1.771   2.749
 7211SOL     OW22531   3.409   5.906   4.974
 7211SOL    HW122532   3.386   5.814   5.005
 7211SOL    HW222533   3.327   5.952   4.940
 7212SOL     OW22534   5.805   5.026   5.963
 7212SOL    HW122535   5.709   5.033   5.939
 7212SOL    HW222536   5.861   5.035   5.880
 7213SOL     OW22537   3.778   0.396   0.393
 7213SOL    HW122538   3.759   0.333   0.468
 7213SOL    HW222539   3.862   0.369   0.347
 7214SOL     OW22540   0.356   0.855   6.096
 7214SOL    HW122541   0.352   0.768   6.145
 7214SOL    HW222542   0.399   0.842   6.007
 7215SOL     OW22543   0.274   2.700   3.063
 7215SOL    HW122544   0.247   2.760   3.138
 7215SOL    HW222545   0.274   2.752   2.977
 7216SOL     OW22546   3.344   6.489   2.870
 7216SOL    HW122547   3.263   6.530   2.828
 7216SOL    HW222548   3.318   6.441   2.954
 7217SOL     OW22549   1.285   4.092   4.090
 7217SOL    HW122550   1.340   4.175   4.097
 7217SOL    HW222551   1.344   4.015   4.063
 7218SOL     OW22552   6.745   3.460   4.453
 7218SOL    HW122553   6.747   3.428   4.358
 7218SOL    HW222554   6.825   3.423   4.502
 7219SOL     OW22555   3.084   6.907   1.584
 7219SOL    HW122556   3.122   6.942   1.498
 7219SOL    HW222557   3.144   6.935   1.659
 7220SOL     OW22558   6.911   3.836   4.818
 7220SOL    HW122559   6.825   3.869   4.857
 7220SOL    HW222560   6.946   3.760   4.873
 7221SOL     OW22561   2.995   6.122   4.532
 7221SOL    HW122562   3.002   6.089   4.438
 7221SOL    HW222563   3.087   6.132   4.571
 7222SOL     OW22564   6.389   6.519   3.590
 7222SOL    HW122565   6.443   6.572   3.525
 7222SOL    HW222566   6.295   6.511   3.557
 7223SOL     OW22567   2.637   1.834   0.413
 7223SOL    HW122568   2.586   1.791   0.339
 7223SOL    HW222569   2.607   1.928   0.425
 7224SOL     OW22570   4.585   2.476   3.741
 7224SOL    HW122571   4.495   2.500   3.779
 7224SOL    HW222572   4.577   2.463   3.642
 7225SOL     OW22573   1.686   6.935   0.736
 7225SOL    HW122574   1.662   6.933   0.833
 7225SOL    HW222575   1.763   6.997   0.722
 7226SOL     OW22576   5.702   0.941   0.651
 7226SOL    HW122577   5.729   0.845   0.638
 7226SOL    HW222578   5.602   0.947   0.652
 7227SOL     OW22579   2.655   0.416   2.380
 7227SOL    HW122580   2.584   0.377   2.321
 7227SOL    HW222581   2.735   0.438   2.325
 7228SOL     OW22582   0.594   2.087   2.445
 7228SOL    HW122583   0.549   2.119   2.528
 7228SOL    HW222584   0.676   2.036   2.469
 7229SOL     OW22585   6.685   7.005   4.500
 7229SOL    HW122586   6.752   6.937   4.528
 7229SOL    HW222587   6.638   6.973   4.418
 7230SOL     OW22588   2.864   5.106   3.930
 7230SOL    HW122589   2.780   5.137   3.976
 7230SOL    HW222590   2.909   5.036   3.986
 7231SOL     OW22591   3.871   0.698   0.086
 7231SOL    HW122592   3.937   0.773   0.076
 7231SOL    HW222593   3.778   0.734   0.073
 7232SOL     OW22594   5.208   6.922   2.646
 7232SOL    HW122595   5.114   6.950   2.629
 7232SOL    HW222596   5.259   6.921   2.560
 7233SOL     OW22597   5.953   1.964   6.182
 7233SOL    HW122598   5.993   1.909   6.108
 7233SOL    HW222599   5.863   1.996   6.153
 7234SOL     OW22600   4.826   4.047   3.547
 7234SOL    HW122601   4.800   3.974   3.609
 7234SOL    HW222602   4.925   4.045   3.532
 7235SOL     OW22603   6.230   5.731   1.831
 7235SOL    HW122604   6.298   5.713   1.902
 7235SOL    HW222605   6.260   5.690   1.745
 7236SOL     OW22606   2.062   2.434   2.933
 7236SOL    HW122607   2.070   2.480   3.021
 7236SOL    HW222608   2.152   2.428   2.890
 7237SOL     OW22609   5.365   0.030   6.809
 7237SOL    HW122610   5.322   0.064   6.726
 7237SOL    HW222611   5.464   0.040   6.802
 7238SOL     OW22612   4.808   2.353   6.890
 7238SOL    HW122613   4.832   2.325   6.797
 7238SOL    HW222614   4.791   2.272   6.946
 7239SOL     OW22615   0.451   3.444   2.188
 7239SOL    HW122616   0.377   3.441   2.256
 7239SOL    HW222617   0.426   3.388   2.109
 7240SOL     OW22618   6.869   1.558   6.054
 7240SOL    HW122619   6.797   1.593   5.995
 7240SOL    HW222620   6.863   1.601   6.144
 7241SOL     OW22621   1.993   0.690   0.841
 7241SOL    HW122622   1.931   0.665   0.914
 7241SOL    HW222623   2.086   0.702   0.878
 7242SOL     OW22624   0.212   6.155   4.969
 7242SOL    HW122625   0.209   6.253   4.949
 7242SOL    HW222626   0.267   6.109   4.899
 7243SOL     OW22627   0.149   3.384   6.285
 7243SOL    HW122628   0.062   3.372   6.334
 7243SOL    HW222629   0.131   3.385   6.187
 7244SOL     OW22630   0.370   6.645   0.177
 7244SOL    HW122631   0.445   6.694   0.133
 7244SOL    HW222632   0.369   6.665   0.275
 7245SOL     OW22633   1.439   2.313   6.662
 7245SOL    HW122634   1.503   2.236   6.667
 7245SOL    HW222635   1.347   2.281   6.686
 7246SOL     OW22636   2.918   0.796   4.308
 7246SOL    HW122637   2.858   0.718   4.292
 7246SOL    HW222638   2.988   0.799   4.236
 7247SOL     OW22639   3.085   2.347   5.557
 7247SOL    HW122640   3.174   2.315   5.523
 7247SOL    HW222641   3.033   2.388   5.482
 7248SOL     OW22642   3.040   0.700   4.019
 7248SOL    HW122643   2.949   0.695   3.977
 7248SOL    HW222644   3.095   0.623   3.985
 7249SOL     OW22645   4.329   4.616   2.204
 7249SOL    HW122646   4.292   4.708   2.193
 7249SOL    HW222647   4.373   4.588   2.118
 7250SOL     OW22648   5.086   4.856   6.218
 7250SOL    HW122649   5.086   4.922   6.142
 7250SOL    HW222650   5.178   4.822   6.233
 7251SOL     OW22651   1.015   6.558   6.141
 7251SOL    HW122652   0.971   6.471   6.162
 7251SOL    HW222653   0.945   6.625   6.117
 7252SOL     OW22654   3.033   4.004   2.138
 7252SOL    HW122655   2.997   3.911   2.143
 7252SOL    HW222656   2.971   4.062   2.085
 7253SOL     OW22657   1.604   6.870   5.996
 7253SOL    HW122658   1.659   6.796   5.958
 7253SOL    HW222659   1.593   6.856   6.095
 7254SOL     OW22660   5.635   4.750   3.904
 7254SOL    HW122661   5.734   4.757   3.895
 7254SOL    HW222662   5.610   4.747   4.001
 7255SOL     OW22663   4.943   3.302   6.879
 7255SOL    HW122664   5.005   3.338   6.810
 7255SOL    HW222665   4.854   3.347   6.871
 7256SOL     OW22666   3.724   6.642   5.466
 7256SOL    HW122667   3.762   6.555   5.434
 7256SOL    HW222668   3.649   6.670   5.406
 7257SOL     OW22669   6.998   1.893   5.275
 7257SOL    HW122670   7.017   1.923   5.182
 7257SOL    HW222671   6.919   1.941   5.311
 7258SOL     OW22672   5.521   2.340   1.456
 7258SOL    HW122673   5.521   2.252   1.410
 7258SOL    HW222674   5.543   2.328   1.553
 7259SOL     OW22675   1.313   3.750   2.792
 7259SOL    HW122676   1.397   3.734   2.739
 7259SOL    HW222677   1.330   3.822   2.859
 7260SOL     OW22678   4.890   2.428   0.786
 7260SOL    HW122679   4.843   2.510   0.818
 7260SOL    HW222680   4.929   2.379   0.864
 7261SOL     OW22681   0.350   3.897   0.890
 7261SOL    HW122682   0.310   3.811   0.857
 7261SOL    HW222683   0.290   3.937   0.960
 7262SOL     OW22684   5.568   1.102   6.344
 7262SOL    HW122685   5.597   1.071   6.253
 7262SOL    HW222686   5.528   1.193   6.337
 7263SOL     OW22687   0.155   6.989   0.126
 7263SOL    HW122688   0.071   7.017   0.172
 7263SOL    HW222689   0.217   6.946   0.192
 7264SOL     OW22690   5.668   0.942   1.017
 7264SOL    HW122691   5.709   1.029   0.992
 7264SOL    HW222692   5.726   0.896   1.084
 7265SOL     OW22693   5.706   5.374   4.609
 7265SOL    HW122694   5.794   5.362   4.563
 7265SOL    HW222695   5.715   5.348   4.705
 7266SOL     OW22696   0.009   0.449   3.582
 7266SOL    HW122697   6.942   0.451   3.617
 7266SOL    HW222698   0.072   0.421   3.656
 7267SOL     OW22699   6.375   6.594   4.897
 7267SOL    HW122700   6.351   6.498   4.907
 7267SOL    HW222701   6.343   6.628   4.809
 7268SOL     OW22702   7.005   5.307   4.584
 7268SOL    HW122703   0.061   5.359   4.560
 7268SOL    HW222704   6.925   5.365   4.574
 7269SOL     OW22705   2.323   6.337   5.939
 7269SOL    HW122706   2.267   6.254   5.939
 7269SOL    HW222707   2.328   6.374   5.847
 7270SOL     OW22708   0.101   2.104   4.012
 7270SOL    HW122709   0.157   2.165   3.957
 7270SOL    HW222710   0.008   2.141   4.019
 7271SOL     OW22711   1.844   5.307   3.822
 7271SOL    HW122712   1.860   5.371   3.896
 7271SOL    HW222713   1.863   5.351   3.734
 7272SOL     OW22714   6.645   5.993   2.051
 7272SOL    HW122715   6.701   5.921   2.011
 7272SOL    HW222716   6.691   6.028   2.133
 7273SOL     OW22717   5.097   3.449   6.701
 7273SOL    HW122718   5.195   3.465   6.688
 7273SOL    HW222719   5.045   3.505   6.635
 7274SOL     OW22720   0.390   4.049   6.944
 7274SOL    HW122721   0.425   4.107   6.871
 7274SOL    HW222722   0.438   3.961   6.943
 7275SOL     OW22723   0.123   6.153   2.895
 7275SOL    HW122724   0.065   6.153   2.814
 7275SOL    HW222725   0.100   6.074   2.953
 7276SOL     OW22726   5.161   6.948   3.738
 7276SOL    HW122727   5.170   6.858   3.780
 7276SOL    HW222728   5.227   6.958   3.664
 7277SOL     OW22729   5.082   0.202   5.720
 7277SOL    HW122730   5.066   0.112   5.760
 7277SOL    HW222731   5.131   0.192   5.634
 7278SOL     OW22732   3.175   3.965   1.316
 7278SOL    HW122733   3.220   3.972   1.405
 7278SOL    HW222734   3.087   3.921   1.326
 7279SOL     OW22735   4.179   6.217   0.169
 7279SOL    HW122736   4.268   6.182   0.140
 7279SOL    HW222737   4.165   6.198   0.266
 7280SOL     OW22738   6.147   0.184   4.470
 7280SOL    HW122739   6.178   0.272   4.508
 7280SOL    HW222740   6.126   0.122   4.545
 7281SOL     OW22741   3.033   1.523   6.998
 7281SOL    HW122742   3.095   1.572   0.033
 7281SOL    HW222743   2.980   1.588   6.944
 7282SOL     OW22744   6.072   5.015   2.563
 7282SOL    HW122745   6.161   5.043   2.599
 7282SOL    HW222746   6.027   5.094   2.521
 7283SOL     OW22747   3.257   1.352   3.598
 7283SOL    HW122748   3.181   1.384   3.542
 7283SOL    HW222749   3.234   1.264   3.640
 7284SOL     OW22750   0.400   3.421   5.448
 7284SOL    HW122751   0.398   3.341   5.508
 7284SOL    HW222752   0.366   3.500   5.497
 7285SOL     OW22753   5.078   3.831   2.485
 7285SOL    HW122754   5.146   3.760   2.462
 7285SOL    HW222755   5.126   3.913   2.515
 7286SOL     OW22756   2.873   1.685   0.783
 7286SOL    HW122757   2.908   1.603   0.829
 7286SOL    HW222758   2.922   1.698   0.696
 7287SOL     OW22759   0.235   2.191   6.170
 7287SOL    HW122760   0.205   2.260   6.236
 7287SOL    HW222761   0.214   2.100   6.205
 7288SOL     OW22762   3.625   0.602   6.414
 7288SOL    HW122763   3.692   0.538   6.376
 7288SOL    HW222764   3.640   0.693   6.376
 7289SOL     OW22765   6.623   1.543   3.157
 7289SOL    HW122766   6.550   1.482   3.187
 7289SOL    HW222767   6.709   1.492   3.153
 7290SOL     OW22768   2.880   6.363   5.142
 7290SOL    HW122769   2.858   6.352   5.240
 7290SOL    HW222770   2.840   6.449   5.109
 7291SOL     OW22771   1.656   0.204   1.433
 7291SOL    HW122772   1.560   0.181   1.417
 7291SOL    HW222773   1.701   0.129   1.482
 7292SOL     OW22774   2.550   0.827   4.459
 7292SOL    HW122775   2.636   0.874   4.483
 7292SOL    HW222776   2.496   0.813   4.542
 7293SOL     OW22777   1.514   1.613   5.212
 7293SOL    HW122778   1.559   1.690   5.256
 7293SOL    HW222779   1.547   1.528   5.252
 7294SOL     OW22780   2.729   5.388   0.621
 7294SOL    HW122781   2.792   5.376   0.699
 7294SOL    HW222782   2.702   5.484   0.616
 7295SOL     OW22783   1.019   2.625   0.620
 7295SOL    HW122784   1.076   2.590   0.546
 7295SOL    HW222785   1.012   2.724   0.612
 7296SOL     OW22786   2.827   4.975   1.068
 7296SOL    HW122787   2.911   4.920   1.065
 7296SOL    HW222788   2.751   4.921   1.032
 7297SOL     OW22789   3.408   5.825   1.034
 7297SOL    HW122790   3.385   5.861   0.944
 7297SOL    HW222791   3.496   5.778   1.029
 7298SOL     OW22792   4.775   4.362   5.694
 7298SOL    HW122793   4.858   4.404   5.730
 7298SOL    HW222794   4.796   4.314   5.609
 7299SOL     OW22795   0.184   1.711   0.067
 7299SOL    HW122796   0.142   1.632   0.113
 7299SOL    HW222797   0.279   1.689   0.044
 7300SOL     OW22798   6.174   5.694   2.323
 7300SOL    HW122799   6.247   5.714   2.387
 7300SOL    HW222800   6.182   5.753   2.242
 7301SOL     OW22801   6.380   0.853   4.652
 7301SOL    HW122802   6.358   0.907   4.571
 7301SOL    HW222803   6.296   0.810   4.687
 7302SOL     OW22804   0.574   1.109   5.965
 7302SOL    HW122805   0.573   1.174   5.889
 7302SOL    HW222806   0.541   1.153   6.048
 7303SOL     OW22807   4.991   0.651   6.494
 7303SOL    HW122808   4.909   0.703   6.517
 7303SOL    HW222809   5.066   0.678   6.554
 7304SOL     OW22810   3.849   4.179   0.305
 7304SOL    HW122811   3.759   4.220   0.288
 7304SOL    HW222812   3.839   4.099   0.364
 7305SOL     OW22813   4.550   1.783   0.674
 7305SOL    HW122814   4.645   1.753   0.664
 7305SOL    HW222815   4.539   1.874   0.633
 7306SOL     OW22816   5.089   2.892   1.291
 7306SOL    HW122817   5.106   2.853   1.201
 7306SOL    HW222818   5.168   2.945   1.320
 7307SOL     OW22819   2.994   0.191   1.576
 7307SOL    HW122820   2.949   0.125   1.636
 7307SOL    HW222821   3.093   0.173   1.576
 7308SOL     OW22822   6.784   4.201   5.676
 7308SOL    HW122823   6.813   4.235   5.765
 7308SOL    HW222824   6.780   4.101   5.679
 7309SOL     OW22825   5.222   5.864   0.301
 7309SOL    HW122826   5.245   5.805   0.379
 7309SOL    HW222827   5.167   5.941   0.332
 7310SOL     OW22828   2.005   3.954   1.612
 7310SOL    HW122829   2.071   3.882   1.588
 7310SOL    HW222830   2.051   4.024   1.666
 7311SOL     OW22831   3.492   2.074   2.142
 7311SOL    HW122832   3.569   2.115   2.093
 7311SOL    HW222833   3.410   2.079   2.086
 7312SOL     OW22834   0.083   3.153   5.913
 7312SOL    HW122835   0.117   3.226   5.972
 7312SOL    HW222836   0.082   3.184   5.818
 7313SOL     OW22837   4.083   1.906   6.109
 7313SOL    HW122838   4.145   1.944   6.177
 7313SOL    HW222839   4.082   1.964   6.028
 7314SOL     OW22840   6.337   3.310   5.577
 7314SOL    HW122841   6.372   3.275   5.664
 7314SOL    HW222842   6.237   3.302   5.575
 7315SOL     OW22843   6.770   0.030   2.784
 7315SOL    HW122844   6.746   6.986   2.852
 7315SOL    HW222845   6.786   7.012   2.696
 7316SOL     OW22846   3.060   3.641   6.244
 7316SOL    HW122847   2.983   3.579   6.228
 7316SOL    HW222848   3.073   3.699   6.164
 7317SOL     OW22849   4.720   0.902   2.697
 7317SOL    HW122850   4.712   0.997   2.667
 7317SOL    HW222851   4.716   0.841   2.618
 7318SOL     OW22852   0.962   1.874   0.396
 7318SOL    HW122853   0.915   1.863   0.483
 7318SOL    HW222854   0.950   1.792   0.341
 7319SOL     OW22855   5.861   3.590   6.203
 7319SOL    HW122856   5.773   3.546   6.221
 7319SOL    HW222857   5.848   3.664   6.136
 7320SOL     OW22858   6.362   3.335   1.686
 7320SOL    HW122859   6.303   3.395   1.741
 7320SOL    HW222860   6.332   3.338   1.591
 7321SOL     OW22861   3.252   6.362   5.050
 7321SOL    HW122862   3.210   6.424   4.984
 7321SOL    HW222863   3.200   6.364   5.136
 7322SOL     OW22864   0.150   2.696   2.694
 7322SOL    HW122865   0.111   2.676   2.604
 7322SOL    HW222866   0.178   2.610   2.738
 7323SOL     OW22867   2.042   2.261   1.633
 7323SOL    HW122868   1.994   2.334   1.585
 7323SOL    HW222869   2.133   2.249   1.594
 7324SOL     OW22870   5.440   6.463   2.488
 7324SOL    HW122871   5.348   6.502   2.487
 7324SOL    HW222872   5.436   6.371   2.527
 7325SOL     OW22873   4.089   6.816   6.910
 7325SOL    HW122874   4.043   6.743   6.859
 7325SOL    HW222875   4.060   6.905   6.875
 7326SOL     OW22876   2.575   6.568   5.475
 7326SOL    HW122877   2.638   6.549   5.551
 7326SOL    HW222878   2.520   6.649   5.497
 7327SOL     OW22879   6.892   2.960   5.284
 7327SOL    HW122880   6.862   3.010   5.203
 7327SOL    HW222881   6.812   2.932   5.337
 7328SOL     OW22882   3.422   0.552   6.009
 7328SOL    HW122883   3.374   0.488   5.949
 7328SOL    HW222884   3.486   0.501   6.067
 7329SOL     OW22885   4.509   3.809   1.665
 7329SOL    HW122886   4.564   3.881   1.708
 7329SOL    HW222887   4.453   3.850   1.593
 7330SOL     OW22888   2.986   2.063   0.171
 7330SOL    HW122889   2.920   2.031   0.104
 7330SOL    HW222890   3.003   2.161   0.157
 7331SOL     OW22891   5.505   0.108   1.599
 7331SOL    HW122892   5.491   0.171   1.522
 7331SOL    HW222893   5.471   0.018   1.575
 7332SOL     OW22894   2.219   6.331   0.216
 7332SOL    HW122895   2.232   6.250   0.273
 7332SOL    HW222896   2.135   6.378   0.242
 7333SOL     OW22897   6.948   3.255   3.977
 7333SOL    HW122898   0.007   3.285   3.935
 7333SOL    HW222899   6.871   3.276   3.917
 7334SOL     OW22900   3.967   6.385   0.141
 7334SOL    HW122901   4.059   6.346   0.137
 7334SOL    HW222902   3.900   6.312   0.154
 7335SOL     OW22903   1.910   2.991   2.602
 7335SOL    HW122904   1.899   2.901   2.561
 7335SOL    HW222905   1.985   3.039   2.556
 7336SOL     OW22906   1.684   6.059   2.916
 7336SOL    HW122907   1.689   5.979   2.975
 7336SOL    HW222908   1.625   6.040   2.838
 7337SOL     OW22909   0.738   2.975   2.134
 7337SOL    HW122910   0.751   3.070   2.162
 7337SOL    HW222911   0.690   2.925   2.205
 7338SOL     OW22912   6.346   2.717   1.107
 7338SOL    HW122913   6.364   2.768   1.191
 7338SOL    HW222914   6.394   2.629   1.109
 7339SOL     OW22915   5.018   6.102   3.587
 7339SOL    HW122916   4.941   6.100   3.652
 7339SOL    HW222917   5.102   6.128   3.635
 7340SOL     OW22918   1.338   0.816   0.541
 7340SOL    HW122919   1.270   0.845   0.609
 7340SOL    HW222920   1.332   0.718   0.527
 7341SOL     OW22921   6.926   2.810   6.783
 7341SOL    HW122922   6.885   2.768   6.865
 7341SOL    HW222923   6.894   2.761   6.702
 7342SOL     OW22924   6.549   1.351   1.674
 7342SOL    HW122925   6.553   1.352   1.774
 7342SOL    HW222926   6.471   1.405   1.643
 7343SOL     OW22927   4.393   2.816   6.940
 7343SOL    HW122928   4.484   2.801   6.902
 7343SOL    HW222929   4.387   2.908   6.977
 7344SOL     OW22930   1.382   6.519   6.114
 7344SOL    HW122931   1.405   6.469   6.198
 7344SOL    HW222932   1.365   6.615   6.137
 7345SOL     OW22933   3.803   3.621   5.775
 7345SOL    HW122934   3.750   3.557   5.719
 7345SOL    HW222935   3.862   3.676   5.716
 7346SOL     OW22936   4.042   6.012   2.669
 7346SOL    HW122937   4.116   6.019   2.602
 7346SOL    HW222938   4.021   5.916   2.686
 7347SOL     OW22939   0.449   1.818   0.551
 7347SOL    HW122940   0.489   1.874   0.478
 7347SOL    HW222941   0.512   1.745   0.577
 7348SOL     OW22942   1.363   3.536   3.826
 7348SOL    HW122943   1.401   3.443   3.830
 7348SOL    HW222944   1.305   3.551   3.906
 7349SOL     OW22945   4.213   0.113   1.916
 7349SOL    HW122946   4.242   0.082   1.825
 7349SOL    HW222947   4.154   0.045   1.958
 7350SOL     OW22948   2.612   1.725   5.708
 7350SOL    HW122949   2.570   1.635   5.714
 7350SOL    HW222950   2.553   1.793   5.752
 7351SOL     OW22951   5.624   5.518   3.424
 7351SOL    HW122952   5.623   5.461   3.342
 7351SOL    HW222953   5.536   5.511   3.471
 7352SOL     OW22954   1.050   1.758   2.662
 7352SOL    HW122955   1.138   1.715   2.685
 7352SOL    HW222956   0.976   1.712   2.711
 7353SOL     OW22957   0.323   0.078   6.817
 7353SOL    HW122958   0.276   0.159   6.782
 7353SOL    HW222959   0.255   0.007   6.836
 7354SOL     OW22960   1.566   0.897   4.522
 7354SOL    HW122961   1.564   0.991   4.554
 7354SOL    HW222962   1.649   0.883   4.467
 7355SOL     OW22963   0.289   1.981   6.710
 7355SOL    HW122964   0.320   2.076   6.721
 7355SOL    HW222965   0.229   1.957   6.786
 7356SOL     OW22966   3.826   3.822   6.217
 7356SOL    HW122967   3.849   3.909   6.259
 7356SOL    HW222968   3.887   3.805   6.139
 7357SOL     OW22969   3.226   6.051   2.151
 7357SOL    HW122970   3.242   6.147   2.174
 7357SOL    HW222971   3.139   6.041   2.104
 7358SOL     OW22972   6.281   3.300   2.370
 7358SOL    HW122973   6.245   3.254   2.451
 7358SOL    HW222974   6.331   3.234   2.314
 7359SOL     OW22975   4.121   2.478   5.769
 7359SOL    HW122976   4.098   2.571   5.797
 7359SOL    HW222977   4.219   2.473   5.750
 7360SOL     OW22978   2.525   3.672   5.628
 7360SOL    HW122979   2.497   3.583   5.593
 7360SOL    HW222980   2.445   3.724   5.657
 7361SOL     OW22981   5.598   1.045   2.798
 7361SOL    HW122982   5.533   1.089   2.736
 7361SOL    HW222983   5.587   1.081   2.890
 7362SOL     OW22984   2.995   5.703   5.867
 7362SOL    HW122985   3.093   5.685   5.857
 7362SOL    HW222986   2.954   5.636   5.929
 7363SOL     OW22987   4.564   0.977   1.708
 7363SOL    HW122988   4.661   0.997   1.694
 7363SOL    HW222989   4.531   0.919   1.633
 7364SOL     OW22990   4.384   0.327   1.963
 7364SOL    HW122991   4.359   0.231   1.968
 7364SOL    HW222992   4.322   0.375   1.901
 7365SOL     OW22993   0.382   6.125   2.250
 7365SOL    HW122994   0.326   6.123   2.332
 7365SOL    HW222995   0.467   6.075   2.267
 7366SOL     OW22996   2.383   6.358   5.123
 7366SOL    HW122997   2.343   6.295   5.056
 7366SOL    HW222998   2.373   6.452   5.090
 7367SOL     OW22999   3.907   2.472   0.373
 7367SOL    HW123000   3.947   2.475   0.281
 7367SOL    HW223001   3.976   2.498   0.440
 7368SOL     OW23002   3.598   2.907   3.022
 7368SOL    HW123003   3.610   2.896   3.121
 7368SOL    HW223004   3.519   2.854   2.992
 7369SOL     OW23005   3.471   2.596   0.949
 7369SOL    HW123006   3.458   2.679   0.895
 7369SOL    HW223007   3.514   2.620   1.036
 7370SOL     OW23008   2.826   2.085   5.521
 7370SOL    HW123009   2.917   2.051   5.495
 7370SOL    HW223010   2.806   2.054   5.615
 7371SOL     OW23011   3.099   6.795   4.036
 7371SOL    HW123012   3.036   6.808   3.959
 7371SOL    HW223013   3.108   6.697   4.056
 7372SOL     OW23014   4.410   6.682   4.759
 7372SOL    HW123015   4.397   6.682   4.858
 7372SOL    HW223016   4.492   6.629   4.736
 7373SOL     OW23017   5.985   1.811   5.071
 7373SOL    HW123018   5.919   1.886   5.074
 7373SOL    HW223019   5.941   1.729   5.036
 7374SOL     OW23020   1.705   2.067   4.663
 7374SOL    HW123021   1.656   2.085   4.578
 7374SOL    HW223022   1.652   2.100   4.740
 7375SOL     OW23023   2.262   2.800   2.062
 7375SOL    HW123024   2.196   2.732   2.097
 7375SOL    HW223025   2.214   2.867   2.005
 7376SOL     OW23026   1.293   2.978   1.281
 7376SOL    HW123027   1.323   3.069   1.254
 7376SOL    HW223028   1.222   2.985   1.351
 7377SOL     OW23029   3.955   5.066   0.893
 7377SOL    HW123030   3.925   5.156   0.863
 7377SOL    HW223031   3.989   5.014   0.815
 7378SOL     OW23032   1.293   6.756   4.876
 7378SOL    HW123033   1.357   6.740   4.951
 7378SOL    HW223034   1.342   6.753   4.789
 7379SOL     OW23035   2.664   0.320   2.057
 7379SOL    HW123036   2.628   0.292   1.968
 7379SOL    HW223037   2.644   0.417   2.072
 7380SOL     OW23038   6.784   4.115   3.720
 7380SOL    HW123039   6.776   4.043   3.651
 7380SOL    HW223040   6.774   4.075   3.811
 7381SOL     OW23041   4.295   2.719   0.775
 7381SOL    HW123042   4.302   2.724   0.875
 7381SOL    HW223043   4.251   2.802   0.741
 7382SOL     OW23044   6.828   2.081   6.151
 7382SOL    HW123045   6.893   2.030   6.096
 7382SOL    HW223046   6.818   2.174   6.115
 7383SOL     OW23047   1.949   5.935   1.743
 7383SOL    HW123048   1.974   5.876   1.666
 7383SOL    HW223049   1.856   5.969   1.731
 7384SOL     OW23050   6.559   0.041   1.377
 7384SOL    HW123051   6.530   7.021   1.293
 7384SOL    HW223052   6.515   0.130   1.383
 7385SOL     OW23053   2.726   5.258   2.831
 7385SOL    HW123054   2.817   5.226   2.855
 7385SOL    HW223055   2.661   5.232   2.903
 7386SOL     OW23056   6.290   3.017   6.436
 7386SOL    HW123057   6.368   3.067   6.399
 7386SOL    HW223058   6.220   3.082   6.466
 7387SOL     OW23059   6.759   5.621   5.880
 7387SOL    HW123060   6.790   5.623   5.975
 7387SOL    HW223061   6.680   5.681   5.869
 7388SOL     OW23062   1.165   5.143   2.723
 7388SOL    HW123063   1.105   5.101   2.791
 7388SOL    HW223064   1.183   5.078   2.650
 7389SOL     OW23065   6.773   3.725   0.379
 7389SOL    HW123066   6.812   3.669   0.306
 7389SOL    HW223067   6.707   3.671   0.431
 7390SOL     OW23068   2.344   1.830   2.251
 7390SOL    HW123069   2.386   1.816   2.162
 7390SOL    HW223070   2.395   1.899   2.303
 7391SOL     OW23071   4.129   3.691   2.848
 7391SOL    HW123072   4.155   3.617   2.910
 7391SOL    HW223073   4.056   3.745   2.889
 7392SOL     OW23074   3.455   6.255   0.001
 7392SOL    HW123075   3.448   6.155   7.025
 7392SOL    HW223076   3.412   6.293   6.946
 7393SOL     OW23077   6.836   4.563   3.453
 7393SOL    HW123078   6.835   4.463   3.445
 7393SOL    HW223079   6.776   4.591   3.527
 7394SOL     OW23080   1.776   3.128   6.293
 7394SOL    HW123081   1.810   3.034   6.293
 7394SOL    HW223082   1.844   3.189   6.251
 7395SOL     OW23083   2.375   3.276   1.513
 7395SOL    HW123084   2.438   3.327   1.572
 7395SOL    HW223085   2.403   3.286   1.418
 7396SOL     OW23086   2.309   6.326   1.701
 7396SOL    HW123087   2.349   6.396   1.760
 7396SOL    HW223088   2.368   6.244   1.702
 7397SOL     OW23089   4.998   3.343   4.352
 7397SOL    HW123090   4.979   3.436   4.383
 7397SOL    HW223091   4.914   3.288   4.359
 7398SOL     OW23092   1.200   4.722   3.239
 7398SOL    HW123093   1.125   4.667   3.278
 7398SOL    HW223094   1.258   4.756   3.313
 7399SOL     OW23095   6.846   2.727   4.380
 7399SOL    HW123096   6.777   2.780   4.429
 7399SOL    HW223097   6.802   2.676   4.306
 7400SOL     OW23098   4.917   2.179   5.468
 7400SOL    HW123099   4.953   2.086   5.471
 7400SOL    HW223100   4.903   2.207   5.373
 7401SOL     OW23101   1.853   2.773   3.610
 7401SOL    HW123102   1.950   2.782   3.586
 7401SOL    HW223103   1.806   2.718   3.541
 7402SOL     OW23104   2.763   5.024   5.584
 7402SOL    HW123105   2.699   5.099   5.568
 7402SOL    HW223106   2.713   4.938   5.592
 7403SOL     OW23107   1.754   2.940   2.842
 7403SOL    HW123108   1.794   2.943   2.750
 7403SOL    HW223109   1.779   2.854   2.886
 7404SOL     OW23110   3.239   4.059   1.555
 7404SOL    HW123111   3.206   4.001   1.629
 7404SOL    HW223112   3.321   4.107   1.584
 7405SOL     OW23113   2.914   5.214   5.055
 7405SOL    HW123114   2.886   5.124   5.089
 7405SOL    HW223115   3.004   5.207   5.013
 7406SOL     OW23116   0.915   1.902   5.164
 7406SOL    HW123117   0.939   1.817   5.117
 7406SOL    HW223118   0.993   1.932   5.219
 7407SOL     OW23119   1.026   6.159   6.788
 7407SOL    HW123120   0.986   6.068   6.786
 7407SOL    HW223121   1.123   6.153   6.813
 7408SOL     OW23122   3.289   4.193   5.401
 7408SOL    HW123123   3.200   4.159   5.431
 7408SOL    HW223124   3.361   4.153   5.458
 7409SOL     OW23125   5.160   4.294   6.911
 7409SOL    HW123126   5.224   4.226   6.948
 7409SOL    HW223127   5.073   4.249   6.890
 7410SOL     OW23128   0.203   0.378   0.358
 7410SOL    HW123129   0.301   0.390   0.372
 7410SOL    HW223130   0.169   0.450   0.297
 7411SOL     OW23131   1.696   1.615   5.899
 7411SOL    HW123132   1.780   1.661   5.873
 7411SOL    HW223133   1.712   1.516   5.904
 7412SOL     OW23134   4.123   6.712   0.289
 7412SOL    HW123135   4.208   6.765   0.286
 7412SOL    HW223136   4.073   6.723   0.204
 7413SOL     OW23137   4.616   4.330   3.199
 7413SOL    HW123138   4.652   4.420   3.177
 7413SOL    HW223139   4.516   4.334   3.203
 7414SOL     OW23140   2.117   2.355   4.424
 7414SOL    HW123141   2.165   2.292   4.484
 7414SOL    HW223142   2.020   2.359   4.450
 7415SOL     OW23143   3.124   6.286   6.398
 7415SOL    HW123144   3.092   6.202   6.354
 7415SOL    HW223145   3.117   6.276   6.498
 7416SOL     OW23146   1.280   1.477   2.717
 7416SOL    HW123147   1.357   1.414   2.714
 7416SOL    HW223148   1.214   1.446   2.785
 7417SOL     OW23149   1.497   2.113   2.874
 7417SOL    HW123150   1.556   2.054   2.928
 7417SOL    HW223151   1.420   2.059   2.838
 7418SOL     OW23152   1.943   4.794   0.250
 7418SOL    HW123153   1.872   4.761   0.313
 7418SOL    HW223154   1.909   4.788   0.156
 7419SOL     OW23155   6.121   3.734   3.993
 7419SOL    HW123156   6.032   3.756   3.951
 7419SOL    HW223157   6.171   3.673   3.932
 7420SOL     OW23158   6.810   6.138   1.822
 7420SOL    HW123159   6.781   6.060   1.767
 7420SOL    HW223160   6.839   6.107   1.912
 7421SOL     OW23161   4.389   3.919   1.445
 7421SOL    HW123162   4.354   3.926   1.351
 7421SOL    HW223163   4.387   4.009   1.488
 7422SOL     OW23164   6.181   3.521   2.223
 7422SOL    HW123165   6.113   3.504   2.151
 7422SOL    HW223166   6.186   3.441   2.283
 7423SOL     OW23167   5.549   1.916   5.170
 7423SOL    HW123168   5.577   2.012   5.172
 7423SOL    HW223169   5.526   1.887   5.263
 7424SOL     OW23170   6.499   1.516   5.324
 7424SOL    HW123171   6.519   1.425   5.360
 7424SOL    HW223172   6.584   1.567   5.314
 7425SOL     OW23173   5.238   6.940   0.235
 7425SOL    HW123174   5.317   6.883   0.215
 7425SOL    HW223175   5.238   7.020   0.175
 7426SOL     OW23176   3.257   2.385   5.849
 7426SOL    HW123177   3.332   2.417   5.791
 7426SOL    HW223178   3.178   2.363   5.792
 7427SOL     OW23179   3.678   1.617   3.448
 7427SOL    HW123180   3.594   1.567   3.470
 7427SOL    HW223181   3.731   1.631   3.532
 7428SOL     OW23182   4.021   6.725   5.545
 7428SOL    HW123183   3.992   6.633   5.571
 7428SOL    HW223184   4.020   6.734   5.446
 7429SOL     OW23185   1.265   6.587   3.596
 7429SOL    HW123186   1.264   6.487   3.598
 7429SOL    HW223187   1.220   6.620   3.513
 7430SOL     OW23188   6.815   4.365   1.717
 7430SOL    HW123189   6.911   4.385   1.738
 7430SOL    HW223190   6.774   4.444   1.672
 7431SOL     OW23191   2.229   2.652   4.267
 7431SOL    HW123192   2.141   2.604   4.274
 7431SOL    HW223193   2.304   2.586   4.275
 7432SOL     OW23194   2.192   0.456   3.541
 7432SOL    HW123195   2.252   0.531   3.513
 7432SOL    HW223196   2.212   0.431   3.636
 7433SOL     OW23197   2.953   6.825   6.922
 7433SOL    HW123198   3.021   6.898   6.907
 7433SOL    HW223199   2.997   6.749   6.970
 7434SOL     OW23200   4.829   5.953   6.040
 7434SOL    HW123201   4.751   5.981   5.984
 7434SOL    HW223202   4.892   6.030   6.049
 7435SOL     OW23203   4.733   5.900   1.952
 7435SOL    HW123204   4.677   5.956   1.890
 7435SOL    HW223205   4.684   5.816   1.975
 7436SOL     OW23206   4.606   4.542   6.125
 7436SOL    HW123207   4.680   4.478   6.106
 7436SOL    HW223208   4.626   4.630   6.082
 7437SOL     OW23209   2.963   5.365   1.153
 7437SOL    HW123210   3.023   5.287   1.134
 7437SOL    HW223211   2.999   5.447   1.107
 7438SOL     OW23212   1.618   0.809   0.549
 7438SOL    HW123213   1.520   0.792   0.537
 7438SOL    HW223214   1.633   0.905   0.572
 7439SOL     OW23215   1.737   5.288   5.331
 7439SOL    HW123216   1.796   5.367   5.345
 7439SOL    HW223217   1.724   5.274   5.232
 7440SOL     OW23218   6.005   3.144   3.979
 7440SOL    HW123219   5.929   3.078   3.975
 7440SOL    HW223220   5.976   3.224   4.030
 7441SOL     OW23221   5.692   6.372   3.500
 7441SOL    HW123222   5.774   6.397   3.551
 7441SOL    HW223223   5.717   6.326   3.415
 7442SOL     OW23224   6.066   0.916   6.175
 7442SOL    HW123225   6.141   0.872   6.126
 7442SOL    HW223226   6.061   0.881   6.268
 7443SOL     OW23227   6.984   5.438   1.940
 7443SOL    HW123228   7.019   5.511   1.881
 7443SOL    HW223229   7.005   5.459   2.035
 7444SOL     OW23230   6.637   0.831   6.042
 7444SOL    HW123231   6.569   0.771   5.999
 7444SOL    HW223232   6.615   0.926   6.022
 7445SOL     OW23233   3.901   7.007   1.373
 7445SOL    HW123234   3.962   0.059   1.390
 7445SOL    HW223235   3.808   0.007   1.399
 7446SOL     OW23236   5.009   2.916   0.322
 7446SOL    HW123237   4.926   2.948   0.278
 7446SOL    HW223238   5.061   2.995   0.355
 7447SOL     OW23239   6.819   4.435   0.135
 7447SOL    HW123240   6.823   4.360   0.069
 7447SOL    HW223241   6.775   4.514   0.093
 7448SOL     OW23242   5.421   6.246   6.007
 7448SOL    HW123243   5.461   6.324   5.960
 7448SOL    HW223244   5.492   6.195   6.055
 7449SOL     OW23245   0.408   5.355   0.203
 7449SOL    HW123246   0.328   5.320   0.251
 7449SOL    HW223247   0.378   5.410   0.124
 7450SOL     OW23248   5.327   2.265   5.541
 7450SOL    HW123249   5.398   2.300   5.602
 7450SOL    HW223250   5.255   2.221   5.595
 7451SOL     OW23251   5.645   5.613   2.634
 7451SOL    HW123252   5.588   5.533   2.653
 7451SOL    HW223253   5.627   5.683   2.702
 7452SOL     OW23254   6.208   6.281   4.247
 7452SOL    HW123255   6.141   6.313   4.181
 7452SOL    HW223256   6.162   6.226   4.317
 7453SOL     OW23257   5.325   5.678   6.356
 7453SOL    HW123258   5.250   5.680   6.290
 7453SOL    HW223259   5.345   5.771   6.386
 7454SOL     OW23260   3.204   1.632   0.352
 7454SOL    HW123261   3.300   1.656   0.364
 7454SOL    HW223262   3.153   1.658   0.434
 7455SOL     OW23263   6.107   3.115   2.528
 7455SOL    HW123264   6.031   3.124   2.592
 7455SOL    HW223265   6.075   3.133   2.435
 7456SOL     OW23266   2.496   2.195   5.444
 7456SOL    HW123267   2.533   2.102   5.445
 7456SOL    HW223268   2.482   2.224   5.349
 7457SOL     OW23269   2.411   0.018   4.030
 7457SOL    HW123270   2.478   0.081   3.991
 7457SOL    HW223271   2.334   0.009   3.967
 7458SOL     OW23272   1.170   0.152   5.222
 7458SOL    HW123273   1.083   0.197   5.205
 7458SOL    HW223274   1.184   0.081   5.152
 7459SOL     OW23275   6.248   1.135   2.363
 7459SOL    HW123276   6.312   1.088   2.424
 7459SOL    HW223277   6.159   1.143   2.409
 7460SOL     OW23278   1.353   6.656   6.878
 7460SOL    HW123279   1.386   6.702   6.960
 7460SOL    HW223280   1.316   6.724   6.814
 7461SOL     OW23281   6.838   6.050   5.396
 7461SOL    HW123282   6.767   6.109   5.433
 7461SOL    HW223283   6.808   6.011   5.309
 7462SOL     OW23284   1.040   5.521   1.076
 7462SOL    HW123285   0.987   5.470   1.009
 7462SOL    HW223286   1.041   5.618   1.052
 7463SOL     OW23287   3.431   4.570   0.759
 7463SOL    HW123288   3.466   4.612   0.676
 7463SOL    HW223289   3.331   4.571   0.757
 7464SOL     OW23290   0.360   5.977   4.832
 7464SOL    HW123291   0.445   5.955   4.880
 7464SOL    HW223292   0.311   5.892   4.811
 7465SOL     OW23293   2.873   5.353   0.380
 7465SOL    HW123294   2.823   5.296   0.315
 7465SOL    HW223295   2.815   5.373   0.459
 7466SOL     OW23296   0.553   0.717   5.787
 7466SOL    HW123297   0.639   0.725   5.837
 7466SOL    HW223298   0.500   0.640   5.823
 7467SOL     OW23299   0.485   2.615   6.017
 7467SOL    HW123300   0.532   2.591   6.102
 7467SOL    HW223301   0.438   2.703   6.028
 7468SOL     OW23302   5.597   2.936   4.505
 7468SOL    HW123303   5.605   2.865   4.435
 7468SOL    HW223304   5.519   2.917   4.563
 7469SOL     OW23305   6.583   2.386   0.032
 7469SOL    HW123306   6.498   2.356   7.015
 7469SOL    HW223307   6.570   2.394   0.131
 7470SOL     OW23308   5.872   4.007   3.547
 7470SOL    HW123309   5.794   3.956   3.584
 7470SOL    HW223310   5.944   3.942   3.522
 7471SOL     OW23311   5.310   5.692   5.988
 7471SOL    HW123312   5.224   5.742   5.980
 7471SOL    HW223313   5.324   5.636   5.907
 7472SOL     OW23314   6.812   0.545   5.422
 7472SOL    HW123315   6.823   0.581   5.515
 7472SOL    HW223316   6.878   0.588   5.361
 7473SOL     OW23317   4.737   6.908   3.712
 7473SOL    HW123318   4.643   6.940   3.728
 7473SOL    HW223319   4.758   6.836   3.778
 7474SOL     OW23320   5.891   2.346   7.014
 7474SOL    HW123321   5.979   2.342   6.967
 7474SOL    HW223322   5.820   2.308   6.955
 7475SOL     OW23323   4.412   2.159   2.252
 7475SOL    HW123324   4.376   2.100   2.179
 7475SOL    HW223325   4.338   2.183   2.315
 7476SOL     OW23326   2.306   2.344   2.806
 7476SOL    HW123327   2.327   2.440   2.792
 7476SOL    HW223328   2.365   2.307   2.878
 7477SOL     OW23329   0.647   3.148   4.460
 7477SOL    HW123330   0.579   3.158   4.532
 7477SOL    HW223331   0.613   3.189   4.375
 7478SOL     OW23332   5.689   2.978   5.138
 7478SOL    HW123333   5.596   3.006   5.164
 7478SOL    HW223334   5.685   2.903   5.072
 7479SOL     OW23335   5.416   3.148   6.941
 7479SOL    HW123336   5.363   3.133   7.024
 7479SOL    HW223337   5.432   3.061   6.895
 7480SOL     OW23338   2.284   5.441   2.667
 7480SOL    HW123339   2.222   5.407   2.738
 7480SOL    HW223340   2.284   5.377   2.590
 7481SOL     OW23341   6.105   4.292   6.459
 7481SOL    HW123342   6.031   4.315   6.395
 7481SOL    HW223343   6.110   4.193   6.469
 7482SOL     OW23344   4.192   2.188   2.800
 7482SOL    HW123345   4.269   2.207   2.739
 7482SOL    HW223346   4.223   2.187   2.894
 7483SOL     OW23347   4.699   2.133   4.446
 7483SOL    HW123348   4.644   2.195   4.390
 7483SOL    HW223349   4.776   2.099   4.392
 7484SOL     OW23350   2.162   5.477   4.708
 7484SOL    HW123351   2.218   5.396   4.722
 7484SOL    HW223352   2.073   5.451   4.669
 7485SOL     OW23353   2.614   0.161   3.866
 7485SOL    HW123354   2.613   0.211   3.779
 7485SOL    HW223355   2.680   0.202   3.927
 7486SOL     OW23356   0.617   6.060   0.228
 7486SOL    HW123357   0.522   6.048   0.199
 7486SOL    HW223358   0.634   6.157   0.247
 7487SOL     OW23359   4.570   0.904   3.266
 7487SOL    HW123360   4.542   0.998   3.289
 7487SOL    HW223361   4.515   0.840   3.319
 7488SOL     OW23362   1.150   6.342   4.063
 7488SOL    HW123363   1.188   6.322   4.154
 7488SOL    HW223364   1.086   6.418   4.070
 7489SOL     OW23365   6.217   3.737   0.000
 7489SOL    HW123366   6.173   3.663   0.051
 7489SOL    HW223367   6.218   3.714   6.929
 7490SOL     OW23368   1.450   1.943   2.564
 7490SOL    HW123369   1.351   1.957   2.554
 7490SOL    HW223370   1.497   1.990   2.490
 7491SOL     OW23371   4.725   2.951   0.832
 7491SOL    HW123372   4.697   2.943   0.737
 7491SOL    HW223373   4.648   2.929   0.892
 7492SOL     OW23374   1.642   1.152   4.237
 7492SOL    HW123375   1.695   1.077   4.276
 7492SOL    HW223376   1.660   1.157   4.138
 7493SOL     OW23377   6.512   3.917   5.459
 7493SOL    HW123378   6.464   3.972   5.390
 7493SOL    HW223379   6.445   3.868   5.515
 7494SOL     OW23380   5.541   0.959   3.695
 7494SOL    HW123381   5.588   0.893   3.636
 7494SOL    HW223382   5.462   0.915   3.738
 7495SOL     OW23383   2.197   3.039   4.542
 7495SOL    HW123384   2.255   2.958   4.539
 7495SOL    HW223385   2.179   3.064   4.637
 7496SOL     OW23386   6.222   3.600   3.783
 7496SOL    HW123387   6.277   3.518   3.797
 7496SOL    HW223388   6.272   3.665   3.726
 7497SOL     OW23389   1.459   6.250   1.461
 7497SOL    HW123390   1.436   6.271   1.366
 7497SOL    HW223391   1.480   6.152   1.469
 7498SOL     OW23392   2.695   0.817   3.684
 7498SOL    HW123393   2.762   0.882   3.649
 7498SOL    HW223394   2.740   0.753   3.747
 7499SOL     OW23395   4.498   2.108   3.694
 7499SOL    HW123396   4.541   2.135   3.780
 7499SOL    HW223397   4.564   2.057   3.638
 7500SOL     OW23398   3.610   6.663   3.760
 7500SOL    HW123399   3.512   6.654   3.778
 7500SOL    HW223400   3.646   6.740   3.812
 7501SOL     OW23401   6.095   2.913   3.858
 7501SOL    HW123402   6.007   2.874   3.829
 7501SOL    HW223403   6.079   2.992   3.916
 7502SOL     OW23404   3.875   0.517   4.090
 7502SOL    HW123405   3.971   0.520   4.062
 7502SOL    HW223406   3.816   0.528   4.010
 7503SOL     OW23407   1.573   5.935   0.812
 7503SOL    HW123408   1.509   5.961   0.740
 7503SOL    HW223409   1.644   6.005   0.821
 7504SOL     OW23410   0.506   6.357   2.140
 7504SOL    HW123411   0.451   6.298   2.200
 7504SOL    HW223412   0.452   6.382   2.060
 7505SOL     OW23413   0.387   1.742   5.512
 7505SOL    HW123414   0.460   1.700   5.458
 7505SOL    HW223415   0.426   1.790   5.590
 7506SOL     OW23416   3.487   1.896   3.120
 7506SOL    HW123417   3.527   1.812   3.157
 7506SOL    HW223418   3.485   1.891   3.021
 7507SOL     OW23419   6.555   3.831   4.730
 7507SOL    HW123420   6.622   3.757   4.720
 7507SOL    HW223421   6.555   3.887   4.647
 7508SOL     OW23422   1.710   5.760   0.411
 7508SOL    HW123423   1.699   5.665   0.382
 7508SOL    HW223424   1.730   5.817   0.331
 7509SOL     OW23425   5.041   4.207   0.261
 7509SOL    HW123426   5.080   4.150   0.334
 7509SOL    HW223427   5.062   4.303   0.279
 7510SOL     OW23428   4.127   3.433   3.979
 7510SOL    HW123429   4.140   3.364   3.908
 7510SOL    HW223430   4.104   3.521   3.937
 7511SOL     OW23431   3.255   5.638   2.984
 7511SOL    HW123432   3.242   5.736   2.998
 7511SOL    HW223433   3.194   5.606   2.911
 7512SOL     OW23434   2.899   0.738   6.354
 7512SOL    HW123435   2.931   0.689   6.273
 7512SOL    HW223436   2.878   0.672   6.426
 7513SOL     OW23437   2.028   2.307   3.417
 7513SOL    HW123438   1.932   2.297   3.445
 7513SOL    HW223439   2.085   2.245   3.472
 7514SOL     OW23440   1.631   4.303   3.849
 7514SOL    HW123441   1.707   4.352   3.807
 7514SOL    HW223442   1.552   4.306   3.788
 7515SOL     OW23443   6.366   4.303   5.361
 7515SOL    HW123444   6.430   4.321   5.436
 7515SOL    HW223445   6.331   4.390   5.325
 7516SOL     OW23446   1.515   5.321   6.292
 7516SOL    HW123447   1.572   5.306   6.212
 7516SOL    HW223448   1.426   5.356   6.263
 7517SOL     OW23449   1.300   2.737   6.796
 7517SOL    HW123450   1.372   2.672   6.819
 7517SOL    HW223451   1.233   2.692   6.736
 7518SOL     OW23452   4.893   3.043   3.762
 7518SOL    HW123453   4.947   3.125   3.779
 7518SOL    HW223454   4.906   2.979   3.839
 7519SOL     OW23455   4.983   0.280   4.631
 7519SOL    HW123456   5.051   0.251   4.698
 7519SOL    HW223457   4.892   0.275   4.672
 7520SOL     OW23458   1.566   1.368   2.405
 7520SOL    HW123459   1.498   1.322   2.347
 7520SOL    HW223460   1.543   1.465   2.412
 7521SOL     OW23461   4.893   1.858   4.699
 7521SOL    HW123462   4.949   1.921   4.646
 7521SOL    HW223463   4.952   1.801   4.757
 7522SOL     OW23464   1.135   6.630   4.256
 7522SOL    HW123465   1.064   6.687   4.297
 7522SOL    HW223466   1.179   6.680   4.182
 7523SOL     OW23467   5.220   0.479   6.009
 7523SOL    HW123468   5.208   0.543   6.085
 7523SOL    HW223469   5.318   0.468   5.991
 7524SOL     OW23470   6.828   2.608   4.631
 7524SOL    HW123471   6.852   2.643   4.541
 7524SOL    HW223472   6.785   2.518   4.622
 7525SOL     OW23473   4.415   6.474   0.076
 7525SOL    HW123474   4.344   6.408   0.051
 7525SOL    HW223475   4.504   6.430   0.071
 7526SOL     OW23476   2.240   3.185   1.736
 7526SOL    HW123477   2.255   3.278   1.769
 7526SOL    HW223478   2.287   3.173   1.648
 7527SOL     OW23479   3.577   6.206   3.940
 7527SOL    HW123480   3.535   6.286   3.984
 7527SOL    HW223481   3.554   6.124   3.992
 7528SOL     OW23482   5.473   1.861   0.033
 7528SOL    HW123483   5.396   1.920   0.056
 7528SOL    HW223484   5.444   1.793   6.991
 7529SOL     OW23485   5.600   1.622   3.269
 7529SOL    HW123486   5.672   1.681   3.306
 7529SOL    HW223487   5.624   1.526   3.284
 7530SOL     OW23488   0.042   1.478   2.592
 7530SOL    HW123489   6.994   1.524   2.642
 7530SOL    HW223490   0.002   1.415   2.525
 7531SOL     OW23491   5.009   2.564   3.360
 7531SOL    HW123492   5.040   2.593   3.270
 7531SOL    HW223493   5.027   2.466   3.371
 7532SOL     OW23494   4.606   5.884   6.557
 7532SOL    HW123495   4.664   5.805   6.577
 7532SOL    HW223496   4.525   5.854   6.507
 7533SOL     OW23497   4.287   2.883   1.673
 7533SOL    HW123498   4.343   2.809   1.711
 7533SOL    HW223499   4.330   2.971   1.692
 7534SOL     OW23500   5.109   6.513   4.665
 7534SOL    HW123501   5.203   6.547   4.664
 7534SOL    HW223502   5.048   6.586   4.696
 7535SOL     OW23503   1.613   6.352   4.888
 7535SOL    HW123504   1.674   6.426   4.919
 7535SOL    HW223505   1.525   6.391   4.860
 7536SOL     OW23506   5.246   6.192   3.709
 7536SOL    HW123507   5.337   6.178   3.671
 7536SOL    HW223508   5.224   6.116   3.771
 7537SOL     OW23509   1.791   5.336   2.118
 7537SOL    HW123510   1.835   5.371   2.035
 7537SOL    HW223511   1.851   5.352   2.196
 7538SOL     OW23512   1.098   2.988   1.458
 7538SOL    HW123513   1.117   2.933   1.539
 7538SOL    HW223514   1.072   3.080   1.486
 7539SOL     OW23515   1.537   5.345   3.570
 7539SOL    HW123516   1.539   5.288   3.652
 7539SOL    HW223517   1.603   5.310   3.504
 7540SOL     OW23518   5.162   5.874   4.454
 7540SOL    HW123519   5.257   5.858   4.427
 7540SOL    HW223520   5.105   5.797   4.424
 7541SOL     OW23521   0.893   4.012   6.498
 7541SOL    HW123522   0.860   3.934   6.445
 7541SOL    HW223523   0.893   3.988   6.595
 7542SOL     OW23524   6.475   5.931   5.535
 7542SOL    HW123525   6.386   5.950   5.577
 7542SOL    HW223526   6.467   5.934   5.436
 7543SOL     OW23527   2.700   0.338   4.996
 7543SOL    HW123528   2.720   0.240   4.997
 7543SOL    HW223529   2.756   0.383   4.927
 7544SOL     OW23530   0.133   2.339   4.458
 7544SOL    HW123531   0.141   2.248   4.417
 7544SOL    HW223532   0.061   2.338   4.528
 7545SOL     OW23533   0.406   5.704   6.486
 7545SOL    HW123534   0.308   5.709   6.504
 7545SOL    HW223535   0.423   5.724   6.390
 7546SOL     OW23536   4.142   2.428   1.678
 7546SOL    HW123537   4.162   2.359   1.748
 7546SOL    HW223538   4.043   2.428   1.660
 7547SOL     OW23539   4.594   0.615   1.742
 7547SOL    HW123540   4.660   0.642   1.672
 7547SOL    HW223541   4.502   0.632   1.709
 7548SOL     OW23542   4.533   1.988   7.024
 7548SOL    HW123543   4.433   1.997   0.005
 7548SOL    HW223544   4.563   1.910   0.054
 7549SOL     OW23545   3.865   2.554   6.177
 7549SOL    HW123546   3.890   2.458   6.168
 7549SOL    HW223547   3.903   2.606   6.101
 7550SOL     OW23548   1.941   4.123   3.643
 7550SOL    HW123549   2.017   4.160   3.590
 7550SOL    HW223550   1.966   4.117   3.739
 7551SOL     OW23551   5.281   2.811   5.522
 7551SOL    HW123552   5.347   2.805   5.448
 7551SOL    HW223553   5.315   2.875   5.591
 7552SOL     OW23554   1.577   6.130   4.723
 7552SOL    HW123555   1.561   6.209   4.782
 7552SOL    HW223556   1.492   6.079   4.712
 7553SOL     OW23557   5.807   5.979   5.822
 7553SOL    HW123558   5.860   5.930   5.753
 7553SOL    HW223559   5.760   5.912   5.880
 7554SOL     OW23560   5.491   1.182   0.680
 7554SOL    HW123561   5.460   1.090   0.658
 7554SOL    HW223562   5.586   1.179   0.710
 7555SOL     OW23563   2.892   6.483   6.318
 7555SOL    HW123564   2.842   6.415   6.264
 7555SOL    HW223565   2.967   6.439   6.367
 7556SOL     OW23566   1.205   1.284   0.459
 7556SOL    HW123567   1.196   1.245   0.367
 7556SOL    HW223568   1.157   1.372   0.461
 7557SOL     OW23569   5.168   0.301   0.325
 7557SOL    HW123570   5.260   0.318   0.290
 7557SOL    HW223571   5.100   0.321   0.254
 7558SOL     OW23572   1.827   2.463   3.802
 7558SOL    HW123573   1.831   2.467   3.702
 7558SOL    HW223574   1.755   2.524   3.834
 7559SOL     OW23575   3.709   2.274   5.435
 7559SOL    HW123576   3.696   2.187   5.483
 7559SOL    HW223577   3.797   2.273   5.388
 7560SOL     OW23578   6.204   7.015   6.683
 7560SOL    HW123579   6.238   6.987   6.593
 7560SOL    HW223580   6.247   0.076   6.709
 7561SOL     OW23581   5.382   3.001   5.696
 7561SOL    HW123582   5.360   3.061   5.773
 7561SOL    HW223583   5.366   3.050   5.610
 7562SOL     OW23584   1.147   4.973   5.015
 7562SOL    HW123585   1.239   4.989   5.051
 7562SOL    HW223586   1.142   4.881   4.976
 7563SOL     OW23587   3.150   6.409   2.598
 7563SOL    HW123588   3.119   6.499   2.628
 7563SOL    HW223589   3.238   6.388   2.641
 7564SOL     OW23590   4.502   0.596   4.983
 7564SOL    HW123591   4.421   0.638   5.024
 7564SOL    HW223592   4.474   0.538   4.907
 7565SOL     OW23593   5.780   3.808   6.062
 7565SOL    HW123594   5.850   3.877   6.045
 7565SOL    HW223595   5.712   3.845   6.125
 7566SOL     OW23596   5.401   4.886   2.568
 7566SOL    HW123597   5.484   4.864   2.619
 7566SOL    HW223598   5.348   4.803   2.553
 7567SOL     OW23599   0.918   1.537   4.439
 7567SOL    HW123600   0.839   1.566   4.492
 7567SOL    HW223601   0.888   1.469   4.371
 7568SOL     OW23602   5.979   5.661   2.626
 7568SOL    HW123603   6.031   5.577   2.642
 7568SOL    HW223604   5.884   5.639   2.608
 7569SOL     OW23605   3.786   4.747   6.599
 7569SOL    HW123606   3.709   4.687   6.582
 7569SOL    HW223607   3.856   4.698   6.651
 7570SOL     OW23608   0.191   2.878   3.256
 7570SOL    HW123609   0.257   2.937   3.303
 7570SOL    HW223610   0.133   2.831   3.322
 7571SOL     OW23611   5.585   3.205   2.975
 7571SOL    HW123612   5.680   3.221   2.948
 7571SOL    HW223613   5.556   3.115   2.943
 7572SOL     OW23614   4.712   6.429   2.959
 7572SOL    HW123615   4.759   6.344   2.934
 7572SOL    HW223616   4.721   6.495   2.885
 7573SOL     OW23617   5.865   0.293   6.080
 7573SOL    HW123618   5.945   0.260   6.130
 7573SOL    HW223619   5.828   0.220   6.023
 7574SOL     OW23620   6.019   1.063   3.881
 7574SOL    HW123621   5.970   1.000   3.941
 7574SOL    HW223622   5.965   1.145   3.867
 7575SOL     OW23623   6.033   6.372   0.907
 7575SOL    HW123624   6.104   6.360   0.976
 7575SOL    HW223625   5.968   6.441   0.937
 7576SOL     OW23626   4.888   2.602   1.117
 7576SOL    HW123627   4.810   2.641   1.167
 7576SOL    HW223628   4.879   2.623   1.020
 7577SOL     OW23629   6.961   0.030   0.290
 7577SOL    HW123630   6.889   7.022   0.351
 7577SOL    HW223631   6.926   0.108   0.238
 7578SOL     OW23632   0.800   5.220   2.594
 7578SOL    HW123633   0.736   5.292   2.567
 7578SOL    HW223634   0.748   5.138   2.620
 7579SOL     OW23635   6.838   2.097   1.600
 7579SOL    HW123636   6.766   2.098   1.531
 7579SOL    HW223637   6.799   2.074   1.689
 7580SOL     OW23638   1.921   4.305   3.192
 7580SOL    HW123639   1.904   4.287   3.096
 7580SOL    HW223640   1.868   4.384   3.221
 7581SOL     OW23641   0.900   1.389   1.208
 7581SOL    HW123642   0.903   1.448   1.289
 7581SOL    HW223643   0.897   1.446   1.126
 7582SOL     OW23644   4.583   1.759   4.007
 7582SOL    HW123645   4.489   1.792   4.010
 7582SOL    HW223646   4.641   1.819   4.062
 7583SOL     OW23647   5.186   3.566   3.433
 7583SOL    HW123648   5.087   3.575   3.444
 7583SOL    HW223649   5.214   3.604   3.345
 7584SOL     OW23650   0.872   0.066   2.695
 7584SOL    HW123651   0.807   7.021   2.721
 7584SOL    HW223652   0.956   0.056   2.749
 7585SOL     OW23653   0.809   1.846   6.708
 7585SOL    HW123654   0.823   1.877   6.802
 7585SOL    HW223655   0.720   1.801   6.701
 7586SOL     OW23656   1.430   0.691   2.387
 7586SOL    HW123657   1.394   0.784   2.380
 7586SOL    HW223658   1.489   0.684   2.468
 7587SOL     OW23659   3.380   0.928   0.198
 7587SOL    HW123660   3.400   1.018   0.237
 7587SOL    HW223661   3.426   0.857   0.251
 7588SOL     OW23662   1.330   2.775   4.426
 7588SOL    HW123663   1.290   2.763   4.334
 7588SOL    HW223664   1.428   2.791   4.417
 7589SOL     OW23665   0.665   1.103   2.906
 7589SOL    HW123666   0.599   1.175   2.930
 7589SOL    HW223667   0.619   1.014   2.909
 7590SOL     OW23668   6.703   1.430   7.014
 7590SOL    HW123669   6.757   1.514   7.009
 7590SOL    HW223670   6.756   1.354   6.978
 7591SOL     OW23671   4.821   2.641   6.713
 7591SOL    HW123672   4.790   2.612   6.623
 7591SOL    HW223673   4.878   2.569   6.754
 7592SOL     OW23674   6.141   4.617   4.845
 7592SOL    HW123675   6.219   4.592   4.903
 7592SOL    HW223676   6.083   4.682   4.895
 7593SOL     OW23677   6.579   2.228   6.087
 7593SOL    HW123678   6.549   2.145   6.039
 7593SOL    HW223679   6.528   2.236   6.173
 7594SOL     OW23680   0.275   4.609   1.019
 7594SOL    HW123681   0.229   4.580   0.935
 7594SOL    HW223682   0.374   4.607   1.007
 7595SOL     OW23683   6.626   3.012   6.066
 7595SOL    HW123684   6.697   3.042   6.001
 7595SOL    HW223685   6.653   2.926   6.109
 7596SOL     OW23686   3.206   0.200   5.162
 7596SOL    HW123687   3.127   0.173   5.217
 7596SOL    HW223688   3.271   0.124   5.159
 7597SOL     OW23689   2.026   6.314   2.510
 7597SOL    HW123690   2.124   6.308   2.528
 7597SOL    HW223691   2.010   6.316   2.411
 7598SOL     OW23692   6.023   0.546   2.788
 7598SOL    HW123693   6.047   0.518   2.695
 7598SOL    HW223694   5.981   0.637   2.786
 7599SOL     OW23695   4.188   3.319   0.894
 7599SOL    HW123696   4.151   3.393   0.949
 7599SOL    HW223697   4.134   3.236   0.908
 7600SOL     OW23698   1.623   1.132   3.953
 7600SOL    HW123699   1.584   1.190   3.882
 7600SOL    HW223700   1.630   1.038   3.920
 7601SOL     OW23701   3.503   5.432   1.940
 7601SOL    HW123702   3.567   5.505   1.964
 7601SOL    HW223703   3.550   5.344   1.938
 7602SOL     OW23704   0.574   2.594   0.106
 7602SOL    HW123705   0.489   2.625   0.149
 7602SOL    HW223706   0.652   2.640   0.149
 7603SOL     OW23707   2.425   0.033   5.917
 7603SOL    HW123708   2.458   7.003   5.993
 7603SOL    HW223709   2.334   0.068   5.938
 7604SOL     OW23710   1.458   2.159   5.091
 7604SOL    HW123711   1.399   2.079   5.082
 7604SOL    HW223712   1.408   2.232   5.137
 7605SOL     OW23713   1.395   0.343   6.872
 7605SOL    HW123714   1.427   0.424   6.822
 7605SOL    HW223715   1.304   0.362   6.910
 7606SOL     OW23716   6.028   1.731   4.617
 7606SOL    HW123717   6.064   1.779   4.697
 7606SOL    HW223718   5.928   1.729   4.622
 7607SOL     OW23719   3.310   6.590   0.338
 7607SOL    HW123720   3.307   6.491   0.326
 7607SOL    HW223721   3.327   6.634   0.250
 7608SOL     OW23722   5.557   2.433   6.237
 7608SOL    HW123723   5.580   2.402   6.330
 7608SOL    HW223724   5.587   2.528   6.225
 7609SOL     OW23725   0.147   3.284   3.846
 7609SOL    HW123726   0.168   3.317   3.754
 7609SOL    HW223727   0.201   3.201   3.864
 7610SOL     OW23728   3.300   5.204   6.767
 7610SOL    HW123729   3.237   5.183   6.692
 7610SOL    HW223730   3.334   5.118   6.806
 7611SOL     OW23731   4.709   3.273   1.142
 7611SOL    HW123732   4.694   3.371   1.129
 7611SOL    HW223733   4.624   3.230   1.173
 7612SOL     OW23734   3.613   2.110   3.000
 7612SOL    HW123735   3.708   2.125   3.025
 7612SOL    HW223736   3.572   2.045   3.065
 7613SOL     OW23737   1.336   2.229   2.190
 7613SOL    HW123738   1.406   2.252   2.123
 7613SOL    HW223739   1.255   2.287   2.176
 7614SOL     OW23740   5.115   3.325   0.637
 7614SOL    HW123741   5.069   3.237   0.651
 7614SOL    HW223742   5.175   3.344   0.716
 7615SOL     OW23743   5.665   3.936   5.620
 7615SOL    HW123744   5.608   3.979   5.550
 7615SOL    HW223745   5.664   3.837   5.608
 7616SOL     OW23746   5.810   0.154   3.514
 7616SOL    HW123747   5.883   0.213   3.479
 7616SOL    HW223748   5.769   0.196   3.595
 7617SOL     OW23749   5.004   4.958   3.158
 7617SOL    HW123750   4.911   4.943   3.125
 7617SOL    HW223751   5.022   4.897   3.235
 7618SOL     OW23752   2.041   2.530   0.089
 7618SOL    HW123753   2.113   2.599   0.085
 7618SOL    HW223754   1.991   2.538   0.175
 7619SOL     OW23755   0.190   2.548   4.277
 7619SOL    HW123756   0.158   2.484   4.347
 7619SOL    HW223757   0.118   2.561   4.209
 7620SOL     OW23758   3.579   4.399   0.417
 7620SOL    HW123759   3.591   4.428   0.512
 7620SOL    HW223760   3.564   4.480   0.360
 7621SOL     OW23761   0.154   5.645   0.903
 7621SOL    HW123762   0.247   5.609   0.911
 7621SOL    HW223763   0.128   5.690   0.988
 7622SOL     OW23764   4.179   4.438   0.340
 7622SOL    HW123765   4.081   4.458   0.330
 7622SOL    HW223766   4.225   4.453   0.253
 7623SOL     OW23767   4.227   4.714   1.602
 7623SOL    HW123768   4.257   4.664   1.521
 7623SOL    HW223769   4.264   4.672   1.684
 7624SOL     OW23770   0.291   2.519   2.280
 7624SOL    HW123771   0.354   2.447   2.309
 7624SOL    HW223772   0.342   2.595   2.241
 7625SOL     OW23773   5.488   1.499   0.380
 7625SOL    HW123774   5.439   1.540   0.457
 7625SOL    HW223775   5.569   1.451   0.414
 7626SOL     OW23776   6.240   0.841   5.991
 7626SOL    HW123777   6.287   0.754   5.981
 7626SOL    HW223778   6.212   0.875   5.901
 7627SOL     OW23779   3.463   2.148   6.992
 7627SOL    HW123780   3.431   2.055   6.980
 7627SOL    HW223781   3.477   2.191   6.903
 7628SOL     OW23782   3.681   2.954   0.924
 7628SOL    HW123783   3.693   3.050   0.947
 7628SOL    HW223784   3.599   2.943   0.867
 7629SOL     OW23785   5.875   3.537   3.620
 7629SOL    HW123786   5.808   3.564   3.689
 7629SOL    HW223787   5.953   3.494   3.666
 7630SOL     OW23788   1.100   0.024   5.499
 7630SOL    HW123789   1.127   0.066   5.412
 7630SOL    HW223790   1.082   0.096   5.566
 7631SOL     OW23791   2.025   6.788   5.130
 7631SOL    HW123792   1.956   6.722   5.159
 7631SOL    HW223793   2.002   6.878   5.166
 7632SOL     OW23794   4.224   5.293   1.263
 7632SOL    HW123795   4.275   5.374   1.233
 7632SOL    HW223796   4.276   5.245   1.333
 7633SOL     OW23797   5.735   6.979   1.468
 7633SOL    HW123798   5.801   6.928   1.523
 7633SOL    HW223799   5.644   6.940   1.482
 7634SOL     OW23800   1.185   2.006   0.861
 7634SOL    HW123801   1.277   2.016   0.898
 7634SOL    HW223802   1.190   1.965   0.769
 7635SOL     OW23803   2.498   5.145   4.534
 7635SOL    HW123804   2.497   5.052   4.496
 7635SOL    HW223805   2.577   5.155   4.594
 7636SOL     OW23806   0.608   4.503   4.530
 7636SOL    HW123807   0.652   4.418   4.503
 7636SOL    HW223808   0.624   4.573   4.460
 7637SOL     OW23809   0.557   6.064   3.876
 7637SOL    HW123810   0.475   6.075   3.819
 7637SOL    HW223811   0.624   6.008   3.827
 7638SOL     OW23812   0.799   5.598   2.083
 7638SOL    HW123813   0.811   5.594   2.182
 7638SOL    HW223814   0.856   5.529   2.039
 7639SOL     OW23815   0.015   0.894   0.006
 7639SOL    HW123816   0.019   0.888   0.106
 7639SOL    HW223817   6.972   0.962   7.005
 7640SOL     OW23818   3.462   1.568   6.909
 7640SOL    HW123819   3.531   1.541   6.977
 7640SOL    HW223820   3.502   1.561   6.817
 7641SOL     OW23821   6.935   3.669   2.865
 7641SOL    HW123822   6.960   3.716   2.950
 7641SOL    HW223823   7.006   3.683   2.797
 7642SOL     OW23824   5.841   1.120   3.048
 7642SOL    HW123825   5.873   1.071   3.129
 7642SOL    HW223826   5.741   1.121   3.048
 7643SOL     OW23827   5.310   2.024   2.863
 7643SOL    HW123828   5.399   2.062   2.890
 7643SOL    HW223829   5.264   2.088   2.802
 7644SOL     OW23830   4.894   3.123   2.230
 7644SOL    HW123831   4.843   3.075   2.158
 7644SOL    HW223832   4.894   3.068   2.314
 7645SOL     OW23833   3.390   4.000   5.769
 7645SOL    HW123834   3.330   3.927   5.737
 7645SOL    HW223835   3.347   4.047   5.847
 7646SOL     OW23836   1.365   2.682   2.926
 7646SOL    HW123837   1.288   2.619   2.919
 7646SOL    HW223838   1.332   2.775   2.941
 7647SOL     OW23839   0.277   2.756   4.406
 7647SOL    HW123840   0.205   2.823   4.392
 7647SOL    HW223841   0.252   2.670   4.361
 7648SOL     OW23842   2.328   2.125   3.247
 7648SOL    HW123843   2.328   2.025   3.249
 7648SOL    HW223844   2.302   2.160   3.337
 7649SOL     OW23845   0.349   1.226   4.937
 7649SOL    HW123846   0.375   1.163   5.010
 7649SOL    HW223847   0.259   1.264   4.956
 7650SOL     OW23848   4.325   1.046   1.370
 7650SOL    HW123849   4.253   1.015   1.308
 7650SOL    HW223850   4.293   1.127   1.420
 7651SOL     OW23851   2.316   5.243   4.760
 7651SOL    HW123852   2.260   5.167   4.792
 7651SOL    HW223853   2.337   5.231   4.663
 7652SOL     OW23854   6.201   2.272   4.848
 7652SOL    HW123855   6.167   2.260   4.941
 7652SOL    HW223856   6.129   2.249   4.783
 7653SOL     OW23857   0.837   1.447   6.685
 7653SOL    HW123858   0.852   1.350   6.702
 7653SOL    HW223859   0.841   1.497   6.771
 7654SOL     OW23860   5.802   2.964   4.719
 7654SOL    HW123861   5.752   2.948   4.634
 7654SOL    HW223862   5.813   3.063   4.734
 7655SOL     OW23863   3.399   0.471   3.433
 7655SOL    HW123864   3.497   0.484   3.450
 7655SOL    HW223865   3.358   0.559   3.408
 7656SOL     OW23866   6.113   3.508   6.190
 7656SOL    HW123867   6.021   3.547   6.194
 7656SOL    HW223868   6.111   3.420   6.143
 7657SOL     OW23869   1.474   4.087   4.478
 7657SOL    HW123870   1.378   4.069   4.454
 7657SOL    HW223871   1.534   4.052   4.407
 7658SOL     OW23872   2.761   0.975   0.393
 7658SOL    HW123873   2.824   0.968   0.470
 7658SOL    HW223874   2.712   1.062   0.397
 7659SOL     OW23875   4.595   4.111   5.636
 7659SOL    HW123876   4.578   4.208   5.652
 7659SOL    HW223877   4.554   4.058   5.710
 7660SOL     OW23878   6.700   5.316   5.089
 7660SOL    HW123879   6.712   5.251   5.164
 7660SOL    HW223880   6.719   5.271   5.002
 7661SOL     OW23881   4.691   1.871   6.246
 7661SOL    HW123882   4.706   1.953   6.302
 7661SOL    HW223883   4.713   1.892   6.150
 7662SOL     OW23884   1.149   2.005   2.616
 7662SOL    HW123885   1.111   1.917   2.646
 7662SOL    HW223886   1.095   2.080   2.654
 7663SOL     OW23887   5.973   5.932   5.492
 7663SOL    HW123888   5.942   6.026   5.477
 7663SOL    HW223889   5.907   5.883   5.549
 7664SOL     OW23890   4.295   0.878   2.992
 7664SOL    HW123891   4.374   0.925   2.951
 7664SOL    HW223892   4.260   0.931   3.069
 7665SOL     OW23893   5.351   2.597   3.575
 7665SOL    HW123894   5.354   2.498   3.589
 7665SOL    HW223895   5.255   2.626   3.567
 7666SOL     OW23896   6.247   6.004   3.950
 7666SOL    HW123897   6.326   6.034   4.003
 7666SOL    HW223898   6.206   6.083   3.904
 7667SOL     OW23899   4.791   6.648   2.390
 7667SOL    HW123900   4.708   6.629   2.337
 7667SOL    HW223901   4.777   6.732   2.444
 7668SOL     OW23902   2.339   5.079   1.249
 7668SOL    HW123903   2.367   5.159   1.197
 7668SOL    HW223904   2.329   5.103   1.346
 7669SOL     OW23905   3.727   6.973   6.005
 7669SOL    HW123906   3.759   0.042   6.014
 7669SOL    HW223907   3.724   6.949   5.908
 7670SOL     OW23908   0.681   6.925   0.449
 7670SOL    HW123909   0.605   6.986   0.473
 7670SOL    HW223910   0.735   6.967   0.376
 7671SOL     OW23911   5.428   6.651   2.171
 7671SOL    HW123912   5.500   6.695   2.117
 7671SOL    HW223913   5.379   6.721   2.224
 7672SOL     OW23914   6.317   4.673   2.958
 7672SOL    HW123915   6.251   4.675   2.882
 7672SOL    HW223916   6.320   4.581   2.996
 7673SOL     OW23917   1.153   5.528   2.935
 7673SOL    HW123918   1.165   5.511   3.033
 7673SOL    HW223919   1.149   5.626   2.918
 7674SOL     OW23920   4.203   1.021   4.605
 7674SOL    HW123921   4.213   0.937   4.659
 7674SOL    HW223922   4.113   1.060   4.622
 7675SOL     OW23923   3.303   6.656   3.710
 7675SOL    HW123924   3.304   6.707   3.624
 7675SOL    HW223925   3.249   6.572   3.699
 7676SOL     OW23926   3.113   2.908   5.984
 7676SOL    HW123927   3.140   2.852   6.062
 7676SOL    HW223928   3.090   3.000   6.014
 7677SOL     OW23929   6.950   4.995   1.478
 7677SOL    HW123930   6.989   4.921   1.532
 7677SOL    HW223931   6.854   5.008   1.503
 7678SOL     OW23932   1.500   2.347   5.749
 7678SOL    HW123933   1.547   2.415   5.806
 7678SOL    HW223934   1.439   2.293   5.807
 7679SOL     OW23935   2.228   5.076   5.553
 7679SOL    HW123936   2.141   5.064   5.601
 7679SOL    HW223937   2.261   4.988   5.521
 7680SOL     OW23938   1.685   0.455   5.331
 7680SOL    HW123939   1.591   0.428   5.312
 7680SOL    HW223940   1.687   0.548   5.366
 7681SOL     OW23941   3.041   2.533   6.366
 7681SOL    HW123942   3.033   2.621   6.317
 7681SOL    HW223943   3.035   2.549   6.464
 7682SOL     OW23944   3.266   1.662   3.037
 7682SOL    HW123945   3.336   1.707   2.981
 7682SOL    HW223946   3.211   1.731   3.084
 7683SOL     OW23947   0.289   0.899   4.698
 7683SOL    HW123948   0.332   0.827   4.643
 7683SOL    HW223949   0.251   0.858   4.781
 7684SOL     OW23950   3.924   2.040   1.733
 7684SOL    HW123951   3.930   2.041   1.634
 7684SOL    HW223952   3.828   2.043   1.761
 7685SOL     OW23953   3.750   1.279   6.716
 7685SOL    HW123954   3.836   1.242   6.751
 7685SOL    HW223955   3.678   1.264   6.784
 7686SOL     OW23956   4.730   0.237   4.754
 7686SOL    HW123957   4.711   0.158   4.697
 7686SOL    HW223958   4.670   0.313   4.727
 7687SOL     OW23959   5.062   5.528   4.673
 7687SOL    HW123960   5.134   5.513   4.605
 7687SOL    HW223961   5.085   5.606   4.730
 7688SOL     OW23962   0.244   5.159   5.788
 7688SOL    HW123963   0.305   5.208   5.725
 7688SOL    HW223964   0.297   5.094   5.842
 7689SOL     OW23965   4.908   0.568   1.963
 7689SOL    HW123966   4.828   0.625   1.982
 7689SOL    HW223967   4.940   0.527   2.048
 7690SOL     OW23968   5.531   4.733   0.389
 7690SOL    HW123969   5.543   4.831   0.403
 7690SOL    HW223970   5.490   4.693   0.471
 7691SOL     OW23971   4.451   4.884   2.365
 7691SOL    HW123972   4.356   4.854   2.375
 7691SOL    HW223973   4.499   4.874   2.451
 7692SOL     OW23974   0.794   6.447   1.338
 7692SOL    HW123975   0.853   6.372   1.368
 7692SOL    HW223976   0.808   6.527   1.397
 7693SOL     OW23977   3.212   0.920   0.664
 7693SOL    HW123978   3.273   0.841   0.654
 7693SOL    HW223979   3.191   0.933   0.761
 7694SOL     OW23980   5.936   2.716   4.486
 7694SOL    HW123981   6.001   2.645   4.513
 7694SOL    HW223982   5.843   2.681   4.497
 7695SOL     OW23983   6.237   6.921   2.835
 7695SOL    HW123984   6.163   6.882   2.779
 7695SOL    HW223985   6.243   6.870   2.921
 7696SOL     OW23986   0.552   2.039   6.105
 7696SOL    HW123987   0.558   2.081   6.015
 7696SOL    HW223988   0.544   2.110   6.175
 7697SOL     OW23989   3.556   6.930   2.909
 7697SOL    HW123990   3.519   6.883   2.989
 7697SOL    HW223991   3.599   7.015   2.938
 7698SOL     OW23992   6.185   2.572   6.701
 7698SOL    HW123993   6.246   2.651   6.705
 7698SOL    HW223994   6.106   2.595   6.644
 7699SOL     OW23995   2.500   5.481   6.992
 7699SOL    HW123996   2.565   5.406   7.002
 7699SOL    HW223997   2.465   5.483   6.899
 7700SOL     OW23998   4.649   5.717   3.066
 7700SOL    HW123999   4.711   5.642   3.087
 7700SOL    HW224000   4.641   5.777   3.146
 7701SOL     OW24001   0.181   1.919   6.280
 7701SOL    HW124002   0.109   1.921   6.348
 7701SOL    HW224003   0.261   1.872   6.317
 7702SOL     OW24004   4.675   6.906   5.779
 7702SOL    HW124005   4.601   6.927   5.842
 7702SOL    HW224006   4.638   6.896   5.686
 7703SOL     OW24007   6.402   0.592   4.955
 7703SOL    HW124008   6.449   0.564   4.872
 7703SOL    HW224009   6.402   0.691   4.962
 7704SOL     OW24010   6.759   1.578   4.107
 7704SOL    HW124011   6.717   1.628   4.031
 7704SOL    HW224012   6.717   1.608   4.193
 7705SOL     OW24013   2.747   5.086   0.574
 7705SOL    HW124014   2.832   5.126   0.608
 7705SOL    HW224015   2.765   5.036   0.489
 7706SOL     OW24016   3.565   2.920   3.313
 7706SOL    HW124017   3.472   2.908   3.279
 7706SOL    HW224018   3.584   3.018   3.324
 7707SOL     OW24019   6.687   5.633   0.042
 7707SOL    HW124020   6.634   5.682   6.999
 7707SOL    HW224021   6.626   5.599   0.114
 7708SOL     OW24022   1.926   0.300   4.292
 7708SOL    HW124023   1.938   0.321   4.389
 7708SOL    HW224024   1.942   0.383   4.238
 7709SOL     OW24025   6.683   5.098   1.131
 7709SOL    HW124026   6.726   5.181   1.096
 7709SOL    HW224027   6.589   5.092   1.095
 7710SOL     OW24028   1.661   2.677   0.685
 7710SOL    HW124029   1.615   2.753   0.732
 7710SOL    HW224030   1.624   2.667   0.593
 7711SOL     OW24031   6.479   5.117   5.473
 7711SOL    HW124032   6.555   5.138   5.412
 7711SOL    HW224033   6.486   5.022   5.504
 7712SOL     OW24034   6.301   4.359   6.248
 7712SOL    HW124035   6.214   4.343   6.294
 7712SOL    HW224036   6.359   4.279   6.258
 7713SOL     OW24037   1.726   4.629   1.051
 7713SOL    HW124038   1.782   4.698   1.098
 7713SOL    HW224039   1.641   4.671   1.019
 7714SOL     OW24040   6.609   0.404   4.357
 7714SOL    HW124041   6.575   0.498   4.348
 7714SOL    HW224042   6.570   0.347   4.285
 7715SOL     OW24043   1.904   2.907   6.223
 7715SOL    HW124044   1.984   2.922   6.281
 7715SOL    HW224045   1.904   2.813   6.190
 7716SOL     OW24046   0.758   5.426   6.725
 7716SOL    HW124047   0.679   5.479   6.695
 7716SOL    HW224048   0.761   5.339   6.675
 7717SOL     OW24049   1.114   2.289   6.000
 7717SOL    HW124050   1.128   2.190   5.992
 7717SOL    HW224051   1.190   2.329   6.051
 7718SOL     OW24052   0.766   3.338   2.545
 7718SOL    HW124053   0.784   3.373   2.637
 7718SOL    HW224054   0.768   3.415   2.481
 7719SOL     OW24055   1.545   4.106   4.975
 7719SOL    HW124056   1.527   4.127   5.071
 7719SOL    HW224057   1.638   4.134   4.952
 7720SOL     OW24058   6.296   2.028   6.215
 7720SOL    HW124059   6.353   1.964   6.164
 7720SOL    HW224060   6.240   2.082   6.152
 7721SOL     OW24061   1.272   0.492   2.492
 7721SOL    HW124062   1.212   0.483   2.411
 7721SOL    HW224063   1.342   0.560   2.473
 7722SOL     OW24064   2.105   4.920   4.010
 7722SOL    HW124065   2.089   4.971   4.095
 7722SOL    HW224066   2.064   4.970   3.934
 7723SOL     OW24067   4.992   2.781   6.565
 7723SOL    HW124068   4.944   2.716   6.624
 7723SOL    HW224069   5.039   2.848   6.621
 7724SOL     OW24070   3.138   4.136   1.112
 7724SOL    HW124071   3.090   4.077   1.046
 7724SOL    HW224072   3.166   4.080   1.191
 7725SOL     OW24073   5.844   2.616   2.653
 7725SOL    HW124074   5.870   2.608   2.556
 7725SOL    HW224075   5.824   2.525   2.690
 7726SOL     OW24076   0.980   3.064   6.245
 7726SOL    HW124077   0.942   3.156   6.230
 7726SOL    HW224078   0.906   2.997   6.247
 7727SOL     OW24079   4.945   2.359   1.733
 7727SOL    HW124080   4.900   2.275   1.703
 7727SOL    HW224081   4.882   2.436   1.726
 7728SOL     OW24082   2.211   2.796   5.193
 7728SOL    HW124083   2.268   2.856   5.137
 7728SOL    HW224084   2.115   2.808   5.167
 7729SOL     OW24085   6.347   1.720   2.461
 7729SOL    HW124086   6.310   1.635   2.423
 7729SOL    HW224087   6.385   1.775   2.387
 7730SOL     OW24088   5.795   4.656   5.680
 7730SOL    HW124089   5.821   4.690   5.589
 7730SOL    HW224090   5.696   4.657   5.689
 7731SOL     OW24091   6.005   0.203   0.531
 7731SOL    HW124092   5.948   0.283   0.510
 7731SOL    HW224093   6.019   0.197   0.630
 7732SOL     OW24094   4.655   0.120   6.909
 7732SOL    HW124095   4.696   0.045   6.857
 7732SOL    HW224096   4.560   0.132   6.882
 7733SOL     OW24097   6.767   5.654   2.724
 7733SOL    HW124098   6.687   5.712   2.711
 7733SOL    HW224099   6.818   5.685   2.804
 7734SOL     OW24100   2.436   4.607   5.260
 7734SOL    HW124101   2.340   4.577   5.261
 7734SOL    HW224102   2.469   4.607   5.165
 7735SOL     OW24103   6.395   6.174   0.386
 7735SOL    HW124104   6.438   6.085   0.374
 7735SOL    HW224105   6.344   6.198   0.303
 7736SOL     OW24106   2.723   3.002   0.784
 7736SOL    HW124107   2.777   3.085   0.797
 7736SOL    HW224108   2.698   2.964   0.873
 7737SOL     OW24109   3.957   5.330   1.349
 7737SOL    HW124110   3.977   5.336   1.447
 7737SOL    HW224111   4.037   5.360   1.297
 7738SOL     OW24112   2.825   6.101   6.557
 7738SOL    HW124113   2.775   6.019   6.585
 7738SOL    HW224114   2.880   6.135   6.634
 7739SOL     OW24115   1.326   2.637   1.967
 7739SOL    HW124116   1.340   2.689   2.052
 7739SOL    HW224117   1.328   2.700   1.889
 7740SOL     OW24118   1.814   0.882   3.014
 7740SOL    HW124119   1.891   0.823   3.038
 7740SOL    HW224120   1.834   0.976   3.043
 7741SOL     OW24121   1.879   4.681   5.542
 7741SOL    HW124122   1.880   4.773   5.503
 7741SOL    HW224123   1.948   4.674   5.614
 7742SOL     OW24124   4.307   1.790   4.111
 7742SOL    HW124125   4.279   1.875   4.067
 7742SOL    HW224126   4.250   1.773   4.191
 7743SOL     OW24127   5.517   1.386   6.278
 7743SOL    HW124128   5.475   1.399   6.189
 7743SOL    HW224129   5.480   1.453   6.343
 7744SOL     OW24130   0.858   5.676   5.314
 7744SOL    HW124131   0.882   5.592   5.365
 7744SOL    HW224132   0.939   5.734   5.308
 7745SOL     OW24133   2.252   6.165   7.005
 7745SOL    HW124134   2.230   6.228   0.053
 7745SOL    HW224135   2.245   6.071   0.012
 7746SOL     OW24136   1.220   6.264   0.827
 7746SOL    HW124137   1.218   6.273   0.926
 7746SOL    HW224138   1.255   6.349   0.787
 7747SOL     OW24139   6.744   6.343   0.768
 7747SOL    HW124140   6.786   6.289   0.840
 7747SOL    HW224141   6.645   6.331   0.770
 7748SOL     OW24142   4.015   2.955   5.402
 7748SOL    HW124143   3.992   2.863   5.370
 7748SOL    HW224144   3.941   2.990   5.460
 7749SOL     OW24145   3.631   3.669   3.400
 7749SOL    HW124146   3.731   3.660   3.393
 7749SOL    HW224147   3.606   3.691   3.494
 7750SOL     OW24148   5.438   5.034   6.129
 7750SOL    HW124149   5.488   5.030   6.043
 7750SOL    HW224150   5.452   5.123   6.173
 7751SOL     OW24151   0.338   1.667   3.646
 7751SOL    HW124152   0.360   1.702   3.737
 7751SOL    HW224153   0.355   1.569   3.642
 7752SOL     OW24154   5.475   4.990   5.195
 7752SOL    HW124155   5.439   4.995   5.102
 7752SOL    HW224156   5.410   5.031   5.259
 7753SOL     OW24157   2.637   0.415   4.684
 7753SOL    HW124158   2.675   0.325   4.704
 7753SOL    HW224159   2.630   0.428   4.585
 7754SOL     OW24160   5.841   0.547   0.957
 7754SOL    HW124161   5.813   0.480   0.889
 7754SOL    HW224162   5.882   0.626   0.912
 7755SOL     OW24163   0.160   6.396   5.637
 7755SOL    HW124164   0.109   6.395   5.723
 7755SOL    HW224165   0.257   6.412   5.656
 7756SOL     OW24166   2.535   5.448   2.202
 7756SOL    HW124167   2.530   5.541   2.240
 7756SOL    HW224168   2.614   5.400   2.241
 7757SOL     OW24169   4.784   5.879   5.412
 7757SOL    HW124170   4.825   5.889   5.502
 7757SOL    HW224171   4.685   5.890   5.418
 7758SOL     OW24172   1.880   2.670   6.061
 7758SOL    HW124173   1.843   2.678   5.968
 7758SOL    HW224174   1.891   2.573   6.084
 7759SOL     OW24175   2.037   0.419   4.872
 7759SOL    HW124176   2.018   0.335   4.822
 7759SOL    HW224177   1.951   0.457   4.907
 7760SOL     OW24178   5.713   2.780   2.021
 7760SOL    HW124179   5.723   2.751   2.116
 7760SOL    HW224180   5.803   2.800   1.983
 7761SOL     OW24181   3.031   6.841   6.106
 7761SOL    HW124182   3.063   6.752   6.137
 7761SOL    HW224183   3.028   6.904   6.184
 7762SOL     OW24184   4.096   0.822   6.342
 7762SOL    HW124185   4.192   0.851   6.347
 7762SOL    HW224186   4.040   0.880   6.401
 7763SOL     OW24187   1.413   1.904   0.579
 7763SOL    HW124188   1.462   1.947   0.503
 7763SOL    HW224189   1.315   1.927   0.572
 7764SOL     OW24190   3.851   3.343   2.523
 7764SOL    HW124191   3.753   3.331   2.508
 7764SOL    HW224192   3.866   3.423   2.581
 7765SOL     OW24193   6.626   3.447   4.004
 7765SOL    HW124194   6.605   3.538   3.969
 7765SOL    HW224195   6.637   3.384   3.927
 7766SOL     OW24196   5.679   1.588   7.011
 7766SOL    HW124197   5.591   1.611   6.970
 7766SOL    HW224198   5.685   1.489   7.024
 7767SOL     OW24199   3.826   6.241   3.537
 7767SOL    HW124200   3.802   6.243   3.440
 7767SOL    HW224201   3.820   6.147   3.572
 7768SOL     OW24202   3.393   4.996   2.802
 7768SOL    HW124203   3.444   4.931   2.858
 7768SOL    HW224204   3.450   5.077   2.783
 7769SOL     OW24205   4.396   1.838   1.829
 7769SOL    HW124206   4.461   1.837   1.752
 7769SOL    HW224207   4.313   1.887   1.802
 7770SOL     OW24208   2.625   4.811   1.915
 7770SOL    HW124209   2.651   4.714   1.915
 7770SOL    HW224210   2.703   4.866   1.944
 7771SOL     OW24211   2.700   2.277   4.478
 7771SOL    HW124212   2.694   2.184   4.515
 7771SOL    HW224213   2.769   2.279   4.406
 7772SOL     OW24214   5.294   1.142   3.341
 7772SOL    HW124215   5.300   1.236   3.374
 7772SOL    HW224216   5.232   1.089   3.399
 7773SOL     OW24217   3.639   4.533   6.512
 7773SOL    HW124218   3.719   4.478   6.490
 7773SOL    HW224219   3.569   4.521   6.441
 7774SOL     OW24220   5.659   1.655   5.744
 7774SOL    HW124221   5.631   1.605   5.661
 7774SOL    HW224222   5.697   1.590   5.810
 7775SOL     OW24223   3.118   6.422   3.682
 7775SOL    HW124224   3.129   6.323   3.688
 7775SOL    HW224225   3.039   6.451   3.736
 7776SOL     OW24226   3.215   3.274   5.890
 7776SOL    HW124227   3.262   3.236   5.811
 7776SOL    HW224228   3.280   3.324   5.947
 7777SOL     OW24229   2.447   1.495   5.693
 7777SOL    HW124230   2.441   1.447   5.781
 7777SOL    HW224231   2.486   1.434   5.624
 7778SOL     OW24232   5.749   0.305   0.473
 7778SOL    HW124233   5.711   0.212   0.467
 7778SOL    HW224234   5.679   0.371   0.445
 7779SOL     OW24235   3.258   2.873   0.614
 7779SOL    HW124236   3.302   2.871   0.524
 7779SOL    HW224237   3.192   2.949   0.617
 7780SOL     OW24238   1.271   5.963   4.219
 7780SOL    HW124239   1.300   5.978   4.314
 7780SOL    HW224240   1.326   6.020   4.158
 7781SOL     OW24241   1.695   4.005   5.949
 7781SOL    HW124242   1.631   4.005   5.872
 7781SOL    HW224243   1.698   3.914   5.990
 7782SOL     OW24244   1.948   4.096   6.025
 7782SOL    HW124245   2.012   4.021   6.043
 7782SOL    HW224246   1.865   4.060   5.982
 7783SOL     OW24247   2.710   6.686   6.239
 7783SOL    HW124248   2.783   6.624   6.269
 7783SOL    HW224249   2.675   6.737   6.318
 7784SOL     OW24250   1.107   3.577   0.003
 7784SOL    HW124251   1.119   3.503   6.963
 7784SOL    HW224252   1.153   3.555   0.088
 7785SOL     OW24253   2.133   6.641   4.159
 7785SOL    HW124254   2.132   6.594   4.071
 7785SOL    HW224255   2.207   6.708   4.160
 7786SOL     OW24256   3.169   4.698   5.290
 7786SOL    HW124257   3.210   4.611   5.321
 7786SOL    HW224258   3.094   4.679   5.227
 7787SOL     OW24259   2.319   2.519   5.179
 7787SOL    HW124260   2.364   2.523   5.090
 7787SOL    HW224261   2.243   2.584   5.181
 7788SOL     OW24262   1.634   1.657   1.753
 7788SOL    HW124263   1.612   1.708   1.837
 7788SOL    HW224264   1.706   1.705   1.704
 7789SOL     OW24265   2.357   0.144   0.900
 7789SOL    HW124266   2.442   0.156   0.952
 7789SOL    HW224267   2.352   0.212   0.828
 7790SOL     OW24268   6.478   4.030   3.077
 7790SOL    HW124269   6.540   4.078   3.140
 7790SOL    HW224270   6.417   3.971   3.129
 7791SOL     OW24271   2.771   5.867   4.403
 7791SOL    HW124272   2.745   5.959   4.432
 7791SOL    HW224273   2.804   5.815   4.482
 7792SOL     OW24274   1.899   5.096   6.443
 7792SOL    HW124275   1.975   5.121   6.384
 7792SOL    HW224276   1.839   5.175   6.456
 7793SOL     OW24277   1.964   1.360   5.357
 7793SOL    HW124278   2.047   1.385   5.407
 7793SOL    HW224279   1.953   1.421   5.278
 7794SOL     OW24280   5.031   4.899   4.518
 7794SOL    HW124281   4.936   4.923   4.538
 7794SOL    HW224282   5.092   4.961   4.567
 7795SOL     OW24283   2.035   4.017   5.428
 7795SOL    HW124284   2.009   4.011   5.332
 7795SOL    HW224285   2.135   4.027   5.435
 7796SOL     OW24286   3.488   4.137   3.609
 7796SOL    HW124287   3.450   4.207   3.548
 7796SOL    HW224288   3.584   4.121   3.585
 7797SOL     OW24289   0.139   5.524   3.527
 7797SOL    HW124290   0.211   5.581   3.487
 7797SOL    HW224291   0.140   5.536   3.627
 7798SOL     OW24292   2.826   5.183   0.153
 7798SOL    HW124293   2.915   5.138   0.153
 7798SOL    HW224294   2.823   5.252   0.081
 7799SOL     OW24295   6.638   5.647   1.731
 7799SOL    HW124296   6.617   5.687   1.821
 7799SOL    HW224297   6.576   5.686   1.663
 7800SOL     OW24298   0.515   4.248   1.605
 7800SOL    HW124299   0.487   4.199   1.687
 7800SOL    HW224300   0.529   4.344   1.626
 7801SOL     OW24301   2.250   1.873   1.076
 7801SOL    HW124302   2.180   1.809   1.108
 7801SOL    HW224303   2.340   1.835   1.094
 7802SOL     OW24304   6.111   2.731   1.415
 7802SOL    HW124305   6.039   2.795   1.391
 7802SOL    HW224306   6.200   2.773   1.398
 7803SOL     OW24307   4.311   3.477   5.801
 7803SOL    HW124308   4.262   3.510   5.720
 7803SOL    HW224309   4.306   3.377   5.804
 7804SOL     OW24310   6.491   1.180   4.093
 7804SOL    HW124311   6.434   1.100   4.076
 7804SOL    HW224312   6.556   1.159   4.166
 7805SOL     OW24313   5.301   2.358   0.785
 7805SOL    HW124314   5.297   2.458   0.780
 7805SOL    HW224315   5.240   2.326   0.856
 7806SOL     OW24316   5.624   3.166   6.072
 7806SOL    HW124317   5.667   3.209   5.992
 7806SOL    HW224318   5.567   3.232   6.119
 7807SOL     OW24319   6.845   4.854   6.395
 7807SOL    HW124320   6.750   4.825   6.380
 7807SOL    HW224321   6.889   4.871   6.306
 7808SOL     OW24322   0.577   2.626   4.700
 7808SOL    HW124323   0.654   2.567   4.675
 7808SOL    HW224324   0.570   2.701   4.634
 7809SOL     OW24325   2.117   5.804   5.118
 7809SOL    HW124326   2.149   5.835   5.029
 7809SOL    HW224327   2.178   5.837   5.190
 7810SOL     OW24328   3.013   0.583   5.259
 7810SOL    HW124329   3.022   0.510   5.327
 7810SOL    HW224330   2.929   0.635   5.275
 7811SOL     OW24331   6.292   4.286   4.416
 7811SOL    HW124332   6.196   4.308   4.400
 7811SOL    HW224333   6.336   4.362   4.464
 7812SOL     OW24334   1.616   1.823   4.074
 7812SOL    HW124335   1.611   1.769   4.158
 7812SOL    HW224336   1.693   1.887   4.079
 7813SOL     OW24337   4.969   2.548   6.348
 7813SOL    HW124338   5.062   2.583   6.337
 7813SOL    HW224339   4.964   2.454   6.315
 7814SOL     OW24340   0.253   2.130   3.124
 7814SOL    HW124341   0.311   2.096   3.198
 7814SOL    HW224342   0.250   2.230   3.127
 7815SOL     OW24343   5.151   1.266   6.742
 7815SOL    HW124344   5.149   1.366   6.750
 7815SOL    HW224345   5.150   1.225   6.833
 7816SOL     OW24346   1.278   3.009   5.869
 7816SOL    HW124347   1.214   2.993   5.794
 7816SOL    HW224348   1.349   3.072   5.840
 7817SOL     OW24349   6.349   3.454   4.428
 7817SOL    HW124350   6.323   3.399   4.349
 7817SOL    HW224351   6.416   3.523   4.401
 7818SOL     OW24352   5.557   0.279   2.066
 7818SOL    HW124353   5.524   0.192   2.102
 7818SOL    HW224354   5.480   0.335   2.039
 7819SOL     OW24355   0.150   3.299   1.637
 7819SOL    HW124356   0.246   3.293   1.611
 7819SOL    HW224357   0.136   3.252   1.724
 7820SOL     OW24358   1.606   2.180   4.863
 7820SOL    HW124359   1.641   2.274   4.871
 7820SOL    HW224360   1.537   2.165   4.934
 7821SOL     OW24361   4.237   5.882   1.277
 7821SOL    HW124362   4.252   5.974   1.315
 7821SOL    HW224363   4.147   5.849   1.304
 7822SOL     OW24364   0.049   0.119   5.140
 7822SOL    HW124365   6.984   0.106   5.098
 7822SOL    HW224366   0.043   0.102   5.238
 7823SOL     OW24367   2.219   4.104   4.498
 7823SOL    HW124368   2.248   4.049   4.420
 7823SOL    HW224369   2.203   4.044   4.577
 7824SOL     OW24370   6.729   2.653   5.122
 7824SOL    HW124371   6.708   2.556   5.113
 7824SOL    HW224372   6.652   2.700   5.166
 7825SOL     OW24373   2.736   3.089   6.938
 7825SOL    HW124374   2.750   3.046   0.002
 7825SOL    HW224375   2.811   3.153   6.920
 7826SOL     OW24376   0.055   1.498   0.186
 7826SOL    HW124377   0.041   1.400   0.168
 7826SOL    HW224378   0.087   1.510   0.280
 7827SOL     OW24379   0.541   5.898   2.715
 7827SOL    HW124380   0.493   5.813   2.735
 7827SOL    HW224381   0.496   5.974   2.761
 7828SOL     OW24382   6.871   4.198   6.981
 7828SOL    HW124383   6.906   4.244   6.899
 7828SOL    HW224384   6.835   4.109   6.955
 7829SOL     OW24385   3.542   3.134   1.296
 7829SOL    HW124386   3.542   3.156   1.394
 7829SOL    HW224387   3.485   3.053   1.281
 7830SOL     OW24388   3.753   5.505   5.324
 7830SOL    HW124389   3.802   5.418   5.312
 7830SOL    HW224390   3.769   5.563   5.244
 7831SOL     OW24391   1.988   1.233   1.191
 7831SOL    HW124392   2.052   1.227   1.115
 7831SOL    HW224393   1.940   1.145   1.201
 7832SOL     OW24394   5.161   0.671   4.457
 7832SOL    HW124395   5.088   0.613   4.421
 7832SOL    HW224396   5.170   0.657   4.556
 7833SOL     OW24397   1.400   0.305   4.239
 7833SOL    HW124398   1.423   0.402   4.250
 7833SOL    HW224399   1.317   0.297   4.183
 7834SOL     OW24400   6.762   1.921   3.817
 7834SOL    HW124401   6.836   1.928   3.751
 7834SOL    HW224402   6.748   1.825   3.842
 7835SOL     OW24403   4.159   1.769   5.266
 7835SOL    HW124404   4.134   1.865   5.255
 7835SOL    HW224405   4.077   1.716   5.290
 7836SOL     OW24406   4.027   4.128   5.420
 7836SOL    HW124407   4.124   4.105   5.417
 7836SOL    HW224408   3.995   4.125   5.515
 7837SOL     OW24409   5.505   6.321   0.277
 7837SOL    HW124410   5.501   6.237   0.331
 7837SOL    HW224411   5.523   6.399   0.338
 7838SOL     OW24412   4.968   4.748   1.275
 7838SOL    HW124413   4.995   4.775   1.367
 7838SOL    HW224414   5.048   4.752   1.214
 7839SOL     OW24415   5.771   4.293   4.989
 7839SOL    HW124416   5.767   4.193   4.992
 7839SOL    HW224417   5.685   4.331   5.023
 7840SOL     OW24418   0.573   4.078   3.953
 7840SOL    HW124419   0.667   4.060   3.921
 7840SOL    HW224420   0.559   4.176   3.962
 7841SOL     OW24421   4.704   2.111   6.354
 7841SOL    HW124422   4.803   2.115   6.360
 7841SOL    HW224423   4.663   2.171   6.422
 7842SOL     OW24424   2.096   1.975   2.277
 7842SOL    HW124425   2.184   1.929   2.269
 7842SOL    HW224426   2.101   2.065   2.234
 7843SOL     OW24427   6.544   0.178   4.204
 7843SOL    HW124428   6.632   0.140   4.177
 7843SOL    HW224429   6.486   0.106   4.242
 7844SOL     OW24430   3.582   0.604   2.269
 7844SOL    HW124431   3.595   0.505   2.274
 7844SOL    HW224432   3.654   0.650   2.320
 7845SOL     OW24433   5.253   1.937   1.385
 7845SOL    HW124434   5.205   1.967   1.303
 7845SOL    HW224435   5.201   1.965   1.466
 7846SOL     OW24436   1.632   2.750   0.380
 7846SOL    HW124437   1.574   2.669   0.380
 7846SOL    HW224438   1.574   2.832   0.385
 7847SOL     OW24439   6.314   1.512   3.191
 7847SOL    HW124440   6.216   1.532   3.198
 7847SOL    HW224441   6.351   1.496   3.283
 7848SOL     OW24442   2.922   4.564   1.144
 7848SOL    HW124443   2.828   4.599   1.146
 7848SOL    HW224444   2.986   4.641   1.134
 7849SOL     OW24445   5.814   3.438   5.183
 7849SOL    HW124446   5.896   3.470   5.136
 7849SOL    HW224447   5.838   3.363   5.245
 7850SOL     OW24448   6.707   1.490   3.460
 7850SOL    HW124449   6.805   1.475   3.464
 7850SOL    HW224450   6.689   1.586   3.437
 7851SOL     OW24451   0.753   3.209   1.803
 7851SOL    HW124452   0.738   3.308   1.800
 7851SOL    HW224453   0.808   3.186   1.884
 7852SOL     OW24454   2.951   0.955   0.576
 7852SOL    HW124455   2.911   0.904   0.652
 7852SOL    HW224456   3.051   0.949   0.582
 7853SOL     OW24457   4.420   3.120   1.744
 7853SOL    HW124458   4.510   3.125   1.788
 7853SOL    HW224459   4.359   3.187   1.786
 7854SOL     OW24460   4.367   2.255   5.965
 7854SOL    HW124461   4.375   2.272   6.063
 7854SOL    HW224462   4.285   2.201   5.947
 7855SOL     OW24463   5.099   6.365   4.417
 7855SOL    HW124464   5.198   6.364   4.431
 7855SOL    HW224465   5.056   6.420   4.488
 7856SOL     OW24466   1.797   4.651   5.031
 7856SOL    HW124467   1.844   4.620   4.949
 7856SOL    HW224468   1.698   4.651   5.014
 7857SOL     OW24469   4.973   4.346   0.608
 7857SOL    HW124470   4.969   4.446   0.618
 7857SOL    HW224471   4.897   4.316   0.549
 7858SOL     OW24472   0.283   5.702   4.831
 7858SOL    HW124473   0.344   5.623   4.835
 7858SOL    HW224474   0.188   5.670   4.830
 7859SOL     OW24475   4.885   3.123   6.537
 7859SOL    HW124476   4.851   3.030   6.551
 7859SOL    HW224477   4.983   3.120   6.518
 7860SOL     OW24478   3.680   1.356   4.175
 7860SOL    HW124479   3.755   1.421   4.178
 7860SOL    HW224480   3.613   1.379   4.246
 7861SOL     OW24481   2.645   5.559   1.965
 7861SOL    HW124482   2.744   5.553   1.974
 7861SOL    HW224483   2.601   5.521   2.047
 7862SOL     OW24484   3.005   5.377   2.307
 7862SOL    HW124485   3.019   5.411   2.214
 7862SOL    HW224486   2.907   5.362   2.323
 7863SOL     OW24487   0.141   4.242   3.344
 7863SOL    HW124488   0.212   4.218   3.277
 7863SOL    HW224489   0.175   4.315   3.404
 7864SOL     OW24490   2.016   6.214   6.847
 7864SOL    HW124491   2.032   6.300   6.799
 7864SOL    HW224492   2.095   6.193   6.905
 7865SOL     OW24493   5.945   6.376   3.632
 7865SOL    HW124494   5.956   6.288   3.678
 7865SOL    HW224495   5.922   6.446   3.699
 7866SOL     OW24496   1.958   0.447   5.295
 7866SOL    HW124497   1.976   0.517   5.364
 7866SOL    HW224498   1.864   0.414   5.305
 7867SOL     OW24499   5.351   6.849   3.978
 7867SOL    HW124500   5.304   6.766   4.007
 7867SOL    HW224501   5.352   6.915   4.054
 7868SOL     OW24502   3.711   5.729   1.074
 7868SOL    HW124503   3.715   5.641   1.121
 7868SOL    HW224504   3.682   5.715   0.980
 7869SOL     OW24505   5.122   4.938   5.099
 7869SOL    HW124506   5.216   4.928   5.066
 7869SOL    HW224507   5.094   5.034   5.089
 7870SOL     OW24508   4.927   0.098   5.226
 7870SOL    HW124509   4.835   0.129   5.248
 7870SOL    HW224510   4.952   0.130   5.134
 7871SOL     OW24511   5.171   0.993   2.318
 7871SOL    HW124512   5.267   0.980   2.345
 7871SOL    HW224513   5.111   0.967   2.393
 7872SOL     OW24514   1.967   4.921   2.849
 7872SOL    HW124515   2.040   4.864   2.812
 7872SOL    HW224516   1.901   4.864   2.897
 7873SOL     OW24517   6.421   1.272   1.043
 7873SOL    HW124518   6.403   1.226   1.130
 7873SOL    HW224519   6.383   1.365   1.046
 7874SOL     OW24520   5.502   2.780   0.798
 7874SOL    HW124521   5.575   2.784   0.866
 7874SOL    HW224522   5.422   2.735   0.837
 7875SOL     OW24523   3.961   3.785   6.879
 7875SOL    HW124524   4.056   3.793   6.849
 7875SOL    HW224525   3.903   3.761   6.801
 7876SOL     OW24526   1.312   0.216   2.620
 7876SOL    HW124527   1.278   0.294   2.566
 7876SOL    HW224528   1.246   0.194   2.691
 7877SOL     OW24529   5.875   1.240   2.697
 7877SOL    HW124530   5.869   1.323   2.754
 7877SOL    HW224531   5.783   1.205   2.679
 7878SOL     OW24532   4.846   3.787   3.671
 7878SOL    HW124533   4.890   3.767   3.584
 7878SOL    HW224534   4.837   3.702   3.724
 7879SOL     OW24535   3.208   5.256   3.492
 7879SOL    HW124536   3.225   5.158   3.490
 7879SOL    HW224537   3.110   5.273   3.495
 7880SOL     OW24538   2.340   3.787   1.034
 7880SOL    HW124539   2.342   3.807   1.132
 7880SOL    HW224540   2.374   3.867   0.983
 7881SOL     OW24541   5.294   4.127   4.480
 7881SOL    HW124542   5.221   4.080   4.530
 7881SOL    HW224543   5.361   4.060   4.450
 7882SOL     OW24544   2.923   3.926   1.378
 7882SOL    HW124545   2.889   4.020   1.365
 7882SOL    HW224546   2.883   3.866   1.309
 7883SOL     OW24547   1.109   0.582   5.306
 7883SOL    HW124548   1.018   0.542   5.308
 7883SOL    HW224549   1.161   0.544   5.230
 7884SOL     OW24550   0.431   3.593   3.962
 7884SOL    HW124551   0.370   3.590   3.883
 7884SOL    HW224552   0.511   3.649   3.941
 7885SOL     OW24553   6.345   5.580   1.241
 7885SOL    HW124554   6.262   5.535   1.272
 7885SOL    HW224555   6.328   5.624   1.153
 7886SOL     OW24556   4.473   5.555   0.559
 7886SOL    HW124557   4.405   5.481   0.563
 7886SOL    HW224558   4.565   5.516   0.561
 7887SOL     OW24559   3.939   1.575   6.714
 7887SOL    HW124560   3.906   1.481   6.708
 7887SOL    HW224561   3.916   1.623   6.629
 7888SOL     OW24562   5.155   0.099   3.948
 7888SOL    HW124563   5.192   0.050   3.869
 7888SOL    HW224564   5.114   0.185   3.917
 7889SOL     OW24565   0.833   6.231   1.985
 7889SOL    HW124566   0.808   6.267   1.895
 7889SOL    HW224567   0.757   6.178   2.022
 7890SOL     OW24568   2.069   3.928   2.256
 7890SOL    HW124569   1.977   3.908   2.288
 7890SOL    HW224570   2.108   3.847   2.213
 7891SOL     OW24571   2.957   4.800   2.352
 7891SOL    HW124572   2.931   4.709   2.384
 7891SOL    HW224573   3.018   4.843   2.418
 7892SOL     OW24574   1.843   2.833   5.338
 7892SOL    HW124575   1.750   2.803   5.359
 7892SOL    HW224576   1.853   2.929   5.364
 7893SOL     OW24577   5.842   6.681   1.187
 7893SOL    HW124578   5.760   6.638   1.225
 7893SOL    HW224579   5.887   6.737   1.257
 7894SOL     OW24580   2.211   6.557   2.316
 7894SOL    HW124581   2.292   6.557   2.375
 7894SOL    HW224582   2.133   6.591   2.368
 7895SOL     OW24583   6.475   1.032   5.236
 7895SOL    HW124584   6.391   1.081   5.256
 7895SOL    HW224585   6.549   1.098   5.220
 7896SOL     OW24586   4.769   3.736   5.520
 7896SOL    HW124587   4.676   3.724   5.553
 7896SOL    HW224588   4.787   3.672   5.446
 7897SOL     OW24589   2.340   4.330   6.632
 7897SOL    HW124590   2.294   4.329   6.543
 7897SOL    HW224591   2.428   4.285   6.625
 7898SOL     OW24592   4.889   2.396   3.805
 7898SOL    HW124593   4.905   2.305   3.842
 7898SOL    HW224594   4.808   2.394   3.746
 7899SOL     OW24595   6.540   2.345   2.173
 7899SOL    HW124596   6.610   2.416   2.168
 7899SOL    HW224597   6.453   2.385   2.199
 7900SOL     OW24598   1.207   5.431   1.640
 7900SOL    HW124599   1.158   5.518   1.643
 7900SOL    HW224600   1.271   5.431   1.563
 7901SOL     OW24601   5.784   6.974   6.107
 7901SOL    HW124602   5.798   0.006   6.027
 7901SOL    HW224603   5.702   7.003   6.156
 7902SOL     OW24604   4.482   4.827   1.325
 7902SOL    HW124605   4.388   4.850   1.303
 7902SOL    HW224606   4.499   4.846   1.422
 7903SOL     OW24607   6.415   1.869   0.194
 7903SOL    HW124608   6.423   1.916   0.281
 7903SOL    HW224609   6.348   1.916   0.136
 7904SOL     OW24610   7.004   0.636   2.491
 7904SOL    HW124611   6.938   0.661   2.562
 7904SOL    HW224612   0.024   0.718   2.458
 7905SOL     OW24613   3.873   1.727   1.248
 7905SOL    HW124614   3.779   1.694   1.254
 7905SOL    HW224615   3.875   1.812   1.194
 7906SOL     OW24616   6.336   5.729   6.696
 7906SOL    HW124617   6.335   5.684   6.607
 7906SOL    HW224618   6.298   5.668   6.765
 7907SOL     OW24619   6.331   2.188   3.925
 7907SOL    HW124620   6.429   2.175   3.912
 7907SOL    HW224621   6.287   2.099   3.937
 7908SOL     OW24622   0.695   1.196   3.230
 7908SOL    HW124623   0.664   1.255   3.304
 7908SOL    HW224624   0.635   1.207   3.151
 7909SOL     OW24625   4.795   4.035   4.698
 7909SOL    HW124626   4.787   4.107   4.768
 7909SOL    HW224627   4.703   4.010   4.667
 7910SOL     OW24628   4.317   2.831   6.215
 7910SOL    HW124629   4.253   2.836   6.138
 7910SOL    HW224630   4.351   2.922   6.237
 7911SOL     OW24631   6.970   5.192   0.194
 7911SOL    HW124632   6.913   5.266   0.230
 7911SOL    HW224633   6.973   5.118   0.260
 7912SOL     OW24634   6.037   5.137   6.791
 7912SOL    HW124635   6.110   5.119   6.725
 7912SOL    HW224636   5.961   5.074   6.775
 7913SOL     OW24637   6.957   4.995   6.609
 7913SOL    HW124638   6.900   4.946   6.543
 7913SOL    HW224639   0.027   4.975   6.591
 7914SOL     OW24640   6.242   4.985   1.262
 7914SOL    HW124641   6.288   5.017   1.345
 7914SOL    HW224642   6.235   4.885   1.264
 7915SOL     OW24643   4.962   1.720   2.899
 7915SOL    HW124644   4.948   1.812   2.861
 7915SOL    HW224645   5.023   1.726   2.978
 7916SOL     OW24646   5.522   3.359   5.486
 7916SOL    HW124647   5.452   3.429   5.468
 7916SOL    HW224648   5.589   3.396   5.551
 7917SOL     OW24649   4.133   3.670   4.287
 7917SOL    HW124650   4.134   3.570   4.293
 7917SOL    HW224651   4.174   3.699   4.201
 7918SOL     OW24652   6.044   1.456   1.560
 7918SOL    HW124653   5.989   1.511   1.623
 7918SOL    HW224654   6.121   1.417   1.610
 7919SOL     OW24655   5.999   4.105   2.731
 7919SOL    HW124656   6.021   4.196   2.695
 7919SOL    HW224657   6.082   4.061   2.763
 7920SOL     OW24658   0.280   4.800   1.619
 7920SOL    HW124659   0.362   4.814   1.563
 7920SOL    HW224660   0.237   4.888   1.638
 7921SOL     OW24661   2.931   6.660   1.331
 7921SOL    HW124662   2.881   6.579   1.300
 7921SOL    HW224663   2.919   6.671   1.430
 7922SOL     OW24664   6.836   5.434   6.930
 7922SOL    HW124665   6.759   5.372   6.939
 7922SOL    HW224666   6.816   5.520   6.977
 7923SOL     OW24667   1.768   1.232   2.965
 7923SOL    HW124668   1.750   1.329   2.950
 7923SOL    HW224669   1.859   1.209   2.929
 7924SOL     OW24670   2.882   6.488   3.789
 7924SOL    HW124671   2.886   6.399   3.836
 7924SOL    HW224672   2.840   6.556   3.850
 7925SOL     OW24673   6.341   1.782   5.934
 7925SOL    HW124674   6.369   1.817   6.024
 7925SOL    HW224675   6.345   1.682   5.934
 7926SOL     OW24676   3.386   0.835   3.222
 7926SOL    HW124677   3.332   0.917   3.240
 7926SOL    HW224678   3.480   0.850   3.252
 7927SOL     OW24679   4.467   5.428   5.097
 7927SOL    HW124680   4.402   5.418   5.172
 7927SOL    HW224681   4.450   5.515   5.051
 7928SOL     OW24682   1.968   4.740   3.199
 7928SOL    HW124683   1.889   4.679   3.206
 7928SOL    HW224684   2.029   4.708   3.126
 7929SOL     OW24685   4.191   3.518   4.815
 7929SOL    HW124686   4.154   3.599   4.769
 7929SOL    HW224687   4.287   3.507   4.790
 7930SOL     OW24688   4.452   5.030   3.392
 7930SOL    HW124689   4.429   5.095   3.464
 7930SOL    HW224690   4.551   5.028   3.378
 7931SOL     OW24691   2.234   2.677   6.779
 7931SOL    HW124692   2.164   2.697   6.710
 7931SOL    HW224693   2.259   2.580   6.774
 7932SOL     OW24694   2.449   0.360   6.889
 7932SOL    HW124695   2.451   0.417   6.972
 7932SOL    HW224696   2.485   0.270   6.910
 7933SOL     OW24697   0.211   6.436   0.052
 7933SOL    HW124698   0.250   6.499   0.119
 7933SOL    HW224699   0.265   6.437   6.994
 7934SOL     OW24700   2.340   3.615   0.418
 7934SOL    HW124701   2.348   3.558   0.336
 7934SOL    HW224702   2.248   3.655   0.421
 7935SOL     OW24703   5.014   5.670   0.692
 7935SOL    HW124704   4.992   5.639   0.600
 7935SOL    HW224705   4.929   5.691   0.741
 7936SOL     OW24706   3.826   6.309   3.266
 7936SOL    HW124707   3.767   6.364   3.207
 7936SOL    HW224708   3.885   6.370   3.320
 7937SOL     OW24709   5.919   6.559   5.561
 7937SOL    HW124710   5.999   6.618   5.567
 7937SOL    HW224711   5.935   6.476   5.615
 7938SOL     OW24712   4.027   5.207   4.918
 7938SOL    HW124713   4.021   5.305   4.938
 7938SOL    HW224714   4.022   5.193   4.819
 7939SOL     OW24715   1.270   1.358   5.473
 7939SOL    HW124716   1.335   1.326   5.543
 7939SOL    HW224717   1.180   1.320   5.492
 7940SOL     OW24718   2.136   5.500   1.288
 7940SOL    HW124719   2.085   5.574   1.331
 7940SOL    HW224720   2.219   5.481   1.341
 7941SOL     OW24721   0.192   0.989   0.831
 7941SOL    HW124722   0.289   1.015   0.825
 7941SOL    HW224723   0.185   0.890   0.842
 7942SOL     OW24724   0.064   6.584   1.938
 7942SOL    HW124725   0.024   6.545   2.021
 7942SOL    HW224726   0.072   6.684   1.948
 7943SOL     OW24727   5.719   2.044   1.126
 7943SOL    HW124728   5.778   2.029   1.206
 7943SOL    HW224729   5.775   2.077   1.050
 7944SOL     OW24730   6.863   3.313   1.714
 7944SOL    HW124731   6.893   3.235   1.769
 7944SOL    HW224732   6.943   3.365   1.685
 7945SOL     OW24733   4.963   0.079   2.483
 7945SOL    HW124734   4.943   0.142   2.558
 7945SOL    HW224735   4.980   0.131   2.399
 7946SOL     OW24736   1.385   2.387   6.105
 7946SOL    HW124737   1.473   2.376   6.152
 7946SOL    HW224738   1.402   2.405   6.008
 7947SOL     OW24739   3.560   2.792   6.645
 7947SOL    HW124740   3.536   2.776   6.549
 7947SOL    HW224741   3.643   2.740   6.668
 7948SOL     OW24742   0.046   6.939   0.580
 7948SOL    HW124743   6.979   6.974   0.571
 7948SOL    HW224744   0.111   7.013   0.565
 7949SOL     OW24745   5.266   4.874   4.269
 7949SOL    HW124746   5.355   4.854   4.228
 7949SOL    HW224747   5.194   4.862   4.200
 7950SOL     OW24748   4.160   5.107   3.260
 7950SOL    HW124749   4.253   5.080   3.284
 7950SOL    HW224750   4.152   5.207   3.260
 7951SOL     OW24751   2.665   3.617   1.039
 7951SOL    HW124752   2.711   3.645   0.955
 7951SOL    HW224753   2.617   3.530   1.023
 7952SOL     OW24754   6.825   2.774   6.541
 7952SOL    HW124755   6.853   2.855   6.491
 7952SOL    HW224756   6.785   2.708   6.477
 7953SOL     OW24757   2.181   2.799   2.768
 7953SOL    HW124758   2.118   2.872   2.740
 7953SOL    HW224759   2.229   2.827   2.851
 7954SOL     OW24760   4.468   5.174   4.915
 7954SOL    HW124761   4.466   5.183   5.015
 7954SOL    HW224762   4.456   5.265   4.873
 7955SOL     OW24763   0.011   6.617   6.976
 7955SOL    HW124764   6.982   6.687   7.022
 7955SOL    HW224765   0.071   6.573   0.017
 7956SOL     OW24766   0.106   5.922   3.771
 7956SOL    HW124767   0.146   5.937   3.861
 7956SOL    HW224768   0.137   5.835   3.734
 7957SOL     OW24769   1.101   1.984   0.046
 7957SOL    HW124770   1.178   2.038   0.014
 7957SOL    HW224771   1.028   2.045   0.078
 7958SOL     OW24772   3.750   6.024   4.261
 7958SOL    HW124773   3.817   5.950   4.257
 7958SOL    HW224774   3.669   5.993   4.310
 7959SOL     OW24775   5.634   4.372   0.400
 7959SOL    HW124776   5.608   4.448   0.460
 7959SOL    HW224777   5.553   4.319   0.376
 7960SOL     OW24778   3.143   1.516   0.866
 7960SOL    HW124779   3.184   1.493   0.955
 7960SOL    HW224780   3.208   1.569   0.812
 7961SOL     OW24781   1.654   6.399   6.089
 7961SOL    HW124782   1.560   6.433   6.097
 7961SOL    HW224783   1.696   6.394   6.179
 7962SOL     OW24784   2.104   1.000   1.013
 7962SOL    HW124785   2.011   0.996   0.978
 7962SOL    HW224786   2.167   1.020   0.939
 7963SOL     OW24787   0.284   0.899   5.286
 7963SOL    HW124788   0.313   0.806   5.264
 7963SOL    HW224789   0.341   0.964   5.234
 7964SOL     OW24790   5.495   4.946   3.779
 7964SOL    HW124791   5.554   4.866   3.786
 7964SOL    HW224792   5.541   5.017   3.725
 7965SOL     OW24793   4.448   2.150   0.287
 7965SOL    HW124794   4.534   2.180   0.248
 7965SOL    HW224795   4.394   2.229   0.317
 7966SOL     OW24796   1.138   4.315   4.732
 7966SOL    HW124797   1.175   4.298   4.823
 7966SOL    HW224798   1.058   4.258   4.716
 7967SOL     OW24799   2.824   5.584   3.276
 7967SOL    HW124800   2.892   5.635   3.329
 7967SOL    HW224801   2.845   5.592   3.179
 7968SOL     OW24802   2.431   2.364   3.529
 7968SOL    HW124803   2.389   2.313   3.604
 7968SOL    HW224804   2.405   2.460   3.535
 7969SOL     OW24805   4.163   0.120   2.615
 7969SOL    HW124806   4.190   0.216   2.611
 7969SOL    HW224807   4.064   0.112   2.603
 7970SOL     OW24808   6.926   3.388   2.926
 7970SOL    HW124809   6.909   3.464   2.863
 7970SOL    HW224810   6.872   3.401   3.009
 7971SOL     OW24811   2.610   0.598   2.039
 7971SOL    HW124812   2.538   0.655   2.079
 7971SOL    HW224813   2.697   0.647   2.043
 7972SOL     OW24814   6.992   4.121   1.307
 7972SOL    HW124815   6.984   4.032   1.262
 7972SOL    HW224816   0.016   4.184   1.247
 7973SOL     OW24817   5.291   3.618   3.752
 7973SOL    HW124818   5.278   3.632   3.654
 7973SOL    HW224819   5.276   3.522   3.774
 7974SOL     OW24820   5.538   0.362   4.352
 7974SOL    HW124821   5.480   0.441   4.331
 7974SOL    HW224822   5.484   0.292   4.397
 7975SOL     OW24823   4.124   0.471   4.259
 7975SOL    HW124824   4.085   0.386   4.294
 7975SOL    HW224825   4.127   0.539   4.332
 7976SOL     OW24826   0.480   6.840   5.492
 7976SOL    HW124827   0.414   6.895   5.543
 7976SOL    HW224828   0.504   6.887   5.407
 7977SOL     OW24829   5.331   5.862   2.707
 7977SOL    HW124830   5.370   5.919   2.779
 7977SOL    HW224831   5.231   5.869   2.709
 7978SOL     OW24832   4.679   3.599   6.454
 7978SOL    HW124833   4.665   3.619   6.357
 7978SOL    HW224834   4.601   3.633   6.507
 7979SOL     OW24835   3.138   0.646   4.624
 7979SOL    HW124836   3.123   0.739   4.589
 7979SOL    HW224837   3.072   0.627   4.697
 7980SOL     OW24838   3.497   5.862   0.211
 7980SOL    HW124839   3.461   5.823   0.295
 7980SOL    HW224840   3.597   5.868   0.216
 7981SOL     OW24841   0.651   4.980   2.617
 7981SOL    HW124842   0.560   4.992   2.578
 7981SOL    HW224843   0.675   4.883   2.615
 7982SOL     OW24844   6.631   2.672   0.213
 7982SOL    HW124845   6.658   2.740   0.281
 7982SOL    HW224846   6.554   2.619   0.248
 7983SOL     OW24847   5.454   1.822   2.607
 7983SOL    HW124848   5.397   1.795   2.685
 7983SOL    HW224849   5.491   1.914   2.623
 7984SOL     OW24850   1.066   2.101   1.951
 7984SOL    HW124851   1.156   2.065   1.974
 7984SOL    HW224852   1.016   2.121   2.035
 7985SOL     OW24853   1.077   0.518   2.254
 7985SOL    HW124854   1.113   0.448   2.192
 7985SOL    HW224855   1.118   0.606   2.232
 7986SOL     OW24856   4.005   1.197   6.831
 7986SOL    HW124857   4.053   1.191   6.919
 7986SOL    HW224858   3.964   1.109   6.810
 7987SOL     OW24859   0.128   3.027   5.567
 7987SOL    HW124860   0.178   2.964   5.626
 7987SOL    HW224861   0.150   3.007   5.472
 7988SOL     OW24862   2.826   2.342   4.734
 7988SOL    HW124863   2.793   2.349   4.640
 7988SOL    HW224864   2.769   2.399   4.793
 7989SOL     OW24865   3.687   2.537   5.336
 7989SOL    HW124866   3.587   2.529   5.340
 7989SOL    HW224867   3.729   2.448   5.349
 7990SOL     OW24868   0.969   2.744   4.216
 7990SOL    HW124869   1.061   2.758   4.252
 7990SOL    HW224870   0.934   2.831   4.181
 7991SOL     OW24871   0.205   2.921   5.840
 7991SOL    HW124872   0.253   2.878   5.917
 7991SOL    HW224873   0.175   3.012   5.867
 7992SOL     OW24874   1.367   6.753   1.165
 7992SOL    HW124875   1.345   6.717   1.256
 7992SOL    HW224876   1.356   6.682   1.097
 7993SOL     OW24877   2.119   5.925   0.125
 7993SOL    HW124878   2.105   5.868   0.206
 7993SOL    HW224879   2.064   6.009   0.133
 7994SOL     OW24880   4.782   0.745   3.806
 7994SOL    HW124881   4.792   0.676   3.878
 7994SOL    HW224882   4.815   0.834   3.840
 7995SOL     OW24883   3.972   5.613   3.946
 7995SOL    HW124884   3.984   5.542   4.015
 7995SOL    HW224885   3.929   5.574   3.865
 7996SOL     OW24886   3.325   6.602   4.395
 7996SOL    HW124887   3.362   6.622   4.304
 7996SOL    HW224888   3.316   6.503   4.407
 7997SOL     OW24889   6.245   1.736   1.261
 7997SOL    HW124890   6.343   1.752   1.248
 7997SOL    HW224891   6.193   1.802   1.208
 7998SOL     OW24892   5.012   4.829   0.242
 7998SOL    HW124893   4.932   4.771   0.228
 7998SOL    HW224894   5.093   4.784   0.204
 7999SOL     OW24895   0.857   6.920   5.395
 7999SOL    HW124896   0.945   6.953   5.429
 7999SOL    HW224897   0.864   6.821   5.379
 8000SOL     OW24898   5.765   0.616   6.323
 8000SOL    HW124899   5.796   0.611   6.419
 8000SOL    HW224900   5.844   0.633   6.264
 8001SOL     OW24901   2.037   6.473   1.659
 8001SOL    HW124902   1.973   6.434   1.725
 8001SOL    HW224903   2.104   6.404   1.632
 8002SOL     OW24904   0.256   3.557   5.145
 8002SOL    HW124905   0.331   3.491   5.149
 8002SOL    HW224906   0.289   3.647   5.172
 8003SOL     OW24907   2.900   5.109   3.002
 8003SOL    HW124908   2.957   5.066   3.073
 8003SOL    HW224909   2.833   5.042   2.968
 8004SOL     OW24910   2.361   4.322   3.213
 8004SOL    HW124911   2.331   4.379   3.136
 8004SOL    HW224912   2.459   4.335   3.228
 8005SOL     OW24913   2.684   0.974   2.105
 8005SOL    HW124914   2.652   0.979   2.199
 8005SOL    HW224915   2.750   1.047   2.088
 8006SOL     OW24916   2.532   5.674   0.186
 8006SOL    HW124917   2.542   5.599   0.122
 8006SOL    HW224918   2.597   5.747   0.163
 8007SOL     OW24919   0.973   6.871   3.946
 8007SOL    HW124920   0.895   6.869   3.883
 8007SOL    HW224921   1.058   6.871   3.894
 8008SOL     OW24922   5.537   6.388   6.528
 8008SOL    HW124923   5.497   6.390   6.437
 8008SOL    HW224924   5.496   6.313   6.581
 8009SOL     OW24925   6.960   0.410   3.193
 8009SOL    HW124926   0.021   0.367   3.167
 8009SOL    HW224927   6.909   0.434   3.111
 8010SOL     OW24928   2.480   1.899   6.871
 8010SOL    HW124929   2.574   1.908   6.840
 8010SOL    HW224930   2.451   1.983   6.916
 8011SOL     OW24931   2.524   2.027   0.750
 8011SOL    HW124932   2.441   2.077   0.777
 8011SOL    HW224933   2.518   1.933   0.783
 8012SOL     OW24934   1.328   6.569   1.380
 8012SOL    HW124935   1.359   6.599   1.471
 8012SOL    HW224936   1.404   6.525   1.332
 8013SOL     OW24937   5.948   4.574   4.317
 8013SOL    HW124938   5.978   4.496   4.372
 8013SOL    HW224939   6.027   4.628   4.289
 8014SOL     OW24940   1.676   5.955   6.636
 8014SOL    HW124941   1.604   5.900   6.679
 8014SOL    HW224942   1.754   5.961   6.698
 8015SOL     OW24943   2.810   2.682   0.861
 8015SOL    HW124944   2.870   2.636   0.927
 8015SOL    HW224945   2.855   2.764   0.827
 8016SOL     OW24946   4.662   0.455   0.521
 8016SOL    HW124947   4.581   0.398   0.538
 8016SOL    HW224948   4.687   0.503   0.605
 8017SOL     OW24949   0.474   3.979   5.688
 8017SOL    HW124950   0.390   3.950   5.734
 8017SOL    HW224951   0.544   3.908   5.698
 8018SOL     OW24952   4.887   1.344   5.481
 8018SOL    HW124953   4.815   1.341   5.549
 8018SOL    HW224954   4.864   1.284   5.404
 8019SOL     OW24955   1.707   4.860   0.776
 8019SOL    HW124956   1.772   4.929   0.807
 8019SOL    HW224957   1.659   4.822   0.855
 8020SOL     OW24958   5.713   6.171   6.480
 8020SOL    HW124959   5.638   6.229   6.449
 8020SOL    HW224960   5.765   6.139   6.400
 8021SOL     OW24961   0.731   1.457   1.843
 8021SOL    HW124962   0.831   1.455   1.848
 8021SOL    HW224963   0.701   1.413   1.758
 8022SOL     OW24964   4.195   0.256   2.911
 8022SOL    HW124965   4.217   0.260   3.008
 8022SOL    HW224966   4.253   0.189   2.866
 8023SOL     OW24967   6.422   6.385   2.973
 8023SOL    HW124968   6.419   6.340   3.062
 8023SOL    HW224969   6.436   6.483   2.985
 8024SOL     OW24970   3.828   5.719   6.499
 8024SOL    HW124971   3.846   5.635   6.448
 8024SOL    HW224972   3.864   5.710   6.592
 8025SOL     OW24973   3.500   6.434   6.150
 8025SOL    HW124974   3.475   6.378   6.229
 8025SOL    HW224975   3.466   6.527   6.164
 8026SOL     OW24976   0.746   3.594   6.853
 8026SOL    HW124977   0.784   3.515   6.803
 8026SOL    HW224978   0.781   3.594   6.946
 8027SOL     OW24979   4.682   1.696   4.970
 8027SOL    HW124980   4.617   1.642   4.916
 8027SOL    HW224981   4.745   1.635   5.017
 8028SOL     OW24982   4.407   5.468   6.108
 8028SOL    HW124983   4.407   5.521   6.193
 8028SOL    HW224984   4.486   5.493   6.052
 8029SOL     OW24985   4.716   4.040   6.520
 8029SOL    HW124986   4.806   3.996   6.522
 8029SOL    HW224987   4.649   3.978   6.560
 8030SOL     OW24988   5.504   4.881   5.699
 8030SOL    HW124989   5.549   4.895   5.611
 8030SOL    HW224990   5.483   4.783   5.711
 8031SOL     OW24991   4.845   4.855   2.274
 8031SOL    HW124992   4.835   4.762   2.238
 8031SOL    HW224993   4.904   4.854   2.355
 8032SOL     OW24994   6.332   3.700   4.896
 8032SOL    HW124995   6.402   3.720   4.827
 8032SOL    HW224996   6.346   3.608   4.931
 8033SOL     OW24997   5.395   2.453   6.898
 8033SOL    HW124998   5.302   2.486   6.882
 8033SOL    HW224999   5.428   2.489   6.985
 8034SOL     OW25000   5.922   6.821   5.253
 8034SOL    HW125001   6.020   6.814   5.271
 8034SOL    HW225002   5.871   6.782   5.329
 8035SOL     OW25003   5.807   6.211   5.519
 8035SOL    HW125004   5.733   6.144   5.513
 8035SOL    HW225005   5.827   6.247   5.428
 8036SOL     OW25006   2.162   3.721   1.556
 8036SOL    HW125007   2.161   3.638   1.500
 8036SOL    HW225008   2.160   3.697   1.653
 8037SOL     OW25009   2.404   3.165   0.879
 8037SOL    HW125010   2.429   3.087   0.936
 8037SOL    HW225011   2.318   3.204   0.912
 8038SOL     OW25012   6.615   1.748   3.352
 8038SOL    HW125013   6.615   1.671   3.288
 8038SOL    HW225014   6.533   1.803   3.336
 8039SOL     OW25015   2.072   6.648   2.842
 8039SOL    HW125016   1.984   6.690   2.862
 8039SOL    HW225017   2.127   6.712   2.787
 8040SOL     OW25018   0.427   5.682   1.066
 8040SOL    HW125019   0.462   5.776   1.066
 8040SOL    HW225020   0.449   5.638   0.979
 8041SOL     OW25021   3.406   1.125   1.203
 8041SOL    HW125022   3.412   1.157   1.298
 8041SOL    HW225023   3.496   1.095   1.172
 8042SOL     OW25024   3.730   2.899   2.066
 8042SOL    HW125025   3.778   2.863   1.987
 8042SOL    HW225026   3.795   2.912   2.141
 8043SOL     OW25027   2.491   0.710   0.700
 8043SOL    HW125028   2.472   0.660   0.784
 8043SOL    HW225029   2.405   0.741   0.659
 8044SOL     OW25030   3.102   3.031   1.495
 8044SOL    HW125031   3.096   3.122   1.536
 8044SOL    HW225032   3.055   3.031   1.407
 8045SOL     OW25033   5.930   1.490   2.801
 8045SOL    HW125034   5.918   1.588   2.786
 8045SOL    HW225035   6.027   1.470   2.815
 8046SOL     OW25036   5.531   4.611   5.735
 8046SOL    HW125037   5.529   4.529   5.678
 8046SOL    HW225038   5.480   4.596   5.819
 8047SOL     OW25039   3.069   5.652   4.416
 8047SOL    HW125040   3.139   5.580   4.414
 8047SOL    HW225041   2.978   5.610   4.414
 8048SOL     OW25042   5.978   0.782   5.612
 8048SOL    HW125043   5.972   0.776   5.512
 8048SOL    HW225044   5.890   0.757   5.652
 8049SOL     OW25045   0.431   0.186   1.045
 8049SOL    HW125046   0.480   0.179   1.132
 8049SOL    HW225047   0.360   0.116   1.041
 8050SOL     OW25048   1.627   3.220   1.379
 8050SOL    HW125049   1.652   3.314   1.406
 8050SOL    HW225050   1.553   3.223   1.313
 8051SOL     OW25051   4.536   0.430   2.599
 8051SOL    HW125052   4.612   0.461   2.542
 8051SOL    HW225053   4.486   0.509   2.634
 8052SOL     OW25054   3.207   1.724   2.198
 8052SOL    HW125055   3.159   1.743   2.112
 8052SOL    HW225056   3.151   1.662   2.253
 8053SOL     OW25057   3.924   3.799   3.011
 8053SOL    HW125058   3.847   3.742   2.986
 8053SOL    HW225059   3.892   3.892   3.032
 8054SOL     OW25060   4.609   6.509   4.671
 8054SOL    HW125061   4.554   6.434   4.633
 8054SOL    HW225062   4.682   6.471   4.728
 8055SOL     OW25063   0.529   6.975   6.043
 8055SOL    HW125064   0.518   0.042   6.010
 8055SOL    HW225065   0.440   6.932   6.052
 8056SOL     OW25066   4.517   1.738   2.856
 8056SOL    HW125067   4.561   1.723   2.945
 8056SOL    HW225068   4.422   1.706   2.860
 8057SOL     OW25069   2.928   0.240   2.663
 8057SOL    HW125070   2.843   0.199   2.629
 8057SOL    HW225071   2.997   0.236   2.591
 8058SOL     OW25072   2.857   6.921   2.567
 8058SOL    HW125073   2.877   6.902   2.471
 8058SOL    HW225074   2.870   7.018   2.585
 8059SOL     OW25075   3.873   2.127   4.612
 8059SOL    HW125076   3.893   2.035   4.576
 8059SOL    HW225077   3.914   2.195   4.551
 8060SOL     OW25078   0.158   1.312   4.406
 8060SOL    HW125079   0.189   1.232   4.457
 8060SOL    HW225080   0.123   1.381   4.470
 8061SOL     OW25081   6.633   5.456   2.875
 8061SOL    HW125082   6.658   5.359   2.873
 8061SOL    HW225083   6.703   5.510   2.827
 8062SOL     OW25084   1.403   4.343   4.564
 8062SOL    HW125085   1.424   4.255   4.520
 8062SOL    HW225086   1.309   4.343   4.596
 8063SOL     OW25087   2.565   3.910   0.124
 8063SOL    HW125088   2.643   3.846   0.128
 8063SOL    HW225089   2.491   3.869   0.071
 8064SOL     OW25090   0.307   4.278   0.320
 8064SOL    HW125091   0.373   4.258   0.249
 8064SOL    HW225092   0.253   4.359   0.295
 8065SOL     OW25093   4.375   7.019   4.668
 8065SOL    HW125094   4.344   6.938   4.619
 8065SOL    HW225095   4.404   6.993   4.760
 8066SOL     OW25096   1.599   1.097   6.979
 8066SOL    HW125097   1.568   1.048   6.897
 8066SOL    HW225098   1.697   1.080   6.993
 8067SOL     OW25099   4.011   2.918   1.636
 8067SOL    HW125100   3.977   2.868   1.556
 8067SOL    HW225101   4.111   2.923   1.632
 8068SOL     OW25102   6.919   5.016   5.050
 8068SOL    HW125103   6.976   4.944   5.010
 8068SOL    HW225104   6.924   5.098   4.993
 8069SOL     OW25105   2.056   6.395   1.265
 8069SOL    HW125106   2.036   6.301   1.294
 8069SOL    HW225107   2.137   6.428   1.313
 8070SOL     OW25108   3.291   6.026   1.697
 8070SOL    HW125109   3.267   5.934   1.666
 8070SOL    HW225110   3.339   6.020   1.785
 8071SOL     OW25111   4.331   6.654   5.269
 8071SOL    HW125112   4.242   6.610   5.283
 8071SOL    HW225113   4.397   6.617   5.335
 8072SOL     OW25114   4.808   1.291   0.642
 8072SOL    HW125115   4.812   1.257   0.736
 8072SOL    HW225116   4.722   1.340   0.629
 8073SOL     OW25117   4.820   6.705   5.948
 8073SOL    HW125118   4.778   6.774   5.888
 8073SOL    HW225119   4.856   6.750   6.030
 8074SOL     OW25120   3.038   3.424   0.680
 8074SOL    HW125121   3.110   3.487   0.709
 8074SOL    HW225122   2.962   3.475   0.640
 8075SOL     OW25123   6.798   1.208   1.961
 8075SOL    HW125124   6.828   1.293   1.917
 8075SOL    HW225125   6.801   1.134   1.894
 8076SOL     OW25126   5.346   2.329   5.271
 8076SOL    HW125127   5.315   2.330   5.367
 8076SOL    HW225128   5.384   2.419   5.249
 8077SOL     OW25129   1.241   6.842   1.586
 8077SOL    HW125130   1.316   6.908   1.597
 8077SOL    HW225131   1.205   6.849   1.493
 8078SOL     OW25132   0.004   1.951   0.646
 8078SOL    HW125133   0.065   1.886   0.601
 8078SOL    HW225134   0.004   1.935   0.744
 8079SOL     OW25135   6.626   2.064   3.180
 8079SOL    HW125136   6.638   2.009   3.097
 8079SOL    HW225137   6.530   2.091   3.189
 8080SOL     OW25138   2.121   3.950   0.702
 8080SOL    HW125139   2.165   3.896   0.774
 8080SOL    HW225140   2.022   3.940   0.709
 8081SOL     OW25141   5.596   0.861   5.548
 8081SOL    HW125142   5.554   0.909   5.471
 8081SOL    HW225143   5.525   0.828   5.610
 8082SOL     OW25144   6.147   2.288   3.434
 8082SOL    HW125145   6.207   2.335   3.369
 8082SOL    HW225146   6.078   2.351   3.468
 8083SOL     OW25147   4.964   3.294   2.555
 8083SOL    HW125148   5.050   3.319   2.600
 8083SOL    HW225149   4.940   3.365   2.489
 8084SOL     OW25150   6.417   6.131   1.647
 8084SOL    HW125151   6.420   6.094   1.740
 8084SOL    HW225152   6.505   6.174   1.626
 8085SOL     OW25153   5.464   0.107   1.150
 8085SOL    HW125154   5.379   0.077   1.193
 8085SOL    HW225155   5.443   0.161   1.068
 8086SOL     OW25156   4.304   0.161   4.433
 8086SOL    HW125157   4.319   0.247   4.482
 8086SOL    HW225158   4.392   0.118   4.414
 8087SOL     OW25159   2.716   2.140   0.950
 8087SOL    HW125160   2.776   2.220   0.941
 8087SOL    HW225161   2.622   2.168   0.934
 8088SOL     OW25162   5.954   0.832   2.187
 8088SOL    HW125163   6.015   0.893   2.135
 8088SOL    HW225164   5.864   0.829   2.143
 8089SOL     OW25165   5.016   3.280   0.143
 8089SOL    HW125166   4.943   3.222   0.180
 8089SOL    HW225167   5.006   3.287   0.044
 8090SOL     OW25168   5.293   1.599   6.505
 8090SOL    HW125169   5.215   1.635   6.557
 8090SOL    HW225170   5.377   1.610   6.558
 8091SOL     OW25171   3.315   4.390   6.834
 8091SOL    HW125172   3.366   4.461   6.786
 8091SOL    HW225173   3.283   4.322   6.768
 8092SOL     OW25174   1.389   1.636   4.616
 8092SOL    HW125175   1.338   1.721   4.604
 8092SOL    HW225176   1.429   1.634   4.708
 8093SOL     OW25177   5.442   5.506   1.859
 8093SOL    HW125178   5.387   5.450   1.921
 8093SOL    HW225179   5.497   5.446   1.801
 8094SOL     OW25180   1.219   4.336   6.573
 8094SOL    HW125181   1.125   4.329   6.539
 8094SOL    HW225182   1.282   4.312   6.499
 8095SOL     OW25183   5.900   3.393   4.271
 8095SOL    HW125184   5.990   3.359   4.243
 8095SOL    HW225185   5.830   3.359   4.208
 8096SOL     OW25186   3.101   5.577   2.441
 8096SOL    HW125187   3.081   5.497   2.384
 8096SOL    HW225188   3.200   5.590   2.447
 8097SOL     OW25189   5.225   0.216   3.078
 8097SOL    HW125190   5.274   0.178   3.000
 8097SOL    HW225191   5.288   0.271   3.133
 8098SOL     OW25192   2.207   5.977   3.979
 8098SOL    HW125193   2.302   6.005   3.993
 8098SOL    HW225194   2.155   5.990   4.063
 8099SOL     OW25195   5.478   6.971   4.352
 8099SOL    HW125196   5.397   7.003   4.303
 8099SOL    HW225197   5.492   0.001   4.433
 8100SOL     OW25198   0.027   6.771   0.279
 8100SOL    HW125199   6.987   6.845   0.270
 8100SOL    HW225200   0.114   6.807   0.312
 8101SOL     OW25201   1.607   0.053   5.018
 8101SOL    HW125202   1.534   0.037   4.952
 8101SOL    HW225203   1.665   6.998   5.024
 8102SOL     OW25204   0.695   5.004   6.122
 8102SOL    HW125205   0.609   5.002   6.174
 8102SOL    HW225206   0.677   4.980   6.027
 8103SOL     OW25207   3.939   1.181   2.042
 8103SOL    HW125208   3.866   1.181   1.974
 8103SOL    HW225209   3.971   1.275   2.057
 8104SOL     OW25210   3.243   6.713   5.695
 8104SOL    HW125211   3.309   6.650   5.654
 8104SOL    HW225212   3.234   6.795   5.638
 8105SOL     OW25213   2.964   2.253   3.777
 8105SOL    HW125214   2.892   2.320   3.759
 8105SOL    HW225215   3.029   2.254   3.701
 8106SOL     OW25216   1.392   4.262   3.326
 8106SOL    HW125217   1.301   4.223   3.310
 8106SOL    HW225218   1.462   4.198   3.295
 8107SOL     OW25219   2.019   6.618   5.887
 8107SOL    HW125220   2.074   6.702   5.892
 8107SOL    HW225221   2.011   6.589   5.792
 8108SOL     OW25222   0.150   3.725   4.750
 8108SOL    HW125223   0.077   3.731   4.682
 8108SOL    HW225224   0.145   3.804   4.811
 8109SOL     OW25225   2.037   4.325   5.388
 8109SOL    HW125226   2.067   4.249   5.331
 8109SOL    HW225227   1.938   4.336   5.381
 8110SOL     OW25228   2.181   0.002   0.766
 8110SOL    HW125229   2.159   0.064   0.691
 8110SOL    HW225230   2.264   0.032   0.812
 8111SOL     OW25231   2.787   6.182   4.690
 8111SOL    HW125232   2.857   6.180   4.619
 8111SOL    HW225233   2.770   6.089   4.722
 8112SOL     OW25234   3.041   0.343   5.428
 8112SOL    HW125235   3.130   0.298   5.438
 8112SOL    HW225236   2.974   0.276   5.396
 8113SOL     OW25237   3.411   2.334   0.177
 8113SOL    HW125238   3.436   2.273   0.102
 8113SOL    HW225239   3.493   2.359   0.228
 8114SOL     OW25240   2.118   3.060   2.446
 8114SOL    HW125241   2.160   2.969   2.441
 8114SOL    HW225242   2.085   3.087   2.355
 8115SOL     OW25243   3.103   1.413   1.610
 8115SOL    HW125244   3.026   1.476   1.599
 8115SOL    HW225245   3.166   1.423   1.533
 8116SOL     OW25246   6.173   6.815   5.536
 8116SOL    HW125247   6.169   6.848   5.441
 8116SOL    HW225248   6.214   6.885   5.593
 8117SOL     OW25249   1.325   1.764   4.261
 8117SOL    HW125250   1.416   1.723   4.259
 8117SOL    HW225251   1.272   1.731   4.184
 8118SOL     OW25252   1.267   4.286   5.610
 8118SOL    HW125253   1.293   4.382   5.594
 8118SOL    HW225254   1.223   4.278   5.700
 8119SOL     OW25255   0.275   5.347   3.922
 8119SOL    HW125256   0.344   5.316   3.987
 8119SOL    HW225257   0.210   5.273   3.905
 8120SOL     OW25258   4.211   4.619   0.546
 8120SOL    HW125259   4.208   4.553   0.470
 8120SOL    HW225260   4.120   4.630   0.585
 8121SOL     OW25261   0.052   0.120   3.029
 8121SOL    HW125262   0.095   0.203   3.064
 8121SOL    HW225263   0.019   0.137   2.936
 8122SOL     OW25264   0.558   5.846   1.689
 8122SOL    HW125265   0.628   5.801   1.744
 8122SOL    HW225266   0.467   5.820   1.722
 8123SOL     OW25267   1.039   6.761   6.340
 8123SOL    HW125268   0.945   6.746   6.373
 8123SOL    HW225269   1.064   6.686   6.279
 8124SOL     OW25270   1.587   5.503   1.060
 8124SOL    HW125271   1.491   5.480   1.076
 8124SOL    HW225272   1.633   5.520   1.147
 8125SOL     OW25273   6.142   4.607   2.714
 8125SOL    HW125274   6.044   4.622   2.719
 8125SOL    HW225275   6.182   4.671   2.649
 8126SOL     OW25276   6.114   4.323   3.142
 8126SOL    HW125277   6.066   4.410   3.141
 8126SOL    HW225278   6.209   4.337   3.114
 8127SOL     OW25279   2.552   5.282   0.386
 8127SOL    HW125280   2.523   5.208   0.325
 8127SOL    HW225281   2.488   5.359   0.377
 8128SOL     OW25282   3.267   2.779   6.205
 8128SOL    HW125283   3.281   2.703   6.142
 8128SOL    HW225284   3.173   2.780   6.238
 8129SOL     OW25285   5.339   0.788   6.268
 8129SOL    HW125286   5.413   0.791   6.202
 8129SOL    HW225287   5.278   0.711   6.247
 8130SOL     OW25288   1.035   5.329   6.553
 8130SOL    HW125289   0.957   5.274   6.525
 8130SOL    HW225290   1.040   5.411   6.496
 8131SOL     OW25291   3.481   0.468   0.620
 8131SOL    HW125292   3.564   0.415   0.632
 8131SOL    HW225293   3.504   0.562   0.594
 8132SOL     OW25294   6.071   5.372   4.547
 8132SOL    HW125295   6.031   5.435   4.480
 8132SOL    HW225296   6.025   5.283   4.541
 8133SOL     OW25297   2.850   5.068   3.403
 8133SOL    HW125298   2.845   5.092   3.500
 8133SOL    HW225299   2.875   5.149   3.350
 8134SOL     OW25300   2.298   2.380   4.202
 8134SOL    HW125301   2.284   2.288   4.166
 8134SOL    HW225302   2.243   2.393   4.284
 8135SOL     OW25303   3.423   5.320   2.397
 8135SOL    HW125304   3.446   5.222   2.395
 8135SOL    HW225305   3.370   5.343   2.315
 8136SOL     OW25306   3.789   5.573   2.219
 8136SOL    HW125307   3.831   5.644   2.276
 8136SOL    HW225308   3.746   5.504   2.277
 8137SOL     OW25309   1.941   3.958   5.172
 8137SOL    HW125310   2.015   3.894   5.150
 8137SOL    HW225311   1.906   3.998   5.087
 8138SOL     OW25312   5.695   1.384   2.189
 8138SOL    HW125313   5.730   1.476   2.208
 8138SOL    HW225314   5.628   1.358   2.259
 8139SOL     OW25315   1.119   3.052   3.243
 8139SOL    HW125316   1.027   3.038   3.278
 8139SOL    HW225317   1.175   3.095   3.314
 8140SOL     OW25318   4.761   0.265   0.141
 8140SOL    HW125319   4.683   0.310   0.185
 8140SOL    HW225320   4.750   0.166   0.146
 8141SOL     OW25321   5.102   1.065   5.887
 8141SOL    HW125322   5.096   1.131   5.812
 8141SOL    HW225323   5.172   1.095   5.951
 8142SOL     OW25324   2.242   6.107   0.356
 8142SOL    HW125325   2.297   6.023   0.364
 8142SOL    HW225326   2.145   6.085   0.371
 8143SOL     OW25327   5.127   4.185   0.743
 8143SOL    HW125328   5.089   4.255   0.682
 8143SOL    HW225329   5.059   4.114   0.758
 8144SOL     OW25330   0.598   5.597   6.234
 8144SOL    HW125331   0.514   5.649   6.222
 8144SOL    HW225332   0.593   5.545   6.320
 8145SOL     OW25333   5.746   5.766   0.795
 8145SOL    HW125334   5.780   5.825   0.721
 8145SOL    HW225335   5.821   5.711   0.831
 8146SOL     OW25336   5.862   0.467   3.976
 8146SOL    HW125337   5.948   0.447   4.023
 8146SOL    HW225338   5.786   0.426   4.027
 8147SOL     OW25339   0.736   0.546   6.263
 8147SOL    HW125340   0.736   0.446   6.268
 8147SOL    HW225341   0.823   0.581   6.297
 8148SOL     OW25342   4.014   4.189   6.590
 8148SOL    HW125343   4.011   4.283   6.624
 8148SOL    HW225344   4.079   4.136   6.646
 8149SOL     OW25345   1.175   0.108   4.819
 8149SOL    HW125346   1.122   0.051   4.756
 8149SOL    HW225347   1.216   0.184   4.769
 8150SOL     OW25348   0.988   3.331   1.066
 8150SOL    HW125349   0.993   3.429   1.047
 8150SOL    HW225350   0.922   3.315   1.140
 8151SOL     OW25351   6.375   4.730   3.776
 8151SOL    HW125352   6.379   4.826   3.802
 8151SOL    HW225353   6.279   4.701   3.771
 8152SOL     OW25354   4.561   1.935   3.200
 8152SOL    HW125355   4.537   1.838   3.196
 8152SOL    HW225356   4.623   1.950   3.277
 8153SOL     OW25357   0.887   1.070   3.902
 8153SOL    HW125358   0.843   1.132   3.837
 8153SOL    HW225359   0.818   1.030   3.962
 8154SOL     OW25360   2.749   1.650   3.519
 8154SOL    HW125361   2.714   1.699   3.599
 8154SOL    HW225362   2.763   1.715   3.444
 8155SOL     OW25363   1.458   4.311   2.197
 8155SOL    HW125364   1.434   4.405   2.221
 8155SOL    HW225365   1.434   4.293   2.102
 8156SOL     OW25366   6.079   5.235   1.264
 8156SOL    HW125367   5.999   5.214   1.209
 8156SOL    HW225368   6.142   5.157   1.261
 8157SOL     OW25369   6.145   2.796   6.376
 8157SOL    HW125370   6.156   2.803   6.276
 8157SOL    HW225371   6.190   2.874   6.420
 8158SOL     OW25372   5.853   4.567   6.178
 8158SOL    HW125373   5.923   4.578   6.108
 8158SOL    HW225374   5.763   4.585   6.139
 8159SOL     OW25375   3.949   6.382   5.864
 8159SOL    HW125376   3.849   6.383   5.851
 8159SOL    HW225377   3.971   6.420   5.953
 8160SOL     OW25378   5.332   1.564   3.232
 8160SOL    HW125379   5.429   1.588   3.222
 8160SOL    HW225380   5.318   1.516   3.318
 8161SOL     OW25381   5.552   3.375   0.592
 8161SOL    HW125382   5.552   3.408   0.687
 8161SOL    HW225383   5.525   3.450   0.531
 8162SOL     OW25384   0.248   4.975   6.725
 8162SOL    HW125385   0.259   5.016   6.816
 8162SOL    HW225386   0.322   4.910   6.709
 8163SOL     OW25387   4.482   4.701   5.307
 8163SOL    HW125388   4.487   4.786   5.255
 8163SOL    HW225389   4.527   4.628   5.255
 8164SOL     OW25390   5.297   0.940   7.001
 8164SOL    HW125391   5.377   0.882   6.986
 8164SOL    HW225392   5.255   0.963   6.913
 8165SOL     OW25393   6.449   2.721   6.432
 8165SOL    HW125394   6.434   2.646   6.367
 8165SOL    HW225395   6.361   2.758   6.460
 8166SOL     OW25396   1.457   2.051   4.166
 8166SOL    HW125397   1.511   1.985   4.115
 8166SOL    HW225398   1.439   2.016   4.258
 8167SOL     OW25399   6.432   1.211   3.814
 8167SOL    HW125400   6.452   1.204   3.912
 8167SOL    HW225401   6.356   1.274   3.800
 8168SOL     OW25402   1.936   0.448   1.420
 8168SOL    HW125403   1.909   0.501   1.339
 8168SOL    HW225404   2.013   0.494   1.465
 8169SOL     OW25405   5.179   2.277   0.550
 8169SOL    HW125406   5.229   2.318   0.626
 8169SOL    HW225407   5.112   2.212   0.585
 8170SOL     OW25408   6.595   4.251   2.175
 8170SOL    HW125409   6.670   4.213   2.230
 8170SOL    HW225410   6.616   4.238   2.078
 8171SOL     OW25411   1.541   1.373   6.953
 8171SOL    HW125412   1.574   1.278   6.953
 8171SOL    HW225413   1.467   1.382   7.019
 8172SOL     OW25414   0.823   2.252   1.718
 8172SOL    HW125415   0.826   2.278   1.815
 8172SOL    HW225416   0.728   2.240   1.689
 8173SOL     OW25417   5.551   2.083   2.258
 8173SOL    HW125418   5.530   2.101   2.354
 8173SOL    HW225419   5.648   2.102   2.241
 8174SOL     OW25420   1.435   6.071   2.675
 8174SOL    HW125421   1.525   6.080   2.632
 8174SOL    HW225422   1.364   6.098   2.611
 8175SOL     OW25423   1.078   2.413   4.211
 8175SOL    HW125424   1.106   2.317   4.219
 8175SOL    HW225425   1.143   2.471   4.260
 8176SOL     OW25426   1.869   4.552   1.549
 8176SOL    HW125427   1.896   4.502   1.630
 8176SOL    HW225428   1.865   4.490   1.471
 8177SOL     OW25429   3.725   1.214   2.950
 8177SOL    HW125430   3.762   1.211   2.857
 8177SOL    HW225431   3.626   1.201   2.948
 8178SOL     OW25432   2.605   6.818   0.657
 8178SOL    HW125433   2.597   6.843   0.754
 8178SOL    HW225434   2.699   6.831   0.626
 8179SOL     OW25435   5.046   0.873   4.099
 8179SOL    HW125436   5.064   0.777   4.079
 8179SOL    HW225437   5.089   0.898   4.185
 8180SOL     OW25438   5.676   6.563   6.740
 8180SOL    HW125439   5.643   6.559   6.834
 8180SOL    HW225440   5.645   6.482   6.690
 8181SOL     OW25441   0.981   0.770   1.064
 8181SOL    HW125442   1.023   0.843   1.117
 8181SOL    HW225443   0.934   0.707   1.125
 8182SOL     OW25444   3.443   3.860   4.824
 8182SOL    HW125445   3.367   3.797   4.835
 8182SOL    HW225446   3.479   3.855   4.731
 8183SOL     OW25447   6.496   0.840   5.033
 8183SOL    HW125448   6.588   0.816   5.003
 8183SOL    HW225449   6.501   0.895   5.116
 8184SOL     OW25450   0.998   6.606   6.752
 8184SOL    HW125451   0.978   6.700   6.725
 8184SOL    HW225452   0.974   6.592   6.848
 8185SOL     OW25453   1.137   0.621   0.403
 8185SOL    HW125454   1.094   0.558   0.467
 8185SOL    HW225455   1.086   0.624   0.318
 8186SOL     OW25456   1.677   5.459   6.726
 8186SOL    HW125457   1.619   5.401   6.783
 8186SOL    HW225458   1.754   5.494   6.780
 8187SOL     OW25459   1.661   1.804   5.317
 8187SOL    HW125460   1.702   1.736   5.378
 8187SOL    HW225461   1.733   1.863   5.280
 8188SOL     OW25462   4.163   2.031   4.013
 8188SOL    HW125463   4.205   1.989   3.933
 8188SOL    HW225464   4.072   2.065   3.990
 8189SOL     OW25465   4.878   4.797   3.534
 8189SOL    HW125466   4.927   4.822   3.618
 8189SOL    HW225467   4.791   4.754   3.558
 8190SOL     OW25468   5.479   3.620   3.217
 8190SOL    HW125469   5.396   3.677   3.219
 8190SOL    HW225470   5.524   3.631   3.128
 8191SOL     OW25471   4.383   4.866   1.853
 8191SOL    HW125472   4.331   4.781   1.864
 8191SOL    HW225473   4.476   4.852   1.886
 8192SOL     OW25474   1.634   4.869   3.306
 8192SOL    HW125475   1.696   4.928   3.255
 8192SOL    HW225476   1.555   4.922   3.336
 8193SOL     OW25477   6.940   5.238   4.843
 8193SOL    HW125478   6.973   5.269   4.753
 8193SOL    HW225479   6.842   5.221   4.838
 8194SOL     OW25480   4.560   6.965   1.108
 8194SOL    HW125481   4.604   6.920   1.186
 8194SOL    HW225482   4.462   6.941   1.107
 8195SOL     OW25483   5.892   6.734   3.608
 8195SOL    HW125484   5.925   6.677   3.683
 8195SOL    HW225485   5.811   6.785   3.637
 8196SOL     OW25486   4.906   1.107   0.144
 8196SOL    HW125487   4.941   1.018   0.116
 8196SOL    HW225488   4.921   1.119   0.242
 8197SOL     OW25489   4.621   1.768   1.662
 8197SOL    HW125490   4.603   1.766   1.564
 8197SOL    HW225491   4.720   1.765   1.678
 8198SOL     OW25492   2.747   0.503   1.736
 8198SOL    HW125493   2.786   0.483   1.645
 8198SOL    HW225494   2.697   0.589   1.732
 8199SOL     OW25495   4.937   2.692   6.083
 8199SOL    HW125496   4.889   2.715   5.998
 8199SOL    HW225497   4.900   2.606   6.119
 8200SOL     OW25498   5.640   4.206   1.705
 8200SOL    HW125499   5.559   4.192   1.648
 8200SOL    HW225500   5.615   4.198   1.801
 8201SOL     OW25501   0.759   0.722   5.354
 8201SOL    HW125502   0.682   0.659   5.350
 8201SOL    HW225503   0.726   0.816   5.344
 8202SOL     OW25504   6.962   6.419   2.106
 8202SOL    HW125505   6.872   6.448   2.141
 8202SOL    HW225506   6.965   6.319   2.104
 8203SOL     OW25507   1.721   2.823   6.917
 8203SOL    HW125508   1.651   2.798   6.985
 8203SOL    HW225509   1.754   2.740   6.872
 8204SOL     OW25510   4.541   3.533   0.769
 8204SOL    HW125511   4.489   3.463   0.720
 8204SOL    HW225512   4.620   3.492   0.814
 8205SOL     OW25513   0.834   2.935   0.266
 8205SOL    HW125514   0.848   3.017   0.321
 8205SOL    HW225515   0.743   2.936   0.225
 8206SOL     OW25516   4.289   1.261   0.082
 8206SOL    HW125517   4.325   1.208   0.006
 8206SOL    HW225518   4.305   1.359   0.066
 8207SOL     OW25519   3.542   3.016   4.272
 8207SOL    HW125520   3.557   2.995   4.369
 8207SOL    HW225521   3.497   3.105   4.264
 8208SOL     OW25522   0.678   0.989   6.927
 8208SOL    HW125523   0.687   1.021   7.022
 8208SOL    HW225524   0.601   1.035   6.884
 8209SOL     OW25525   0.373   0.643   5.246
 8209SOL    HW125526   0.432   0.615   5.322
 8209SOL    HW225527   0.353   0.565   5.187
 8210SOL     OW25528   1.809   3.097   6.904
 8210SOL    HW125529   1.833   3.101   6.807
 8210SOL    HW225530   1.767   3.008   6.924
 8211SOL     OW25531   3.573   4.403   1.148
 8211SOL    HW125532   3.663   4.429   1.183
 8211SOL    HW225533   3.576   4.310   1.112
 8212SOL     OW25534   1.423   2.250   3.110
 8212SOL    HW125535   1.439   2.215   3.018
 8212SOL    HW225536   1.353   2.322   3.107
 8213SOL     OW25537   0.285   5.119   2.010
 8213SOL    HW125538   0.215   5.053   1.979
 8213SOL    HW225539   0.373   5.073   2.017
 8214SOL     OW25540   5.703   4.883   3.475
 8214SOL    HW125541   5.740   4.898   3.384
 8214SOL    HW225542   5.670   4.969   3.513
 8215SOL     OW25543   3.564   5.286   4.844
 8215SOL    HW125544   3.545   5.189   4.857
 8215SOL    HW225545   3.560   5.333   4.932
 8216SOL     OW25546   5.257   5.365   4.097
 8216SOL    HW125547   5.213   5.287   4.142
 8216SOL    HW225548   5.266   5.346   3.999
 8217SOL     OW25549   2.039   5.069   0.642
 8217SOL    HW125550   1.971   5.027   0.702
 8217SOL    HW225551   2.086   4.998   0.589
 8218SOL     OW25552   0.605   2.052   6.830
 8218SOL    HW125553   0.594   2.147   6.800
 8218SOL    HW225554   0.604   1.992   6.750
 8219SOL     OW25555   4.717   2.138   0.859
 8219SOL    HW125556   4.706   2.112   0.763
 8219SOL    HW225557   4.813   2.125   0.885
 8220SOL     OW25558   4.036   3.153   2.941
 8220SOL    HW125559   4.091   3.085   2.891
 8220SOL    HW225560   3.940   3.142   2.917
 8221SOL     OW25561   5.076   5.999   4.222
 8221SOL    HW125562   5.104   5.977   4.316
 8221SOL    HW225563   5.028   6.087   4.223
 8222SOL     OW25564   5.174   1.650   2.130
 8222SOL    HW125565   5.208   1.589   2.201
 8222SOL    HW225566   5.193   1.745   2.155
 8223SOL     OW25567   0.558   4.624   5.830
 8223SOL    HW125568   0.619   4.550   5.861
 8223SOL    HW225569   0.581   4.708   5.878
 8224SOL     OW25570   1.273   2.684   3.213
 8224SOL    HW125571   1.362   2.699   3.256
 8224SOL    HW225572   1.274   2.722   3.120
 8225SOL     OW25573   4.291   1.062   0.512
 8225SOL    HW125574   4.268   1.153   0.480
 8225SOL    HW225575   4.356   1.069   0.587
 8226SOL     OW25576   5.212   0.377   1.750
 8226SOL    HW125577   5.255   0.466   1.736
 8226SOL    HW225578   5.283   0.307   1.764
 8227SOL     OW25579   0.444   2.405   3.878
 8227SOL    HW125580   0.523   2.346   3.860
 8227SOL    HW225581   0.423   2.402   3.976
 8228SOL     OW25582   0.013   2.789   5.694
 8228SOL    HW125583   6.940   2.784   5.711
 8228SOL    HW225584   0.055   2.849   5.762
 8229SOL     OW25585   3.448   5.206   0.050
 8229SOL    HW125586   3.415   5.137   7.011
 8229SOL    HW225587   3.494   5.279   7.025
 8230SOL     OW25588   5.564   6.787   5.400
 8230SOL    HW125589   5.507   6.796   5.482
 8230SOL    HW225590   5.602   6.695   5.396
 8231SOL     OW25591   4.157   5.879   1.625
 8231SOL    HW125592   4.122   5.833   1.544
 8231SOL    HW225593   4.171   5.976   1.605
 8232SOL     OW25594   4.470   1.147   0.702
 8232SOL    HW125595   4.504   1.223   0.646
 8232SOL    HW225596   4.438   1.183   0.790
 8233SOL     OW25597   0.805   5.673   6.616
 8233SOL    HW125598   0.822   5.604   6.686
 8233SOL    HW225599   0.707   5.690   6.608
 8234SOL     OW25600   2.547   2.833   0.150
 8234SOL    HW125601   2.506   2.879   0.229
 8234SOL    HW225602   2.475   2.785   0.099
 8235SOL     OW25603   2.177   2.746   0.493
 8235SOL    HW125604   2.081   2.770   0.485
 8235SOL    HW225605   2.229   2.825   0.524
 8236SOL     OW25606   6.927   3.765   6.896
 8236SOL    HW125607   6.929   3.670   6.867
 8236SOL    HW225608   7.019   3.804   6.890
 8237SOL     OW25609   5.066   6.212   4.695
 8237SOL    HW125610   5.095   6.286   4.633
 8237SOL    HW225611   5.081   6.241   4.790
 8238SOL     OW25612   1.717   4.254   0.162
 8238SOL    HW125613   1.756   4.256   0.254
 8238SOL    HW225614   1.722   4.346   0.122
 8239SOL     OW25615   6.061   2.114   5.769
 8239SOL    HW125616   6.132   2.055   5.730
 8239SOL    HW225617   6.104   2.191   5.817
 8240SOL     OW25618   3.799   3.614   2.606
 8240SOL    HW125619   3.875   3.678   2.597
 8240SOL    HW225620   3.757   3.624   2.696
 8241SOL     OW25621   3.140   6.760   0.530
 8241SOL    HW125622   3.192   6.705   0.465
 8241SOL    HW225623   3.197   6.781   0.609
 8242SOL     OW25624   1.243   4.459   6.168
 8242SOL    HW125625   1.202   4.378   6.211
 8242SOL    HW225626   1.198   4.477   6.081
 8243SOL     OW25627   0.685   3.181   6.630
 8243SOL    HW125628   0.611   3.142   6.685
 8243SOL    HW225629   0.732   3.109   6.580
 8244SOL     OW25630   0.778   6.642   3.532
 8244SOL    HW125631   0.811   6.565   3.588
 8244SOL    HW225632   0.708   6.692   3.582
 8245SOL     OW25633   3.959   1.527   2.480
 8245SOL    HW125634   3.903   1.591   2.427
 8245SOL    HW225635   3.929   1.528   2.575
 8246SOL     OW25636   6.608   4.493   5.851
 8246SOL    HW125637   6.582   4.586   5.876
 8246SOL    HW225638   6.552   4.428   5.903
 8247SOL     OW25639   0.932   1.526   1.479
 8247SOL    HW125640   1.017   1.549   1.430
 8247SOL    HW225641   0.871   1.606   1.478
 8248SOL     OW25642   6.392   4.675   3.453
 8248SOL    HW125643   6.417   4.757   3.401
 8248SOL    HW225644   6.434   4.679   3.544
 8249SOL     OW25645   1.686   4.070   4.707
 8249SOL    HW125646   1.712   3.976   4.685
 8249SOL    HW225647   1.619   4.103   4.641
 8250SOL     OW25648   3.424   4.171   2.512
 8250SOL    HW125649   3.453   4.082   2.476
 8250SOL    HW225650   3.327   4.166   2.536
 8251SOL     OW25651   5.926   2.263   4.804
 8251SOL    HW125652   5.882   2.333   4.748
 8251SOL    HW225653   5.857   2.218   4.861
 8252SOL     OW25654   3.149   3.501   6.860
 8252SOL    HW125655   3.080   3.520   6.790
 8252SOL    HW225656   3.115   3.530   6.949
 8253SOL     OW25657   3.358   3.252   5.200
 8253SOL    HW125658   3.425   3.324   5.180
 8253SOL    HW225659   3.297   3.283   5.273
 8254SOL     OW25660   4.096   5.000   4.685
 8254SOL    HW125661   4.150   4.977   4.766
 8254SOL    HW225662   4.151   4.983   4.603
 8255SOL     OW25663   3.662   6.352   4.550
 8255SOL    HW125664   3.647   6.410   4.471
 8255SOL    HW225665   3.750   6.375   4.593
 8256SOL     OW25666   6.109   0.146   3.201
 8256SOL    HW125667   6.129   0.049   3.193
 8256SOL    HW225668   6.125   0.191   3.113
 8257SOL     OW25669   6.582   4.411   3.203
 8257SOL    HW125670   6.659   4.471   3.180
 8257SOL    HW225671   6.616   4.321   3.229
 8258SOL     OW25672   5.051   1.588   0.703
 8258SOL    HW125673   5.017   1.519   0.768
 8258SOL    HW225674   5.071   1.543   0.616
 8259SOL     OW25675   4.224   1.556   3.955
 8259SOL    HW125676   4.265   1.554   3.863
 8259SOL    HW225677   4.271   1.625   4.011
 8260SOL     OW25678   2.825   0.558   1.263
 8260SOL    HW125679   2.899   0.506   1.305
 8260SOL    HW225680   2.824   0.651   1.301
 8261SOL     OW25681   5.549   1.191   1.830
 8261SOL    HW125682   5.645   1.192   1.801
 8261SOL    HW225683   5.535   1.261   1.900
 8262SOL     OW25684   0.638   2.434   0.804
 8262SOL    HW125685   0.693   2.434   0.721
 8262SOL    HW225686   0.615   2.340   0.830
 8263SOL     OW25687   0.372   2.391   0.348
 8263SOL    HW125688   0.366   2.479   0.395
 8263SOL    HW225689   0.290   2.379   0.291
 8264SOL     OW25690   1.481   5.772   2.431
 8264SOL    HW125691   1.539   5.790   2.511
 8264SOL    HW225692   1.453   5.676   2.432
 8265SOL     OW25693   1.377   6.946   1.823
 8265SOL    HW125694   1.397   6.849   1.810
 8265SOL    HW225695   1.421   6.978   1.907
 8266SOL     OW25696   2.269   0.335   2.812
 8266SOL    HW125697   2.341   0.283   2.857
 8266SOL    HW225698   2.268   0.429   2.846
 8267SOL     OW25699   2.183   3.446   1.468
 8267SOL    HW125700   2.133   3.424   1.385
 8267SOL    HW225701   2.252   3.377   1.485
 8268SOL     OW25702   2.044   6.503   6.347
 8268SOL    HW125703   2.024   6.601   6.354
 8268SOL    HW225704   2.130   6.491   6.298
 8269SOL     OW25705   5.375   1.358   1.385
 8269SOL    HW125706   5.361   1.313   1.298
 8269SOL    HW225707   5.393   1.290   1.456
 8270SOL     OW25708   2.434   0.131   4.576
 8270SOL    HW125709   2.491   0.119   4.658
 8270SOL    HW225710   2.488   0.110   4.495
 8271SOL     OW25711   6.922   0.484   2.239
 8271SOL    HW125712   6.975   0.535   2.307
 8271SOL    HW225713   6.979   0.413   2.197
 8272SOL     OW25714   4.756   0.921   1.406
 8272SOL    HW125715   4.724   0.830   1.432
 8272SOL    HW225716   4.743   0.984   1.483
 8273SOL     OW25717   1.575   6.417   0.978
 8273SOL    HW125718   1.600   6.393   0.884
 8273SOL    HW225719   1.656   6.414   1.036
 8274SOL     OW25720   4.456   4.575   3.369
 8274SOL    HW125721   4.387   4.628   3.319
 8274SOL    HW225722   4.539   4.569   3.314
 8275SOL     OW25723   4.473   1.708   6.242
 8275SOL    HW125724   4.568   1.735   6.257
 8275SOL    HW225725   4.423   1.784   6.199
 8276SOL     OW25726   1.048   2.210   3.711
 8276SOL    HW125727   1.131   2.195   3.765
 8276SOL    HW225728   1.067   2.191   3.615
 8277SOL     OW25729   0.393   0.693   6.937
 8277SOL    HW125730   0.398   0.593   6.941
 8277SOL    HW225731   0.380   0.721   6.842
 8278SOL     OW25732   2.571   2.172   6.788
 8278SOL    HW125733   2.550   2.225   6.871
 8278SOL    HW225734   2.534   2.219   6.708
 8279SOL     OW25735   0.922   0.255   4.367
 8279SOL    HW125736   0.896   0.172   4.318
 8279SOL    HW225737   1.014   0.243   4.406
 8280SOL     OW25738   2.636   3.121   0.556
 8280SOL    HW125739   2.666   3.094   0.648
 8280SOL    HW225740   2.709   3.172   0.511
 8281SOL     OW25741   1.392   5.487   1.459
 8281SOL    HW125742   1.364   5.567   1.407
 8281SOL    HW225743   1.474   5.509   1.513
 8282SOL     OW25744   5.528   3.525   6.565
 8282SOL    HW125745   5.589   3.591   6.608
 8282SOL    HW225746   5.489   3.564   6.482
 8283SOL     OW25747   1.168   4.628   6.711
 8283SOL    HW125748   1.263   4.629   6.740
 8283SOL    HW225749   1.138   4.533   6.697
 8284SOL     OW25750   0.583   3.686   1.729
 8284SOL    HW125751   0.613   3.729   1.644
 8284SOL    HW225752   0.568   3.756   1.799
 8285SOL     OW25753   3.987   3.327   5.461
 8285SOL    HW125754   3.915   3.273   5.504
 8285SOL    HW225755   4.024   3.276   5.383
 8286SOL     OW25756   5.432   3.265   6.658
 8286SOL    HW125757   5.417   3.256   6.757
 8286SOL    HW225758   5.459   3.359   6.637
 8287SOL     OW25759   1.708   5.253   4.654
 8287SOL    HW125760   1.616   5.265   4.617
 8287SOL    HW225761   1.772   5.311   4.604
 8288SOL     OW25762   2.917   1.884   2.281
 8288SOL    HW125763   2.970   1.968   2.271
 8288SOL    HW225764   2.921   1.832   2.195
 8289SOL     OW25765   0.356   7.000   1.470
 8289SOL    HW125766   0.355   7.016   1.568
 8289SOL    HW225767   0.290   0.035   1.426
 8290SOL     OW25768   6.439   1.261   6.987
 8290SOL    HW125769   6.362   1.204   6.958
 8290SOL    HW225770   6.442   1.266   0.061
 8291SOL     OW25771   5.013   6.954   6.689
 8291SOL    HW125772   5.082   6.916   6.750
 8291SOL    HW225773   4.948   6.883   6.663
 8292SOL     OW25774   2.305   6.587   0.026
 8292SOL    HW125775   2.339   6.506   0.073
 8292SOL    HW225776   2.381   6.635   7.008
 8293SOL     OW25777   3.565   0.168   0.360
 8293SOL    HW125778   3.593   0.261   0.337
 8293SOL    HW225779   3.510   0.170   0.443
 8294SOL     OW25780   5.817   4.211   5.388
 8294SOL    HW125781   5.738   4.267   5.415
 8294SOL    HW225782   5.890   4.223   5.455
 8295SOL     OW25783   5.317   5.341   2.027
 8295SOL    HW125784   5.273   5.301   2.108
 8295SOL    HW225785   5.315   5.274   1.952
 8296SOL     OW25786   1.935   6.775   6.235
 8296SOL    HW125787   1.971   6.821   6.155
 8296SOL    HW225788   1.842   6.742   6.216
 8297SOL     OW25789   6.520   2.783   2.645
 8297SOL    HW125790   6.472   2.851   2.590
 8297SOL    HW225791   6.467   2.699   2.649
 8298SOL     OW25792   5.830   1.979   1.415
 8298SOL    HW125793   5.770   1.899   1.406
 8298SOL    HW225794   5.906   1.958   1.476
 8299SOL     OW25795   0.179   2.788   1.956
 8299SOL    HW125796   0.080   2.797   1.968
 8299SOL    HW225797   0.226   2.845   2.024
 8300SOL     OW25798   1.050   5.721   5.904
 8300SOL    HW125799   1.006   5.667   5.832
 8300SOL    HW225800   1.144   5.743   5.876
 8301SOL     OW25801   3.598   1.651   1.259
 8301SOL    HW125802   3.527   1.711   1.295
 8301SOL    HW225803   3.573   1.556   1.276
 8302SOL     OW25804   6.072   5.748   5.322
 8302SOL    HW125805   6.029   5.815   5.381
 8302SOL    HW225806   6.076   5.782   5.228
 8303SOL     OW25807   6.821   0.385   4.038
 8303SOL    HW125808   6.901   0.365   4.094
 8303SOL    HW225809   6.844   0.376   3.941
 8304SOL     OW25810   1.221   3.509   6.720
 8304SOL    HW125811   1.169   3.567   6.658
 8304SOL    HW225812   1.318   3.534   6.715
 8305SOL     OW25813   3.613   4.908   4.491
 8305SOL    HW125814   3.682   4.925   4.420
 8305SOL    HW225815   3.652   4.850   4.562
 8306SOL     OW25816   0.381   2.958   4.851
 8306SOL    HW125817   0.377   2.865   4.886
 8306SOL    HW225818   0.350   3.022   4.921
 8307SOL     OW25819   4.455   5.196   1.774
 8307SOL    HW125820   4.532   5.176   1.714
 8307SOL    HW225821   4.490   5.218   1.866
 8308SOL     OW25822   4.555   5.871   1.379
 8308SOL    HW125823   4.466   5.905   1.348
 8308SOL    HW225824   4.544   5.829   1.469
 8309SOL     OW25825   6.111   5.652   3.726
 8309SOL    HW125826   6.121   5.553   3.721
 8309SOL    HW225827   6.141   5.694   3.641
 8310SOL     OW25828   1.469   4.271   1.109
 8310SOL    HW125829   1.445   4.219   1.026
 8310SOL    HW225830   1.413   4.353   1.113
 8311SOL     OW25831   0.442   1.096   5.171
 8311SOL    HW125832   0.534   1.119   5.139
 8311SOL    HW225833   0.418   1.155   5.248
 8312SOL     OW25834   4.593   6.066   1.788
 8312SOL    HW125835   4.501   6.054   1.824
 8312SOL    HW225836   4.588   6.092   1.691
 8313SOL     OW25837   4.014   0.931   1.963
 8313SOL    HW125838   3.986   1.016   2.007
 8313SOL    HW225839   4.087   0.888   2.016
 8314SOL     OW25840   5.068   6.373   0.968
 8314SOL    HW125841   5.103   6.365   0.875
 8314SOL    HW225842   4.976   6.413   0.966
 8315SOL     OW25843   4.090   3.174   0.552
 8315SOL    HW125844   4.106   3.236   0.628
 8315SOL    HW225845   4.058   3.086   0.588
 8316SOL     OW25846   0.527   2.962   1.665
 8316SOL    HW125847   0.477   2.880   1.637
 8316SOL    HW225848   0.582   2.941   1.745
 8317SOL     OW25849   1.987   3.185   2.239
 8317SOL    HW125850   1.892   3.183   2.269
 8317SOL    HW225851   1.994   3.232   2.151
 8318SOL     OW25852   4.772   1.666   4.479
 8318SOL    HW125853   4.794   1.708   4.567
 8318SOL    HW225854   4.677   1.684   4.456
 8319SOL     OW25855   2.738   1.979   6.239
 8319SOL    HW125856   2.668   2.050   6.238
 8319SOL    HW225857   2.824   2.017   6.202
 8320SOL     OW25858   3.611   4.900   1.539
 8320SOL    HW125859   3.621   4.820   1.479
 8320SOL    HW225860   3.523   4.895   1.587
 8321SOL     OW25861   6.990   1.287   6.700
 8321SOL    HW125862   6.919   1.264   6.632
 8321SOL    HW225863   6.947   1.330   6.780
 8322SOL     OW25864   0.439   0.037   0.263
 8322SOL    HW125865   0.453   0.119   0.318
 8322SOL    HW225866   0.380   6.999   0.312
 8323SOL     OW25867   0.062   6.765   2.722
 8323SOL    HW125868   0.046   6.824   2.801
 8323SOL    HW225869   0.147   6.792   2.677
 8324SOL     OW25870   6.607   0.121   2.270
 8324SOL    HW125871   6.519   0.166   2.259
 8324SOL    HW225872   6.674   0.186   2.306
 8325SOL     OW25873   3.406   3.287   4.536
 8325SOL    HW125874   3.427   3.384   4.536
 8325SOL    HW225875   3.394   3.255   4.442
 8326SOL     OW25876   4.524   3.194   5.393
 8326SOL    HW125877   4.485   3.286   5.390
 8326SOL    HW225878   4.472   3.134   5.332
 8327SOL     OW25879   5.490   2.195   6.113
 8327SOL    HW125880   5.456   2.140   6.190
 8327SOL    HW225881   5.506   2.289   6.144
 8328SOL     OW25882   2.660   4.256   6.294
 8328SOL    HW125883   2.633   4.345   6.332
 8328SOL    HW225884   2.660   4.261   6.194
 8329SOL     OW25885   0.404   3.813   5.985
 8329SOL    HW125886   0.499   3.824   5.957
 8329SOL    HW225887   0.374   3.896   6.033
 8330SOL     OW25888   1.727   0.139   0.061
 8330SOL    HW125889   1.636   0.125   0.021
 8330SOL    HW225890   1.720   0.134   0.161
 8331SOL     OW25891   2.793   0.443   0.675
 8331SOL    HW125892   2.705   0.396   0.684
 8331SOL    HW225893   2.785   0.516   0.608
 8332SOL     OW25894   5.230   4.439   2.732
 8332SOL    HW125895   5.324   4.443   2.765
 8332SOL    HW225896   5.205   4.527   2.692
 8333SOL     OW25897   0.451   5.971   7.011
 8333SOL    HW125898   0.548   5.998   7.012
 8333SOL    HW225899   0.394   6.052   7.021
 8334SOL     OW25900   5.692   1.728   3.733
 8334SOL    HW125901   5.720   1.675   3.652
 8334SOL    HW225902   5.593   1.718   3.746
 8335SOL     OW25903   6.517   5.565   5.496
 8335SOL    HW125904   6.572   5.647   5.483
 8335SOL    HW225905   6.494   5.526   5.407
 8336SOL     OW25906   0.205   0.946   1.484
 8336SOL    HW125907   0.266   0.869   1.465
 8336SOL    HW225908   0.113   0.924   1.453
 8337SOL     OW25909   1.229   6.772   3.341
 8337SOL    HW125910   1.327   6.787   3.356
 8337SOL    HW225911   1.207   6.794   3.246
 8338SOL     OW25912   1.816   4.719   2.138
 8338SOL    HW125913   1.863   4.633   2.160
 8338SOL    HW225914   1.737   4.730   2.198
 8339SOL     OW25915   5.947   1.199   1.338
 8339SOL    HW125916   5.882   1.144   1.286
 8339SOL    HW225917   5.898   1.272   1.386
 8340SOL     OW25918   4.820   4.019   0.793
 8340SOL    HW125919   4.863   4.007   0.882
 8340SOL    HW225920   4.759   4.099   0.796
 8341SOL     OW25921   2.635   6.438   0.452
 8341SOL    HW125922   2.663   6.529   0.420
 8341SOL    HW225923   2.581   6.448   0.536
 8342SOL     OW25924   3.426   0.169   1.788
 8342SOL    HW125925   3.386   0.194   1.700
 8342SOL    HW225926   3.375   0.214   1.862
 8343SOL     OW25927   1.156   5.132   6.268
 8343SOL    HW125928   1.147   5.230   6.287
 8343SOL    HW225929   1.237   5.097   6.315
 8344SOL     OW25930   4.922   6.614   5.565
 8344SOL    HW125931   4.973   6.540   5.609
 8344SOL    HW225932   4.824   6.594   5.568
 8345SOL     OW25933   5.301   2.095   3.227
 8345SOL    HW125934   5.254   2.179   3.255
 8345SOL    HW225935   5.270   2.067   3.137
 8346SOL     OW25936   3.084   4.807   0.173
 8346SOL    HW125937   3.008   4.773   0.118
 8346SOL    HW225938   3.055   4.816   0.268
 8347SOL     OW25939   3.252   6.702   5.034
 8347SOL    HW125940   3.337   6.651   5.040
 8347SOL    HW225941   3.271   6.799   5.018
 8348SOL     OW25942   1.421   0.021   1.532
 8348SOL    HW125943   1.475   6.974   1.491
 8348SOL    HW225944   1.440   0.026   1.630
 8349SOL     OW25945   5.797   4.905   1.569
 8349SOL    HW125946   5.714   4.854   1.547
 8349SOL    HW225947   5.776   5.003   1.567
 8350SOL     OW25948   4.587   0.831   4.767
 8350SOL    HW125949   4.578   0.856   4.671
 8350SOL    HW225950   4.546   0.741   4.781
 8351SOL     OW25951   4.285   4.969   4.883
 8351SOL    HW125952   4.315   4.879   4.852
 8351SOL    HW225953   4.365   5.030   4.892
 8352SOL     OW25954   6.666   7.018   2.013
 8352SOL    HW125955   6.744   0.045   1.979
 8352SOL    HW225956   6.628   0.038   2.093
 8353SOL     OW25957   5.558   3.935   2.088
 8353SOL    HW125958   5.653   3.937   2.121
 8353SOL    HW225959   5.518   3.846   2.108
 8354SOL     OW25960   3.382   0.548   6.719
 8354SOL    HW125961   3.333   0.596   6.647
 8354SOL    HW225962   3.355   0.586   6.808
 8355SOL     OW25963   3.108   0.526   6.645
 8355SOL    HW125964   3.011   0.519   6.623
 8355SOL    HW225965   3.124   0.607   6.701
 8356SOL     OW25966   1.377   6.766   0.551
 8356SOL    HW125967   1.379   6.678   0.599
 8356SOL    HW225968   1.291   6.775   0.502
 8357SOL     OW25969   3.835   6.504   6.182
 8357SOL    HW125970   3.762   6.435   6.180
 8357SOL    HW225971   3.815   6.575   6.115
 8358SOL     OW25972   1.805   2.959   4.908
 8358SOL    HW125973   1.828   2.898   4.832
 8358SOL    HW225974   1.811   2.909   4.994
 8359SOL     OW25975   3.265   6.332   4.372
 8359SOL    HW125976   3.172   6.324   4.335
 8359SOL    HW225977   3.289   6.248   4.420
 8360SOL     OW25978   3.530   6.522   2.671
 8360SOL    HW125979   3.481   6.518   2.758
 8360SOL    HW225980   3.473   6.566   2.602
 8361SOL     OW25981   1.388   1.339   1.903
 8361SOL    HW125982   1.487   1.344   1.887
 8361SOL    HW225983   1.358   1.420   1.954
 8362SOL     OW25984   2.586   2.100   0.147
 8362SOL    HW125985   2.642   2.175   0.183
 8362SOL    HW225986   2.535   2.058   0.222
 8363SOL     OW25987   1.130   2.869   0.258
 8363SOL    HW125988   1.194   2.874   0.181
 8363SOL    HW225989   1.037   2.887   0.225
 8364SOL     OW25990   7.025   3.527   3.447
 8364SOL    HW125991   0.041   3.440   3.472
 8364SOL    HW225992   0.068   3.600   3.451
 8365SOL     OW25993   1.394   4.151   1.667
 8365SOL    HW125994   1.464   4.102   1.720
 8365SOL    HW225995   1.438   4.200   1.591
 8366SOL     OW25996   4.249   5.867   2.335
 8366SOL    HW125997   4.192   5.912   2.267
 8366SOL    HW225998   4.295   5.788   2.295
 8367SOL     OW25999   3.933   6.236   4.300
 8367SOL    HW126000   3.865   6.163   4.310
 8367SOL    HW226001   3.991   6.240   4.381
 8368SOL     OW26002   3.260   6.367   6.045
 8368SOL    HW126003   3.356   6.370   6.075
 8368SOL    HW226004   3.255   6.327   5.954
 8369SOL     OW26005   1.658   1.076   6.506
 8369SOL    HW126006   1.671   0.987   6.547
 8369SOL    HW226007   1.717   1.143   6.551
 8370SOL     OW26008   3.408   1.984   6.010
 8370SOL    HW126009   3.391   1.936   5.925
 8370SOL    HW226010   3.486   2.046   5.999
 8371SOL     OW26011   1.731   4.373   1.096
 8371SOL    HW126012   1.636   4.342   1.109
 8371SOL    HW226013   1.732   4.472   1.083
 8372SOL     OW26014   0.986   6.217   2.507
 8372SOL    HW126015   0.892   6.195   2.480
 8372SOL    HW226016   0.986   6.303   2.558
 8373SOL     OW26017   0.920   0.156   4.975
 8373SOL    HW126018   0.895   0.081   4.914
 8373SOL    HW226019   0.963   0.229   4.923
 8374SOL     OW26020   6.930   0.337   6.592
 8374SOL    HW126021   6.865   0.393   6.541
 8374SOL    HW226022   7.023   0.368   6.575
 8375SOL     OW26023   3.315   6.234   5.795
 8375SOL    HW126024   3.360   6.177   5.863
 8375SOL    HW226025   3.290   6.179   5.716
 8376SOL     OW26026   2.203   0.251   4.472
 8376SOL    HW126027   2.292   0.250   4.518
 8376SOL    HW226028   2.215   0.232   4.375
 8377SOL     OW26029   5.801   5.539   2.089
 8377SOL    HW126030   5.817   5.635   2.067
 8377SOL    HW226031   5.846   5.482   2.020
 8378SOL     OW26032   4.445   4.511   2.999
 8378SOL    HW126033   4.471   4.458   2.918
 8378SOL    HW226034   4.361   4.561   2.980
 8379SOL     OW26035   6.773   2.853   0.997
 8379SOL    HW126036   6.748   2.948   0.975
 8379SOL    HW226037   6.872   2.847   1.008
 8380SOL     OW26038   6.331   0.849   2.282
 8380SOL    HW126039   6.301   0.939   2.316
 8380SOL    HW226040   6.428   0.836   2.304
 8381SOL     OW26041   0.913   4.502   4.844
 8381SOL    HW126042   0.922   4.414   4.891
 8381SOL    HW226043   0.950   4.495   4.752
 8382SOL     OW26044   1.264   1.509   2.104
 8382SOL    HW126045   1.283   1.591   2.158
 8382SOL    HW226046   1.321   1.433   2.137
 8383SOL     OW26047   2.521   1.919   6.586
 8383SOL    HW126048   2.445   1.891   6.645
 8383SOL    HW226049   2.509   2.015   6.561
 8384SOL     OW26050   0.257   6.855   0.380
 8384SOL    HW126051   0.322   6.784   0.409
 8384SOL    HW226052   0.195   6.875   0.456
 8385SOL     OW26053   6.138   2.647   1.914
 8385SOL    HW126054   6.109   2.554   1.894
 8385SOL    HW226055   6.222   2.667   1.864
 8386SOL     OW26056   0.967   4.174   2.761
 8386SOL    HW126057   0.978   4.267   2.728
 8386SOL    HW226058   0.872   4.145   2.751
 8387SOL     OW26059   1.127   1.539   1.298
 8387SOL    HW126060   1.110   1.480   1.219
 8387SOL    HW226061   1.214   1.588   1.284
 8388SOL     OW26062   1.769   6.211   1.521
 8388SOL    HW126063   1.722   6.130   1.485
 8388SOL    HW226064   1.860   6.217   1.480
 8389SOL     OW26065   5.112   3.531   2.208
 8389SOL    HW126066   5.171   3.568   2.136
 8389SOL    HW226067   5.044   3.470   2.167
 8390SOL     OW26068   3.614   1.479   6.316
 8390SOL    HW126069   3.645   1.496   6.222
 8390SOL    HW226070   3.544   1.547   6.340
 8391SOL     OW26071   5.793   6.225   1.024
 8391SOL    HW126072   5.859   6.288   1.066
 8391SOL    HW226073   5.790   6.241   0.926
 8392SOL     OW26074   6.254   3.876   3.772
 8392SOL    HW126075   6.305   3.956   3.804
 8392SOL    HW226076   6.187   3.849   3.840
 8393SOL     OW26077   5.654   0.332   2.587
 8393SOL    HW126078   5.717   0.342   2.511
 8393SOL    HW226079   5.704   0.304   2.669
 8394SOL     OW26080   5.919   3.509   1.702
 8394SOL    HW126081   5.940   3.449   1.625
 8394SOL    HW226082   5.937   3.604   1.675
 8395SOL     OW26083   2.815   6.786   5.869
 8395SOL    HW126084   2.864   6.849   5.929
 8395SOL    HW226085   2.749   6.732   5.923
 8396SOL     OW26086   4.284   4.620   3.582
 8396SOL    HW126087   4.215   4.547   3.587
 8396SOL    HW226088   4.354   4.594   3.516
 8397SOL     OW26089   0.809   1.258   3.734
 8397SOL    HW126090   0.883   1.291   3.675
 8397SOL    HW226091   0.734   1.324   3.735
 8398SOL     OW26092   5.065   1.708   6.609
 8398SOL    HW126093   5.111   1.797   6.597
 8398SOL    HW226094   4.993   1.699   6.540
 8399SOL     OW26095   6.527   6.248   6.903
 8399SOL    HW126096   6.575   6.331   6.872
 8399SOL    HW226097   6.513   6.253   7.001
 8400SOL     OW26098   1.711   2.338   4.187
 8400SOL    HW126099   1.640   2.377   4.129
 8400SOL    HW226100   1.801   2.357   4.149
 8401SOL     OW26101   2.227   1.104   5.327
 8401SOL    HW126102   2.213   1.039   5.252
 8401SOL    HW226103   2.243   1.195   5.290
 8402SOL     OW26104   5.190   1.367   6.236
 8402SOL    HW126105   5.195   1.355   6.335
 8402SOL    HW226106   5.095   1.363   6.207
 8403SOL     OW26107   0.526   4.091   4.611
 8403SOL    HW126108   0.440   4.050   4.641
 8403SOL    HW226109   0.532   4.185   4.647
 8404SOL     OW26110   3.323   0.839   5.669
 8404SOL    HW126111   3.255   0.809   5.736
 8404SOL    HW226112   3.355   0.761   5.616
 8405SOL     OW26113   3.963   1.658   6.139
 8405SOL    HW126114   4.003   1.588   6.080
 8405SOL    HW226115   3.994   1.748   6.110
 8406SOL     OW26116   4.800   0.636   0.768
 8406SOL    HW126117   4.738   0.619   0.844
 8406SOL    HW226118   4.800   0.733   0.746
 8407SOL     OW26119   4.865   5.941   3.956
 8407SOL    HW126120   4.923   5.939   4.038
 8407SOL    HW226121   4.770   5.956   3.984
 8408SOL     OW26122   4.986   5.752   0.113
 8408SOL    HW126123   5.053   5.812   0.157
 8408SOL    HW226124   5.025   5.660   0.105
 8409SOL     OW26125   4.415   2.450   1.952
 8409SOL    HW126126   4.457   2.375   1.902
 8409SOL    HW226127   4.316   2.442   1.946
 8410SOL     OW26128   6.013   1.939   1.609
 8410SOL    HW126129   6.064   1.943   1.695
 8410SOL    HW226130   6.054   1.870   1.550
 8411SOL     OW26131   0.197   6.060   1.264
 8411SOL    HW126132   0.205   6.063   1.364
 8411SOL    HW226133   0.275   6.109   1.223
 8412SOL     OW26134   3.854   2.757   0.945
 8412SOL    HW126135   3.779   2.819   0.921
 8412SOL    HW226136   3.935   2.811   0.970
 8413SOL     OW26137   3.956   5.947   6.111
 8413SOL    HW126138   3.877   5.915   6.164
 8413SOL    HW226139   4.030   5.971   6.174
 8414SOL     OW26140   1.938   1.471   2.505
 8414SOL    HW126141   2.014   1.535   2.495
 8414SOL    HW226142   1.887   1.492   2.588
 8415SOL     OW26143   2.761   6.689   3.917
 8415SOL    HW126144   2.713   6.776   3.916
 8415SOL    HW226145   2.765   6.654   4.010
 8416SOL     OW26146   6.374   1.687   4.962
 8416SOL    HW126147   6.405   1.694   4.867
 8416SOL    HW226148   6.309   1.611   4.970
 8417SOL     OW26149   1.951   3.099   5.363
 8417SOL    HW126150   1.962   3.087   5.264
 8417SOL    HW226151   2.040   3.115   5.405
 8418SOL     OW26152   0.740   5.833   2.540
 8418SOL    HW126153   0.750   5.920   2.493
 8418SOL    HW226154   0.696   5.847   2.628
 8419SOL     OW26155   6.030   1.395   3.443
 8419SOL    HW126156   5.956   1.331   3.462
 8419SOL    HW226157   6.026   1.471   3.508
 8420SOL     OW26158   3.395   6.777   2.226
 8420SOL    HW126159   3.406   6.751   2.130
 8420SOL    HW226160   3.453   6.856   2.245
 8421SOL     OW26161   2.741   6.151   6.873
 8421SOL    HW126162   2.727   6.221   6.942
 8421SOL    HW226163   2.657   6.136   6.822
 8422SOL     OW26164   4.575   2.388   2.188
 8422SOL    HW126165   4.527   2.309   2.226
 8422SOL    HW226166   4.525   2.423   2.109
 8423SOL     OW26167   4.357   4.526   5.885
 8423SOL    HW126168   4.267   4.497   5.915
 8423SOL    HW226169   4.420   4.448   5.887
 8424SOL     OW26170   2.115   1.350   3.794
 8424SOL    HW126171   2.153   1.404   3.719
 8424SOL    HW226172   2.124   1.253   3.772
 8425SOL     OW26173   3.276   3.806   4.551
 8425SOL    HW126174   3.307   3.763   4.466
 8425SOL    HW226175   3.196   3.862   4.532
 8426SOL     OW26176   3.572   3.318   2.550
 8426SOL    HW126177   3.554   3.221   2.534
 8426SOL    HW226178   3.569   3.336   2.648
 8427SOL     OW26179   3.002   3.605   3.256
 8427SOL    HW126180   3.040   3.644   3.340
 8427SOL    HW226181   3.075   3.594   3.189
 8428SOL     OW26182   0.275   0.509   1.296
 8428SOL    HW126183   0.333   0.438   1.337
 8428SOL    HW226184   0.279   0.501   1.197
 8429SOL     OW26185   2.080   5.636   5.960
 8429SOL    HW126186   2.068   5.579   5.878
 8429SOL    HW226187   2.168   5.683   5.955
 8430SOL     OW26188   3.902   4.833   4.144
 8430SOL    HW126189   3.978   4.796   4.197
 8430SOL    HW226190   3.933   4.852   4.051
 8431SOL     OW26191   3.175   3.890   6.723
 8431SOL    HW126192   3.163   3.951   6.645
 8431SOL    HW226193   3.086   3.872   6.765
 8432SOL     OW26194   6.764   5.372   5.828
 8432SOL    HW126195   6.709   5.340   5.751
 8432SOL    HW226196   6.756   5.471   5.835
 8433SOL     OW26197   4.438   2.612   1.013
 8433SOL    HW126198   4.390   2.616   1.101
 8433SOL    HW226199   4.406   2.533   0.961
 8434SOL     OW26200   2.367   5.551   5.330
 8434SOL    HW126201   2.318   5.468   5.357
 8434SOL    HW226202   2.432   5.530   5.257
 8435SOL     OW26203   5.382   0.450   3.144
 8435SOL    HW126204   5.425   0.400   3.220
 8435SOL    HW226205   5.447   0.515   3.106
 8436SOL     OW26206   2.678   6.189   3.804
 8436SOL    HW126207   2.749   6.119   3.815
 8436SOL    HW226208   2.669   6.213   3.708
 8437SOL     OW26209   1.780   2.774   2.280
 8437SOL    HW126210   1.841   2.782   2.201
 8437SOL    HW226211   1.829   2.730   2.355
 8438SOL     OW26212   2.098   3.843   2.919
 8438SOL    HW126213   2.141   3.931   2.900
 8438SOL    HW226214   2.069   3.839   3.015
 8439SOL     OW26215   6.423   5.505   3.742
 8439SOL    HW126216   6.508   5.473   3.783
 8439SOL    HW226217   6.444   5.559   3.660
 8440SOL     OW26218   2.674   1.782   3.751
 8440SOL    HW126219   2.645   1.750   3.841
 8440SOL    HW226220   2.728   1.866   3.762
 8441SOL     OW26221   5.258   5.420   4.996
 8441SOL    HW126222   5.253   5.517   4.975
 8441SOL    HW226223   5.331   5.404   5.063
 8442SOL     OW26224   3.622   0.360   5.236
 8442SOL    HW126225   3.671   0.432   5.187
 8442SOL    HW226226   3.677   0.328   5.313
 8443SOL     OW26227   1.998   5.049   3.802
 8443SOL    HW126228   1.943   5.131   3.786
 8443SOL    HW226229   2.001   4.994   3.719
 8444SOL     OW26230   3.656   6.496   3.520
 8444SOL    HW126231   3.675   6.405   3.556
 8444SOL    HW226232   3.604   6.549   3.587
 8445SOL     OW26233   2.225   0.624   0.005
 8445SOL    HW126234   2.146   0.601   6.974
 8445SOL    HW226235   2.268   0.540   0.039
 8446SOL     OW26236   0.584   6.169   4.893
 8446SOL    HW126237   0.548   6.150   4.984
 8446SOL    HW226238   0.667   6.116   4.879
 8447SOL     OW26239   3.595   1.376   2.508
 8447SOL    HW126240   3.549   1.346   2.424
 8447SOL    HW226241   3.629   1.470   2.494
 8448SOL     OW26242   5.186   5.926   3.849
 8448SOL    HW126243   5.102   5.896   3.894
 8448SOL    HW226244   5.229   5.848   3.803
 8449SOL     OW26245   0.977   3.336   3.903
 8449SOL    HW126246   0.883   3.350   3.931
 8449SOL    HW226247   1.002   3.240   3.916
 8450SOL     OW26248   0.239   0.721   0.332
 8450SOL    HW126249   0.303   0.710   0.408
 8450SOL    HW226250   0.227   0.633   0.286
 8451SOL     OW26251   3.436   1.035   0.545
 8451SOL    HW126252   3.349   1.010   0.588
 8451SOL    HW226253   3.419   1.066   0.452
 8452SOL     OW26254   5.208   2.379   4.332
 8452SOL    HW126255   5.201   2.457   4.269
 8452SOL    HW226256   5.157   2.400   4.416
 8453SOL     OW26257   0.709   5.130   6.708
 8453SOL    HW126258   0.637   5.136   6.639
 8453SOL    HW226259   0.763   5.047   6.693
 8454SOL     OW26260   0.555   4.652   0.275
 8454SOL    HW126261   0.541   4.743   0.235
 8454SOL    HW226262   0.524   4.583   0.209
 8455SOL     OW26263   0.275   0.711   2.662
 8455SOL    HW126264   0.206   0.644   2.691
 8455SOL    HW226265   0.309   0.760   2.741
 8456SOL     OW26266   4.968   0.465   3.644
 8456SOL    HW126267   5.008   0.511   3.565
 8456SOL    HW226268   4.914   0.530   3.697
 8457SOL     OW26269   6.565   6.513   4.609
 8457SOL    HW126270   6.515   6.577   4.667
 8457SOL    HW226271   6.524   6.511   4.519
 8458SOL     OW26272   0.502   0.456   0.368
 8458SOL    HW126273   0.495   0.544   0.416
 8458SOL    HW226274   0.576   0.461   0.301
 8459SOL     OW26275   1.842   5.794   3.096
 8459SOL    HW126276   1.882   5.804   3.187
 8459SOL    HW226277   1.752   5.751   3.103
 8460SOL     OW26278   4.311   3.954   5.372
 8460SOL    HW126279   4.344   4.031   5.316
 8460SOL    HW226280   4.378   3.879   5.368
 8461SOL     OW26281   0.105   2.369   5.155
 8461SOL    HW126282   0.125   2.306   5.231
 8461SOL    HW226283   0.167   2.447   5.159
 8462SOL     OW26284   3.291   1.602   1.151
 8462SOL    HW126285   3.195   1.590   1.177
 8462SOL    HW226286   3.320   1.695   1.172
 8463SOL     OW26287   6.102   6.967   1.977
 8463SOL    HW126288   6.083   6.873   1.949
 8463SOL    HW226289   6.150   6.967   2.065
 8464SOL     OW26290   5.767   3.678   4.617
 8464SOL    HW126291   5.786   3.776   4.622
 8464SOL    HW226292   5.708   3.653   4.694
 8465SOL     OW26293   1.499   1.812   0.183
 8465SOL    HW126294   1.513   1.747   0.258
 8465SOL    HW226295   1.411   1.793   0.139
 8466SOL     OW26296   1.406   5.772   3.778
 8466SOL    HW126297   1.452   5.765   3.867
 8466SOL    HW226298   1.361   5.860   3.771
 8467SOL     OW26299   2.624   5.987   1.264
 8467SOL    HW126300   2.610   6.043   1.183
 8467SOL    HW226301   2.566   6.020   1.338
 8468SOL     OW26302   3.708   2.097   0.230
 8468SOL    HW126303   3.704   2.197   0.241
 8468SOL    HW226304   3.762   2.075   0.149
 8469SOL     OW26305   3.362   3.128   0.102
 8469SOL    HW126306   3.445   3.182   0.117
 8469SOL    HW226307   3.311   3.119   0.188
 8470SOL     OW26308   1.916   2.668   0.774
 8470SOL    HW126309   1.969   2.752   0.783
 8470SOL    HW226310   1.822   2.690   0.747
 8471SOL     OW26311   2.343   0.682   4.034
 8471SOL    HW126312   2.363   0.681   4.132
 8471SOL    HW226313   2.358   0.591   3.996
 8472SOL     OW26314   0.502   6.992   4.429
 8472SOL    HW126315   0.514   6.911   4.486
 8472SOL    HW226316   0.584   7.008   4.374
 8473SOL     OW26317   0.150   5.821   0.264
 8473SOL    HW126318   0.191   5.860   0.346
 8473SOL    HW226319   0.098   5.892   0.216
 8474SOL     OW26320   3.284   3.115   1.854
 8474SOL    HW126321   3.223   3.045   1.818
 8474SOL    HW226322   3.343   3.076   1.924
 8475SOL     OW26323   6.048   1.959   2.189
 8475SOL    HW126324   6.018   1.869   2.220
 8475SOL    HW226325   6.146   1.969   2.202
 8476SOL     OW26326   5.946   6.667   2.191
 8476SOL    HW126327   5.960   6.731   2.266
 8476SOL    HW226328   5.963   6.574   2.222
 8477SOL     OW26329   2.966   6.787   1.065
 8477SOL    HW126330   2.919   6.706   1.030
 8477SOL    HW226331   2.978   6.778   1.164
 8478SOL     OW26332   1.850   0.636   5.654
 8478SOL    HW126333   1.944   0.668   5.668
 8478SOL    HW226334   1.817   0.593   5.738
 8479SOL     OW26335   6.006   0.952   0.004
 8479SOL    HW126336   6.033   0.870   0.054
 8479SOL    HW226337   5.995   1.028   0.069
 8480SOL     OW26338   2.998   0.670   1.009
 8480SOL    HW126339   3.082   0.719   0.987
 8480SOL    HW226340   2.991   0.658   1.108
 8481SOL     OW26341   4.222   1.440   4.572
 8481SOL    HW126342   4.242   1.390   4.656
 8481SOL    HW226343   4.290   1.417   4.502
 8482SOL     OW26344   1.913   0.097   2.166
 8482SOL    HW126345   1.818   0.108   2.196
 8482SOL    HW226346   1.939   0.001   2.173
 8483SOL     OW26347   3.350   5.648   2.420
 8483SOL    HW126348   3.346   5.725   2.355
 8483SOL    HW226349   3.445   5.621   2.433
 8484SOL     OW26350   0.219   4.875   3.301
 8484SOL    HW126351   0.156   4.801   3.327
 8484SOL    HW226352   0.166   4.955   3.274
 8485SOL     OW26353   2.034   3.526   0.873
 8485SOL    HW126354   1.998   3.586   0.944
 8485SOL    HW226355   2.070   3.442   0.914
 8486SOL     OW26356   5.332   1.099   2.670
 8486SOL    HW126357   5.345   1.022   2.607
 8486SOL    HW226358   5.245   1.144   2.649
 8487SOL     OW26359   5.300   0.008   0.911
 8487SOL    HW126360   5.319   0.030   0.816
 8487SOL    HW226361   5.288   6.935   0.920
 8488SOL     OW26362   5.440   4.902   4.553
 8488SOL    HW126363   5.486   4.815   4.538
 8488SOL    HW226364   5.372   4.918   4.481
 8489SOL     OW26365   5.758   5.209   1.529
 8489SOL    HW126366   5.713   5.254   1.606
 8489SOL    HW226367   5.720   5.243   1.443
 8490SOL     OW26368   4.435   5.463   3.262
 8490SOL    HW126369   4.466   5.449   3.356
 8490SOL    HW226370   4.377   5.544   3.258
 8491SOL     OW26371   2.110   0.385   1.911
 8491SOL    HW126372   2.020   0.400   1.952
 8491SOL    HW226373   2.181   0.419   1.972
 8492SOL     OW26374   5.060   3.408   5.408
 8492SOL    HW126375   5.149   3.447   5.387
 8492SOL    HW226376   5.063   3.309   5.395
 8493SOL     OW26377   3.705   1.588   0.251
 8493SOL    HW126378   3.790   1.640   0.254
 8493SOL    HW226379   3.628   1.647   0.274
 8494SOL     OW26380   2.401   5.740   6.729
 8494SOL    HW126381   2.396   5.641   6.743
 8494SOL    HW226382   2.350   5.787   6.802
 8495SOL     OW26383   6.507   3.225   0.411
 8495SOL    HW126384   6.523   3.136   0.368
 8495SOL    HW226385   6.552   3.228   0.500
 8496SOL     OW26386   0.398   1.731   3.947
 8496SOL    HW126387   0.369   1.656   4.006
 8496SOL    HW226388   0.402   1.816   4.001
 8497SOL     OW26389   5.389   5.805   4.323
 8497SOL    HW126390   5.414   5.856   4.241
 8497SOL    HW226391   5.347   5.718   4.298
 8498SOL     OW26392   0.307   0.293   1.632
 8498SOL    HW126393   0.350   0.304   1.722
 8498SOL    HW226394   0.208   0.285   1.643
 8499SOL     OW26395   2.825   4.946   6.469
 8499SOL    HW126396   2.729   4.919   6.484
 8499SOL    HW226397   2.828   5.037   6.429
 8500SOL     OW26398   2.778   6.952   5.660
 8500SOL    HW126399   2.738   6.970   5.571
 8500SOL    HW226400   2.756   6.859   5.689
 8501SOL     OW26401   1.785   3.386   6.698
 8501SOL    HW126402   1.740   3.413   6.783
 8501SOL    HW226403   1.847   3.458   6.669
 8502SOL     OW26404   0.811   5.720   1.773
 8502SOL    HW126405   0.827   5.810   1.813
 8502SOL    HW226406   0.763   5.662   1.839
 8503SOL     OW26407   1.259   5.107   3.468
 8503SOL    HW126408   1.311   5.067   3.544
 8503SOL    HW226409   1.313   5.103   3.384
 8504SOL     OW26410   1.687   6.339   3.677
 8504SOL    HW126411   1.718   6.244   3.690
 8504SOL    HW226412   1.762   6.401   3.697
 8505SOL     OW26413   5.614   4.258   3.484
 8505SOL    HW126414   5.540   4.291   3.426
 8505SOL    HW226415   5.585   4.260   3.579
 8506SOL     OW26416   0.997   6.151   0.450
 8506SOL    HW126417   0.922   6.171   0.514
 8506SOL    HW226418   0.966   6.165   0.356
 8507SOL     OW26419   2.342   1.136   5.775
 8507SOL    HW126420   2.315   1.143   5.871
 8507SOL    HW226421   2.270   1.175   5.718
 8508SOL     OW26422   6.525   2.709   5.308
 8508SOL    HW126423   6.446   2.760   5.275
 8508SOL    HW226424   6.508   2.611   5.298
 8509SOL     OW26425   6.360   1.008   4.428
 8509SOL    HW126426   6.448   1.019   4.382
 8509SOL    HW226427   6.299   1.083   4.402
 8510SOL     OW26428   6.408   5.689   3.160
 8510SOL    HW126429   6.446   5.619   3.221
 8510SOL    HW226430   6.447   5.778   3.184
 8511SOL     OW26431   5.646   4.272   1.328
 8511SOL    HW126432   5.566   4.311   1.371
 8511SOL    HW226433   5.728   4.318   1.361
 8512SOL     OW26434   4.270   1.997   0.161
 8512SOL    HW126435   4.202   2.052   0.113
 8512SOL    HW226436   4.340   2.057   0.199
 8513SOL     OW26437   4.817   3.997   0.477
 8513SOL    HW126438   4.825   3.906   0.437
 8513SOL    HW226439   4.827   3.991   0.576
 8514SOL     OW26440   2.697   2.308   3.621
 8514SOL    HW126441   2.638   2.338   3.546
 8514SOL    HW226442   2.767   2.246   3.587
 8515SOL     OW26443   0.223   1.404   6.896
 8515SOL    HW126444   0.271   1.348   6.963
 8515SOL    HW226445   0.211   1.352   6.812
 8516SOL     OW26446   6.205   2.727   2.525
 8516SOL    HW126447   6.153   2.750   2.607
 8516SOL    HW226448   6.265   2.649   2.545
 8517SOL     OW26449   1.719   2.974   6.007
 8517SOL    HW126450   1.788   2.959   6.077
 8517SOL    HW226451   1.629   2.949   6.043
 8518SOL     OW26452   4.764   4.012   6.160
 8518SOL    HW126453   4.670   3.980   6.164
 8518SOL    HW226454   4.797   4.033   6.252
 8519SOL     OW26455   0.977   4.692   0.508
 8519SOL    HW126456   0.906   4.707   0.439
 8519SOL    HW226457   0.935   4.689   0.599
 8520SOL     OW26458   3.473   3.539   5.306
 8520SOL    HW126459   3.410   3.528   5.229
 8520SOL    HW226460   3.487   3.637   5.323
 8521SOL     OW26461   2.344   6.404   5.677
 8521SOL    HW126462   2.364   6.384   5.582
 8521SOL    HW226463   2.319   6.501   5.686
 8522SOL     OW26464   1.314   0.633   1.104
 8522SOL    HW126465   1.246   0.570   1.142
 8522SOL    HW226466   1.402   0.618   1.149
 8523SOL     OW26467   2.733   6.812   6.728
 8523SOL    HW126468   2.821   6.818   6.774
 8523SOL    HW226469   2.674   6.887   6.760
 8524SOL     OW26470   1.073   4.708   4.970
 8524SOL    HW126471   1.013   4.745   5.041
 8524SOL    HW226472   1.026   4.635   4.921
 8525SOL     OW26473   5.663   4.837   1.063
 8525SOL    HW126474   5.638   4.742   1.080
 8525SOL    HW226475   5.741   4.863   1.120
 8526SOL     OW26476   3.400   6.552   0.822
 8526SOL    HW126477   3.400   6.634   0.766
 8526SOL    HW226478   3.330   6.559   0.893
 8527SOL     OW26479   3.200   0.285   6.757
 8527SOL    HW126480   3.181   0.379   6.728
 8527SOL    HW226481   3.192   0.279   6.856
 8528SOL     OW26482   4.874   1.584   1.213
 8528SOL    HW126483   4.964   1.552   1.243
 8528SOL    HW226484   4.880   1.615   1.119
 8529SOL     OW26485   1.151   6.246   0.177
 8529SOL    HW126486   1.180   6.154   0.153
 8529SOL    HW226487   1.051   6.250   0.180
 8530SOL     OW26488   2.909   3.738   4.318
 8530SOL    HW126489   2.954   3.821   4.352
 8530SOL    HW226490   2.901   3.743   4.219
 8531SOL     OW26491   0.070   5.319   3.368
 8531SOL    HW126492   0.046   5.359   3.279
 8531SOL    HW226493   0.097   5.392   3.431
 8532SOL     OW26494   3.466   6.642   4.119
 8532SOL    HW126495   3.564   6.622   4.113
 8532SOL    HW226496   3.438   6.700   4.042
 8533SOL     OW26497   0.889   5.862   0.164
 8533SOL    HW126498   0.857   5.845   0.257
 8533SOL    HW226499   0.817   5.905   0.111
 8534SOL     OW26500   4.789   2.873   3.577
 8534SOL    HW126501   4.815   2.938   3.648
 8534SOL    HW226502   4.802   2.915   3.487
 8535SOL     OW26503   6.251   1.207   4.664
 8535SOL    HW126504   6.295   1.148   4.731
 8535SOL    HW226505   6.258   1.166   4.573
 8536SOL     OW26506   1.291   2.340   5.209
 8536SOL    HW126507   1.272   2.371   5.302
 8536SOL    HW226508   1.213   2.287   5.174
 8537SOL     OW26509   6.446   1.431   3.410
 8537SOL    HW126510   6.539   1.452   3.441
 8537SOL    HW226511   6.422   1.337   3.436
 8538SOL     OW26512   1.778   1.502   0.128
 8538SOL    HW126513   1.684   1.471   0.143
 8538SOL    HW226514   1.777   1.597   0.096
 8539SOL     OW26515   6.484   2.179   2.390
 8539SOL    HW126516   6.520   2.238   2.318
 8539SOL    HW226517   6.560   2.126   2.430
 8540SOL     OW26518   4.955   0.181   6.761
 8540SOL    HW126519   4.914   0.227   6.683
 8540SOL    HW226520   4.953   0.082   6.747
 8541SOL     OW26521   2.918   1.780   3.953
 8541SOL    HW126522   2.955   1.701   3.905
 8541SOL    HW226523   2.913   1.761   4.051
 8542SOL     OW26524   3.113   5.056   6.151
 8542SOL    HW126525   3.116   5.070   6.051
 8542SOL    HW226526   3.187   4.996   6.178
 8543SOL     OW26527   1.581   1.996   0.359
 8543SOL    HW126528   1.553   1.934   0.285
 8543SOL    HW226529   1.680   2.003   0.361
 8544SOL     OW26530   5.456   2.887   4.077
 8544SOL    HW126531   5.487   2.982   4.065
 8544SOL    HW226532   5.411   2.857   3.993
 8545SOL     OW26533   4.867   6.268   6.362
 8545SOL    HW126534   4.891   6.176   6.330
 8545SOL    HW226535   4.950   6.323   6.370
 8546SOL     OW26536   6.376   1.809   3.189
 8546SOL    HW126537   6.366   1.876   3.115
 8546SOL    HW226538   6.343   1.720   3.159
 8547SOL     OW26539   1.548   5.555   6.062
 8547SOL    HW126540   1.464   5.522   6.021
 8547SOL    HW226541   1.537   5.650   6.090
 8548SOL     OW26542   6.092   2.174   5.152
 8548SOL    HW126543   6.003   2.130   5.162
 8548SOL    HW226544   6.079   2.272   5.135
 8549SOL     OW26545   6.960   4.166   4.007
 8549SOL    HW126546   6.894   4.101   4.045
 8549SOL    HW226547   6.930   4.260   4.027
 8550SOL     OW26548   2.145   4.631   0.345
 8550SOL    HW126549   2.078   4.694   0.304
 8550SOL    HW226550   2.192   4.581   0.272
 8551SOL     OW26551   3.396   4.617   6.376
 8551SOL    HW126552   3.376   4.596   6.280
 8551SOL    HW226553   3.350   4.552   6.436
 8552SOL     OW26554   3.053   5.705   3.397
 8552SOL    HW126555   3.065   5.752   3.484
 8552SOL    HW226556   3.143   5.683   3.359
 8553SOL     OW26557   5.321   6.001   0.068
 8553SOL    HW126558   5.288   5.969   0.157
 8553SOL    HW226559   5.251   6.057   0.023
 8554SOL     OW26560   0.311   4.491   0.575
 8554SOL    HW126561   0.396   4.443   0.599
 8554SOL    HW226562   0.295   4.481   0.477
 8555SOL     OW26563   1.408   0.373   2.816
 8555SOL    HW126564   1.393   0.305   2.744
 8555SOL    HW226565   1.347   0.451   2.802
 8556SOL     OW26566   0.655   0.531   2.971
 8556SOL    HW126567   0.654   0.622   2.928
 8556SOL    HW226568   0.739   0.522   3.025
 8557SOL     OW26569   6.442   6.946   1.846
 8557SOL    HW126570   6.379   6.909   1.915
 8557SOL    HW226571   6.513   7.000   1.891
 8558SOL     OW26572   1.971   5.661   2.671
 8558SOL    HW126573   1.973   5.693   2.765
 8558SOL    HW226574   2.054   5.692   2.623
 8559SOL     OW26575   0.722   0.752   1.895
 8559SOL    HW126576   0.813   0.712   1.900
 8559SOL    HW226577   0.725   0.847   1.928
 8560SOL     OW26578   6.901   0.424   0.659
 8560SOL    HW126579   6.846   0.478   0.722
 8560SOL    HW226580   6.849   0.403   0.577
 8561SOL     OW26581   4.538   6.015   2.276
 8561SOL    HW126582   4.502   6.004   2.368
 8561SOL    HW226583   4.477   6.073   2.223
 8562SOL     OW26584   4.864   6.421   4.537
 8562SOL    HW126585   4.778   6.453   4.497
 8562SOL    HW226586   4.846   6.345   4.599
 8563SOL     OW26587   2.977   3.246   6.776
 8563SOL    HW126588   3.009   3.229   6.683
 8563SOL    HW226589   3.053   3.278   6.833
 8564SOL     OW26590   1.422   0.608   3.154
 8564SOL    HW126591   1.332   0.622   3.195
 8564SOL    HW226592   1.485   0.678   3.187
 8565SOL     OW26593   4.123   0.150   1.451
 8565SOL    HW126594   4.085   0.220   1.511
 8565SOL    HW226595   4.190   0.193   1.390
 8566SOL     OW26596   1.363   1.925   3.101
 8566SOL    HW126597   1.454   1.910   3.061
 8566SOL    HW226598   1.308   1.981   3.039
 8567SOL     OW26599   6.173   1.102   1.507
 8567SOL    HW126600   6.124   1.032   1.559
 8567SOL    HW226601   6.110   1.146   1.443
 8568SOL     OW26602   5.040   1.635   0.037
 8568SOL    HW126603   5.021   1.537   0.049
 8568SOL    HW226604   5.118   1.661   0.094
 8569SOL     OW26605   4.801   1.148   5.323
 8569SOL    HW126606   4.750   1.189   5.248
 8569SOL    HW226607   4.765   1.056   5.341
 8570SOL     OW26608   1.739   4.637   6.454
 8570SOL    HW126609   1.726   4.543   6.421
 8570SOL    HW226610   1.744   4.699   6.376
 8571SOL     OW26611   7.015   5.143   5.559
 8571SOL    HW126612   0.089   5.149   5.560
 8571SOL    HW226613   6.986   5.083   5.484
 8572SOL     OW26614   2.218   5.431   5.770
 8572SOL    HW126615   2.295   5.399   5.824
 8572SOL    HW226616   2.250   5.498   5.703
 8573SOL     OW26617   4.047   6.169   6.954
 8573SOL    HW126618   4.074   6.229   6.878
 8573SOL    HW226619   4.106   6.188   0.007
 8574SOL     OW26620   1.079   4.805   6.292
 8574SOL    HW126621   1.075   4.707   6.309
 8574SOL    HW226622   1.155   4.825   6.230
 8575SOL     OW26623   3.010   2.556   6.642
 8575SOL    HW126624   2.922   2.602   6.654
 8575SOL    HW226625   3.030   2.500   6.722
 8576SOL     OW26626   0.560   0.034   1.751
 8576SOL    HW126627   0.563   0.103   1.679
 8576SOL    HW226628   0.465   0.006   1.767
 8577SOL     OW26629   6.259   5.264   4.101
 8577SOL    HW126630   6.279   5.278   4.004
 8577SOL    HW226631   6.338   5.222   4.145
 8578SOL     OW26632   4.643   0.018   4.619
 8578SOL    HW126633   4.670   0.022   4.522
 8578SOL    HW226634   4.544   0.003   4.625
 8579SOL     OW26635   1.041   5.035   3.278
 8579SOL    HW126636   1.097   5.085   3.343
 8579SOL    HW226637   0.992   4.961   3.325
 8580SOL     OW26638   2.189   6.693   1.686
 8580SOL    HW126639   2.159   6.771   1.630
 8580SOL    HW226640   2.126   6.617   1.672
 8581SOL     OW26641   3.370   1.871   1.281
 8581SOL    HW126642   3.407   1.877   1.374
 8581SOL    HW226643   3.296   1.937   1.270
 8582SOL     OW26644   4.793   4.587   2.269
 8582SOL    HW126645   4.736   4.518   2.313
 8582SOL    HW226646   4.806   4.563   2.172
 8583SOL     OW26647   6.167   0.481   6.331
 8583SOL    HW126648   6.167   0.382   6.316
 8583SOL    HW226649   6.092   0.522   6.281
 8584SOL     OW26650   6.988   4.358   0.760
 8584SOL    HW126651   6.908   4.374   0.818
 8584SOL    HW226652   6.968   4.386   0.666
 8585SOL     OW26653   0.459   0.581   0.768
 8585SOL    HW126654   0.509   0.513   0.822
 8585SOL    HW226655   0.375   0.606   0.816
 8586SOL     OW26656   3.111   5.872   3.053
 8586SOL    HW126657   3.012   5.874   3.039
 8586SOL    HW226658   3.152   5.951   3.007
 8587SOL     OW26659   0.528   1.603   2.978
 8587SOL    HW126660   0.616   1.630   2.940
 8587SOL    HW226661   0.530   1.612   3.077
 8588SOL     OW26662   3.229   1.897   0.763
 8588SOL    HW126663   3.316   1.946   0.758
 8588SOL    HW226664   3.197   1.895   0.858
 8589SOL     OW26665   3.830   1.238   4.947
 8589SOL    HW126666   3.879   1.296   5.012
 8589SOL    HW226667   3.860   1.143   4.957
 8590SOL     OW26668   6.744   5.593   4.892
 8590SOL    HW126669   6.706   5.685   4.903
 8590SOL    HW226670   6.726   5.539   4.975
 8591SOL     OW26671   0.775   4.710   6.439
 8591SOL    HW126672   0.835   4.788   6.418
 8591SOL    HW226673   0.815   4.627   6.400
 8592SOL     OW26674   0.133   4.480   0.250
 8592SOL    HW126675   0.059   4.425   0.289
 8592SOL    HW226676   0.121   4.576   0.276
 8593SOL     OW26677   1.073   6.817   2.101
 8593SOL    HW126678   1.145   6.880   2.127
 8593SOL    HW226679   0.991   6.834   2.157
 8594SOL     OW26680   3.248   3.740   4.270
 8594SOL    HW126681   3.290   3.778   4.187
 8594SOL    HW226682   3.174   3.800   4.301
 8595SOL     OW26683   2.124   2.134   2.689
 8595SOL    HW126684   2.179   2.159   2.768
 8595SOL    HW226685   2.174   2.155   2.605
 8596SOL     OW26686   5.684   5.329   1.752
 8596SOL    HW126687   5.771   5.342   1.799
 8596SOL    HW226688   5.642   5.244   1.782
 8597SOL     OW26689   3.123   2.132   1.013
 8597SOL    HW126690   3.049   2.090   0.960
 8597SOL    HW226691   3.211   2.113   0.970
 8598SOL     OW26692   6.991   5.164   0.867
 8598SOL    HW126693   0.032   5.145   0.939
 8598SOL    HW226694   6.985   5.262   0.852
 8599SOL     OW26695   1.139   2.699   3.906
 8599SOL    HW126696   1.106   2.762   3.836
 8599SOL    HW226697   1.070   2.628   3.922
 8600SOL     OW26698   6.269   4.712   6.491
 8600SOL    HW126699   6.335   4.756   6.553
 8600SOL    HW226700   6.307   4.711   6.398
 8601SOL     OW26701   0.073   1.417   4.724
 8601SOL    HW126702   7.012   1.439   4.680
 8601SOL    HW226703   0.142   1.484   4.697
 8602SOL     OW26704   2.700   6.322   2.752
 8602SOL    HW126705   2.758   6.362   2.823
 8602SOL    HW226706   2.608   6.307   2.788
 8603SOL     OW26707   3.616   3.915   0.192
 8603SOL    HW126708   3.621   4.014   0.201
 8603SOL    HW226709   3.617   3.890   0.095
 8604SOL     OW26710   6.368   2.909   3.934
 8604SOL    HW126711   6.376   2.835   4.001
 8604SOL    HW226712   6.272   2.925   3.912
 8605SOL     OW26713   3.764   5.251   3.905
 8605SOL    HW126714   3.752   5.159   3.867
 8605SOL    HW226715   3.759   5.319   3.831
 8606SOL     OW26716   2.634   4.240   6.023
 8606SOL    HW126717   2.718   4.269   5.978
 8606SOL    HW226718   2.555   4.277   5.973
 8607SOL     OW26719   3.361   6.044   1.155
 8607SOL    HW126720   3.362   6.024   1.253
 8607SOL    HW226721   3.394   5.965   1.104
 8608SOL     OW26722   4.398   4.707   2.707
 8608SOL    HW126723   4.489   4.720   2.668
 8608SOL    HW226724   4.333   4.688   2.633
 8609SOL     OW26725   3.668   0.387   4.511
 8609SOL    HW126726   3.703   0.452   4.444
 8609SOL    HW226727   3.576   0.357   4.484
 8610SOL     OW26728   1.022   0.352   3.232
 8610SOL    HW126729   1.073   0.381   3.313
 8610SOL    HW226730   1.086   0.334   3.157
 8611SOL     OW26731   1.122   2.190   4.991
 8611SOL    HW126732   1.162   2.107   5.029
 8611SOL    HW226733   1.028   2.170   4.960
 8612SOL     OW26734   2.973   3.516   6.654
 8612SOL    HW126735   2.932   3.607   6.664
 8612SOL    HW226736   2.936   3.472   6.573
 8613SOL     OW26737   2.302   1.396   1.200
 8613SOL    HW126738   2.323   1.462   1.128
 8613SOL    HW226739   2.214   1.419   1.242
 8614SOL     OW26740   0.735   3.991   3.011
 8614SOL    HW126741   0.835   3.990   3.017
 8614SOL    HW226742   0.707   4.010   2.917
 8615SOL     OW26743   4.613   2.109   5.220
 8615SOL    HW126744   4.564   2.150   5.298
 8615SOL    HW226745   4.696   2.163   5.202
 8616SOL     OW26746   0.752   4.990   0.404
 8616SOL    HW126747   0.659   5.027   0.401
 8616SOL    HW226748   0.755   4.904   0.352
 8617SOL     OW26749   6.610   1.741   0.563
 8617SOL    HW126750   6.669   1.762   0.485
 8617SOL    HW226751   6.615   1.817   0.629
 8618SOL     OW26752   4.476   6.727   2.578
 8618SOL    HW126753   4.413   6.799   2.547
 8618SOL    HW226754   4.423   6.650   2.614
 8619SOL     OW26755   4.119   5.398   7.019
 8619SOL    HW126756   4.143   5.338   0.069
 8619SOL    HW226757   4.020   5.399   7.007
 8620SOL     OW26758   6.113   6.756   2.646
 8620SOL    HW126759   6.089   6.823   2.575
 8620SOL    HW226760   6.045   6.683   2.647
 8621SOL     OW26761   6.487   0.989   3.664
 8621SOL    HW126762   6.435   1.060   3.711
 8621SOL    HW226763   6.449   0.900   3.687
 8622SOL     OW26764   4.341   4.362   0.077
 8622SOL    HW126765   4.388   4.431   0.021
 8622SOL    HW226766   4.342   4.274   0.030
 8623SOL     OW26767   0.783   4.663   3.199
 8623SOL    HW126768   0.760   4.742   3.143
 8623SOL    HW226769   0.718   4.589   3.182
 8624SOL     OW26770   1.467   4.384   3.542
 8624SOL    HW126771   1.452   4.359   3.447
 8624SOL    HW226772   1.410   4.327   3.601
 8625SOL     OW26773   4.499   0.646   4.221
 8625SOL    HW126774   4.498   0.614   4.316
 8625SOL    HW226775   4.425   0.601   4.170
 8626SOL     OW26776   3.649   3.490   4.038
 8626SOL    HW126777   3.703   3.497   4.122
 8626SOL    HW226778   3.552   3.479   4.061
 8627SOL     OW26779   1.647   1.046   1.440
 8627SOL    HW126780   1.595   0.983   1.498
 8627SOL    HW226781   1.716   1.092   1.496
 8628SOL     OW26782   6.543   0.155   0.310
 8628SOL    HW126783   6.529   0.220   0.384
 8628SOL    HW226784   6.477   0.080   0.317
 8629SOL     OW26785   1.196   4.861   4.089
 8629SOL    HW126786   1.235   4.881   4.179
 8629SOL    HW226787   1.235   4.923   4.021
 8630SOL     OW26788   5.845   4.126   4.461
 8630SOL    HW126789   5.862   4.061   4.387
 8630SOL    HW226790   5.831   4.077   4.547
 8631SOL     OW26791   3.819   6.032   5.767
 8631SOL    HW126792   3.910   6.069   5.749
 8631SOL    HW226793   3.784   6.068   5.853
 8632SOL     OW26794   3.460   0.062   3.955
 8632SOL    HW126795   3.406   7.006   3.936
 8632SOL    HW226796   3.407   0.124   4.013
 8633SOL     OW26797   5.526   1.251   4.081
 8633SOL    HW126798   5.555   1.160   4.053
 8633SOL    HW226799   5.440   1.245   4.132
 8634SOL     OW26800   6.464   3.944   1.368
 8634SOL    HW126801   6.522   4.011   1.414
 8634SOL    HW226802   6.399   3.992   1.308
 8635SOL     OW26803   5.764   3.454   5.634
 8635SOL    HW126804   5.756   3.513   5.714
 8635SOL    HW226805   5.789   3.508   5.554
 8636SOL     OW26806   5.783   4.984   6.808
 8636SOL    HW126807   5.777   4.986   6.907
 8636SOL    HW226808   5.837   4.904   6.779
 8637SOL     OW26809   1.892   0.828   0.366
 8637SOL    HW126810   1.818   0.827   0.433
 8637SOL    HW226811   1.866   0.773   0.287
 8638SOL     OW26812   2.033   3.837   0.393
 8638SOL    HW126813   2.016   3.932   0.416
 8638SOL    HW226814   1.980   3.777   0.454
 8639SOL     OW26815   5.204   2.447   2.028
 8639SOL    HW126816   5.251   2.359   2.023
 8639SOL    HW226817   5.111   2.437   1.993
 8640SOL     OW26818   4.248   4.176   0.424
 8640SOL    HW126819   4.341   4.207   0.444
 8640SOL    HW226820   4.194   4.253   0.391
 8641SOL     OW26821   7.024   3.988   3.286
 8641SOL    HW126822   0.019   3.915   3.351
 8641SOL    HW226823   0.033   4.075   3.322
 8642SOL     OW26824   4.610   0.266   2.253
 8642SOL    HW126825   4.596   0.325   2.173
 8642SOL    HW226826   4.707   0.241   2.260
 8643SOL     OW26827   4.995   0.206   0.010
 8643SOL    HW126828   4.974   0.204   6.938
 8643SOL    HW226829   4.914   0.236   0.061
 8644SOL     OW26830   5.608   2.166   5.284
 8644SOL    HW126831   5.652   2.208   5.363
 8644SOL    HW226832   5.524   2.216   5.262
 8645SOL     OW26833   5.957   4.735   1.278
 8645SOL    HW126834   5.908   4.816   1.245
 8645SOL    HW226835   5.891   4.671   1.317
 8646SOL     OW26836   4.838   1.185   0.887
 8646SOL    HW126837   4.855   1.087   0.874
 8646SOL    HW226838   4.787   1.200   0.971
 8647SOL     OW26839   3.797   4.980   0.028
 8647SOL    HW126840   3.868   4.947   6.992
 8647SOL    HW226841   3.768   5.072   0.001
 8648SOL     OW26842   5.926   0.864   4.481
 8648SOL    HW126843   5.955   0.959   4.464
 8648SOL    HW226844   5.842   0.864   4.535
 8649SOL     OW26845   6.130   4.255   5.867
 8649SOL    HW126846   6.066   4.209   5.806
 8649SOL    HW226847   6.164   4.190   5.935
 8650SOL     OW26848   2.058   4.667   3.927
 8650SOL    HW126849   1.982   4.671   3.862
 8650SOL    HW226850   2.061   4.753   3.979
 8651SOL     OW26851   3.692   0.823   0.531
 8651SOL    HW126852   3.714   0.888   0.604
 8651SOL    HW226853   3.703   0.730   0.565
 8652SOL     OW26854   1.728   4.001   3.513
 8652SOL    HW126855   1.716   4.040   3.422
 8652SOL    HW226856   1.786   4.061   3.568
 8653SOL     OW26857   6.898   2.207   6.373
 8653SOL    HW126858   6.898   2.169   6.465
 8653SOL    HW226859   6.856   2.143   6.310
 8654SOL     OW26860   0.164   6.378   2.619
 8654SOL    HW126861   0.132   6.395   2.712
 8654SOL    HW226862   0.120   6.442   2.557
 8655SOL     OW26863   5.758   0.320   3.768
 8655SOL    HW126864   5.836   0.263   3.794
 8655SOL    HW226865   5.753   0.399   3.829
 8656SOL     OW26866   6.071   1.312   1.106
 8656SOL    HW126867   6.090   1.227   1.057
 8656SOL    HW226868   6.062   1.293   1.204
 8657SOL     OW26869   4.045   5.176   6.166
 8657SOL    HW126870   4.083   5.088   6.195
 8657SOL    HW226871   4.118   5.234   6.132
 8658SOL     OW26872   4.997   5.125   0.179
 8658SOL    HW126873   5.021   5.045   0.234
 8658SOL    HW226874   5.076   5.187   0.174
 8659SOL     OW26875   4.432   0.711   3.394
 8659SOL    HW126876   4.400   0.669   3.309
 8659SOL    HW226877   4.354   0.735   3.451
 8660SOL     OW26878   5.841   3.950   0.051
 8660SOL    HW126879   5.847   3.850   0.047
 8660SOL    HW226880   5.825   3.978   0.146
 8661SOL     OW26881   5.924   4.040   1.923
 8661SOL    HW126882   5.894   4.011   2.014
 8661SOL    HW226883   6.001   3.983   1.894
 8662SOL     OW26884   5.390   6.376   1.584
 8662SOL    HW126885   5.446   6.448   1.625
 8662SOL    HW226886   5.308   6.417   1.545
 8663SOL     OW26887   2.622   5.649   0.602
 8663SOL    HW126888   2.589   5.663   0.696
 8663SOL    HW226889   2.597   5.728   0.546
 8664SOL     OW26890   4.380   5.311   6.909
 8664SOL    HW126891   4.301   5.366   6.936
 8664SOL    HW226892   4.359   5.214   6.923
 8665SOL     OW26893   5.030   5.758   5.688
 8665SOL    HW126894   5.001   5.677   5.739
 8665SOL    HW226895   4.961   5.830   5.697
 8666SOL     OW26896   5.081   1.609   4.803
 8666SOL    HW126897   5.101   1.618   4.900
 8666SOL    HW226898   5.010   1.541   4.789
 8667SOL     OW26899   5.150   1.712   3.097
 8667SOL    HW126900   5.229   1.661   3.130
 8667SOL    HW226901   5.082   1.719   3.170
 8668SOL     OW26902   5.408   2.314   3.612
 8668SOL    HW126903   5.444   2.330   3.520
 8668SOL    HW226904   5.425   2.219   3.638
 8669SOL     OW26905   3.561   0.354   6.269
 8669SOL    HW126906   3.510   0.412   6.334
 8669SOL    HW226907   3.496   0.300   6.217
 8670SOL     OW26908   3.771   5.615   5.048
 8670SOL    HW126909   3.774   5.713   5.064
 8670SOL    HW226910   3.852   5.587   4.997
 8671SOL     OW26911   5.507   0.457   3.833
 8671SOL    HW126912   5.586   0.511   3.803
 8671SOL    HW226913   5.536   0.395   3.906
 8672SOL     OW26914   2.343   5.668   4.645
 8672SOL    HW126915   2.425   5.622   4.614
 8672SOL    HW226916   2.268   5.602   4.653
 8673SOL     OW26917   0.304   1.036   6.938
 8673SOL    HW126918   0.314   0.970   7.012
 8673SOL    HW226919   0.238   1.002   6.871
 8674SOL     OW26920   6.970   6.198   2.390
 8674SOL    HW126921   0.040   6.170   2.397
 8674SOL    HW226922   6.938   6.230   2.479
 8675SOL     OW26923   3.538   2.148   4.497
 8675SOL    HW126924   3.633   2.153   4.531
 8675SOL    HW226925   3.476   2.141   4.575
 8676SOL     OW26926   3.116   0.818   2.901
 8676SOL    HW126927   3.195   0.765   2.932
 8676SOL    HW226928   3.032   0.771   2.927
 8677SOL     OW26929   2.384   5.536   6.227
 8677SOL    HW126930   2.378   5.629   6.191
 8677SOL    HW226931   2.304   5.483   6.197
 8678SOL     OW26932   0.516   0.089   0.022
 8678SOL    HW126933   0.462   0.069   0.104
 8678SOL    HW226934   0.457   0.129   6.977
 8679SOL     OW26935   5.926   2.102   4.518
 8679SOL    HW126936   5.925   2.058   4.608
 8679SOL    HW226937   6.019   2.104   4.483
 8680SOL     OW26938   1.101   3.864   1.449
 8680SOL    HW126939   1.152   3.945   1.479
 8680SOL    HW226940   1.133   3.784   1.500
 8681SOL     OW26941   4.973   4.652   6.750
 8681SOL    HW126942   4.892   4.626   6.698
 8681SOL    HW226943   4.969   4.611   6.841
 8682SOL     OW26944   3.653   6.462   3.053
 8682SOL    HW126945   3.617   6.529   3.118
 8682SOL    HW226946   3.735   6.498   3.009
 8683SOL     OW26947   1.445   2.654   2.412
 8683SOL    HW126948   1.363   2.597   2.419
 8683SOL    HW226949   1.481   2.672   2.504
 8684SOL     OW26950   0.767   2.748   4.441
 8684SOL    HW126951   0.791   2.691   4.520
 8684SOL    HW226952   0.668   2.750   4.430
 8685SOL     OW26953   1.405   2.147   5.908
 8685SOL    HW126954   1.438   2.074   5.848
 8685SOL    HW226955   1.355   2.108   5.985
 8686SOL     OW26956   6.740   2.197   1.997
 8686SOL    HW126957   6.811   2.133   2.028
 8686SOL    HW226958   6.680   2.220   2.073
 8687SOL     OW26959   3.646   6.284   2.679
 8687SOL    HW126960   3.622   6.380   2.694
 8687SOL    HW226961   3.738   6.267   2.715
 8688SOL     OW26962   2.707   6.696   0.385
 8688SOL    HW126963   2.724   6.736   0.475
 8688SOL    HW226964   2.787   6.712   0.326
 8689SOL     OW26965   3.784   6.199   0.209
 8689SOL    HW126966   3.753   6.112   0.170
 8689SOL    HW226967   3.710   6.241   0.260
 8690SOL     OW26968   1.952   2.442   4.050
 8690SOL    HW126969   2.005   2.360   4.028
 8690SOL    HW226970   1.905   2.475   3.967
 8691SOL     OW26971   4.194   2.370   6.617
 8691SOL    HW126972   4.109   2.351   6.568
 8691SOL    HW226973   4.224   2.463   6.595
 8692SOL     OW26974   3.567   2.068   2.707
 8692SOL    HW126975   3.562   2.098   2.802
 8692SOL    HW226976   3.656   2.026   2.690
 8693SOL     OW26977   5.188   1.718   1.170
 8693SOL    HW126978   5.256   1.689   1.236
 8693SOL    HW226979   5.162   1.813   1.189
 8694SOL     OW26980   4.613   0.016   6.077
 8694SOL    HW126981   4.595   6.963   6.137
 8694SOL    HW226982   4.701   0.056   6.100
 8695SOL     OW26983   4.578   2.703   5.814
 8695SOL    HW126984   4.642   2.777   5.836
 8695SOL    HW226985   4.611   2.651   5.736
 8696SOL     OW26986   3.125   5.613   0.990
 8696SOL    HW126987   3.173   5.664   0.918
 8696SOL    HW226988   3.035   5.585   0.956
 8697SOL     OW26989   6.449   3.670   0.305
 8697SOL    HW126990   6.356   3.678   0.269
 8697SOL    HW226991   6.506   3.742   0.264
 8698SOL     OW26992   5.323   5.712   3.742
 8698SOL    HW126993   5.404   5.720   3.683
 8698SOL    HW226994   5.312   5.617   3.770
 8699SOL     OW26995   0.679   2.069   5.344
 8699SOL    HW126996   0.754   2.003   5.334
 8699SOL    HW226997   0.715   2.162   5.340
 8700SOL     OW26998   2.112   0.703   4.960
 8700SOL    HW126999   2.091   0.610   4.930
 8700SOL    HW227000   2.037   0.764   4.932
 8701SOL     OW27001   1.104   0.694   5.962
 8701SOL    HW127002   1.141   0.628   5.897
 8701SOL    HW227003   1.158   0.693   6.045
 8702SOL     OW27004   5.371   4.622   6.994
 8702SOL    HW127005   5.274   4.600   7.004
 8702SOL    HW227006   5.418   4.547   6.947
 8703SOL     OW27007   3.154   5.581   1.389
 8703SOL    HW127008   3.129   5.494   1.432
 8703SOL    HW227009   3.137   5.656   1.454
 8704SOL     OW27010   6.104   3.656   2.508
 8704SOL    HW127011   6.134   3.656   2.412
 8704SOL    HW227012   6.060   3.744   2.529
 8705SOL     OW27013   5.172   0.996   6.200
 8705SOL    HW127014   5.210   1.070   6.146
 8705SOL    HW227015   5.245   0.937   6.234
 8706SOL     OW27016   5.087   2.418   5.759
 8706SOL    HW127017   5.151   2.343   5.770
 8706SOL    HW227018   5.126   2.487   5.697
 8707SOL     OW27019   4.501   2.628   0.476
 8707SOL    HW127020   4.553   2.713   0.473
 8707SOL    HW227021   4.508   2.587   0.567
 8708SOL     OW27022   3.730   0.879   1.894
 8708SOL    HW127023   3.816   0.897   1.942
 8708SOL    HW227024   3.675   0.962   1.892
 8709SOL     OW27025   6.594   4.915   0.003
 8709SOL    HW127026   6.541   4.938   0.085
 8709SOL    HW227027   6.561   4.827   6.992
 8710SOL     OW27028   1.821   2.698   2.969
 8710SOL    HW127029   1.881   2.647   3.030
 8710SOL    HW227030   1.742   2.642   2.944
 8711SOL     OW27031   0.050   6.536   2.420
 8711SOL    HW127032   0.022   6.451   2.375
 8711SOL    HW227033   0.128   6.575   2.371
 8712SOL     OW27034   3.970   2.109   3.671
 8712SOL    HW127035   3.958   2.033   3.607
 8712SOL    HW227036   3.910   2.095   3.750
 8713SOL     OW27037   6.880   4.283   3.426
 8713SOL    HW127038   6.930   4.302   3.510
 8713SOL    HW227039   6.939   4.235   3.361
 8714SOL     OW27040   0.960   1.145   5.761
 8714SOL    HW127041   1.017   1.073   5.799
 8714SOL    HW227042   0.874   1.107   5.728
 8715SOL     OW27043   5.818   0.791   1.197
 8715SOL    HW127044   5.849   0.702   1.162
 8715SOL    HW227045   5.897   0.848   1.218
 8716SOL     OW27046   0.920   1.924   0.880
 8716SOL    HW127047   0.868   1.912   0.964
 8716SOL    HW227048   1.002   1.977   0.900
 8717SOL     OW27049   4.044   3.648   2.377
 8717SOL    HW127050   4.071   3.599   2.460
 8717SOL    HW227051   3.961   3.606   2.339
 8718SOL     OW27052   0.272   2.022   4.960
 8718SOL    HW127053   0.283   2.119   4.937
 8718SOL    HW227054   0.311   2.004   5.050
 8719SOL     OW27055   1.768   0.449   5.836
 8719SOL    HW127056   1.679   0.450   5.882
 8719SOL    HW227057   1.767   0.384   5.761
 8720SOL     OW27058   6.943   5.370   5.434
 8720SOL    HW127059   6.950   5.447   5.497
 8720SOL    HW227060   6.950   5.284   5.486
 8721SOL     OW27061   5.859   1.996   4.090
 8721SOL    HW127062   5.878   2.088   4.126
 8721SOL    HW227063   5.934   1.935   4.115
 8722SOL     OW27064   3.885   0.771   0.803
 8722SOL    HW127065   3.852   0.865   0.793
 8722SOL    HW227066   3.861   0.718   0.722
 8723SOL     OW27067   5.904   5.966   1.020
 8723SOL    HW127068   5.890   6.060   1.050
 8723SOL    HW227069   5.867   5.903   1.089
 8724SOL     OW27070   6.072   0.123   4.735
 8724SOL    HW127071   5.984   0.087   4.764
 8724SOL    HW227072   6.125   0.152   4.815
 8725SOL     OW27073   1.687   0.835   6.606
 8725SOL    HW127074   1.590   0.814   6.621
 8725SOL    HW227075   1.742   0.753   6.625
 8726SOL     OW27076   6.278   0.099   1.488
 8726SOL    HW127077   6.211   0.129   1.555
 8726SOL    HW227078   6.320   0.178   1.444
 8727SOL     OW27079   6.420   6.646   1.939
 8727SOL    HW127080   6.424   6.616   1.844
 8727SOL    HW227081   6.503   6.698   1.960
 8728SOL     OW27082   4.170   0.265   5.040
 8728SOL    HW127083   4.233   0.329   4.996
 8728SOL    HW227084   4.183   0.174   4.999
 8729SOL     OW27085   5.307   5.566   3.303
 8729SOL    HW127086   5.318   5.560   3.203
 8729SOL    HW227087   5.239   5.636   3.325
 8730SOL     OW27088   0.013   5.512   2.889
 8730SOL    HW127089   0.008   5.610   2.871
 8730SOL    HW227090   0.077   5.469   2.826
 8731SOL     OW27091   2.125   1.891   3.588
 8731SOL    HW127092   2.061   1.846   3.526
 8731SOL    HW227093   2.084   1.898   3.679
 8732SOL     OW27094   5.532   4.230   2.001
 8732SOL    HW127095   5.546   4.133   2.022
 8732SOL    HW227096   5.455   4.265   2.055
 8733SOL     OW27097   1.154   5.912   3.031
 8733SOL    HW127098   1.058   5.893   3.013
 8733SOL    HW227099   1.212   5.855   2.972
 8734SOL     OW27100   0.940   4.768   2.082
 8734SOL    HW127101   0.942   4.673   2.051
 8734SOL    HW227102   0.853   4.787   2.127
 8735SOL     OW27103   0.601   1.862   7.018
 8735SOL    HW127104   0.567   1.931   6.953
 8735SOL    HW227105   0.701   1.867   7.023
 8736SOL     OW27106   0.539   6.313   0.413
 8736SOL    HW127107   0.592   6.392   0.383
 8736SOL    HW227108   0.442   6.333   0.406
 8737SOL     OW27109   4.169   6.886   6.339
 8737SOL    HW127110   4.160   6.829   6.257
 8737SOL    HW227111   4.135   6.835   6.418
 8738SOL     OW27112   1.136   4.020   4.817
 8738SOL    HW127113   1.216   4.060   4.774
 8738SOL    HW227114   1.061   4.086   4.816
 8739SOL     OW27115   6.412   4.848   6.683
 8739SOL    HW127116   6.429   4.763   6.731
 8739SOL    HW227117   6.497   4.902   6.680
 8740SOL     OW27118   4.055   0.869   6.063
 8740SOL    HW127119   4.130   0.850   5.999
 8740SOL    HW227120   4.080   0.835   6.153
 8741SOL     OW27121   1.991   2.045   1.472
 8741SOL    HW127122   1.907   1.997   1.497
 8741SOL    HW227123   2.027   2.095   1.550
 8742SOL     OW27124   4.891   5.970   1.676
 8742SOL    HW127125   4.803   5.958   1.721
 8742SOL    HW227126   4.879   6.022   1.591
 8743SOL     OW27127   2.167   6.113   2.289
 8743SOL    HW127128   2.210   6.177   2.354
 8743SOL    HW227129   2.080   6.152   2.258
 8744SOL     OW27130   3.945   2.339   5.945
 8744SOL    HW127131   3.851   2.367   5.926
 8744SOL    HW227132   4.008   2.397   5.894
 8745SOL     OW27133   6.135   2.096   5.441
 8745SOL    HW127134   6.120   2.119   5.345
 8745SOL    HW227135   6.047   2.094   5.489
 8746SOL     OW27136   4.285   4.266   5.542
 8746SOL    HW127137   4.334   4.231   5.462
 8746SOL    HW227138   4.323   4.227   5.625
 8747SOL     OW27139   0.630   2.409   3.559
 8747SOL    HW127140   0.555   2.474   3.551
 8747SOL    HW227141   0.708   2.453   3.603
 8748SOL     OW27142   0.474   0.427   6.679
 8748SOL    HW127143   0.416   0.417   6.598
 8748SOL    HW227144   0.418   0.415   6.762
 8749SOL     OW27145   2.837   0.516   4.326
 8749SOL    HW127146   2.888   0.514   4.412
 8749SOL    HW227147   2.895   0.479   4.253
 8750SOL     OW27148   2.471   2.794   5.330
 8750SOL    HW127149   2.376   2.774   5.304
 8750SOL    HW227150   2.503   2.873   5.277
 8751SOL     OW27151   6.899   0.167   1.986
 8751SOL    HW127152   6.875   0.264   1.980
 8751SOL    HW227153   6.964   0.144   1.913
 8752SOL     OW27154   3.276   4.133   0.125
 8752SOL    HW127155   3.249   4.229   0.118
 8752SOL    HW227156   3.337   4.121   0.203
 8753SOL     OW27157   4.964   1.064   4.798
 8753SOL    HW127158   5.059   1.079   4.769
 8753SOL    HW227159   4.944   1.121   4.878
 8754SOL     OW27160   0.514   1.894   5.702
 8754SOL    HW127161   0.588   1.961   5.694
 8754SOL    HW227162   0.461   1.913   5.785
 8755SOL     OW27163   2.948   1.530   6.400
 8755SOL    HW127164   2.862   1.580   6.386
 8755SOL    HW227165   3.020   1.570   6.343
 8756SOL     OW27166   2.306   2.914   3.264
 8756SOL    HW127167   2.231   2.859   3.302
 8756SOL    HW227168   2.350   2.964   3.338
 8757SOL     OW27169   5.830   6.437   5.938
 8757SOL    HW127170   5.876   6.521   5.966
 8757SOL    HW227171   5.880   6.396   5.861
 8758SOL     OW27172   5.442   6.134   2.126
 8758SOL    HW127173   5.474   6.154   2.034
 8758SOL    HW227174   5.356   6.181   2.143
 8759SOL     OW27175   4.539   1.495   6.400
 8759SOL    HW127176   4.555   1.557   6.324
 8759SOL    HW227177   4.457   1.524   6.450
 8760SOL     OW27178   2.006   1.706   4.336
 8760SOL    HW127179   2.001   1.797   4.296
 8760SOL    HW227180   2.036   1.640   4.266
 8761SOL     OW27181   5.039   0.776   1.119
 8761SOL    HW127182   5.115   0.794   1.057
 8761SOL    HW227183   5.052   0.827   1.204
 8762SOL     OW27184   1.238   3.347   2.875
 8762SOL    HW127185   1.284   3.340   2.787
 8762SOL    HW227186   1.307   3.354   2.948
 8763SOL     OW27187   6.458   6.216   5.076
 8763SOL    HW127188   6.405   6.300   5.084
 8763SOL    HW227189   6.502   6.213   4.986
 8764SOL     OW27190   5.261   1.985   3.919
 8764SOL    HW127191   5.276   1.897   3.963
 8764SOL    HW227192   5.330   1.999   3.847
 8765SOL     OW27193   5.911   6.841   4.734
 8765SOL    HW127194   5.879   6.748   4.713
 8765SOL    HW227195   5.968   6.875   4.659
 8766SOL     OW27196   3.588   4.967   3.658
 8766SOL    HW127197   3.628   4.995   3.745
 8766SOL    HW227198   3.493   4.939   3.672
 8767SOL     OW27199   4.232   0.397   2.642
 8767SOL    HW127200   4.155   0.403   2.705
 8767SOL    HW227201   4.306   0.456   2.674
 8768SOL     OW27202   1.768   3.283   0.074
 8768SOL    HW127203   1.763   3.365   0.016
 8768SOL    HW227204   1.781   3.202   0.017
 8769SOL     OW27205   0.490   0.265   5.179
 8769SOL    HW127206   0.405   0.293   5.134
 8769SOL    HW227207   0.546   0.347   5.196
 8770SOL     OW27208   4.769   4.123   1.969
 8770SOL    HW127209   4.750   4.077   1.882
 8770SOL    HW227210   4.689   4.174   1.998
 8771SOL     OW27211   1.721   1.654   6.266
 8771SOL    HW127212   1.645   1.657   6.202
 8771SOL    HW227213   1.719   1.568   6.317
 8772SOL     OW27214   6.242   0.825   6.744
 8772SOL    HW127215   6.158   0.859   6.701
 8772SOL    HW227216   6.299   0.781   6.675
 8773SOL     OW27217   4.185   2.283   3.611
 8773SOL    HW127218   4.106   2.241   3.655
 8773SOL    HW227219   4.226   2.350   3.674
 8774SOL     OW27220   1.087   1.522   0.459
 8774SOL    HW127221   1.106   1.576   0.541
 8774SOL    HW227222   1.011   1.563   0.408
 8775SOL     OW27223   5.588   0.117   3.908
 8775SOL    HW127224   5.508   0.070   3.871
 8775SOL    HW227225   5.641   0.159   3.834
 8776SOL     OW27226   3.785   3.194   4.871
 8776SOL    HW127227   3.772   3.118   4.935
 8776SOL    HW227228   3.754   3.167   4.780
 8777SOL     OW27229   0.168   4.978   1.338
 8777SOL    HW127230   0.198   4.890   1.300
 8777SOL    HW227231   0.071   4.973   1.361
 8778SOL     OW27232   0.138   1.802   3.529
 8778SOL    HW127233   0.180   1.865   3.463
 8778SOL    HW227234   0.210   1.752   3.577
 8779SOL     OW27235   1.646   4.945   2.326
 8779SOL    HW127236   1.602   5.033   2.341
 8779SOL    HW227237   1.722   4.956   2.262
 8780SOL     OW27238   1.843   5.708   3.480
 8780SOL    HW127239   1.755   5.673   3.511
 8780SOL    HW227240   1.837   5.808   3.469
 8781SOL     OW27241   6.883   0.947   3.053
 8781SOL    HW127242   6.927   0.865   3.090
 8781SOL    HW227243   6.796   0.963   3.101
 8782SOL     OW27244   5.937   1.085   2.005
 8782SOL    HW127245   5.841   1.067   2.026
 8782SOL    HW227246   5.945   1.174   1.961
 8783SOL     OW27247   6.443   4.061   3.856
 8783SOL    HW127248   6.478   4.119   3.783
 8783SOL    HW227249   6.519   4.022   3.907
 8784SOL     OW27250   5.426   4.723   5.227
 8784SOL    HW127251   5.514   4.682   5.204
 8784SOL    HW227252   5.438   4.820   5.245
 8785SOL     OW27253   5.395   3.970   0.357
 8785SOL    HW127254   5.394   4.070   0.363
 8785SOL    HW227255   5.303   3.935   0.374
 8786SOL     OW27256   1.784   6.381   0.274
 8786SOL    HW127257   1.735   6.468   0.272
 8786SOL    HW227258   1.812   6.361   0.368
 8787SOL     OW27259   1.368   3.297   2.295
 8787SOL    HW127260   1.374   3.390   2.330
 8787SOL    HW227261   1.423   3.290   2.211
 8788SOL     OW27262   6.609   1.978   5.617
 8788SOL    HW127263   6.565   1.998   5.529
 8788SOL    HW227264   6.689   2.038   5.628
 8789SOL     OW27265   6.369   0.352   6.652
 8789SOL    HW127266   6.466   0.330   6.657
 8789SOL    HW227267   6.325   0.294   6.583
 8790SOL     OW27268   6.985   1.445   6.921
 8790SOL    HW127269   0.055   1.446   6.894
 8790SOL    HW227270   6.963   1.528   6.972
 8791SOL     OW27271   5.196   6.770   6.131
 8791SOL    HW127272   5.248   6.855   6.123
 8791SOL    HW227273   5.104   6.790   6.164
 8792SOL     OW27274   3.952   6.894   3.325
 8792SOL    HW127275   3.907   6.966   3.379
 8792SOL    HW227276   3.945   6.807   3.373
 8793SOL     OW27277   2.314   5.811   4.412
 8793SOL    HW127278   2.353   5.761   4.489
 8793SOL    HW227279   2.370   5.795   4.330
 8794SOL     OW27280   3.209   6.767   3.199
 8794SOL    HW127281   3.133   6.823   3.167
 8794SOL    HW227282   3.285   6.774   3.135
 8795SOL     OW27283   1.680   6.565   5.440
 8795SOL    HW127284   1.720   6.569   5.349
 8795SOL    HW227285   1.592   6.517   5.436
 8796SOL     OW27286   4.754   1.874   5.412
 8796SOL    HW127287   4.710   1.958   5.380
 8796SOL    HW227288   4.846   1.895   5.445
 8797SOL     OW27289   1.826   6.350   6.293
 8797SOL    HW127290   1.890   6.419   6.326
 8797SOL    HW227291   1.806   6.285   6.367
 8798SOL     OW27292   5.483   4.029   5.450
 8798SOL    HW127293   5.410   4.077   5.500
 8798SOL    HW227294   5.475   4.049   5.353
 8799SOL     OW27295   2.245   4.168   3.563
 8799SOL    HW127296   2.338   4.193   3.589
 8799SOL    HW227297   2.198   4.248   3.527
 8800SOL     OW27298   4.847   4.006   5.667
 8800SOL    HW127299   4.860   3.912   5.634
 8800SOL    HW227300   4.753   4.035   5.648
 8801SOL     OW27301   2.267   1.300   4.198
 8801SOL    HW127302   2.344   1.241   4.222
 8801SOL    HW227303   2.278   1.389   4.241
 8802SOL     OW27304   1.120   6.929   1.350
 8802SOL    HW127305   1.186   6.965   1.285
 8802SOL    HW227306   1.082   6.843   1.315
 8803SOL     OW27307   1.778   5.380   7.002
 8803SOL    HW127308   1.773   5.288   6.961
 8803SOL    HW227309   1.872   5.398   0.006
 8804SOL     OW27310   4.080   0.883   1.586
 8804SOL    HW127311   3.986   0.862   1.614
 8804SOL    HW227312   4.104   0.975   1.616
 8805SOL     OW27313   1.576   0.504   3.713
 8805SOL    HW127314   1.640   0.511   3.790
 8805SOL    HW227315   1.483   0.521   3.746
 8806SOL     OW27316   1.905   5.455   0.907
 8806SOL    HW127317   1.817   5.501   0.912
 8806SOL    HW227318   1.909   5.398   0.825
 8807SOL     OW27319   6.162   5.427   6.018
 8807SOL    HW127320   6.112   5.420   6.104
 8807SOL    HW227321   6.214   5.343   6.002
 8808SOL     OW27322   5.740   1.410   0.776
 8808SOL    HW127323   5.679   1.482   0.810
 8808SOL    HW227324   5.744   1.414   0.676
 8809SOL     OW27325   5.555   3.450   1.671
 8809SOL    HW127326   5.467   3.486   1.642
 8809SOL    HW227327   5.541   3.378   1.739
 8810SOL     OW27328   5.717   1.517   4.533
 8810SOL    HW127329   5.660   1.589   4.493
 8810SOL    HW227330   5.804   1.512   4.485
 8811SOL     OW27331   2.522   1.734   4.201
 8811SOL    HW127332   2.527   1.815   4.259
 8811SOL    HW227333   2.459   1.668   4.243
 8812SOL     OW27334   0.611   0.955   0.177
 8812SOL    HW127335   0.515   0.936   0.157
 8812SOL    HW227336   0.630   0.933   0.272
 8813SOL     OW27337   0.934   5.406   1.490
 8813SOL    HW127338   1.011   5.387   1.550
 8813SOL    HW227339   0.955   5.373   1.398
 8814SOL     OW27340   0.192   0.575   6.785
 8814SOL    HW127341   0.181   0.479   6.810
 8814SOL    HW227342   0.116   0.628   6.821
 8815SOL     OW27343   0.056   5.634   1.793
 8815SOL    HW127344   0.046   5.604   1.698
 8815SOL    HW227345   0.012   5.723   1.805
 8816SOL     OW27346   1.078   6.639   1.276
 8816SOL    HW127347   1.153   6.598   1.327
 8816SOL    HW227348   1.024   6.567   1.233
 8817SOL     OW27349   1.182   6.216   5.675
 8817SOL    HW127350   1.201   6.260   5.763
 8817SOL    HW227351   1.133   6.279   5.616
 8818SOL     OW27352   0.154   3.756   3.455
 8818SOL    HW127353   0.118   3.817   3.525
 8818SOL    HW227354   0.245   3.787   3.427
 8819SOL     OW27355   4.196   6.200   4.208
 8819SOL    HW127356   4.197   6.165   4.115
 8819SOL    HW227357   4.107   6.182   4.250
 8820SOL     OW27358   1.988   2.868   4.362
 8820SOL    HW127359   1.984   2.941   4.293
 8820SOL    HW227360   1.996   2.780   4.316
 8821SOL     OW27361   1.872   0.021   6.565
 8821SOL    HW127362   1.939   6.974   6.548
 8821SOL    HW227363   1.888   0.096   6.501
 8822SOL     OW27364   0.623   0.801   2.865
 8822SOL    HW127365   0.648   0.797   2.768
 8822SOL    HW227366   0.702   0.832   2.918
 8823SOL     OW27367   2.163   0.292   1.037
 8823SOL    HW127368   2.212   0.353   1.100
 8823SOL    HW227369   2.229   0.230   0.994
 8824SOL     OW27370   2.495   4.010   0.914
 8824SOL    HW127371   2.518   3.967   0.827
 8824SOL    HW227372   2.423   4.078   0.899
 8825SOL     OW27373   1.390   0.905   2.740
 8825SOL    HW127374   1.335   0.976   2.782
 8825SOL    HW227375   1.485   0.935   2.734
 8826SOL     OW27376   6.092   1.833   0.172
 8826SOL    HW127377   6.003   1.788   0.163
 8826SOL    HW227378   6.078   1.930   0.195
 8827SOL     OW27379   2.929   0.888   3.268
 8827SOL    HW127380   2.910   0.856   3.360
 8827SOL    HW227381   2.856   0.859   3.206
 8828SOL     OW27382   3.767   5.517   3.761
 8828SOL    HW127383   3.824   5.575   3.703
 8828SOL    HW227384   3.673   5.518   3.727
 8829SOL     OW27385   0.288   3.541   6.988
 8829SOL    HW127386   0.216   3.588   0.014
 8829SOL    HW227387   0.354   3.501   0.027
 8830SOL     OW27388   6.624   1.033   6.856
 8830SOL    HW127389   6.668   1.067   6.772
 8830SOL    HW227390   6.569   1.106   6.896
 8831SOL     OW27391   5.533   1.216   3.569
 8831SOL    HW127392   5.526   1.222   3.469
 8831SOL    HW227393   5.516   1.121   3.597
 8832SOL     OW27394   0.301   6.972   1.730
 8832SOL    HW127395   0.220   7.015   1.769
 8832SOL    HW227396   0.298   6.873   1.747
 8833SOL     OW27397   1.668   5.622   5.062
 8833SOL    HW127398   1.735   5.655   5.128
 8833SOL    HW227399   1.715   5.568   4.992
 8834SOL     OW27400   5.665   3.306   4.637
 8834SOL    HW127401   5.595   3.301   4.565
 8834SOL    HW227402   5.738   3.367   4.608
 8835SOL     OW27403   6.273   0.037   5.603
 8835SOL    HW127404   6.190   0.088   5.624
 8835SOL    HW227405   6.321   0.082   5.527
 8836SOL     OW27406   4.327   0.744   0.781
 8836SOL    HW127407   4.420   0.779   0.773
 8836SOL    HW227408   4.284   0.782   0.863
 8837SOL     OW27409   0.989   0.697   1.985
 8837SOL    HW127410   0.956   0.603   1.981
 8837SOL    HW227411   1.056   0.706   2.059
 8838SOL     OW27412   2.351   5.218   3.638
 8838SOL    HW127413   2.330   5.137   3.584
 8838SOL    HW227414   2.383   5.191   3.729
 8839SOL     OW27415   6.258   6.098   3.009
 8839SOL    HW127416   6.208   6.183   2.994
 8839SOL    HW227417   6.198   6.032   3.054
 8840SOL     OW27418   5.802   2.114   2.165
 8840SOL    HW127419   5.843   2.160   2.086
 8840SOL    HW227420   5.854   2.032   2.186
 8841SOL     OW27421   1.250   1.439   4.859
 8841SOL    HW127422   1.183   1.397   4.797
 8841SOL    HW227423   1.341   1.433   4.819
 8842SOL     OW27424   3.203   3.218   1.219
 8842SOL    HW127425   3.242   3.127   1.235
 8842SOL    HW227426   3.276   3.283   1.203
 8843SOL     OW27427   0.984   3.234   5.442
 8843SOL    HW127428   0.942   3.144   5.433
 8843SOL    HW227429   1.053   3.246   5.370
 8844SOL     OW27430   5.847   1.322   6.112
 8844SOL    HW127431   5.863   1.375   6.195
 8844SOL    HW227432   5.921   1.256   6.100
 8845SOL     OW27433   4.211   4.134   6.978
 8845SOL    HW127434   4.239   4.046   7.017
 8845SOL    HW227435   4.196   4.123   6.879
 8846SOL     OW27436   2.033   5.226   3.475
 8846SOL    HW127437   2.008   5.302   3.535
 8846SOL    HW227438   2.097   5.259   3.405
 8847SOL     OW27439   2.670   0.551   2.662
 8847SOL    HW127440   2.682   0.544   2.563
 8847SOL    HW227441   2.726   0.626   2.696
 8848SOL     OW27442   2.537   0.946   1.323
 8848SOL    HW127443   2.516   1.011   1.396
 8848SOL    HW227444   2.558   0.996   1.239
 8849SOL     OW27445   1.850   5.943   2.344
 8849SOL    HW127446   1.843   5.843   2.347
 8849SOL    HW227447   1.845   5.975   2.249
 8850SOL     OW27448   2.600   1.652   6.858
 8850SOL    HW127449   2.540   1.732   6.860
 8850SOL    HW227450   2.545   1.569   6.853
 8851SOL     OW27451   1.735   4.952   2.596
 8851SOL    HW127452   1.810   5.015   2.578
 8851SOL    HW227453   1.686   4.932   2.511
 8852SOL     OW27454   1.138   2.046   5.332
 8852SOL    HW127455   1.218   2.070   5.387
 8852SOL    HW227456   1.058   2.039   5.391
 8853SOL     OW27457   2.808   0.919   1.571
 8853SOL    HW127458   2.811   0.879   1.479
 8853SOL    HW227459   2.713   0.920   1.603
 8854SOL     OW27460   1.631   2.674   5.081
 8854SOL    HW127461   1.607   2.737   5.155
 8854SOL    HW227462   1.604   2.714   4.994
 8855SOL     OW27463   6.257   5.621   1.585
 8855SOL    HW127464   6.288   5.692   1.521
 8855SOL    HW227465   6.169   5.585   1.555
 8856SOL     OW27466   6.293   5.663   5.961
 8856SOL    HW127467   6.233   5.742   5.975
 8856SOL    HW227468   6.240   5.579   5.972
 8857SOL     OW27469   6.471   1.705   5.611
 8857SOL    HW127470   6.472   1.802   5.633
 8857SOL    HW227471   6.387   1.683   5.561
 8858SOL     OW27472   0.215   4.836   5.542
 8858SOL    HW127473   0.180   4.879   5.625
 8858SOL    HW227474   0.283   4.766   5.566
 8859SOL     OW27475   0.957   0.738   3.850
 8859SOL    HW127476   0.972   0.737   3.949
 8859SOL    HW227477   0.873   0.787   3.829
 8860SOL     OW27478   0.019   2.634   0.990
 8860SOL    HW127479   0.090   2.651   1.058
 8860SOL    HW227480   0.062   2.624   0.900
 8861SOL     OW27481   3.971   1.238   0.883
 8861SOL    HW127482   3.884   1.257   0.929
 8861SOL    HW227483   4.020   1.324   0.870
 8862SOL     OW27484   4.609   5.992   4.517
 8862SOL    HW127485   4.699   6.001   4.475
 8862SOL    HW227486   4.543   6.049   4.468
 8863SOL     OW27487   2.103   4.431   3.685
 8863SOL    HW127488   2.128   4.527   3.683
 8863SOL    HW227489   2.165   4.381   3.745
 8864SOL     OW27490   5.643   3.232   6.358
 8864SOL    HW127491   5.740   3.256   6.351
 8864SOL    HW227492   5.608   3.263   6.446
 8865SOL     OW27493   3.173   1.603   6.189
 8865SOL    HW127494   3.193   1.534   6.258
 8865SOL    HW227495   3.093   1.575   6.136
 8866SOL     OW27496   5.657   6.297   2.687
 8866SOL    HW127497   5.575   6.345   2.717
 8866SOL    HW227498   5.726   6.364   2.657
 8867SOL     OW27499   6.061   3.465   2.717
 8867SOL    HW127500   6.103   3.527   2.651
 8867SOL    HW227501   5.970   3.499   2.741
 8868SOL     OW27502   0.169   3.419   2.830
 8868SOL    HW127503   0.170   3.519   2.823
 8868SOL    HW227504   0.074   3.388   2.844
 8869SOL     OW27505   3.780   5.419   4.741
 8869SOL    HW127506   3.707   5.369   4.787
 8869SOL    HW227507   3.814   5.364   4.664
 8870SOL     OW27508   1.709   7.012   1.851
 8870SOL    HW127509   1.690   6.914   1.847
 8870SOL    HW227510   1.803   0.001   1.882
 8871SOL     OW27511   2.015   0.716   3.056
 8871SOL    HW127512   2.055   0.655   2.987
 8871SOL    HW227513   2.019   0.673   3.146
 8872SOL     OW27514   0.571   4.210   6.279
 8872SOL    HW127515   0.659   4.193   6.236
 8872SOL    HW227516   0.586   4.241   6.373
 8873SOL     OW27517   1.655   0.190   2.151
 8873SOL    HW127518   1.611   0.243   2.079
 8873SOL    HW227519   1.596   0.188   2.232
 8874SOL     OW27520   1.932   5.336   0.653
 8874SOL    HW127521   1.976   5.248   0.635
 8874SOL    HW227522   1.849   5.344   0.597
 8875SOL     OW27523   6.986   3.070   3.664
 8875SOL    HW127524   6.922   3.121   3.722
 8875SOL    HW227525   6.947   2.981   3.642
 8876SOL     OW27526   3.165   0.416   5.919
 8876SOL    HW127527   3.201   0.325   5.896
 8876SOL    HW227528   3.127   0.414   6.011
 8877SOL     OW27529   0.996   3.656   1.644
 8877SOL    HW127530   0.971   3.576   1.590
 8877SOL    HW227531   1.094   3.673   1.636
 8878SOL     OW27532   3.953   4.679   0.615
 8878SOL    HW127533   3.915   4.625   0.540
 8878SOL    HW227534   3.920   4.643   0.702
 8879SOL     OW27535   6.490   4.807   2.794
 8879SOL    HW127536   6.525   4.841   2.881
 8879SOL    HW227537   6.409   4.751   2.810
 8880SOL     OW27538   4.429   6.614   3.759
 8880SOL    HW127539   4.449   6.663   3.674
 8880SOL    HW227540   4.366   6.668   3.815
 8881SOL     OW27541   4.282   5.563   3.982
 8881SOL    HW127542   4.226   5.513   3.916
 8881SOL    HW227543   4.278   5.661   3.962
 8882SOL     OW27544   3.919   0.953   0.349
 8882SOL    HW127545   3.991   0.920   0.410
 8882SOL    HW227546   3.830   0.921   0.382
 8883SOL     OW27547   0.025   6.544   6.172
 8883SOL    HW127548   0.120   6.526   6.198
 8883SOL    HW227549   6.995   6.464   6.197
 8884SOL     OW27550   5.776   3.955   4.684
 8884SOL    HW127551   5.687   3.967   4.730
 8884SOL    HW227552   5.848   3.944   4.753
 8885SOL     OW27553   5.582   5.471   0.141
 8885SOL    HW127554   5.671   5.456   0.100
 8885SOL    HW227555   5.592   5.480   0.240
 8886SOL     OW27556   3.698   5.160   6.858
 8886SOL    HW127557   3.655   5.246   6.833
 8886SOL    HW227558   3.667   5.088   6.796
 8887SOL     OW27559   4.511   0.376   0.271
 8887SOL    HW127560   4.453   0.436   0.216
 8887SOL    HW227561   4.559   0.430   0.340
 8888SOL     OW27562   2.358   1.632   3.696
 8888SOL    HW127563   2.332   1.588   3.610
 8888SOL    HW227564   2.433   1.581   3.738
 8889SOL     OW27565   6.680   6.574   5.962
 8889SOL    HW127566   6.738   6.621   6.028
 8889SOL    HW227567   6.673   6.477   5.987
 8890SOL     OW27568   7.019   6.519   0.386
 8890SOL    HW127569   7.008   6.612   0.352
 8890SOL    HW227570   6.932   6.470   0.378
 8891SOL     OW27571   5.391   4.510   6.658
 8891SOL    HW127572   5.397   4.416   6.689
 8891SOL    HW227573   5.482   4.551   6.655
 8892SOL     OW27574   3.307   5.029   3.742
 8892SOL    HW127575   3.270   5.026   3.650
 8892SOL    HW227576   3.338   5.122   3.763
 8893SOL     OW27577   1.419   5.208   4.621
 8893SOL    HW127578   1.403   5.208   4.719
 8893SOL    HW227579   1.453   5.118   4.592
 8894SOL     OW27580   4.590   2.445   0.717
 8894SOL    HW127581   4.661   2.381   0.748
 8894SOL    HW227582   4.508   2.393   0.693
 8895SOL     OW27583   0.773   3.414   0.787
 8895SOL    HW127584   0.866   3.450   0.797
 8895SOL    HW227585   0.777   3.323   0.747
 8896SOL     OW27586   0.563   2.408   4.396
 8896SOL    HW127587   0.633   2.337   4.387
 8896SOL    HW227588   0.583   2.482   4.332
 8897SOL     OW27589   1.467   3.947   3.625
 8897SOL    HW127590   1.409   3.966   3.546
 8897SOL    HW227591   1.559   3.982   3.607
 8898SOL     OW27592   4.867   3.587   2.886
 8898SOL    HW127593   4.874   3.490   2.907
 8898SOL    HW227594   4.878   3.600   2.787
 8899SOL     OW27595   0.148   4.515   6.409
 8899SOL    HW127596   0.073   4.555   6.461
 8899SOL    HW227597   0.141   4.415   6.411
 8900SOL     OW27598   5.798   1.776   3.386
 8900SOL    HW127599   5.868   1.778   3.314
 8900SOL    HW227600   5.773   1.869   3.410
 8901SOL     OW27601   0.664   2.174   3.441
 8901SOL    HW127602   0.751   2.153   3.397
 8901SOL    HW227603   0.668   2.266   3.481
 8902SOL     OW27604   1.571   4.523   0.240
 8902SOL    HW127605   1.565   4.620   0.263
 8902SOL    HW227606   1.576   4.468   0.323
 8903SOL     OW27607   1.742   1.532   4.721
 8903SOL    HW127608   1.734   1.451   4.662
 8903SOL    HW227609   1.651   1.567   4.743
 8904SOL     OW27610   0.539   1.137   2.464
 8904SOL    HW127611   0.589   1.221   2.486
 8904SOL    HW227612   0.522   1.133   2.366
 8905SOL     OW27613   1.712   3.373   2.373
 8905SOL    HW127614   1.680   3.293   2.424
 8905SOL    HW227615   1.783   3.421   2.425
 8906SOL     OW27616   0.452   6.988   0.708
 8906SOL    HW127617   0.527   6.974   0.774
 8906SOL    HW227618   0.365   6.972   0.754
 8907SOL     OW27619   3.392   2.553   5.348
 8907SOL    HW127620   3.340   2.496   5.284
 8907SOL    HW227621   3.365   2.649   5.337
 8908SOL     OW27622   1.347   5.092   0.730
 8908SOL    HW127623   1.328   5.173   0.675
 8908SOL    HW227624   1.379   5.120   0.821
 8909SOL     OW27625   2.497   1.461   6.483
 8909SOL    HW127626   2.574   1.485   6.542
 8909SOL    HW227627   2.418   1.517   6.506
 8910SOL     OW27628   0.885   2.482   5.180
 8910SOL    HW127629   0.935   2.486   5.093
 8910SOL    HW227630   0.872   2.575   5.215
 8911SOL     OW27631   5.376   2.022   4.183
 8911SOL    HW127632   5.377   2.122   4.175
 8911SOL    HW227633   5.371   1.982   4.092
 8912SOL     OW27634   3.846   3.775   5.167
 8912SOL    HW127635   3.802   3.759   5.078
 8912SOL    HW227636   3.853   3.689   5.217
 8913SOL     OW27637   5.258   5.048   0.242
 8913SOL    HW127638   5.241   4.953   0.214
 8913SOL    HW227639   5.301   5.098   0.166
 8914SOL     OW27640   5.290   6.442   4.935
 8914SOL    HW127641   5.263   6.475   5.025
 8914SOL    HW227642   5.323   6.519   4.880
 8915SOL     OW27643   1.082   1.220   4.075
 8915SOL    HW127644   1.004   1.248   4.131
 8915SOL    HW227645   1.053   1.148   4.012
 8916SOL     OW27646   5.737   1.652   6.417
 8916SOL    HW127647   5.787   1.565   6.407
 8916SOL    HW227648   5.784   1.708   6.486
 8917SOL     OW27649   6.432   1.982   0.427
 8917SOL    HW127650   6.352   2.018   0.475
 8917SOL    HW227651   6.508   1.973   0.490
 8918SOL     OW27652   1.701   5.520   1.308
 8918SOL    HW127653   1.679   5.564   1.395
 8918SOL    HW227654   1.752   5.436   1.325
 8919SOL     OW27655   5.405   4.283   6.360
 8919SOL    HW127656   5.410   4.382   6.348
 8919SOL    HW227657   5.419   4.260   6.456
 8920SOL     OW27658   0.038   1.158   6.388
 8920SOL    HW127659   0.050   1.112   6.476
 8920SOL    HW227660   0.103   1.120   6.322
 8921SOL     OW27661   1.165   2.897   1.051
 8921SOL    HW127662   1.146   2.799   1.042
 8921SOL    HW227663   1.199   2.916   1.143
 8922SOL     OW27664   3.529   6.582   3.275
 8922SOL    HW127665   3.580   6.537   3.349
 8922SOL    HW227666   3.432   6.586   3.300
 8923SOL     OW27667   1.433   1.938   5.764
 8923SOL    HW127668   1.442   1.842   5.792
 8923SOL    HW227669   1.351   1.949   5.707
 8924SOL     OW27670   5.503   5.542   4.545
 8924SOL    HW127671   5.525   5.603   4.468
 8924SOL    HW227672   5.575   5.474   4.555
 8925SOL     OW27673   1.208   1.018   3.012
 8925SOL    HW127674   1.131   1.006   2.950
 8925SOL    HW227675   1.185   0.980   3.101
 8926SOL     OW27676   6.050   3.453   5.872
 8926SOL    HW127677   6.104   3.515   5.814
 8926SOL    HW227678   6.099   3.366   5.882
 8927SOL     OW27679   6.517   2.486   5.641
 8927SOL    HW127680   6.449   2.449   5.577
 8927SOL    HW227681   6.608   2.475   5.604
 8928SOL     OW27682   2.611   0.339   5.377
 8928SOL    HW127683   2.549   0.377   5.309
 8928SOL    HW227684   2.567   0.262   5.423
 8929SOL     OW27685   6.295   2.596   4.967
 8929SOL    HW127686   6.296   2.661   5.043
 8929SOL    HW227687   6.224   2.528   4.982
 8930SOL     OW27688   0.977   3.804   3.071
 8930SOL    HW127689   1.023   3.892   3.080
 8930SOL    HW227690   1.039   3.738   3.030
 8931SOL     OW27691   3.449   3.073   1.603
 8931SOL    HW127692   3.461   3.015   1.683
 8931SOL    HW227693   3.421   3.164   1.631
 8932SOL     OW27694   0.551   1.778   3.186
 8932SOL    HW127695   0.560   1.755   3.283
 8932SOL    HW227696   0.572   1.875   3.173
 8933SOL     OW27697   3.425   2.564   6.816
 8933SOL    HW127698   3.513   2.555   6.862
 8933SOL    HW227699   3.433   2.627   6.739
 8934SOL     OW27700   3.661   5.724   3.937
 8934SOL    HW127701   3.743   5.669   3.922
 8934SOL    HW227702   3.593   5.669   3.986
 8935SOL     OW27703   7.015   5.429   0.801
 8935SOL    HW127704   0.067   5.466   0.853
 8935SOL    HW227705   6.950   5.502   0.782
 8936SOL     OW27706   1.676   3.405   0.562
 8936SOL    HW127707   1.641   3.316   0.531
 8936SOL    HW227708   1.601   3.471   0.565
 8937SOL     OW27709   0.360   6.584   5.044
 8937SOL    HW127710   0.267   6.614   5.022
 8937SOL    HW227711   0.391   6.518   4.976
 8938SOL     OW27712   6.916   5.258   1.399
 8938SOL    HW127713   6.904   5.159   1.411
 8938SOL    HW227714   7.002   5.275   1.351
 8939SOL     OW27715   5.175   2.121   4.736
 8939SOL    HW127716   5.142   2.198   4.792
 8939SOL    HW227717   5.132   2.036   4.767
 8940SOL     OW27718   0.064   0.695   4.098
 8940SOL    HW127719   6.993   0.670   4.102
 8940SOL    HW227720   0.084   0.762   4.169
 8941SOL     OW27721   5.816   2.133   5.657
 8941SOL    HW127722   5.777   2.042   5.668
 8941SOL    HW227723   5.905   2.137   5.703
 8942SOL     OW27724   6.863   3.046   5.608
 8942SOL    HW127725   6.812   3.020   5.527
 8942SOL    HW227726   6.960   3.025   5.595
 8943SOL     OW27727   5.365   4.261   0.325
 8943SOL    HW127728   5.378   4.277   0.423
 8943SOL    HW227729   5.289   4.318   0.292
 8944SOL     OW27730   5.249   5.363   5.934
 8944SOL    HW127731   5.323   5.384   5.998
 8944SOL    HW227732   5.161   5.378   5.979
 8945SOL     OW27733   2.191   0.547   4.396
 8945SOL    HW127734   2.137   0.463   4.395
 8945SOL    HW227735   2.135   0.623   4.360
 8946SOL     OW27736   3.372   2.124   5.003
 8946SOL    HW127737   3.293   2.186   4.998
 8946SOL    HW227738   3.415   2.134   5.093
 8947SOL     OW27739   1.985   3.509   5.357
 8947SOL    HW127740   1.904   3.451   5.366
 8947SOL    HW227741   2.064   3.452   5.332
 8948SOL     OW27742   5.727   5.366   3.640
 8948SOL    HW127743   5.824   5.356   3.662
 8948SOL    HW227744   5.714   5.438   3.572
 8949SOL     OW27745   2.008   0.091   6.833
 8949SOL    HW127746   2.089   0.139   6.798
 8949SOL    HW227747   1.946   0.070   6.757
 8950SOL     OW27748   4.541   3.032   5.629
 8950SOL    HW127749   4.640   3.014   5.632
 8950SOL    HW227750   4.518   3.075   5.541
 8951SOL     OW27751   1.540   2.492   5.499
 8951SOL    HW127752   1.465   2.461   5.440
 8951SOL    HW227753   1.528   2.454   5.591
 8952SOL     OW27754   1.103   1.231   2.351
 8952SOL    HW127755   1.031   1.215   2.284
 8952SOL    HW227756   1.108   1.329   2.372
 8953SOL     OW27757   1.345   3.737   0.126
 8953SOL    HW127758   1.374   3.811   0.066
 8953SOL    HW227759   1.362   3.761   0.221
 8954SOL     OW27760   0.029   6.065   5.605
 8954SOL    HW127761   6.979   6.056   5.540
 8954SOL    HW227762   0.112   6.093   5.556
 8955SOL     OW27763   6.975   4.053   2.997
 8955SOL    HW127764   7.000   4.079   3.090
 8955SOL    HW227765   6.973   3.954   2.989
 8956SOL     OW27766   0.214   1.210   6.691
 8956SOL    HW127767   0.120   1.244   6.687
 8956SOL    HW227768   0.215   1.117   6.727
 8957SOL     OW27769   3.139   4.771   1.818
 8957SOL    HW127770   3.065   4.798   1.880
 8957SOL    HW227771   3.131   4.673   1.797
 8958SOL     OW27772   0.712   7.012   4.262
 8958SOL    HW127773   0.684   0.003   4.167
 8958SOL    HW227774   0.810   6.995   4.265
 8959SOL     OW27775   1.260   4.769   1.174
 8959SOL    HW127776   1.171   4.781   1.129
 8959SOL    HW227777   1.295   4.858   1.203
 8960SOL     OW27778   4.257   5.340   2.816
 8960SOL    HW127779   4.233   5.432   2.847
 8960SOL    HW227780   4.338   5.345   2.756
 8961SOL     OW27781   1.648   1.900   4.421
 8961SOL    HW127782   1.551   1.901   4.447
 8961SOL    HW227783   1.680   1.805   4.415
 8962SOL     OW27784   5.817   6.773   2.662
 8962SOL    HW127785   5.839   6.792   2.757
 8962SOL    HW227786   5.766   6.687   2.656
 8963SOL     OW27787   4.821   6.380   3.835
 8963SOL    HW127788   4.759   6.452   3.864
 8963SOL    HW227789   4.907   6.420   3.804
 8964SOL     OW27790   5.726   4.599   2.417
 8964SOL    HW127791   5.725   4.691   2.378
 8964SOL    HW227792   5.727   4.531   2.343
 8965SOL     OW27793   1.715   4.973   1.290
 8965SOL    HW127794   1.745   5.027   1.211
 8965SOL    HW227795   1.794   4.949   1.346
 8966SOL     OW27796   1.770   3.038   5.740
 8966SOL    HW127797   1.832   3.105   5.699
 8966SOL    HW227798   1.774   3.045   5.840
 8967SOL     OW27799   3.568   6.722   1.676
 8967SOL    HW127800   3.665   6.719   1.652
 8967SOL    HW227801   3.513   6.724   1.592
 8968SOL     OW27802   4.829   5.267   2.692
 8968SOL    HW127803   4.760   5.312   2.749
 8968SOL    HW227804   4.920   5.288   2.727
 8969SOL     OW27805   5.890   0.829   3.547
 8969SOL    HW127806   5.921   0.736   3.528
 8969SOL    HW227807   5.884   0.880   3.461
 8970SOL     OW27808   3.097   2.896   1.140
 8970SOL    HW127809   3.054   2.806   1.145
 8970SOL    HW227810   3.035   2.964   1.181
 8971SOL     OW27811   3.593   6.137   2.475
 8971SOL    HW127812   3.496   6.114   2.482
 8971SOL    HW227813   3.616   6.203   2.547
 8972SOL     OW27814   5.137   6.181   6.981
 8972SOL    HW127815   5.115   6.102   6.924
 8972SOL    HW227816   5.131   6.264   6.926
 8973SOL     OW27817   0.943   4.226   1.848
 8973SOL    HW127818   1.037   4.260   1.842
 8973SOL    HW227819   0.944   4.127   1.864
 8974SOL     OW27820   0.945   4.519   6.326
 8974SOL    HW127821   0.985   4.490   6.239
 8974SOL    HW227822   0.957   4.447   6.393
 8975SOL     OW27823   2.652   0.878   6.920
 8975SOL    HW127824   2.595   0.802   6.889
 8975SOL    HW227825   2.627   0.904   7.013
 8976SOL     OW27826   1.284   5.496   4.938
 8976SOL    HW127827   1.213   5.545   4.887
 8976SOL    HW227828   1.374   5.533   4.914
 8977SOL     OW27829   6.509   1.550   6.287
 8977SOL    HW127830   6.586   1.487   6.275
 8977SOL    HW227831   6.486   1.557   6.384
 8978SOL     OW27832   6.085   6.112   6.840
 8978SOL    HW127833   6.011   6.106   6.773
 8978SOL    HW227834   6.048   6.142   6.928
 8979SOL     OW27835   1.675   3.669   4.534
 8979SOL    HW127836   1.602   3.676   4.602
 8979SOL    HW227837   1.750   3.730   4.560
 8980SOL     OW27838   2.974   3.570   5.416
 8980SOL    HW127839   3.053   3.588   5.475
 8980SOL    HW227840   2.905   3.641   5.430
 8981SOL     OW27841   4.088   1.542   4.931
 8981SOL    HW127842   4.154   1.618   4.931
 8981SOL    HW227843   4.009   1.567   4.875
 8982SOL     OW27844   2.213   3.205   0.347
 8982SOL    HW127845   2.181   3.231   0.256
 8982SOL    HW227846   2.135   3.186   0.405
 8983SOL     OW27847   3.111   6.274   6.673
 8983SOL    HW127848   3.148   6.214   6.744
 8983SOL    HW227849   3.064   6.352   6.715
 8984SOL     OW27850   1.801   6.738   2.813
 8984SOL    HW127851   1.703   6.739   2.834
 8984SOL    HW227852   1.823   6.818   2.758
 8985SOL     OW27853   3.666   2.367   0.307
 8985SOL    HW127854   3.755   2.412   0.321
 8985SOL    HW227855   3.626   2.346   0.396
 8986SOL     OW27856   3.595   4.930   2.983
 8986SOL    HW127857   3.602   5.030   2.983
 8986SOL    HW227858   3.685   4.891   2.965
 8987SOL     OW27859   4.151   6.504   3.357
 8987SOL    HW127860   4.203   6.443   3.297
 8987SOL    HW227861   4.143   6.594   3.314
 8988SOL     OW27862   0.608   5.558   3.910
 8988SOL    HW127863   0.579   5.606   3.828
 8988SOL    HW227864   0.529   5.512   3.951
 8989SOL     OW27865   4.328   3.108   6.655
 8989SOL    HW127866   4.307   3.151   6.567
 8989SOL    HW227867   4.334   3.009   6.644
 8990SOL     OW27868   0.266   4.686   4.104
 8990SOL    HW127869   0.302   4.601   4.065
 8990SOL    HW227870   0.328   4.718   4.176
 8991SOL     OW27871   1.292   3.244   4.658
 8991SOL    HW127872   1.331   3.323   4.704
 8991SOL    HW227873   1.254   3.181   4.725
 8992SOL     OW27874   4.964   1.439   0.912
 8992SOL    HW127875   4.909   1.356   0.921
 8992SOL    HW227876   5.052   1.426   0.956
 8993SOL     OW27877   3.842   3.125   0.177
 8993SOL    HW127878   3.855   3.224   0.171
 8993SOL    HW227879   3.749   3.106   0.209
 8994SOL     OW27880   1.723   4.705   4.692
 8994SOL    HW127881   1.807   4.734   4.647
 8994SOL    HW227882   1.707   4.607   4.676
 8995SOL     OW27883   6.842   1.894   0.417
 8995SOL    HW127884   6.886   1.912   0.505
 8995SOL    HW227885   6.893   1.937   0.344
 8996SOL     OW27886   5.601   3.854   6.302
 8996SOL    HW127887   5.559   3.766   6.324
 8996SOL    HW227888   5.530   3.920   6.278
 8997SOL     OW27889   4.700   0.764   6.118
 8997SOL    HW127890   4.620   0.752   6.060
 8997SOL    HW227891   4.756   0.681   6.116
 8998SOL     OW27892   6.069   3.238   4.540
 8998SOL    HW127893   6.001   3.289   4.488
 8998SOL    HW227894   6.056   3.140   4.525
 8999SOL     OW27895   5.015   6.597   6.366
 8999SOL    HW127896   5.072   6.517   6.346
 8999SOL    HW227897   4.992   6.597   6.463
 9000SOL     OW27898   1.719   3.058   2.220
 9000SOL    HW127899   1.734   3.024   2.313
 9000SOL    HW227900   1.751   2.990   2.154
 9001SOL     OW27901   0.560   5.514   1.798
 9001SOL    HW127902   0.591   5.509   1.703
 9001SOL    HW227903   0.460   5.523   1.800
 9002SOL     OW27904   1.646   4.352   5.404
 9002SOL    HW127905   1.649   4.418   5.480
 9002SOL    HW227906   1.697   4.388   5.326
 9003SOL     OW27907   5.188   3.440   1.349
 9003SOL    HW127908   5.151   3.412   1.437
 9003SOL    HW227909   5.233   3.529   1.358
 9004SOL     OW27910   4.482   5.074   1.047
 9004SOL    HW127911   4.386   5.047   1.055
 9004SOL    HW227912   4.520   5.089   1.139
 9005SOL     OW27913   6.172   1.661   5.526
 9005SOL    HW127914   6.126   1.658   5.438
 9005SOL    HW227915   6.146   1.581   5.580
 9006SOL     OW27916   3.195   6.552   1.024
 9006SOL    HW127917   3.212   6.467   1.074
 9006SOL    HW227918   3.128   6.607   1.074
 9007SOL     OW27919   2.697   1.389   2.202
 9007SOL    HW127920   2.661   1.449   2.131
 9007SOL    HW227921   2.792   1.413   2.221
 9008SOL     OW27922   6.674   5.185   2.864
 9008SOL    HW127923   6.633   5.106   2.910
 9008SOL    HW227924   6.689   5.163   2.768
 9009SOL     OW27925   3.334   5.325   0.836
 9009SOL    HW127926   3.372   5.238   0.805
 9009SOL    HW227927   3.313   5.318   0.934
 9010SOL     OW27928   2.251   6.238   4.182
 9010SOL    HW127929   2.188   6.283   4.245
 9010SOL    HW227930   2.332   6.207   4.232
 9011SOL     OW27931   4.057   0.665   1.424
 9011SOL    HW127932   4.139   0.669   1.366
 9011SOL    HW227933   4.080   0.698   1.515
 9012SOL     OW27934   2.395   5.497   0.412
 9012SOL    HW127935   2.371   5.532   0.503
 9012SOL    HW227936   2.475   5.546   0.378
 9013SOL     OW27937   0.983   0.681   5.534
 9013SOL    HW127938   0.890   0.680   5.497
 9013SOL    HW227939   1.049   0.687   5.459
 9014SOL     OW27940   6.457   2.526   0.814
 9014SOL    HW127941   6.466   2.433   0.777
 9014SOL    HW227942   6.495   2.592   0.749
 9015SOL     OW27943   4.755   2.181   1.665
 9015SOL    HW127944   4.668   2.222   1.693
 9015SOL    HW227945   4.741   2.125   1.583
 9016SOL     OW27946   5.671   5.432   6.588
 9016SOL    HW127947   5.722   5.481   6.658
 9016SOL    HW227948   5.641   5.344   6.623
 9017SOL     OW27949   4.507   1.288   3.990
 9017SOL    HW127950   4.478   1.218   4.055
 9017SOL    HW227951   4.484   1.379   4.026
 9018SOL     OW27952   2.893   3.936   6.054
 9018SOL    HW127953   2.977   3.936   6.001
 9018SOL    HW227954   2.850   4.026   6.050
 9019SOL     OW27955   0.809   4.433   2.823
 9019SOL    HW127956   0.852   4.437   2.733
 9019SOL    HW227957   0.710   4.442   2.813
 9020SOL     OW27958   0.037   4.447   1.129
 9020SOL    HW127959   0.125   4.467   1.087
 9020SOL    HW227960   6.997   4.423   1.057
 9021SOL     OW27961   6.625   0.918   3.166
 9021SOL    HW127962   6.555   0.946   3.100
 9021SOL    HW227963   6.611   0.965   3.252
 9022SOL     OW27964   3.635   1.260   6.983
 9022SOL    HW127965   3.666   1.353   6.964
 9022SOL    HW227966   3.538   1.261   7.007
 9023SOL     OW27967   4.368   3.577   1.666
 9023SOL    HW127968   4.283   3.613   1.705
 9023SOL    HW227969   4.439   3.647   1.669
 9024SOL     OW27970   1.376   4.571   5.493
 9024SOL    HW127971   1.474   4.551   5.485
 9024SOL    HW227972   1.356   4.657   5.447
 9025SOL     OW27973   6.815   5.630   0.769
 9025SOL    HW127974   6.850   5.719   0.738
 9025SOL    HW227975   6.716   5.636   0.780
 9026SOL     OW27976   3.612   2.342   0.581
 9026SOL    HW127977   3.526   2.392   0.591
 9026SOL    HW227978   3.624   2.281   0.659
 9027SOL     OW27979   0.648   3.300   3.112
 9027SOL    HW127980   0.651   3.376   3.178
 9027SOL    HW227981   0.556   3.296   3.072
 9028SOL     OW27982   3.765   3.147   5.386
 9028SOL    HW127983   3.736   3.238   5.357
 9028SOL    HW227984   3.749   3.082   5.311
 9029SOL     OW27985   4.183   7.004   4.977
 9029SOL    HW127986   4.266   6.971   4.932
 9029SOL    HW227987   4.106   6.998   4.913
 9030SOL     OW27988   2.255   2.106   4.153
 9030SOL    HW127989   2.220   2.072   4.240
 9030SOL    HW227990   2.296   2.030   4.102
 9031SOL     OW27991   4.128   6.972   4.384
 9031SOL    HW127992   4.092   6.894   4.435
 9031SOL    HW227993   4.226   6.980   4.399
 9032SOL     OW27994   4.644   3.966   1.158
 9032SOL    HW127995   4.605   3.878   1.184
 9032SOL    HW227996   4.591   4.040   1.200
 9033SOL     OW27997   0.298   4.567   2.740
 9033SOL    HW127998   0.216   4.584   2.795
 9033SOL    HW227999   0.276   4.504   2.666
 9034SOL     OW28000   3.678   6.065   4.557
 9034SOL    HW128001   3.624   6.029   4.632
 9034SOL    HW228002   3.698   6.162   4.573
 9035SOL     OW28003   2.318   5.857   6.968
 9035SOL    HW128004   2.235   5.852   7.024
 9035SOL    HW228005   2.398   5.835   7.024
 9036SOL     OW28006   1.663   3.926   5.386
 9036SOL    HW128007   1.690   3.990   5.458
 9036SOL    HW228008   1.744   3.876   5.355
 9037SOL     OW28009   1.103   3.087   3.983
 9037SOL    HW128010   1.012   3.046   3.990
 9037SOL    HW228011   1.135   3.112   4.074
 9038SOL     OW28012   4.649   2.793   6.843
 9038SOL    HW128013   4.698   2.879   6.856
 9038SOL    HW228014   4.708   2.727   6.796
 9039SOL     OW28015   3.319   4.831   6.686
 9039SOL    HW128016   3.367   4.747   6.713
 9039SOL    HW228017   3.262   4.812   6.606
 9040SOL     OW28018   2.603   2.242   2.201
 9040SOL    HW128019   2.698   2.249   2.172
 9040SOL    HW228020   2.596   2.177   2.277
 9041SOL     OW28021   1.414   2.506   1.050
 9041SOL    HW128022   1.421   2.449   0.969
 9041SOL    HW228023   1.343   2.470   1.111
 9042SOL     OW28024   3.600   6.959   4.796
 9042SOL    HW128025   3.660   0.008   4.826
 9042SOL    HW228026   3.627   6.929   4.704
 9043SOL     OW28027   2.286   1.668   6.274
 9043SOL    HW128028   2.255   1.642   6.365
 9043SOL    HW228029   2.380   1.702   6.280
 9044SOL     OW28030   0.368   1.266   0.037
 9044SOL    HW128031   0.394   1.257   0.133
 9044SOL    HW228032   0.343   1.176   0.001
 9045SOL     OW28033   3.727   0.345   3.106
 9045SOL    HW128034   3.811   0.329   3.158
 9045SOL    HW228035   3.680   0.426   3.141
 9046SOL     OW28036   4.000   3.812   2.592
 9046SOL    HW128037   4.085   3.833   2.641
 9046SOL    HW228038   4.022   3.766   2.506
 9047SOL     OW28039   0.974   3.907   5.142
 9047SOL    HW128040   1.017   3.970   5.077
 9047SOL    HW228041   0.886   3.944   5.171
 9048SOL     OW28042   6.111   2.293   6.391
 9048SOL    HW128043   6.165   2.339   6.462
 9048SOL    HW228044   6.132   2.334   6.302
 9049SOL     OW28045   4.003   6.431   5.558
 9049SOL    HW128046   3.975   6.427   5.654
 9049SOL    HW228047   3.970   6.349   5.511
 9050SOL     OW28048   0.313   3.234   1.261
 9050SOL    HW128049   0.361   3.172   1.324
 9050SOL    HW228050   0.376   3.303   1.227
 9051SOL     OW28051   2.306   0.090   1.913
 9051SOL    HW128052   2.241   0.107   1.839
 9051SOL    HW228053   2.364   0.171   1.926
 9052SOL     OW28054   2.072   3.457   3.803
 9052SOL    HW128055   2.152   3.437   3.859
 9052SOL    HW228056   1.989   3.432   3.853
 9053SOL     OW28057   1.737   1.462   0.834
 9053SOL    HW128058   1.778   1.408   0.760
 9053SOL    HW228059   1.718   1.402   0.911
 9054SOL     OW28060   2.222   6.059   4.518
 9054SOL    HW128061   2.261   5.993   4.454
 9054SOL    HW228062   2.124   6.068   4.501
 9055SOL     OW28063   6.322   3.260   4.630
 9055SOL    HW128064   6.226   3.235   4.618
 9055SOL    HW228065   6.344   3.336   4.568
 9056SOL     OW28066   6.703   1.725   2.373
 9056SOL    HW128067   6.746   1.640   2.345
 9056SOL    HW228068   6.633   1.706   2.442
 9057SOL     OW28069   4.754   2.355   4.602
 9057SOL    HW128070   4.726   2.317   4.691
 9057SOL    HW228071   4.760   2.281   4.535
 9058SOL     OW28072   1.353   0.548   0.744
 9058SOL    HW128073   1.409   0.626   0.774
 9058SOL    HW228074   1.366   0.535   0.645
 9059SOL     OW28075   1.172   2.334   3.035
 9059SOL    HW128076   1.159   2.421   2.987
 9059SOL    HW228077   1.083   2.299   3.064
 9060SOL     OW28078   5.968   2.976   4.471
 9060SOL    HW128079   5.973   2.879   4.494
 9060SOL    HW228080   5.887   2.993   4.414
 9061SOL     OW28081   3.352   5.440   2.639
 9061SOL    HW128082   3.434   5.412   2.690
 9061SOL    HW228083   3.369   5.433   2.541
 9062SOL     OW28084   1.152   5.905   1.800
 9062SOL    HW128085   1.142   5.827   1.739
 9062SOL    HW228086   1.065   5.924   1.845
 9063SOL     OW28087   2.366   0.675   3.553
 9063SOL    HW128088   2.360   0.696   3.650
 9063SOL    HW228089   2.324   0.749   3.500
 9064SOL     OW28090   6.679   3.572   6.189
 9064SOL    HW128091   6.674   3.622   6.276
 9064SOL    HW228092   6.680   3.638   6.113
 9065SOL     OW28093   3.864   0.042   0.171
 9065SOL    HW128094   3.895   6.975   0.152
 9065SOL    HW228095   3.774   0.057   0.131
 9066SOL     OW28096   5.331   0.329   0.656
 9066SOL    HW128097   5.336   0.323   0.556
 9066SOL    HW228098   5.241   0.299   0.688
 9067SOL     OW28099   1.686   0.234   3.589
 9067SOL    HW128100   1.777   0.263   3.560
 9067SOL    HW228101   1.625   0.314   3.593
 9068SOL     OW28102   0.767   6.706   4.717
 9068SOL    HW128103   0.752   6.610   4.696
 9068SOL    HW228104   0.694   6.761   4.676
 9069SOL     OW28105   1.139   3.259   6.780
 9069SOL    HW128106   1.186   3.346   6.764
 9069SOL    HW228107   1.186   3.186   6.731
 9070SOL     OW28108   2.159   3.954   4.729
 9070SOL    HW128109   2.172   3.858   4.703
 9070SOL    HW228110   2.177   3.965   4.826
 9071SOL     OW28111   6.525   5.878   1.062
 9071SOL    HW128112   6.472   5.956   1.095
 9071SOL    HW228113   6.565   5.829   1.140
 9072SOL     OW28114   6.684   3.516   0.786
 9072SOL    HW128115   6.782   3.527   0.802
 9072SOL    HW228116   6.644   3.605   0.764
 9073SOL     OW28117   1.625   0.244   1.887
 9073SOL    HW128118   1.701   0.296   1.848
 9073SOL    HW228119   1.650   0.147   1.892
 9074SOL     OW28120   1.565   0.653   2.607
 9074SOL    HW128121   1.576   0.560   2.642
 9074SOL    HW228122   1.589   0.719   2.678
 9075SOL     OW28123   6.441   0.457   2.060
 9075SOL    HW128124   6.354   0.506   2.057
 9075SOL    HW228125   6.439   0.391   2.136
 9076SOL     OW28126   0.574   1.067   6.301
 9076SOL    HW128127   0.599   1.006   6.375
 9076SOL    HW228128   0.498   1.126   6.330
 9077SOL     OW28129   4.566   6.557   2.265
 9077SOL    HW128130   4.513   6.473   2.280
 9077SOL    HW228131   4.509   6.625   2.220
 9078SOL     OW28132   4.061   3.448   5.045
 9078SOL    HW128133   4.131   3.452   4.973
 9078SOL    HW228134   4.063   3.359   5.089
 9079SOL     OW28135   3.250   0.428   4.336
 9079SOL    HW128136   3.293   0.515   4.311
 9079SOL    HW228137   3.151   0.441   4.343
 9080SOL     OW28138   5.200   2.147   6.733
 9080SOL    HW128139   5.202   2.142   6.833
 9080SOL    HW228140   5.142   2.223   6.705
 9081SOL     OW28141   5.303   6.273   2.948
 9081SOL    HW128142   5.320   6.371   2.941
 9081SOL    HW228143   5.251   6.254   3.031
 9082SOL     OW28144   2.237   0.337   3.769
 9082SOL    HW128145   2.181   0.263   3.730
 9082SOL    HW228146   2.261   0.314   3.863
 9083SOL     OW28147   5.159   4.749   5.462
 9083SOL    HW128148   5.175   4.650   5.462
 9083SOL    HW228149   5.107   4.774   5.380
 9084SOL     OW28150   3.235   3.578   3.095
 9084SOL    HW128151   3.306   3.648   3.107
 9084SOL    HW228152   3.183   3.598   3.012
 9085SOL     OW28153   2.275   1.056   0.804
 9085SOL    HW128154   2.218   1.119   0.751
 9085SOL    HW228155   2.369   1.090   0.806
 9086SOL     OW28156   0.803   3.944   0.495
 9086SOL    HW128157   0.733   3.985   0.437
 9086SOL    HW228158   0.781   3.959   0.591
 9087SOL     OW28159   4.841   3.069   2.614
 9087SOL    HW128160   4.885   2.996   2.562
 9087SOL    HW228161   4.890   3.155   2.599
 9088SOL     OW28162   6.285   0.250   0.033
 9088SOL    HW128163   6.293   0.328   0.096
 9088SOL    HW228164   6.230   0.179   0.076
 9089SOL     OW28165   4.949   6.193   6.054
 9089SOL    HW128166   4.935   6.277   6.107
 9089SOL    HW228167   5.030   6.203   5.997
 9090SOL     OW28168   6.157   0.521   4.877
 9090SOL    HW128169   6.101   0.603   4.888
 9090SOL    HW228170   6.254   0.546   4.879
 9091SOL     OW28171   3.001   4.088   6.618
 9091SOL    HW128172   2.943   4.112   6.696
 9091SOL    HW228173   2.954   4.113   6.533
 9092SOL     OW28174   6.896   1.789   6.860
 9092SOL    HW128175   6.872   1.769   6.955
 9092SOL    HW228176   6.913   1.888   6.851
 9093SOL     OW28177   1.460   6.418   5.454
 9093SOL    HW128178   1.428   6.333   5.497
 9093SOL    HW228179   1.382   6.475   5.429
 9094SOL     OW28180   0.607   3.141   2.387
 9094SOL    HW128181   0.661   3.224   2.398
 9094SOL    HW228182   0.518   3.163   2.345
 9095SOL     OW28183   4.519   5.054   5.736
 9095SOL    HW128184   4.488   4.963   5.765
 9095SOL    HW228185   4.618   5.060   5.749
 9096SOL     OW28186   6.494   5.452   3.340
 9096SOL    HW128187   6.485   5.504   3.425
 9096SOL    HW228188   6.590   5.441   3.317
 9097SOL     OW28189   0.632   2.537   6.248
 9097SOL    HW128190   0.731   2.539   6.260
 9097SOL    HW228191   0.604   2.448   6.211
 9098SOL     OW28192   2.216   2.209   5.077
 9098SOL    HW128193   2.258   2.120   5.092
 9098SOL    HW228194   2.187   2.248   5.164
 9099SOL     OW28195   2.014   3.187   5.725
 9099SOL    HW128196   2.043   3.096   5.756
 9099SOL    HW228197   2.064   3.212   5.643
 9100SOL     OW28198   1.543   4.062   2.245
 9100SOL    HW128199   1.456   4.014   2.245
 9100SOL    HW228200   1.527   4.160   2.235
 9101SOL     OW28201   2.967   1.230   2.022
 9101SOL    HW128202   2.915   1.253   1.939
 9101SOL    HW228203   2.984   1.313   2.075
 9102SOL     OW28204   4.850   6.422   2.663
 9102SOL    HW128205   4.867   6.388   2.571
 9102SOL    HW228206   4.775   6.489   2.661
 9103SOL     OW28207   6.401   1.798   6.753
 9103SOL    HW128208   6.444   1.883   6.781
 9103SOL    HW228209   6.307   1.795   6.787
 9104SOL     OW28210   0.453   0.707   0.511
 9104SOL    HW128211   0.535   0.764   0.514
 9104SOL    HW228212   0.432   0.673   0.602
 9105SOL     OW28213   2.129   0.103   5.920
 9105SOL    HW128214   2.079   0.152   5.848
 9105SOL    HW228215   2.112   0.147   6.008
 9106SOL     OW28216   0.755   4.270   0.135
 9106SOL    HW128217   0.806   4.253   0.050
 9106SOL    HW228218   0.658   4.254   0.119
 9107SOL     OW28219   2.637   0.903   6.283
 9107SOL    HW128220   2.715   0.856   6.323
 9107SOL    HW228221   2.662   0.997   6.259
 9108SOL     OW28222   5.286   5.425   5.340
 9108SOL    HW128223   5.225   5.464   5.408
 9108SOL    HW228224   5.257   5.331   5.319
 9109SOL     OW28225   5.438   2.810   2.060
 9109SOL    HW128226   5.537   2.819   2.048
 9109SOL    HW228227   5.420   2.735   2.124
 9110SOL     OW28228   1.603   5.603   5.434
 9110SOL    HW128229   1.566   5.696   5.438
 9110SOL    HW228230   1.702   5.606   5.426
 9111SOL     OW28231   4.764   2.913   5.270
 9111SOL    HW128232   4.849   2.873   5.303
 9111SOL    HW228233   4.687   2.862   5.309
 9112SOL     OW28234   2.110   4.964   3.264
 9112SOL    HW128235   2.116   5.034   3.192
 9112SOL    HW228236   2.049   4.891   3.234
 9113SOL     OW28237   5.059   1.997   3.035
 9113SOL    HW128238   5.093   2.054   2.961
 9113SOL    HW228239   5.078   1.901   3.014
 9114SOL     OW28240   1.519   6.132   5.030
 9114SOL    HW128241   1.542   6.216   4.982
 9114SOL    HW228242   1.601   6.078   5.045
 9115SOL     OW28243   5.876   4.693   3.682
 9115SOL    HW128244   5.815   4.771   3.670
 9115SOL    HW228245   5.935   4.684   3.602
 9116SOL     OW28246   0.907   6.633   3.269
 9116SOL    HW128247   0.992   6.587   3.291
 9116SOL    HW228248   0.861   6.660   3.353
 9117SOL     OW28249   4.195   0.848   6.830
 9117SOL    HW128250   4.109   0.880   6.792
 9117SOL    HW228251   4.192   0.748   6.842
 9118SOL     OW28252   6.048   4.216   0.432
 9118SOL    HW128253   5.976   4.172   0.378
 9118SOL    HW228254   6.137   4.200   0.389
 9119SOL     OW28255   3.591   6.706   1.229
 9119SOL    HW128256   3.605   6.626   1.170
 9119SOL    HW228257   3.552   6.780   1.175
 9120SOL     OW28258   5.964   2.785   5.937
 9120SOL    HW128259   5.983   2.711   5.873
 9120SOL    HW228260   5.883   2.835   5.906
 9121SOL     OW28261   3.580   0.221   5.580
 9121SOL    HW128262   3.532   0.176   5.655
 9121SOL    HW228263   3.585   0.319   5.598
 9122SOL     OW28264   2.537   4.487   1.801
 9122SOL    HW128265   2.560   4.404   1.750
 9122SOL    HW228266   2.621   4.540   1.817
 9123SOL     OW28267   0.923   0.767   3.353
 9123SOL    HW128268   0.943   0.857   3.392
 9123SOL    HW228269   0.914   0.700   3.426
 9124SOL     OW28270   3.269   4.981   1.525
 9124SOL    HW128271   3.347   4.920   1.536
 9124SOL    HW228272   3.302   5.074   1.506
 9125SOL     OW28273   3.665   6.804   0.515
 9125SOL    HW128274   3.604   6.725   0.508
 9125SOL    HW228275   3.760   6.774   0.511
 9126SOL     OW28276   4.090   5.082   0.353
 9126SOL    HW128277   4.155   5.091   0.277
 9126SOL    HW228278   4.073   4.985   0.371
 9127SOL     OW28279   7.006   3.210   5.330
 9127SOL    HW128280   7.009   3.110   5.327
 9127SOL    HW228281   6.916   3.240   5.363
 9128SOL     OW28282   6.026   2.911   4.883
 9128SOL    HW128283   6.022   3.008   4.907
 9128SOL    HW228284   5.973   2.894   4.801
 9129SOL     OW28285   2.307   1.576   0.349
 9129SOL    HW128286   2.254   1.655   0.382
 9129SOL    HW228287   2.393   1.608   0.309
 9130SOL     OW28288   2.995   4.150   5.396
 9130SOL    HW128289   2.942   4.094   5.333
 9130SOL    HW228290   3.015   4.239   5.354
 9131SOL     OW28291   6.006   2.702   0.599
 9131SOL    HW128292   6.077   2.771   0.610
 9131SOL    HW228293   5.976   2.670   0.689
 9132SOL     OW28294   0.968   3.929   3.665
 9132SOL    HW128295   0.892   3.980   3.705
 9132SOL    HW228296   1.038   3.912   3.735
 9133SOL     OW28297   4.497   0.878   0.972
 9133SOL    HW128298   4.544   0.912   1.053
 9133SOL    HW228299   4.399   0.872   0.990
 9134SOL     OW28300   4.469   5.379   1.004
 9134SOL    HW128301   4.485   5.465   0.956
 9134SOL    HW228302   4.549   5.357   1.060
 9135SOL     OW28303   1.011   6.315   2.195
 9135SOL    HW128304   0.964   6.342   2.279
 9135SOL    HW228305   0.944   6.297   2.123
 9136SOL     OW28306   5.902   4.497   6.432
 9136SOL    HW128307   5.893   4.533   6.339
 9136SOL    HW228308   5.951   4.564   6.489
 9137SOL     OW28309   4.382   6.145   0.038
 9137SOL    HW128310   4.481   6.157   0.042
 9137SOL    HW228311   4.360   6.053   0.005
 9138SOL     OW28312   3.166   3.215   0.882
 9138SOL    HW128313   3.181   3.288   0.816
 9138SOL    HW228314   3.227   3.229   0.960
 9139SOL     OW28315   6.979   0.425   1.175
 9139SOL    HW128316   6.970   0.522   1.195
 9139SOL    HW228317   6.937   0.371   1.247
 9140SOL     OW28318   0.394   4.548   2.393
 9140SOL    HW128319   0.331   4.510   2.461
 9140SOL    HW228320   0.430   4.474   2.336
 9141SOL     OW28321   6.614   5.443   6.285
 9141SOL    HW128322   6.533   5.501   6.288
 9141SOL    HW228323   6.694   5.499   6.262
 9142SOL     OW28324   1.120   4.031   2.992
 9142SOL    HW128325   1.084   4.093   2.922
 9142SOL    HW228326   1.214   4.004   2.968
 9143SOL     OW28327   0.401   3.361   3.012
 9143SOL    HW128328   0.333   3.343   2.940
 9143SOL    HW228329   0.428   3.457   3.010
 9144SOL     OW28330   2.985   4.775   5.484
 9144SOL    HW128331   2.890   4.752   5.463
 9144SOL    HW228332   3.046   4.718   5.428
 9145SOL     OW28333   1.350   6.838   6.209
 9145SOL    HW128334   1.410   6.819   6.287
 9145SOL    HW228335   1.255   6.837   6.239
 9146SOL     OW28336   5.727   3.467   3.370
 9146SOL    HW128337   5.683   3.522   3.299
 9146SOL    HW228338   5.751   3.526   3.447
 9147SOL     OW28339   4.993   0.540   4.273
 9147SOL    HW128340   5.020   0.577   4.184
 9147SOL    HW228341   4.894   0.551   4.285
 9148SOL     OW28342   6.265   6.842   1.445
 9148SOL    HW128343   6.341   6.906   1.446
 9148SOL    HW228344   6.232   6.827   1.538
 9149SOL     OW28345   6.489   4.265   1.168
 9149SOL    HW128346   6.458   4.349   1.125
 9149SOL    HW228347   6.578   4.281   1.212
 9150SOL     OW28348   2.794   3.379   6.910
 9150SOL    HW128349   2.725   3.423   6.852
 9150SOL    HW228350   2.867   3.342   6.853
 9151SOL     OW28351   1.577   3.575   3.405
 9151SOL    HW128352   1.556   3.611   3.496
 9151SOL    HW228353   1.601   3.651   3.344
 9152SOL     OW28354   1.984   4.230   4.143
 9152SOL    HW128355   2.027   4.320   4.135
 9152SOL    HW228356   1.977   4.205   4.240
 9153SOL     OW28357   0.230   3.014   6.536
 9153SOL    HW128358   0.293   3.086   6.506
 9153SOL    HW228359   0.145   3.056   6.569
 9154SOL     OW28360   6.025   5.076   3.120
 9154SOL    HW128361   5.995   5.130   3.198
 9154SOL    HW228362   6.112   5.031   3.142
 9155SOL     OW28363   0.342   5.813   3.027
 9155SOL    HW128364   0.416   5.854   3.080
 9155SOL    HW228365   0.370   5.804   2.931
 9156SOL     OW28366   6.727   3.957   6.935
 9156SOL    HW128367   6.796   3.891   6.905
 9156SOL    HW228368   6.685   3.925   7.020
 9157SOL     OW28369   2.891   4.921   6.045
 9157SOL    HW128370   2.935   4.848   5.993
 9157SOL    HW228371   2.960   4.972   6.096
 9158SOL     OW28372   0.158   3.537   4.060
 9158SOL    HW128373   0.086   3.579   4.005
 9158SOL    HW228374   0.220   3.486   4.000
 9159SOL     OW28375   3.665   0.847   3.263
 9159SOL    HW128376   3.742   0.796   3.225
 9159SOL    HW228377   3.680   0.945   3.250
 9160SOL     OW28378   0.389   4.518   6.787
 9160SOL    HW128379   0.338   4.446   6.836
 9160SOL    HW228380   0.372   4.606   6.831
 9161SOL     OW28381   6.183   4.008   1.521
 9161SOL    HW128382   6.251   4.071   1.483
 9161SOL    HW228383   6.096   4.022   1.474
 9162SOL     OW28384   4.775   1.933   2.333
 9162SOL    HW128385   4.702   1.868   2.311
 9162SOL    HW228386   4.740   2.005   2.393
 9163SOL     OW28387   1.644   2.649   3.459
 9163SOL    HW128388   1.640   2.675   3.362
 9163SOL    HW228389   1.554   2.660   3.500
 9164SOL     OW28390   2.457   0.690   6.896
 9164SOL    HW128391   2.374   0.702   6.949
 9164SOL    HW228392   2.435   0.649   6.807
 9165SOL     OW28393   5.252   2.563   5.612
 9165SOL    HW128394   5.331   2.511   5.580
 9165SOL    HW228395   5.260   2.658   5.580
 9166SOL     OW28396   5.008   5.352   1.724
 9166SOL    HW128397   5.028   5.379   1.818
 9166SOL    HW228398   4.916   5.314   1.719
 9167SOL     OW28399   1.865   0.904   5.327
 9167SOL    HW128400   1.798   0.862   5.387
 9167SOL    HW228401   1.938   0.839   5.306
 9168SOL     OW28402   6.882   6.260   4.583
 9168SOL    HW128403   6.803   6.249   4.522
 9168SOL    HW228404   6.951   6.192   4.561
 9169SOL     OW28405   6.372   6.101   0.640
 9169SOL    HW128406   6.282   6.065   0.664
 9169SOL    HW228407   6.378   6.109   0.540
 9170SOL     OW28408   1.664   1.391   5.309
 9170SOL    HW128409   1.762   1.377   5.320
 9170SOL    HW228410   1.619   1.302   5.300
 9171SOL     OW28411   3.287   4.880   0.908
 9171SOL    HW128412   3.240   4.885   0.820
 9171SOL    HW228413   3.328   4.969   0.928
 9172SOL     OW28414   5.164   1.461   4.293
 9172SOL    HW128415   5.163   1.537   4.229
 9172SOL    HW228416   5.108   1.483   4.373
 9173SOL     OW28417   6.385   2.691   4.105
 9173SOL    HW128418   6.408   2.736   4.191
 9173SOL    HW228419   6.449   2.616   4.088
 9174SOL     OW28420   6.870   5.478   0.246
 9174SOL    HW128421   6.927   5.515   0.320
 9174SOL    HW228422   6.854   5.550   0.178
 9175SOL     OW28423   1.466   6.905   6.689
 9175SOL    HW128424   1.453   7.004   6.695
 9175SOL    HW228425   1.377   6.859   6.691
 9176SOL     OW28426   1.163   1.502   2.438
 9176SOL    HW128427   1.210   1.570   2.382
 9176SOL    HW228428   1.217   1.484   2.520
 9177SOL     OW28429   0.333   4.420   4.029
 9177SOL    HW128430   0.412   4.386   3.977
 9177SOL    HW228431   0.265   4.348   4.038
 9178SOL     OW28432   1.573   6.516   0.540
 9178SOL    HW128433   1.639   6.592   0.533
 9178SOL    HW228434   1.535   6.497   0.449
 9179SOL     OW28435   4.330   5.946   5.059
 9179SOL    HW128436   4.424   5.980   5.074
 9179SOL    HW228437   4.295   5.983   4.973
 9180SOL     OW28438   0.282   1.277   4.147
 9180SOL    HW128439   0.293   1.178   4.147
 9180SOL    HW228440   0.242   1.306   4.235
 9181SOL     OW28441   3.678   1.940   3.648
 9181SOL    HW128442   3.700   2.037   3.632
 9181SOL    HW228443   3.724   1.908   3.730
 9182SOL     OW28444   1.664   1.052   3.356
 9182SOL    HW128445   1.637   1.146   3.377
 9182SOL    HW228446   1.763   1.049   3.340
 9183SOL     OW28447   6.115   2.638   5.685
 9183SOL    HW128448   6.053   2.656   5.609
 9183SOL    HW228449   6.174   2.718   5.699
 9184SOL     OW28450   3.794   3.148   1.132
 9184SOL    HW128451   3.729   3.104   1.194
 9184SOL    HW228452   3.875   3.177   1.184
 9185SOL     OW28453   0.844   0.262   6.258
 9185SOL    HW128454   0.783   0.214   6.322
 9185SOL    HW228455   0.882   0.196   6.193
 9186SOL     OW28456   5.568   0.721   6.097
 9186SOL    HW128457   5.566   0.751   6.002
 9186SOL    HW228458   5.662   0.710   6.127
 9187SOL     OW28459   5.284   1.585   0.149
 9187SOL    HW128460   5.269   1.491   0.179
 9187SOL    HW228461   5.368   1.621   0.191
 9188SOL     OW28462   0.859   0.432   1.970
 9188SOL    HW128463   0.907   0.347   1.991
 9188SOL    HW228464   0.761   0.416   1.968
 9189SOL     OW28465   3.809   1.601   3.695
 9189SOL    HW128466   3.804   1.685   3.749
 9189SOL    HW228467   3.761   1.528   3.743
 9190SOL     OW28468   6.063   3.809   5.271
 9190SOL    HW128469   5.999   3.839   5.342
 9190SOL    HW228470   6.046   3.862   5.188
 9191SOL     OW28471   5.503   6.192   6.699
 9191SOL    HW128472   5.437   6.121   6.724
 9191SOL    HW228473   5.594   6.151   6.689
 9192SOL     OW28474   6.555   4.357   5.576
 9192SOL    HW128475   6.529   4.425   5.645
 9192SOL    HW228476   6.630   4.301   5.611
 9193SOL     OW28477   3.445   3.081   3.678
 9193SOL    HW128478   3.495   3.001   3.647
 9193SOL    HW228479   3.383   3.056   3.752
 9194SOL     OW28480   2.620   5.267   3.192
 9194SOL    HW128481   2.575   5.238   3.277
 9194SOL    HW228482   2.716   5.240   3.195
 9195SOL     OW28483   0.142   3.126   2.947
 9195SOL    HW128484   0.067   3.101   3.008
 9195SOL    HW228485   0.146   3.226   2.938
 9196SOL     OW28486   4.883   0.271   3.470
 9196SOL    HW128487   4.891   0.179   3.510
 9196SOL    HW228488   4.923   0.338   3.532
 9197SOL     OW28489   3.301   3.228   6.246
 9197SOL    HW128490   3.342   3.155   6.193
 9197SOL    HW228491   3.346   3.235   6.336
 9198SOL     OW28492   6.039   2.998   5.411
 9198SOL    HW128493   6.039   2.901   5.387
 9198SOL    HW228494   6.060   3.009   5.508
 9199SOL     OW28495   1.240   4.121   6.777
 9199SOL    HW128496   1.225   4.052   6.706
 9199SOL    HW228497   1.276   4.204   6.736
 9200SOL     OW28498   6.449   0.304   0.541
 9200SOL    HW128499   6.406   0.263   0.622
 9200SOL    HW228500   6.483   0.395   0.564
 9201SOL     OW28501   0.501   3.722   2.151
 9201SOL    HW128502   0.500   3.633   2.105
 9201SOL    HW228503   0.514   3.709   2.249
 9202SOL     OW28504   3.270   5.461   4.365
 9202SOL    HW128505   3.363   5.496   4.372
 9202SOL    HW228506   3.271   5.361   4.375
 9203SOL     OW28507   5.141   0.874   5.471
 9203SOL    HW128508   5.120   0.930   5.391
 9203SOL    HW228509   5.064   0.875   5.534
 9204SOL     OW28510   4.924   4.123   2.768
 9204SOL    HW128511   4.922   4.025   2.747
 9204SOL    HW228512   4.853   4.144   2.836
 9205SOL     OW28513   5.175   2.688   2.515
 9205SOL    HW128514   5.269   2.718   2.495
 9205SOL    HW228515   5.140   2.635   2.437
 9206SOL     OW28516   0.741   6.351   3.365
 9206SOL    HW128517   0.806   6.387   3.298
 9206SOL    HW228518   0.790   6.323   3.447
 9207SOL     OW28519   4.136   6.482   0.542
 9207SOL    HW128520   4.089   6.537   0.473
 9207SOL    HW228521   4.235   6.491   0.531
 9208SOL     OW28522   5.231   3.668   1.901
 9208SOL    HW128523   5.206   3.608   1.825
 9208SOL    HW228524   5.155   3.730   1.921
 9209SOL     OW28525   4.410   1.106   2.203
 9209SOL    HW128526   4.501   1.068   2.220
 9209SOL    HW228527   4.374   1.067   2.119
 9210SOL     OW28528   1.281   7.023   1.158
 9210SOL    HW128529   1.247   0.021   1.067
 9210SOL    HW228530   1.341   6.944   1.152
 9211SOL     OW28531   5.139   1.545   6.784
 9211SOL    HW128532   5.085   1.600   6.719
 9211SOL    HW228533   5.126   1.581   6.876
 9212SOL     OW28534   5.434   3.540   4.584
 9212SOL    HW128535   5.481   3.587   4.509
 9212SOL    HW228536   5.432   3.442   4.566
 9213SOL     OW28537   5.955   6.754   3.345
 9213SOL    HW128538   5.988   6.746   3.439
 9213SOL    HW228539   5.993   6.680   3.290
 9214SOL     OW28540   2.379   2.274   4.814
 9214SOL    HW128541   2.301   2.303   4.870
 9214SOL    HW228542   2.459   2.330   4.836
 9215SOL     OW28543   0.521   3.676   2.692
 9215SOL    HW128544   0.617   3.655   2.711
 9215SOL    HW228545   0.475   3.593   2.659
 9216SOL     OW28546   2.127   5.872   4.835
 9216SOL    HW128547   2.142   5.930   4.754
 9216SOL    HW228548   2.103   5.780   4.805
 9217SOL     OW28549   4.382   1.191   6.496
 9217SOL    HW128550   4.317   1.152   6.430
 9217SOL    HW228551   4.345   1.275   6.534
 9218SOL     OW28552   5.878   5.745   5.663
 9218SOL    HW128553   5.945   5.679   5.697
 9218SOL    HW228554   5.812   5.698   5.605
 9219SOL     OW28555   3.635   2.794   5.431
 9219SOL    HW128556   3.609   2.867   5.368
 9219SOL    HW228557   3.638   2.707   5.381
 9220SOL     OW28558   1.665   6.310   3.014
 9220SOL    HW128559   1.715   6.356   2.941
 9220SOL    HW228560   1.667   6.211   2.999
 9221SOL     OW28561   2.569   0.786   6.518
 9221SOL    HW128562   2.628   0.822   6.590
 9221SOL    HW228563   2.591   0.832   6.432
 9222SOL     OW28564   1.310   3.950   3.393
 9222SOL    HW128565   1.250   4.006   3.336
 9222SOL    HW228566   1.285   3.854   3.384
 9223SOL     OW28567   1.076   3.544   4.495
 9223SOL    HW128568   1.076   3.604   4.575
 9223SOL    HW228569   1.157   3.485   4.497
 9224SOL     OW28570   1.894   3.883   4.310
 9224SOL    HW128571   1.863   3.789   4.322
 9224SOL    HW228572   1.986   3.883   4.271
 9225SOL     OW28573   4.693   6.896   6.794
 9225SOL    HW128574   4.736   6.837   6.861
 9225SOL    HW228575   4.711   6.861   6.702
 9226SOL     OW28576   0.652   0.877   0.455
 9226SOL    HW128577   0.577   0.938   0.482
 9226SOL    HW228578   0.739   0.918   0.483
 9227SOL     OW28579   2.633   5.540   1.080
 9227SOL    HW128580   2.668   5.450   1.053
 9227SOL    HW228581   2.684   5.573   1.160
 9228SOL     OW28582   3.012   2.758   5.753
 9228SOL    HW128583   2.957   2.702   5.816
 9228SOL    HW228584   3.042   2.841   5.800
 9229SOL     OW28585   7.020   4.704   6.834
 9229SOL    HW128586   0.019   4.642   6.909
 9229SOL    HW228587   0.026   4.796   6.855
 9230SOL     OW28588   4.761   2.094   4.131
 9230SOL    HW128589   4.725   2.175   4.176
 9230SOL    HW228590   4.837   2.120   4.071
 9231SOL     OW28591   0.235   5.705   4.288
 9231SOL    HW128592   0.138   5.704   4.312
 9231SOL    HW228593   0.290   5.695   4.371
 9232SOL     OW28594   1.208   5.560   1.887
 9232SOL    HW128595   1.179   5.637   1.829
 9232SOL    HW228596   1.218   5.478   1.831
 9233SOL     OW28597   1.005   0.009   0.282
 9233SOL    HW128598   1.021   0.103   0.314
 9233SOL    HW228599   0.913   0.002   0.243
 9234SOL     OW28600   2.200   4.528   0.718
 9234SOL    HW128601   2.292   4.516   0.681
 9234SOL    HW228602   2.205   4.581   0.803
 9235SOL     OW28603   2.597   2.149   4.149
 9235SOL    HW128604   2.577   2.121   4.055
 9235SOL    HW228605   2.604   2.249   4.153
 9236SOL     OW28606   2.232   3.843   6.603
 9236SOL    HW128607   2.296   3.834   6.680
 9236SOL    HW228608   2.169   3.918   6.621
 9237SOL     OW28609   6.488   5.008   3.761
 9237SOL    HW128610   6.584   5.008   3.733
 9237SOL    HW228611   6.430   5.011   3.679
 9238SOL     OW28612   1.667   3.092   5.347
 9238SOL    HW128613   1.761   3.087   5.382
 9238SOL    HW228614   1.644   3.187   5.327
 9239SOL     OW28615   0.532   4.878   0.118
 9239SOL    HW128616   0.438   4.861   0.089
 9239SOL    HW228617   0.573   4.947   0.058
 9240SOL     OW28618   4.585   2.430   2.556
 9240SOL    HW128619   4.568   2.503   2.490
 9240SOL    HW228620   4.589   2.468   2.648
 9241SOL     OW28621   5.744   6.842   0.950
 9241SOL    HW128622   5.716   6.848   1.046
 9241SOL    HW228623   5.775   6.748   0.931
 9242SOL     OW28624   1.120   2.620   0.942
 9242SOL    HW128625   1.129   2.568   0.857
 9242SOL    HW228626   1.048   2.689   0.931
 9243SOL     OW28627   1.024   0.637   0.139
 9243SOL    HW128628   0.965   0.660   0.062
 9243SOL    HW228629   1.119   0.660   0.117
 9244SOL     OW28630   4.298   6.356   4.996
 9244SOL    HW128631   4.199   6.340   4.997
 9244SOL    HW228632   4.340   6.300   4.924
 9245SOL     OW28633   0.871   4.332   3.057
 9245SOL    HW128634   0.954   4.385   3.077
 9245SOL    HW228635   0.835   4.360   2.968
 9246SOL     OW28636   6.739   0.733   4.931
 9246SOL    HW128637   6.743   0.636   4.954
 9246SOL    HW228638   6.759   0.788   5.012
 9247SOL     OW28639   3.921   5.723   3.650
 9247SOL    HW128640   3.954   5.816   3.663
 9247SOL    HW228641   3.899   5.708   3.553
 9248SOL     OW28642   2.719   1.099   5.332
 9248SOL    HW128643   2.768   1.162   5.272
 9248SOL    HW228644   2.621   1.117   5.325
 9249SOL     OW28645   3.906   5.196   1.757
 9249SOL    HW128646   3.858   5.274   1.717
 9249SOL    HW228647   3.841   5.141   1.809
 9250SOL     OW28648   0.225   3.058   3.964
 9250SOL    HW128649   0.126   3.057   3.978
 9250SOL    HW228650   0.262   2.966   3.978
 9251SOL     OW28651   3.047   2.976   0.876
 9251SOL    HW128652   3.080   3.070   0.883
 9251SOL    HW228653   3.070   2.926   0.959
 9252SOL     OW28654   5.588   0.514   5.757
 9252SOL    HW128655   5.554   0.512   5.663
 9252SOL    HW228656   5.654   0.589   5.768
 9253SOL     OW28657   0.832   4.693   5.581
 9253SOL    HW128658   0.919   4.698   5.533
 9253SOL    HW228659   0.781   4.778   5.568
 9254SOL     OW28660   6.562   5.134   3.411
 9254SOL    HW128661   6.628   5.176   3.348
 9254SOL    HW228662   6.573   5.174   3.502
 9255SOL     OW28663   6.722   4.537   0.840
 9255SOL    HW128664   6.694   4.484   0.920
 9255SOL    HW228665   6.777   4.615   0.870
 9256SOL     OW28666   1.601   6.513   1.352
 9256SOL    HW128667   1.629   6.419   1.329
 9256SOL    HW228668   1.623   6.532   1.447
 9257SOL     OW28669   6.829   5.723   4.115
 9257SOL    HW128670   6.744   5.680   4.143
 9257SOL    HW228671   6.893   5.653   4.082
 9258SOL     OW28672   3.725   4.615   0.834
 9258SOL    HW128673   3.734   4.531   0.888
 9258SOL    HW228674   3.655   4.602   0.764
 9259SOL     OW28675   2.235   1.903   6.631
 9259SOL    HW128676   2.235   2.003   6.637
 9259SOL    HW228677   2.142   1.869   6.643
 9260SOL     OW28678   5.445   3.281   4.792
 9260SOL    HW128679   5.540   3.270   4.761
 9260SOL    HW228680   5.431   3.229   4.876
 9261SOL     OW28681   3.853   2.311   1.673
 9261SOL    HW128682   3.900   2.228   1.701
 9261SOL    HW228683   3.772   2.325   1.730
 9262SOL     OW28684   6.199   5.987   3.622
 9262SOL    HW128685   6.156   6.047   3.690
 9262SOL    HW228686   6.292   5.966   3.651
 9263SOL     OW28687   2.001   4.090   3.893
 9263SOL    HW128688   1.978   4.143   3.975
 9263SOL    HW228689   1.979   3.993   3.909
 9264SOL     OW28690   4.565   3.842   6.878
 9264SOL    HW128691   4.616   3.760   6.904
 9264SOL    HW228692   4.499   3.865   6.949
 9265SOL     OW28693   5.356   2.261   0.314
 9265SOL    HW128694   5.448   2.285   0.345
 9265SOL    HW228695   5.296   2.248   0.393
 9266SOL     OW28696   0.142   4.042   1.067
 9266SOL    HW128697   0.078   3.974   1.102
 9266SOL    HW228698   0.117   4.066   0.973
 9267SOL     OW28699   0.542   1.094   4.278
 9267SOL    HW128700   0.520   1.165   4.345
 9267SOL    HW228701   0.458   1.052   4.245
 9268SOL     OW28702   0.551   6.810   2.199
 9268SOL    HW128703   0.580   6.836   2.291
 9268SOL    HW228704   0.624   6.759   2.154
 9269SOL     OW28705   3.661   0.705   1.249
 9269SOL    HW128706   3.645   0.658   1.162
 9269SOL    HW228707   3.721   0.649   1.307
 9270SOL     OW28708   2.041   1.012   5.951
 9270SOL    HW128709   2.053   1.071   6.031
 9270SOL    HW228710   2.062   0.918   5.977
 9271SOL     OW28711   1.417   0.278   5.294
 9271SOL    HW128712   1.488   0.207   5.287
 9271SOL    HW228713   1.327   0.234   5.294
 9272SOL     OW28714   6.647   6.312   6.053
 9272SOL    HW128715   6.709   6.263   6.113
 9272SOL    HW228716   6.595   6.247   5.998
 9273SOL     OW28717   4.523   5.080   4.669
 9273SOL    HW128718   4.476   5.153   4.620
 9273SOL    HW228719   4.516   5.097   4.768
 9274SOL     OW28720   0.891   3.280   0.139
 9274SOL    HW128721   0.830   3.241   0.070
 9274SOL    HW228722   0.975   3.227   0.143
 9275SOL     OW28723   0.635   6.951   0.902
 9275SOL    HW128724   0.638   6.987   0.995
 9275SOL    HW228725   0.703   6.878   0.892
 9276SOL     OW28726   3.443   5.000   0.224
 9276SOL    HW128727   3.449   5.072   0.155
 9276SOL    HW228728   3.454   4.911   0.182
 9277SOL     OW28729   5.309   5.140   2.459
 9277SOL    HW128730   5.344   5.060   2.507
 9277SOL    HW228731   5.227   5.174   2.506
 9278SOL     OW28732   0.709   0.948   4.731
 9278SOL    HW128733   0.643   0.984   4.796
 9278SOL    HW228734   0.674   0.864   4.689
 9279SOL     OW28735   4.441   5.783   1.620
 9279SOL    HW128736   4.346   5.800   1.645
 9279SOL    HW228737   4.472   5.697   1.660
 9280SOL     OW28738   1.642   0.803   2.817
 9280SOL    HW128739   1.717   0.835   2.875
 9280SOL    HW228740   1.555   0.817   2.865
 9281SOL     OW28741   3.327   4.666   0.168
 9281SOL    HW128742   3.258   4.728   0.132
 9281SOL    HW228743   3.311   4.651   0.266
 9282SOL     OW28744   3.045   0.237   4.747
 9282SOL    HW128745   3.057   0.243   4.846
 9282SOL    HW228746   3.134   0.226   4.703
 9283SOL     OW28747   4.748   6.462   6.863
 9283SOL    HW128748   4.752   6.485   6.766
 9283SOL    HW228749   4.711   6.370   6.874
 9284SOL     OW28750   3.157   4.152   5.100
 9284SOL    HW128751   3.116   4.222   5.159
 9284SOL    HW228752   3.256   4.167   5.094
 9285SOL     OW28753   6.803   4.147   2.358
 9285SOL    HW128754   6.890   4.190   2.333
 9285SOL    HW228755   6.786   4.160   2.456
 9286SOL     OW28756   4.714   5.528   1.522
 9286SOL    HW128757   4.671   5.478   1.447
 9286SOL    HW228758   4.671   5.502   1.608
 9287SOL     OW28759   3.233   4.477   5.905
 9287SOL    HW128760   3.166   4.407   5.927
 9287SOL    HW228761   3.228   4.500   5.808
 9288SOL     OW28762   4.451   2.261   3.482
 9288SOL    HW128763   4.356   2.293   3.490
 9288SOL    HW228764   4.478   2.216   3.568
 9289SOL     OW28765   4.742   6.485   6.546
 9289SOL    HW128766   4.777   6.431   6.469
 9289SOL    HW228767   4.643   6.478   6.549
 9290SOL     OW28768   5.377   0.178   4.545
 9290SOL    HW128769   5.384   0.180   4.645
 9290SOL    HW228770   5.283   0.201   4.518
 9291SOL     OW28771   1.567   5.044   5.809
 9291SOL    HW128772   1.617   5.051   5.723
 9291SOL    HW228773   1.488   5.105   5.806
 9292SOL     OW28774   1.702   1.993   6.096
 9292SOL    HW128775   1.768   1.986   6.170
 9292SOL    HW228776   1.711   2.082   6.051
 9293SOL     OW28777   5.115   2.942   5.965
 9293SOL    HW128778   5.075   2.871   6.024
 9293SOL    HW228779   5.060   3.025   5.972
 9294SOL     OW28780   4.626   1.375   0.325
 9294SOL    HW128781   4.724   1.357   0.324
 9294SOL    HW228782   4.588   1.357   0.235
 9295SOL     OW28783   0.912   1.519   5.666
 9295SOL    HW128784   0.942   1.431   5.631
 9295SOL    HW228785   0.850   1.562   5.601
 9296SOL     OW28786   2.286   4.446   0.135
 9296SOL    HW128787   2.307   4.392   0.054
 9296SOL    HW228788   2.354   4.427   0.206
 9297SOL     OW28789   5.851   6.562   2.955
 9297SOL    HW128790   5.904   6.525   2.879
 9297SOL    HW228791   5.888   6.650   2.983
 9298SOL     OW28792   1.549   6.226   5.916
 9298SOL    HW128793   1.603   6.280   5.980
 9298SOL    HW228794   1.489   6.164   5.966
 9299SOL     OW28795   2.114   2.754   4.839
 9299SOL    HW128796   2.071   2.759   4.929
 9299SOL    HW228797   2.112   2.660   4.805
 9300SOL     OW28798   1.897   6.153   6.133
 9300SOL    HW128799   1.868   6.235   6.183
 9300SOL    HW228800   1.893   6.172   6.035
 9301SOL     OW28801   0.308   4.031   4.779
 9301SOL    HW128802   0.276   3.997   4.868
 9301SOL    HW228803   0.232   4.069   4.728
 9302SOL     OW28804   2.034   3.564   4.915
 9302SOL    HW128805   2.054   3.638   4.979
 9302SOL    HW228806   1.936   3.562   4.895
 9303SOL     OW28807   2.389   5.043   0.807
 9303SOL    HW128808   2.336   5.127   0.821
 9303SOL    HW228809   2.366   4.977   0.878
 9304SOL     OW28810   4.688   5.381   0.585
 9304SOL    HW128811   4.705   5.408   0.490
 9304SOL    HW228812   4.773   5.345   0.625
 9305SOL     OW28813   2.670   1.410   1.509
 9305SOL    HW128814   2.655   1.444   1.416
 9305SOL    HW228815   2.654   1.311   1.511
 9306SOL     OW28816   0.516   5.428   4.519
 9306SOL    HW128817   0.559   5.483   4.447
 9306SOL    HW228818   0.559   5.449   4.607
 9307SOL     OW28819   2.664   3.194   1.729
 9307SOL    HW128820   2.596   3.121   1.736
 9307SOL    HW228821   2.751   3.161   1.765
 9308SOL     OW28822   2.163   3.671   1.824
 9308SOL    HW128823   2.083   3.725   1.851
 9308SOL    HW228824   2.185   3.606   1.896
 9309SOL     OW28825   4.825   5.953   5.670
 9309SOL    HW128826   4.863   6.042   5.646
 9309SOL    HW228827   4.759   5.963   5.744
 9310SOL     OW28828   5.207   6.027   6.166
 9310SOL    HW128829   5.231   6.115   6.126
 9310SOL    HW228830   5.186   5.962   6.093
 9311SOL     OW28831   4.635   3.414   1.475
 9311SOL    HW128832   4.670   3.495   1.427
 9311SOL    HW228833   4.672   3.412   1.568
 9312SOL     OW28834   0.639   2.392   1.369
 9312SOL    HW128835   0.635   2.314   1.430
 9312SOL    HW228836   0.559   2.450   1.383
 9313SOL     OW28837   0.610   6.679   1.865
 9313SOL    HW128838   0.660   6.643   1.944
 9313SOL    HW228839   0.658   6.759   1.829
 9314SOL     OW28840   5.043   2.926   6.989
 9314SOL    HW128841   4.952   2.959   6.963
 9314SOL    HW228842   5.036   2.831   7.019
 9315SOL     OW28843   5.673   0.866   6.506
 9315SOL    HW128844   5.675   0.792   6.438
 9315SOL    HW228845   5.621   0.943   6.470
 9316SOL     OW28846   4.542   1.112   5.682
 9316SOL    HW128847   4.593   1.052   5.743
 9316SOL    HW228848   4.492   1.057   5.615
 9317SOL     OW28849   4.217   6.029   3.354
 9317SOL    HW128850   4.153   6.015   3.278
 9317SOL    HW228851   4.257   6.120   3.347
 9318SOL     OW28852   5.329   5.860   1.346
 9318SOL    HW128853   5.410   5.874   1.402
 9318SOL    HW228854   5.247   5.875   1.401
 9319SOL     OW28855   2.639   4.346   0.346
 9319SOL    HW128856   2.709   4.311   0.409
 9319SOL    HW228857   2.584   4.271   0.311
 9320SOL     OW28858   6.471   6.543   6.338
 9320SOL    HW128859   6.420   6.581   6.416
 9320SOL    HW228860   6.521   6.462   6.368
 9321SOL     OW28861   0.577   3.763   4.982
 9321SOL    HW128862   0.504   3.712   4.936
 9321SOL    HW228863   0.621   3.704   5.049
 9322SOL     OW28864   5.555   4.028   5.850
 9322SOL    HW128865   5.584   4.119   5.878
 9322SOL    HW228866   5.608   4.000   5.769
 9323SOL     OW28867   1.695   2.685   4.155
 9323SOL    HW128868   1.720   2.700   4.059
 9323SOL    HW228869   1.610   2.633   4.159
 9324SOL     OW28870   0.491   4.181   1.323
 9324SOL    HW128871   0.529   4.207   1.411
 9324SOL    HW228872   0.421   4.111   1.335
 9325SOL     OW28873   1.128   4.813   2.731
 9325SOL    HW128874   1.204   4.802   2.795
 9325SOL    HW228875   1.156   4.781   2.641
 9326SOL     OW28876   4.099   4.264   0.636
 9326SOL    HW128877   4.150   4.243   0.720
 9326SOL    HW228878   4.145   4.223   0.558
 9327SOL     OW28879   4.516   0.238   3.538
 9327SOL    HW128880   4.514   0.205   3.633
 9327SOL    HW228881   4.443   0.193   3.486
 9328SOL     OW28882   2.955   6.031   4.266
 9328SOL    HW128883   2.890   5.958   4.290
 9328SOL    HW228884   3.032   5.992   4.216
 9329SOL     OW28885   0.090   5.420   6.494
 9329SOL    HW128886   0.136   5.505   6.467
 9329SOL    HW228887   7.018   5.438   6.507
 9330SOL     OW28888   5.998   5.824   6.282
 9330SOL    HW128889   5.984   5.732   6.245
 9330SOL    HW228890   6.095   5.847   6.277
 9331SOL     OW28891   1.432   3.223   4.427
 9331SOL    HW128892   1.378   3.215   4.511
 9331SOL    HW228893   1.436   3.320   4.399
 9332SOL     OW28894   4.492   5.626   0.889
 9332SOL    HW128895   4.518   5.651   0.982
 9332SOL    HW228896   4.521   5.696   0.825
 9333SOL     OW28897   3.598   4.677   0.572
 9333SOL    HW128898   3.602   4.667   0.473
 9333SOL    HW228899   3.630   4.769   0.597
 9334SOL     OW28900   5.305   6.353   5.449
 9334SOL    HW128901   5.221   6.407   5.461
 9334SOL    HW228902   5.372   6.381   5.517
 9335SOL     OW28903   2.199   2.651   1.459
 9335SOL    HW128904   2.250   2.626   1.377
 9335SOL    HW228905   2.116   2.700   1.433
 9336SOL     OW28906   6.881   0.615   5.141
 9336SOL    HW128907   6.846   0.708   5.154
 9336SOL    HW228908   6.980   0.618   5.128
 9337SOL     OW28909   2.756   0.413   6.330
 9337SOL    HW128910   2.727   0.453   6.418
 9337SOL    HW228911   2.779   0.487   6.267
 9338SOL     OW28912   6.294   6.025   0.023
 9338SOL    HW128913   6.282   5.927   0.032
 9338SOL    HW228914   6.327   6.047   6.956
 9339SOL     OW28915   6.387   4.672   5.651
 9339SOL    HW128916   6.336   4.586   5.653
 9339SOL    HW228917   6.427   4.689   5.740
 9340SOL     OW28918   4.008   6.190   2.375
 9340SOL    HW128919   3.986   6.279   2.414
 9340SOL    HW228920   3.970   6.184   2.282
 9341SOL     OW28921   5.316   3.842   0.091
 9341SOL    HW128922   5.321   3.874   7.022
 9341SOL    HW228923   5.328   3.919   0.153
 9342SOL     OW28924   2.776   7.009   4.137
 9342SOL    HW128925   2.692   6.956   4.123
 9342SOL    HW228926   2.855   6.948   4.137
 9343SOL     OW28927   4.932   4.254   1.493
 9343SOL    HW128928   4.979   4.338   1.520
 9343SOL    HW228929   4.852   4.241   1.551
 9344SOL     OW28930   5.756   5.324   4.874
 9344SOL    HW128931   5.837   5.267   4.885
 9344SOL    HW228932   5.716   5.343   4.964
 9345SOL     OW28933   0.120   6.622   0.957
 9345SOL    HW128934   0.089   6.585   0.869
 9345SOL    HW228935   0.046   6.675   0.998
 9346SOL     OW28936   5.302   6.685   1.623
 9346SOL    HW128937   5.230   6.633   1.577
 9346SOL    HW228938   5.273   6.707   1.716
 9347SOL     OW28939   4.132   5.665   0.448
 9347SOL    HW128940   4.176   5.665   0.538
 9347SOL    HW228941   4.033   5.655   0.460
 9348SOL     OW28942   2.134   5.960   1.954
 9348SOL    HW128943   2.066   6.029   1.983
 9348SOL    HW228944   2.099   5.911   1.874
 9349SOL     OW28945   6.319   5.115   1.767
 9349SOL    HW128946   6.242   5.068   1.811
 9349SOL    HW228947   6.301   5.213   1.766
 9350SOL     OW28948   0.150   0.833   4.961
 9350SOL    HW128949   0.132   0.919   5.010
 9350SOL    HW228950   0.078   0.817   4.895
 9351SOL     OW28951   3.049   1.303   6.006
 9351SOL    HW128952   3.141   1.265   6.012
 9351SOL    HW228953   2.989   1.239   5.959
 9352SOL     OW28954   3.470   2.028   6.388
 9352SOL    HW128955   3.420   2.107   6.352
 9352SOL    HW228956   3.413   1.946   6.380
 9353SOL     OW28957   0.841   3.879   1.370
 9353SOL    HW128958   0.836   3.973   1.338
 9353SOL    HW228959   0.933   3.860   1.406
 9354SOL     OW28960   5.411   1.700   1.396
 9354SOL    HW128961   5.356   1.784   1.394
 9354SOL    HW228962   5.375   1.639   1.466
 9355SOL     OW28963   6.510   6.913   3.514
 9355SOL    HW128964   6.452   6.976   3.565
 9355SOL    HW228965   6.591   6.889   3.569
 9356SOL     OW28966   4.345   5.117   2.056
 9356SOL    HW128967   4.392   5.205   2.066
 9356SOL    HW228968   4.412   5.043   2.059
 9357SOL     OW28969   2.950   3.075   1.262
 9357SOL    HW128970   3.025   3.141   1.262
 9357SOL    HW228971   2.893   3.089   1.181
 9358SOL     OW28972   6.364   4.321   1.907
 9358SOL    HW128973   6.339   4.309   1.811
 9358SOL    HW228974   6.455   4.283   1.924
 9359SOL     OW28975   0.138   4.234   6.417
 9359SOL    HW128976   0.180   4.205   6.503
 9359SOL    HW228977   0.064   4.172   6.393
 9360SOL     OW28978   2.255   0.908   6.287
 9360SOL    HW128979   2.264   1.000   6.249
 9360SOL    HW228980   2.310   0.844   6.233
 9361SOL     OW28981   2.959   6.112   2.030
 9361SOL    HW128982   2.953   6.024   2.078
 9361SOL    HW228983   2.870   6.136   1.992
 9362SOL     OW28984   2.508   1.488   2.395
 9362SOL    HW128985   2.576   1.439   2.340
 9362SOL    HW228986   2.417   1.476   2.353
 9363SOL     OW28987   3.536   6.186   3.055
 9363SOL    HW128988   3.466   6.188   3.127
 9363SOL    HW228989   3.557   6.279   3.025
 9364SOL     OW28990   4.473   2.812   6.639
 9364SOL    HW128991   4.519   2.814   6.727
 9364SOL    HW228992   4.400   2.743   6.641
 9365SOL     OW28993   2.737   1.768   5.025
 9365SOL    HW128994   2.823   1.717   5.014
 9365SOL    HW228995   2.732   1.841   4.956
 9366SOL     OW28996   3.453   1.971   0.236
 9366SOL    HW128997   3.521   2.039   0.263
 9366SOL    HW228998   3.431   1.983   0.139
 9367SOL     OW28999   6.832   5.805   3.328
 9367SOL    HW129000   6.912   5.745   3.320
 9367SOL    HW229001   6.860   5.900   3.318
 9368SOL     OW29002   3.184   2.302   1.507
 9368SOL    HW129003   3.160   2.232   1.575
 9368SOL    HW229004   3.102   2.352   1.480
 9369SOL     OW29005   6.796   1.714   5.538
 9369SOL    HW129006   6.709   1.725   5.585
 9369SOL    HW229007   6.864   1.775   5.579
 9370SOL     OW29008   6.158   0.922   2.785
 9370SOL    HW129009   6.184   0.927   2.689
 9370SOL    HW229010   6.187   0.834   2.823
 9371SOL     OW29011   1.276   5.849   0.346
 9371SOL    HW129012   1.204   5.842   0.415
 9371SOL    HW229013   1.237   5.875   0.258
 9372SOL     OW29014   5.441   6.511   3.471
 9372SOL    HW129015   5.537   6.536   3.458
 9372SOL    HW229016   5.433   6.411   3.473
 9373SOL     OW29017   4.394   1.546   3.357
 9373SOL    HW129018   4.487   1.545   3.320
 9373SOL    HW229019   4.341   1.618   3.312
 9374SOL     OW29020   5.895   2.536   0.375
 9374SOL    HW129021   5.938   2.584   0.299
 9374SOL    HW229022   5.864   2.602   0.443
 9375SOL     OW29023   6.903   1.133   2.663
 9375SOL    HW129024   6.968   1.075   2.616
 9375SOL    HW229025   6.842   1.176   2.596
 9376SOL     OW29026   3.191   3.670   0.680
 9376SOL    HW129027   3.275   3.675   0.626
 9376SOL    HW229028   3.197   3.735   0.756
 9377SOL     OW29029   6.635   5.372   3.857
 9377SOL    HW129030   6.608   5.294   3.913
 9377SOL    HW229031   6.713   5.347   3.800
 9378SOL     OW29032   2.548   0.120   6.994
 9378SOL    HW129033   2.454   0.092   7.015
 9378SOL    HW229034   2.604   0.115   0.051
 9379SOL     OW29035   4.576   4.692   4.000
 9379SOL    HW129036   4.574   4.785   4.036
 9379SOL    HW229037   4.506   4.637   4.046
 9380SOL     OW29038   6.594   0.051   5.752
 9380SOL    HW129039   6.495   0.051   5.744
 9380SOL    HW229040   6.626   0.143   5.774
 9381SOL     OW29041   2.689   2.618   5.359
 9381SOL    HW129042   2.771   2.660   5.321
 9381SOL    HW229043   2.611   2.679   5.348
 9382SOL     OW29044   4.147   1.186   2.840
 9382SOL    HW129045   4.130   1.088   2.851
 9382SOL    HW229046   4.107   1.236   2.917
 9383SOL     OW29047   3.247   0.110   4.464
 9383SOL    HW129048   3.310   0.187   4.459
 9383SOL    HW229049   3.278   0.046   4.535
 9384SOL     OW29050   5.077   5.860   2.582
 9384SOL    HW129051   5.020   5.940   2.600
 9384SOL    HW229052   5.097   5.854   2.484
 9385SOL     OW29053   3.941   1.441   3.448
 9385SOL    HW129054   3.910   1.445   3.543
 9385SOL    HW229055   3.872   1.483   3.389
 9386SOL     OW29056   3.469   6.494   5.129
 9386SOL    HW129057   3.408   6.416   5.136
 9386SOL    HW229058   3.521   6.489   5.044
 9387SOL     OW29059   3.165   6.593   1.448
 9387SOL    HW129060   3.232   6.667   1.448
 9387SOL    HW229061   3.085   6.619   1.393
 9388SOL     OW29062   0.667   6.543   2.719
 9388SOL    HW129063   0.754   6.584   2.746
 9388SOL    HW229064   0.619   6.511   2.800
 9389SOL     OW29065   2.708   0.541   5.567
 9389SOL    HW129066   2.799   0.513   5.599
 9389SOL    HW229067   2.670   0.470   5.508
 9390SOL     OW29068   3.746   5.649   3.108
 9390SOL    HW129069   3.702   5.721   3.161
 9390SOL    HW229070   3.723   5.660   3.012
 9391SOL     OW29071   1.372   1.284   5.215
 9391SOL    HW129072   1.319   1.216   5.164
 9391SOL    HW229073   1.345   1.282   5.311
 9392SOL     OW29074   0.843   6.405   4.984
 9392SOL    HW129075   0.784   6.432   5.061
 9392SOL    HW229076   0.793   6.343   4.924
 9393SOL     OW29077   4.033   2.034   5.295
 9393SOL    HW129078   3.964   2.022   5.367
 9393SOL    HW229079   3.987   2.049   5.208
 9394SOL     OW29080   6.284   2.563   3.257
 9394SOL    HW129081   6.292   2.587   3.160
 9394SOL    HW229082   6.190   2.578   3.287
 9395SOL     OW29083   2.708   2.795   0.575
 9395SOL    HW129084   2.688   2.867   0.641
 9395SOL    HW229085   2.641   2.721   0.585
 9396SOL     OW29086   6.606   6.630   5.093
 9396SOL    HW129087   6.635   6.541   5.127
 9396SOL    HW229088   6.515   6.623   5.051
 9397SOL     OW29089   1.835   0.878   6.944
 9397SOL    HW129090   1.823   0.794   6.996
 9397SOL    HW229091   1.920   0.874   6.892
 9398SOL     OW29092   2.746   1.331   6.940
 9398SOL    HW129093   2.650   1.359   6.943
 9398SOL    HW229094   2.790   1.374   6.861
 9399SOL     OW29095   6.570   2.043   6.513
 9399SOL    HW129096   6.636   2.001   6.451
 9399SOL    HW229097   6.481   2.000   6.500
 9400SOL     OW29098   5.091   3.277   1.553
 9400SOL    HW129099   5.000   3.239   1.533
 9400SOL    HW229100   5.160   3.205   1.543
 9401SOL     OW29101   2.465   6.372   3.770
 9401SOL    HW129102   2.535   6.302   3.783
 9401SOL    HW229103   2.376   6.328   3.756
 9402SOL     OW29104   2.870   5.287   6.555
 9402SOL    HW129105   2.927   5.360   6.592
 9402SOL    HW229106   2.904   5.260   6.466
 9403SOL     OW29107   5.331   1.379   3.465
 9403SOL    HW129108   5.421   1.365   3.505
 9403SOL    HW229109   5.272   1.426   3.530
 9404SOL     OW29110   0.768   4.865   6.657
 9404SOL    HW129111   0.863   4.878   6.683
 9404SOL    HW229112   0.762   4.798   6.583
 9405SOL     OW29113   5.826   6.490   1.477
 9405SOL    HW129114   5.755   6.484   1.406
 9405SOL    HW229115   5.916   6.495   1.434
 9406SOL     OW29116   6.910   2.160   5.485
 9406SOL    HW129117   6.986   2.214   5.449
 9406SOL    HW229118   6.937   2.119   5.572
 9407SOL     OW29119   2.856   6.534   3.437
 9407SOL    HW129120   2.772   6.535   3.492
 9407SOL    HW229121   2.929   6.581   3.486
 9408SOL     OW29122   4.097   1.323   6.579
 9408SOL    HW129123   4.007   1.334   6.537
 9408SOL    HW229124   4.086   1.310   6.678
 9409SOL     OW29125   5.296   3.905   4.209
 9409SOL    HW129126   5.334   3.998   4.211
 9409SOL    HW229127   5.205   3.908   4.169
 9410SOL     OW29128   3.893   6.232   2.142
 9410SOL    HW129129   3.926   6.302   2.078
 9410SOL    HW229130   3.793   6.226   2.135
 9411SOL     OW29131   4.017   5.473   0.885
 9411SOL    HW129132   4.023   5.500   0.981
 9411SOL    HW229133   4.023   5.554   0.827
 9412SOL     OW29134   0.460   3.228   1.643
 9412SOL    HW129135   0.524   3.260   1.572
 9412SOL    HW229136   0.460   3.128   1.644
 9413SOL     OW29137   4.340   5.715   5.282
 9413SOL    HW129138   4.322   5.800   5.233
 9413SOL    HW229139   4.263   5.653   5.271
 9414SOL     OW29140   3.102   1.546   2.395
 9414SOL    HW129141   3.138   1.464   2.439
 9414SOL    HW229142   3.123   1.626   2.451
 9415SOL     OW29143   1.833   6.904   2.628
 9415SOL    HW129144   1.809   6.877   2.535
 9415SOL    HW229145   1.916   6.959   2.626
 9416SOL     OW29146   0.805   1.767   1.521
 9416SOL    HW129147   0.899   1.801   1.520
 9416SOL    HW229148   0.753   1.815   1.591
 9417SOL     OW29149   3.031   6.021   5.202
 9417SOL    HW129150   2.976   6.085   5.148
 9417SOL    HW229151   3.115   6.066   5.231
 9418SOL     OW29152   2.491   5.723   1.302
 9418SOL    HW129153   2.574   5.780   1.306
 9418SOL    HW229154   2.433   5.755   1.227
 9419SOL     OW29155   3.208   6.790   5.421
 9419SOL    HW129156   3.160   6.864   5.469
 9419SOL    HW229157   3.144   6.747   5.357
 9420SOL     OW29158   6.868   1.486   4.590
 9420SOL    HW129159   6.873   1.586   4.592
 9420SOL    HW229160   6.787   1.456   4.641
 9421SOL     OW29161   2.142   5.114   5.179
 9421SOL    HW129162   2.235   5.143   5.157
 9421SOL    HW229163   2.132   5.017   5.158
 9422SOL     OW29164   5.454   6.997   2.449
 9422SOL    HW129165   5.466   6.953   2.361
 9422SOL    HW229166   5.414   0.062   2.436
 9423SOL     OW29167   4.363   0.640   3.101
 9423SOL    HW129168   4.329   0.728   3.067
 9423SOL    HW229169   4.401   0.588   3.025
 9424SOL     OW29170   4.951   7.011   5.821
 9424SOL    HW129171   4.993   6.924   5.795
 9424SOL    HW229172   4.852   7.003   5.811
 9425SOL     OW29173   0.396   3.288   5.948
 9425SOL    HW129174   0.495   3.300   5.955
 9425SOL    HW229175   0.350   3.372   5.975
 9426SOL     OW29176   2.879   1.445   0.424
 9426SOL    HW129177   2.945   1.485   0.487
 9426SOL    HW229178   2.912   1.357   0.392
 9427SOL     OW29179   2.749   5.035   4.831
 9427SOL    HW129180   2.730   4.940   4.808
 9427SOL    HW229181   2.814   5.039   4.907
 9428SOL     OW29182   5.888   6.848   2.926
 9428SOL    HW129183   5.795   6.830   2.957
 9428SOL    HW229184   5.890   6.933   2.874
 9429SOL     OW29185   1.280   3.955   2.241
 9429SOL    HW129186   1.293   3.920   2.148
 9429SOL    HW229187   1.213   3.898   2.288
 9430SOL     OW29188   6.347   6.880   2.102
 9430SOL    HW129189   6.348   6.787   2.065
 9430SOL    HW229190   6.340   6.877   2.202
 9431SOL     OW29191   6.144   4.028   7.023
 9431SOL    HW129192   6.184   3.937   7.008
 9431SOL    HW229193   6.049   4.018   0.028
 9432SOL     OW29194   5.981   0.169   3.793
 9432SOL    HW129195   6.054   0.119   3.841
 9432SOL    HW229196   5.966   0.127   3.703
 9433SOL     OW29197   3.232   4.913   4.851
 9433SOL    HW129198   3.211   4.891   4.756
 9433SOL    HW229199   3.159   4.878   4.910
 9434SOL     OW29200   5.835   4.572   3.271
 9434SOL    HW129201   5.886   4.567   3.185
 9434SOL    HW229202   5.753   4.516   3.264
 9435SOL     OW29203   1.561   1.398   4.126
 9435SOL    HW129204   1.475   1.400   4.075
 9435SOL    HW229205   1.577   1.306   4.161
 9436SOL     OW29206   1.578   3.773   1.094
 9436SOL    HW129207   1.487   3.813   1.093
 9436SOL    HW229208   1.571   3.674   1.110
 9437SOL     OW29209   1.189   5.558   3.266
 9437SOL    HW129210   1.258   5.627   3.242
 9437SOL    HW229211   1.225   5.501   3.340
 9438SOL     OW29212   0.765   6.364   1.671
 9438SOL    HW129213   0.669   6.368   1.701
 9438SOL    HW229214   0.810   6.451   1.693
 9439SOL     OW29215   6.805   3.059   2.072
 9439SOL    HW129216   6.768   3.000   2.144
 9439SOL    HW229217   6.801   3.154   2.102
 9440SOL     OW29218   4.813   6.331   4.819
 9440SOL    HW129219   4.899   6.337   4.870
 9440SOL    HW229220   4.797   6.236   4.791
 9441SOL     OW29221   1.439   5.410   5.337
 9441SOL    HW129222   1.504   5.484   5.359
 9441SOL    HW229223   1.488   5.323   5.336
 9442SOL     OW29224   6.599   1.962   7.008
 9442SOL    HW129225   6.529   1.952   0.053
 9442SOL    HW229226   6.557   1.997   6.924
 9443SOL     OW29227   2.108   4.703   1.431
 9443SOL    HW129228   2.201   4.694   1.466
 9443SOL    HW229229   2.043   4.666   1.497
 9444SOL     OW29230   0.279   3.234   0.191
 9444SOL    HW129231   0.183   3.228   0.162
 9444SOL    HW229232   0.297   3.163   0.260
 9445SOL     OW29233   5.004   3.798   1.997
 9445SOL    HW129234   4.999   3.813   2.096
 9445SOL    HW229235   4.925   3.745   1.967
 9446SOL     OW29236   6.556   6.644   2.955
 9446SOL    HW129237   6.547   6.666   2.858
 9446SOL    HW229238   6.542   6.727   3.009
 9447SOL     OW29239   5.282   3.354   2.336
 9447SOL    HW129240   5.256   3.268   2.292
 9447SOL    HW229241   5.210   3.422   2.323
 9448SOL     OW29242   5.153   6.174   5.894
 9448SOL    HW129243   5.248   6.176   5.925
 9448SOL    HW229244   5.148   6.133   5.803
 9449SOL     OW29245   6.709   5.225   5.378
 9449SOL    HW129246   6.727   5.307   5.433
 9449SOL    HW229247   6.786   5.161   5.387
 9450SOL     OW29248   2.560   4.903   5.072
 9450SOL    HW129249   2.565   4.986   5.017
 9450SOL    HW229250   2.567   4.927   5.169
 9451SOL     OW29251   4.770   5.703   6.154
 9451SOL    HW129252   4.788   5.790   6.107
 9451SOL    HW229253   4.697   5.654   6.107
 9452SOL     OW29254   2.270   3.635   0.810
 9452SOL    HW129255   2.280   3.664   0.906
 9452SOL    HW229256   2.181   3.591   0.798
 9453SOL     OW29257   1.866   4.550   2.915
 9453SOL    HW129258   1.818   4.588   2.835
 9453SOL    HW229259   1.958   4.588   2.919
 9454SOL     OW29260   1.355   4.194   6.312
 9454SOL    HW129261   1.275   4.147   6.347
 9454SOL    HW229262   1.405   4.135   6.248
 9455SOL     OW29263   3.358   1.479   2.657
 9455SOL    HW129264   3.414   1.417   2.601
 9455SOL    HW229265   3.357   1.570   2.616
 9456SOL     OW29266   0.444   4.361   0.872
 9456SOL    HW129267   0.378   4.345   0.945
 9456SOL    HW229268   0.422   4.304   0.793
 9457SOL     OW29269   1.912   3.957   6.782
 9457SOL    HW129270   2.006   3.991   6.784
 9457SOL    HW229271   1.850   4.029   6.811
 9458SOL     OW29272   0.425   4.990   5.892
 9458SOL    HW129273   0.516   4.970   5.858
 9458SOL    HW229274   0.396   4.917   5.955
 9459SOL     OW29275   6.471   5.274   2.235
 9459SOL    HW129276   6.557   5.226   2.248
 9459SOL    HW229277   6.419   5.275   2.320
 9460SOL     OW29278   6.969   2.478   4.958
 9460SOL    HW129279   0.009   2.435   5.019
 9460SOL    HW229280   6.877   2.470   4.997
 9461SOL     OW29281   6.944   1.197   3.158
 9461SOL    HW129282   6.926   1.110   3.111
 9461SOL    HW229283   6.877   1.210   3.230
 9462SOL     OW29284   1.809   3.191   2.934
 9462SOL    HW129285   1.753   3.208   3.015
 9462SOL    HW229286   1.803   3.095   2.909
 9463SOL     OW29287   0.077   0.436   0.909
 9463SOL    HW129288   0.049   0.363   0.845
 9463SOL    HW229289   0.023   0.428   0.993
 9464SOL     OW29290   5.764   6.521   6.387
 9464SOL    HW129291   5.813   6.607   6.400
 9464SOL    HW229292   5.707   6.503   6.467
 9465SOL     OW29293   6.883   0.514   2.950
 9465SOL    HW129294   6.805   0.458   2.926
 9465SOL    HW229295   6.899   0.582   2.878
 9466SOL     OW29296   2.787   3.297   5.681
 9466SOL    HW129297   2.783   3.197   5.685
 9466SOL    HW229298   2.731   3.330   5.605
 9467SOL     OW29299   1.536   2.508   1.609
 9467SOL    HW129300   1.553   2.460   1.522
 9467SOL    HW229301   1.487   2.448   1.671
 9468SOL     OW29302   5.720   2.891   5.892
 9468SOL    HW129303   5.726   2.990   5.884
 9468SOL    HW229304   5.655   2.868   5.965
 9469SOL     OW29305   6.582   5.559   2.312
 9469SOL    HW129306   6.512   5.631   2.312
 9469SOL    HW229307   6.562   5.493   2.239
 9470SOL     OW29308   5.110   2.591   6.866
 9470SOL    HW129309   5.105   2.679   6.818
 9470SOL    HW229310   5.110   2.608   6.965
 9471SOL     OW29311   6.797   2.531   5.532
 9471SOL    HW129312   6.782   2.630   5.539
 9471SOL    HW229313   6.829   2.509   5.440
 9472SOL     OW29314   6.649   4.230   4.932
 9472SOL    HW129315   6.656   4.130   4.932
 9472SOL    HW229316   6.555   4.256   4.909
 9473SOL     OW29317   3.467   6.722   5.321
 9473SOL    HW129318   3.377   6.730   5.363
 9473SOL    HW229319   3.470   6.640   5.264
 9474SOL     OW29320   5.851   4.368   1.948
 9474SOL    HW129321   5.767   4.314   1.948
 9474SOL    HW229322   5.851   4.430   1.870
 9475SOL     OW29323   3.402   3.611   0.990
 9475SOL    HW129324   3.394   3.512   1.007
 9475SOL    HW229325   3.392   3.660   1.076
 9476SOL     OW29326   3.294   3.546   5.102
 9476SOL    HW129327   3.268   3.610   5.031
 9476SOL    HW229328   3.215   3.492   5.130
 9477SOL     OW29329   0.806   3.201   1.232
 9477SOL    HW129330   0.826   3.103   1.224
 9477SOL    HW229331   0.747   3.229   1.156
 9478SOL     OW29332   5.187   3.832   5.624
 9478SOL    HW129333   5.218   3.896   5.694
 9478SOL    HW229334   5.124   3.766   5.664
 9479SOL     OW29335   5.942   5.576   6.207
 9479SOL    HW129336   5.933   5.519   6.288
 9479SOL    HW229337   5.854   5.583   6.161
 9480SOL     OW29338   4.408   4.557   6.688
 9480SOL    HW129339   4.361   4.625   6.632
 9480SOL    HW229340   4.459   4.495   6.629
 9481SOL     OW29341   6.577   3.891   1.759
 9481SOL    HW129342   6.563   3.901   1.857
 9481SOL    HW229343   6.660   3.941   1.732
 9482SOL     OW29344   5.620   0.732   3.526
 9482SOL    HW129345   5.579   0.772   3.444
 9482SOL    HW229346   5.718   0.754   3.529
 9483SOL     OW29347   1.723   1.911   0.664
 9483SOL    HW129348   1.750   1.857   0.745
 9483SOL    HW229349   1.624   1.913   0.658
 9484SOL     OW29350   6.221   1.347   3.692
 9484SOL    HW129351   6.132   1.310   3.720
 9484SOL    HW229352   6.255   1.298   3.612
 9485SOL     OW29353   1.634   0.634   1.777
 9485SOL    HW129354   1.731   0.618   1.758
 9485SOL    HW229355   1.581   0.619   1.694
 9486SOL     OW29356   2.462   5.427   0.755
 9486SOL    HW129357   2.392   5.484   0.712
 9486SOL    HW229358   2.521   5.484   0.812
 9487SOL     OW29359   3.062   3.775   3.489
 9487SOL    HW129360   3.125   3.772   3.567
 9487SOL    HW229361   3.083   3.855   3.433
 9488SOL     OW29362   1.657   5.998   1.396
 9488SOL    HW129363   1.576   5.974   1.450
 9488SOL    HW229364   1.713   5.916   1.383
 9489SOL     OW29365   3.963   4.094   0.991
 9489SOL    HW129366   3.978   4.010   0.938
 9489SOL    HW229367   4.006   4.084   1.081
 9490SOL     OW29368   5.321   0.326   1.016
 9490SOL    HW129369   5.237   0.274   1.001
 9490SOL    HW229370   5.315   0.373   1.104
 9491SOL     OW29371   0.207   4.983   4.751
 9491SOL    HW129372   0.193   5.081   4.743
 9491SOL    HW229373   0.151   4.946   4.825
 9492SOL     OW29374   3.275   3.870   2.319
 9492SOL    HW129375   3.203   3.923   2.365
 9492SOL    HW229376   3.311   3.923   2.242
 9493SOL     OW29377   4.855   4.901   4.006
 9493SOL    HW129378   4.771   4.954   3.995
 9493SOL    HW229379   4.854   4.853   4.093
 9494SOL     OW29380   5.192   3.799   0.622
 9494SOL    HW129381   5.145   3.875   0.578
 9494SOL    HW229382   5.237   3.831   0.705
 9495SOL     OW29383   6.343   1.747   3.445
 9495SOL    HW129384   6.364   1.770   3.350
 9495SOL    HW229385   6.402   1.800   3.506
 9496SOL     OW29386   5.260   4.017   6.651
 9496SOL    HW129387   5.284   3.951   6.580
 9496SOL    HW229388   5.182   4.072   6.620
 9497SOL     OW29389   4.259   4.197   0.836
 9497SOL    HW129390   4.320   4.128   0.798
 9497SOL    HW229391   4.263   4.194   0.936
 9498SOL     OW29392   4.643   6.611   5.555
 9498SOL    HW129393   4.637   6.711   5.553
 9498SOL    HW229394   4.554   6.572   5.533
 9499SOL     OW29395   2.287   3.762   5.691
 9499SOL    HW129396   2.235   3.718   5.618
 9499SOL    HW229397   2.226   3.817   5.749
 9500SOL     OW29398   4.104   6.652   1.673
 9500SOL    HW129399   4.116   6.624   1.769
 9500SOL    HW229400   4.025   6.603   1.634
 9501SOL     OW29401   3.604   1.873   4.758
 9501SOL    HW129402   3.556   1.959   4.742
 9501SOL    HW229403   3.702   1.892   4.771
 9502SOL     OW29404   6.729   2.055   4.732
 9502SOL    HW129405   6.631   2.064   4.716
 9502SOL    HW229406   6.779   2.093   4.654
 9503SOL     OW29407   6.959   1.232   1.195
 9503SOL    HW129408   0.013   1.244   1.254
 9503SOL    HW229409   6.989   1.229   1.099
 9504SOL     OW29410   6.687   2.677   1.176
 9504SOL    HW129411   6.605   2.628   1.147
 9504SOL    HW229412   6.729   2.722   1.097
 9505SOL     OW29413   6.030   3.867   3.207
 9505SOL    HW129414   6.109   3.928   3.217
 9505SOL    HW229415   6.006   3.831   3.297
 9506SOL     OW29416   0.022   3.228   0.097
 9506SOL    HW129417   0.014   3.137   0.056
 9506SOL    HW229418   6.959   3.256   0.133
 9507SOL     OW29419   2.260   1.036   4.436
 9507SOL    HW129420   2.185   1.075   4.383
 9507SOL    HW229421   2.347   1.073   4.402
 9508SOL     OW29422   5.334   2.586   0.336
 9508SOL    HW129423   5.352   2.493   0.368
 9508SOL    HW229424   5.315   2.645   0.414
 9509SOL     OW29425   1.109   6.555   5.614
 9509SOL    HW129426   1.096   6.480   5.550
 9509SOL    HW229427   1.142   6.636   5.564
 9510SOL     OW29428   0.099   3.696   1.880
 9510SOL    HW129429   0.162   3.714   1.805
 9510SOL    HW229430   0.041   3.618   1.858
 9511SOL     OW29431   0.622   1.877   0.329
 9511SOL    HW129432   0.540   1.891   0.274
 9511SOL    HW229433   0.691   1.944   0.302
 9512SOL     OW29434   6.500   1.893   3.621
 9512SOL    HW129435   6.572   1.939   3.570
 9512SOL    HW229436   6.540   1.838   3.694
 9513SOL     OW29437   1.886   4.031   4.895
 9513SOL    HW129438   1.823   4.090   4.845
 9513SOL    HW229439   1.901   3.946   4.843
 9514SOL     OW29440   1.846   3.678   6.819
 9514SOL    HW129441   1.874   3.774   6.812
 9514SOL    HW229442   1.748   3.671   6.801
 9515SOL     OW29443   1.187   5.939   0.086
 9515SOL    HW129444   1.186   5.955   7.013
 9515SOL    HW229445   1.094   5.915   0.116
 9516SOL     OW29446   4.951   3.307   4.024
 9516SOL    HW129447   5.044   3.337   4.041
 9516SOL    HW229448   4.926   3.328   3.929
 9517SOL     OW29449   0.997   4.974   1.360
 9517SOL    HW129450   1.077   4.950   1.415
 9517SOL    HW229451   0.935   5.032   1.414
 9518SOL     OW29452   1.616   2.752   6.191
 9518SOL    HW129453   1.640   2.822   6.258
 9518SOL    HW229454   1.695   2.694   6.173
 9519SOL     OW29455   2.930   3.318   2.873
 9519SOL    HW129456   3.013   3.275   2.837
 9519SOL    HW229457   2.857   3.249   2.879
 9520SOL     OW29458   6.778   0.902   4.431
 9520SOL    HW129459   6.723   0.859   4.503
 9520SOL    HW229460   6.835   0.974   4.472
 9521SOL     OW29461   3.064   5.116   1.671
 9521SOL    HW129462   2.986   5.068   1.711
 9521SOL    HW229463   3.132   5.049   1.640
 9522SOL     OW29464   4.258   5.343   2.429
 9522SOL    HW129465   4.327   5.284   2.470
 9522SOL    HW229466   4.207   5.390   2.501
 9523SOL     OW29467   2.399   5.191   5.097
 9523SOL    HW129468   2.388   5.276   5.045
 9523SOL    HW229469   2.483   5.196   5.151
 9524SOL     OW29470   1.451   3.458   1.886
 9524SOL    HW129471   1.486   3.424   1.973
 9524SOL    HW229472   1.499   3.542   1.862
 9525SOL     OW29473   2.074   1.944   5.993
 9525SOL    HW129474   2.005   1.900   5.935
 9525SOL    HW229475   2.069   2.043   5.981
 9526SOL     OW29476   5.454   4.764   0.693
 9526SOL    HW129477   5.472   4.666   0.706
 9526SOL    HW229478   5.538   4.815   0.710
 9527SOL     OW29479   2.488   6.754   4.427
 9527SOL    HW129480   2.397   6.794   4.442
 9527SOL    HW229481   2.546   6.821   4.380
 9528SOL     OW29482   5.811   1.107   1.699
 9528SOL    HW129483   5.881   1.167   1.737
 9528SOL    HW229484   5.855   1.035   1.646
 9529SOL     OW29485   5.982   3.635   0.765
 9529SOL    HW129486   6.070   3.648   0.812
 9529SOL    HW229487   5.961   3.537   0.762
 9530SOL     OW29488   1.290   5.337   4.448
 9530SOL    HW129489   1.329   5.279   4.520
 9530SOL    HW229490   1.325   5.309   4.359
 9531SOL     OW29491   4.267   4.741   2.945
 9531SOL    HW129492   4.332   4.729   2.869
 9531SOL    HW229493   4.183   4.782   2.910
 9532SOL     OW29494   6.399   5.045   1.515
 9532SOL    HW129495   6.442   5.130   1.484
 9532SOL    HW229496   6.358   5.059   1.605
 9533SOL     OW29497   0.892   5.738   4.467
 9533SOL    HW129498   0.931   5.700   4.383
 9533SOL    HW229499   0.955   5.805   4.505
 9534SOL     OW29500   6.211   4.107   5.025
 9534SOL    HW129501   6.199   4.031   4.961
 9534SOL    HW229502   6.121   4.139   5.056
 9535SOL     OW29503   1.997   2.107   5.464
 9535SOL    HW129504   2.037   2.034   5.518
 9535SOL    HW229505   1.901   2.119   5.490
 9536SOL     OW29506   3.613   2.924   4.548
 9536SOL    HW129507   3.523   2.897   4.581
 9536SOL    HW229508   3.627   3.022   4.563
 9537SOL     OW29509   2.855   1.739   4.209
 9537SOL    HW129510   2.853   1.839   4.214
 9537SOL    HW229511   2.797   1.702   4.281
 9538SOL     OW29512   4.408   1.116   4.440
 9538SOL    HW129513   4.396   1.215   4.432
 9538SOL    HW229514   4.328   1.076   4.486
 9539SOL     OW29515   3.069   3.106   4.212
 9539SOL    HW129516   3.062   3.076   4.117
 9539SOL    HW229517   3.041   3.202   4.218
 9540SOL     OW29518   4.596   5.328   4.161
 9540SOL    HW129519   4.597   5.400   4.091
 9540SOL    HW229520   4.513   5.274   4.152
 9541SOL     OW29521   1.096   0.991   5.444
 9541SOL    HW129522   1.061   0.905   5.480
 9541SOL    HW229523   1.196   0.988   5.441
 9542SOL     OW29524   5.804   4.633   5.023
 9542SOL    HW129525   5.805   4.565   4.950
 9542SOL    HW229526   5.817   4.724   4.984
 9543SOL     OW29527   2.931   0.157   6.022
 9543SOL    HW129528   2.916   0.147   6.120
 9543SOL    HW229529   2.850   0.125   5.972
 9544SOL     OW29530   4.934   3.936   3.869
 9544SOL    HW129531   4.875   4.011   3.900
 9544SOL    HW229532   4.882   3.876   3.808
 9545SOL     OW29533   0.467   5.675   2.229
 9545SOL    HW129534   0.549   5.709   2.183
 9545SOL    HW229535   0.386   5.704   2.178
 9546SOL     OW29536   3.706   1.785   5.709
 9546SOL    HW129537   3.644   1.761   5.635
 9546SOL    HW229538   3.680   1.735   5.792
 9547SOL     OW29539   2.745   5.786   3.886
 9547SOL    HW129540   2.771   5.721   3.814
 9547SOL    HW229541   2.660   5.756   3.929
 9548SOL     OW29542   0.903   5.418   4.863
 9548SOL    HW129543   0.958   5.335   4.862
 9548SOL    HW229544   0.861   5.430   4.953
 9549SOL     OW29545   3.422   0.634   2.682
 9549SOL    HW129546   3.479   0.627   2.763
 9549SOL    HW229547   3.382   0.726   2.676
 9550SOL     OW29548   6.373   2.318   0.503
 9550SOL    HW129549   6.447   2.333   0.569
 9550SOL    HW229550   6.334   2.227   0.518
 9551SOL     OW29551   6.115   3.160   6.118
 9551SOL    HW129552   6.027   3.207   6.126
 9551SOL    HW229553   6.102   3.061   6.126
 9552SOL     OW29554   2.111   0.257   6.141
 9552SOL    HW129555   2.048   0.323   6.101
 9552SOL    HW229556   2.180   0.304   6.195
 9553SOL     OW29557   5.517   1.911   0.298
 9553SOL    HW129558   5.609   1.946   0.312
 9553SOL    HW229559   5.503   1.893   0.200
 9554SOL     OW29560   2.036   6.846   3.750
 9554SOL    HW129561   2.008   6.870   3.657
 9554SOL    HW229562   1.970   6.783   3.790
 9555SOL     OW29563   0.281   1.565   3.372
 9555SOL    HW129564   0.317   1.611   3.291
 9555SOL    HW229565   0.300   1.621   3.453
 9556SOL     OW29566   1.754   4.811   1.646
 9556SOL    HW129567   1.838   4.846   1.603
 9556SOL    HW229568   1.717   4.737   1.591
 9557SOL     OW29569   4.769   0.107   1.887
 9557SOL    HW129570   4.866   0.118   1.911
 9557SOL    HW229571   4.728   0.197   1.872
 9558SOL     OW29572   5.491   6.476   5.216
 9558SOL    HW129573   5.500   6.569   5.181
 9558SOL    HW229574   5.558   6.461   5.289
 9559SOL     OW29575   1.007   3.809   0.174
 9559SOL    HW129576   1.056   3.755   0.105
 9559SOL    HW229577   1.069   3.875   0.215
 9560SOL     OW29578   2.480   0.943   2.762
 9560SOL    HW129579   2.428   0.875   2.813
 9560SOL    HW229580   2.496   0.911   2.669
 9561SOL     OW29581   0.477   0.891   1.255
 9561SOL    HW129582   0.475   0.820   1.184
 9561SOL    HW229583   0.422   0.969   1.224
 9562SOL     OW29584   2.804   6.602   4.184
 9562SOL    HW129585   2.899   6.571   4.177
 9562SOL    HW229586   2.799   6.683   4.242
 9563SOL     OW29587   0.258   6.389   0.429
 9563SOL    HW129588   0.171   6.438   0.420
 9563SOL    HW229589   0.245   6.294   0.401
 9564SOL     OW29590   2.353   1.548   0.972
 9564SOL    HW129591   2.351   1.646   0.949
 9564SOL    HW229592   2.362   1.495   0.888
 9565SOL     OW29593   3.422   1.418   4.668
 9565SOL    HW129594   3.420   1.479   4.589
 9565SOL    HW229595   3.517   1.408   4.700
 9566SOL     OW29596   2.651   5.901   0.073
 9566SOL    HW129597   2.613   5.985   0.033
 9566SOL    HW229598   2.724   5.866   0.015
 9567SOL     OW29599   6.007   4.162   0.779
 9567SOL    HW129600   5.958   4.098   0.720
 9567SOL    HW229601   6.072   4.214   0.724
 9568SOL     OW29602   4.266   1.288   0.376
 9568SOL    HW129603   4.276   1.279   0.277
 9568SOL    HW229604   4.175   1.325   0.397
 9569SOL     OW29605   0.326   1.021   1.727
 9569SOL    HW129606   0.288   1.020   1.635
 9569SOL    HW229607   0.261   0.979   1.791
 9570SOL     OW29608   0.603   2.966   0.703
 9570SOL    HW129609   0.646   2.876   0.710
 9570SOL    HW229610   0.526   2.971   0.766
 9571SOL     OW29611   2.868   2.603   5.959
 9571SOL    HW129612   2.891   2.523   5.902
 9571SOL    HW229613   2.804   2.576   6.031
 9572SOL     OW29614   2.276   4.851   2.321
 9572SOL    HW129615   2.268   4.753   2.341
 9572SOL    HW229616   2.244   4.904   2.399
 9573SOL     OW29617   6.963   1.308   5.955
 9573SOL    HW129618   6.942   1.398   5.993
 9573SOL    HW229619   0.009   1.316   5.887
 9574SOL     OW29620   3.570   2.882   1.805
 9574SOL    HW129621   3.576   2.789   1.769
 9574SOL    HW229622   3.632   2.891   1.883
 9575SOL     OW29623   6.510   0.898   1.946
 9575SOL    HW129624   6.560   0.836   2.006
 9575SOL    HW229625   6.571   0.932   1.875
 9576SOL     OW29626   1.576   2.008   0.023
 9576SOL    HW129627   1.630   1.955   6.982
 9576SOL    HW229628   1.528   1.945   0.084
 9577SOL     OW29629   0.520   5.897   5.938
 9577SOL    HW129630   0.447   5.882   5.872
 9577SOL    HW229631   0.598   5.839   5.916
 9578SOL     OW29632   1.586   2.937   2.446
 9578SOL    HW129633   1.560   2.858   2.503
 9578SOL    HW229634   1.615   2.906   2.356
 9579SOL     OW29635   6.878   6.298   2.937
 9579SOL    HW129636   6.802   6.320   2.876
 9579SOL    HW229637   6.961   6.345   2.906
 9580SOL     OW29638   5.147   3.790   1.070
 9580SOL    HW129639   5.090   3.860   1.027
 9580SOL    HW229640   5.180   3.727   1.000
 9581SOL     OW29641   0.329   6.858   6.492
 9581SOL    HW129642   0.281   6.945   6.485
 9581SOL    HW229643   0.263   6.783   6.479
 9582SOL     OW29644   3.766   5.712   4.737
 9582SOL    HW129645   3.771   5.614   4.755
 9582SOL    HW229646   3.681   5.749   4.776
 9583SOL     OW29647   2.910   4.181   1.306
 9583SOL    HW129648   2.857   4.250   1.355
 9583SOL    HW229649   3.007   4.203   1.313
 9584SOL     OW29650   1.205   4.977   5.925
 9584SOL    HW129651   1.282   4.988   5.988
 9584SOL    HW229652   1.119   4.996   5.973
 9585SOL     OW29653   5.157   6.451   2.531
 9585SOL    HW129654   5.130   6.393   2.608
 9585SOL    HW229655   5.095   6.529   2.524
 9586SOL     OW29656   4.471   5.222   2.554
 9586SOL    HW129657   4.545   5.224   2.487
 9586SOL    HW229658   4.487   5.146   2.618
 9587SOL     OW29659   1.096   6.750   1.800
 9587SOL    HW129660   1.156   6.798   1.737
 9587SOL    HW229661   1.088   6.802   1.885
 9588SOL     OW29662   6.058   6.151   0.421
 9588SOL    HW129663   6.092   6.232   0.373
 9588SOL    HW229664   6.019   6.178   0.509
 9589SOL     OW29665   1.743   4.129   6.914
 9589SOL    HW129666   1.808   4.196   6.948
 9589SOL    HW229667   1.664   4.124   6.976
 9590SOL     OW29668   6.075   2.407   1.769
 9590SOL    HW129669   6.059   2.447   1.679
 9590SOL    HW229670   6.168   2.371   1.773
 9591SOL     OW29671   3.774   5.822   6.249
 9591SOL    HW129672   3.804   5.790   6.339
 9591SOL    HW229673   3.743   5.743   6.195
 9592SOL     OW29674   3.643   5.114   1.213
 9592SOL    HW129675   3.725   5.056   1.206
 9592SOL    HW229676   3.628   5.136   1.310
 9593SOL     OW29677   1.174   1.736   5.938
 9593SOL    HW129678   1.124   1.652   5.918
 9593SOL    HW229679   1.270   1.724   5.912
 9594SOL     OW29680   2.564   6.306   4.552
 9594SOL    HW129681   2.645   6.282   4.604
 9594SOL    HW229682   2.590   6.369   4.478
 9595SOL     OW29683   0.385   2.674   3.707
 9595SOL    HW129684   0.389   2.593   3.766
 9595SOL    HW229685   0.296   2.718   3.718
 9596SOL     OW29686   0.892   5.172   0.255
 9596SOL    HW129687   0.839   5.106   0.308
 9596SOL    HW229688   0.830   5.234   0.208
 9597SOL     OW29689   0.065   3.911   1.506
 9597SOL    HW129690   7.005   3.862   1.493
 9597SOL    HW229691   0.049   4.009   1.498
 9598SOL     OW29692   2.153   4.007   3.365
 9598SOL    HW129693   2.191   4.069   3.433
 9598SOL    HW229694   2.182   4.037   3.274
 9599SOL     OW29695   3.068   0.295   3.785
 9599SOL    HW129696   3.139   0.288   3.716
 9599SOL    HW229697   2.979   0.271   3.745
 9600SOL     OW29698   3.014   0.389   0.097
 9600SOL    HW129699   3.042   0.465   0.037
 9600SOL    HW229700   2.933   0.415   0.148
 9601SOL     OW29701   5.157   4.465   0.266
 9601SOL    HW129702   5.157   4.517   0.180
 9601SOL    HW229703   5.139   4.526   0.342
 9602SOL     OW29704   5.085   4.095   5.803
 9602SOL    HW129705   5.095   4.191   5.829
 9602SOL    HW229706   4.995   4.081   5.763
 9603SOL     OW29707   4.712   0.108   6.425
 9603SOL    HW129708   4.659   0.162   6.359
 9603SOL    HW229709   4.730   0.018   6.386
 9604SOL     OW29710   4.990   6.964   1.166
 9604SOL    HW129711   4.972   7.009   1.253
 9604SOL    HW229712   4.963   6.868   1.172
 9605SOL     OW29713   1.311   5.381   3.446
 9605SOL    HW129714   1.261   5.298   3.471
 9605SOL    HW229715   1.394   5.387   3.501
 9606SOL     OW29716   1.237   6.569   6.507
 9606SOL    HW129717   1.195   6.480   6.524
 9606SOL    HW229718   1.324   6.557   6.460
 9607SOL     OW29719   2.897   1.348   6.683
 9607SOL    HW129720   2.827   1.328   6.614
 9607SOL    HW229721   2.987   1.325   6.645
 9608SOL     OW29722   0.038   4.447   1.811
 9608SOL    HW129723   7.017   4.493   1.886
 9608SOL    HW229724   0.135   4.472   1.812
 9609SOL     OW29725   3.423   3.165   0.444
 9609SOL    HW129726   3.417   3.241   0.508
 9609SOL    HW229727   3.333   3.146   0.404
 9610SOL     OW29728   1.714   4.454   3.490
 9610SOL    HW129729   1.619   4.436   3.513
 9610SOL    HW229730   1.774   4.412   3.559
 9611SOL     OW29731   1.330   6.489   0.675
 9611SOL    HW129732   1.254   6.491   0.611
 9611SOL    HW229733   1.416   6.498   0.625
 9612SOL     OW29734   0.337   3.352   1.941
 9612SOL    HW129735   0.347   3.411   1.860
 9612SOL    HW229736   0.362   3.258   1.917
 9613SOL     OW29737   4.807   6.122   3.742
 9613SOL    HW129738   4.828   6.213   3.777
 9613SOL    HW229739   4.796   6.058   3.819
 9614SOL     OW29740   3.651   2.003   1.821
 9614SOL    HW129741   3.570   2.043   1.779
 9614SOL    HW229742   3.692   2.069   1.884
 9615SOL     OW29743   2.130   1.066   1.572
 9615SOL    HW129744   2.171   1.145   1.526
 9615SOL    HW229745   2.097   1.001   1.504
 9616SOL     OW29746   3.697   4.112   1.078
 9616SOL    HW129747   3.632   4.132   1.005
 9616SOL    HW229748   3.790   4.111   1.040
 9617SOL     OW29749   1.901   2.838   3.276
 9617SOL    HW129750   1.989   2.840   3.322
 9617SOL    HW229751   1.853   2.925   3.291
 9618SOL     OW29752   2.584   0.257   0.694
 9618SOL    HW129753   2.532   0.203   0.628
 9618SOL    HW229754   2.580   0.213   0.784
 9619SOL     OW29755   1.751   0.370   6.232
 9619SOL    HW129756   1.795   0.376   6.142
 9619SOL    HW229757   1.652   0.365   6.220
 9620SOL     OW29758   4.328   6.796   5.601
 9620SOL    HW129759   4.263   6.827   5.671
 9620SOL    HW229760   4.293   6.713   5.558
 9621SOL     OW29761   1.913   2.836   2.050
 9621SOL    HW129762   1.832   2.807   2.000
 9621SOL    HW229763   1.994   2.831   1.991
 9622SOL     OW29764   0.184   1.546   0.423
 9622SOL    HW129765   0.160   1.643   0.422
 9622SOL    HW229766   0.233   1.525   0.508
 9623SOL     OW29767   2.721   3.359   5.414
 9623SOL    HW129768   2.720   3.286   5.345
 9623SOL    HW229769   2.816   3.380   5.438
 9624SOL     OW29770   6.349   4.409   3.054
 9624SOL    HW129771   6.430   4.418   3.112
 9624SOL    HW229772   6.375   4.369   2.966
 9625SOL     OW29773   5.048   5.614   6.865
 9625SOL    HW129774   5.114   5.616   6.940
 9625SOL    HW229775   5.010   5.521   6.857
 9626SOL     OW29776   4.516   5.217   0.677
 9626SOL    HW129777   4.476   5.163   0.603
 9626SOL    HW229778   4.584   5.280   0.639
 9627SOL     OW29779   0.595   5.631   5.881
 9627SOL    HW129780   0.674   5.686   5.906
 9627SOL    HW229781   0.588   5.627   5.781
 9628SOL     OW29782   5.059   4.936   0.788
 9628SOL    HW129783   5.088   4.840   0.789
 9628SOL    HW229784   5.102   4.985   0.864
 9629SOL     OW29785   1.473   0.611   1.552
 9629SOL    HW129786   1.386   0.595   1.598
 9629SOL    HW229787   1.484   0.544   1.478
 9630SOL     OW29788   6.302   6.961   4.188
 9630SOL    HW129789   6.296   7.004   4.278
 9630SOL    HW229790   6.243   6.881   4.185
 9631SOL     OW29791   0.007   6.519   6.712
 9631SOL    HW129792   7.010   6.562   6.799
 9631SOL    HW229793   0.076   6.448   6.726
 9632SOL     OW29794   1.800   0.362   3.065
 9632SOL    HW129795   1.708   0.390   3.038
 9632SOL    HW229796   1.802   0.263   3.080
 9633SOL     OW29797   5.053   5.006   6.450
 9633SOL    HW129798   5.040   4.959   6.538
 9633SOL    HW229799   5.012   4.952   6.377
 9634SOL     OW29800   1.297   6.375   3.842
 9634SOL    HW129801   1.221   6.355   3.904
 9634SOL    HW229802   1.384   6.353   3.887
 9635SOL     OW29803   2.027   6.080   4.950
 9635SOL    HW129804   1.966   6.106   4.875
 9635SOL    HW229805   2.058   5.986   4.936
 9636SOL     OW29806   4.166   1.435   5.494
 9636SOL    HW129807   4.067   1.446   5.481
 9636SOL    HW229808   4.213   1.520   5.471
 9637SOL     OW29809   2.644   2.491   6.079
 9637SOL    HW129810   2.609   2.584   6.071
 9637SOL    HW229811   2.569   2.426   6.069
 9638SOL     OW29812   0.139   3.745   6.180
 9638SOL    HW129813   0.177   3.766   6.270
 9638SOL    HW229814   0.129   3.646   6.170
 9639SOL     OW29815   3.758   1.802   2.244
 9639SOL    HW129816   3.848   1.759   2.251
 9639SOL    HW229817   3.734   1.813   2.148
 9640SOL     OW29818   2.272   2.856   4.085
 9640SOL    HW129819   2.177   2.887   4.092
 9640SOL    HW229820   2.281   2.767   4.129
 9641SOL     OW29821   4.482   6.992   0.585
 9641SOL    HW129822   4.521   7.021   0.498
 9641SOL    HW229823   4.441   6.901   0.574
 9642SOL     OW29824   3.112   6.958   4.855
 9642SOL    HW129825   3.034   6.903   4.826
 9642SOL    HW229826   3.186   6.949   4.789
 9643SOL     OW29827   5.298   4.713   3.951
 9643SOL    HW129828   5.328   4.804   3.981
 9643SOL    HW229829   5.327   4.698   3.857
 9644SOL     OW29830   1.164   4.030   6.390
 9644SOL    HW129831   1.212   3.981   6.464
 9644SOL    HW229832   1.066   4.030   6.409
 9645SOL     OW29833   2.587   5.291   4.812
 9645SOL    HW129834   2.627   5.200   4.811
 9645SOL    HW229835   2.490   5.286   4.790
 9646SOL     OW29836   3.384   4.908   2.547
 9646SOL    HW129837   3.449   4.973   2.508
 9646SOL    HW229838   3.381   4.920   2.647
 9647SOL     OW29839   6.212   4.720   1.185
 9647SOL    HW129840   6.286   4.698   1.249
 9647SOL    HW229841   6.124   4.711   1.231
 9648SOL     OW29842   4.339   1.277   1.190
 9648SOL    HW129843   4.375   1.349   1.131
 9648SOL    HW229844   4.406   1.253   1.260
 9649SOL     OW29845   2.892   0.102   0.104
 9649SOL    HW129846   2.929   0.182   0.151
 9649SOL    HW229847   2.802   0.080   0.143
 9650SOL     OW29848   6.727   5.189   2.243
 9650SOL    HW129849   6.776   5.261   2.293
 9650SOL    HW229850   6.792   5.121   2.210
 9651SOL     OW29851   0.063   1.994   5.995
 9651SOL    HW129852   0.110   2.011   6.082
 9651SOL    HW229853   0.089   1.904   5.961
 9652SOL     OW29854   1.368   4.600   1.357
 9652SOL    HW129855   1.303   4.527   1.378
 9652SOL    HW229856   1.326   4.665   1.293
 9653SOL     OW29857   4.135   4.763   5.114
 9653SOL    HW129858   4.067   4.820   5.067
 9653SOL    HW229859   4.172   4.695   5.051
 9654SOL     OW29860   2.934   2.286   1.186
 9654SOL    HW129861   2.835   2.272   1.185
 9654SOL    HW229862   2.980   2.197   1.188
 9655SOL     OW29863   0.407   1.225   6.481
 9655SOL    HW129864   0.473   1.289   6.520
 9655SOL    HW229865   0.327   1.219   6.541
 9656SOL     OW29866   2.483   0.861   2.501
 9656SOL    HW129867   2.554   0.806   2.458
 9656SOL    HW229868   2.422   0.899   2.431
 9657SOL     OW29869   5.517   0.979   4.259
 9657SOL    HW129870   5.496   1.004   4.164
 9657SOL    HW229871   5.575   0.897   4.259
 9658SOL     OW29872   0.273   1.948   2.623
 9658SOL    HW129873   0.176   1.966   2.639
 9658SOL    HW229874   0.307   1.883   2.691
 9659SOL     OW29875   6.638   4.162   0.526
 9659SOL    HW129876   6.703   4.093   0.494
 9659SOL    HW229877   6.683   4.251   0.531
 9660SOL     OW29878   0.389   5.933   0.763
 9660SOL    HW129879   0.472   5.988   0.758
 9660SOL    HW229880   0.310   5.992   0.743
 9661SOL     OW29881   4.312   5.625   1.250
 9661SOL    HW129882   4.263   5.709   1.272
 9661SOL    HW229883   4.401   5.647   1.212
 9662SOL     OW29884   6.418   3.032   4.579
 9662SOL    HW129885   6.413   3.131   4.586
 9662SOL    HW229886   6.359   2.990   4.647
 9663SOL     OW29887   1.546   5.800   4.019
 9663SOL    HW129888   1.482   5.762   4.085
 9663SOL    HW229889   1.545   5.900   4.024
 9664SOL     OW29890   4.852   6.976   2.876
 9664SOL    HW129891   4.776   7.013   2.930
 9664SOL    HW229892   4.863   0.005   2.793
 9665SOL     OW29893   5.977   4.725   5.853
 9665SOL    HW129894   5.997   4.820   5.878
 9665SOL    HW229895   5.931   4.724   5.764
 9666SOL     OW29896   5.938   3.988   1.367
 9666SOL    HW129897   5.920   4.018   1.273
 9666SOL    HW229898   5.852   3.962   1.411
 9667SOL     OW29899   4.093   3.194   4.431
 9667SOL    HW129900   4.079   3.104   4.390
 9667SOL    HW229901   4.074   3.190   4.529
 9668SOL     OW29902   6.630   1.652   5.909
 9668SOL    HW129903   6.562   1.596   5.956
 9668SOL    HW229904   6.594   1.744   5.895
 9669SOL     OW29905   0.698   1.274   0.945
 9669SOL    HW129906   0.765   1.203   0.925
 9669SOL    HW229907   0.721   1.356   0.892
 9670SOL     OW29908   4.146   4.838   5.816
 9670SOL    HW129909   4.078   4.843   5.889
 9670SOL    HW229910   4.175   4.930   5.792
 9671SOL     OW29911   7.006   4.853   6.162
 9671SOL    HW129912   0.021   4.930   6.113
 9671SOL    HW229913   0.035   4.771   6.148
 9672SOL     OW29914   1.072   6.757   5.111
 9672SOL    HW129915   1.076   6.714   5.021
 9672SOL    HW229916   1.106   6.851   5.103
 9673SOL     OW29917   4.010   4.868   6.933
 9673SOL    HW129918   4.075   4.879   7.007
 9673SOL    HW229919   4.031   4.934   6.860
 9674SOL     OW29920   2.684   6.321   2.228
 9674SOL    HW129921   2.662   6.263   2.150
 9674SOL    HW229922   2.624   6.401   2.229
 9675SOL     OW29923   5.929   0.764   2.469
 9675SOL    HW129924   5.921   0.809   2.380
 9675SOL    HW229925   6.026   0.759   2.495
 9676SOL     OW29926   1.436   3.683   5.746
 9676SOL    HW129927   1.385   3.722   5.822
 9676SOL    HW229928   1.457   3.755   5.679
 9677SOL     OW29929   2.444   4.363   5.867
 9677SOL    HW129930   2.387   4.282   5.853
 9677SOL    HW229931   2.386   4.444   5.873
 9678SOL     OW29932   3.406   4.041   2.807
 9678SOL    HW129933   3.485   4.082   2.761
 9678SOL    HW229934   3.338   4.014   2.739
 9679SOL     OW29935   0.687   2.568   1.874
 9679SOL    HW129936   0.778   2.529   1.885
 9679SOL    HW229937   0.624   2.498   1.841
 9680SOL     OW29938   5.772   6.937   3.382
 9680SOL    HW129939   5.835   6.861   3.396
 9680SOL    HW229940   5.812   7.021   3.420
 9681SOL     OW29941   2.499   0.675   1.211
 9681SOL    HW129942   2.574   0.679   1.145
 9681SOL    HW229943   2.497   0.758   1.266
 9682SOL     OW29944   4.930   5.285   3.410
 9682SOL    HW129945   5.024   5.269   3.382
 9682SOL    HW229946   4.881   5.331   3.336
 9683SOL     OW29947   4.041   5.299   0.489
 9683SOL    HW129948   4.065   5.306   0.586
 9683SOL    HW229949   4.092   5.224   0.447
 9684SOL     OW29950   0.429   3.740   5.273
 9684SOL    HW129951   0.526   3.718   5.275
 9684SOL    HW229952   0.414   3.825   5.223
 9685SOL     OW29953   2.320   2.647   1.205
 9685SOL    HW129954   2.282   2.604   1.123
 9685SOL    HW229955   2.410   2.685   1.185
 9686SOL     OW29956   6.569   1.586   1.011
 9686SOL    HW129957   6.474   1.611   0.993
 9686SOL    HW229958   6.576   1.486   1.012
 9687SOL     OW29959   1.822   0.723   2.492
 9687SOL    HW129960   1.733   0.720   2.538
 9687SOL    HW229961   1.865   0.811   2.509
 9688SOL     OW29962   6.972   2.047   2.978
 9688SOL    HW129963   6.935   1.972   3.034
 9688SOL    HW229964   0.041   2.065   3.006
 9689SOL     OW29965   1.896   6.931   0.367
 9689SOL    HW129966   1.870   6.868   0.294
 9689SOL    HW229967   1.839   7.013   0.362
 9690SOL     OW29968   5.656   4.580   6.750
 9690SOL    HW129969   5.646   4.665   6.697
 9690SOL    HW229970   5.750   4.573   6.783
 9691SOL     OW29971   2.372   5.208   1.767
 9691SOL    HW129972   2.452   5.268   1.765
 9691SOL    HW229973   2.377   5.149   1.847
 9692SOL     OW29974   2.455   5.302   2.965
 9692SOL    HW129975   2.519   5.317   3.041
 9692SOL    HW229976   2.442   5.388   2.915
 9693SOL     OW29977   0.191   5.830   2.242
 9693SOL    HW129978   0.233   5.885   2.169
 9693SOL    HW229979   0.093   5.822   2.225
 9694SOL     OW29980   1.873   1.726   6.484
 9694SOL    HW129981   1.946   1.772   6.435
 9694SOL    HW229982   1.800   1.702   6.419
 9695SOL     OW29983   5.821   4.263   0.944
 9695SOL    HW129984   5.888   4.221   0.883
 9695SOL    HW229985   5.770   4.191   0.991
 9696SOL     OW29986   3.967   2.535   1.377
 9696SOL    HW129987   3.934   2.552   1.284
 9696SOL    HW229988   4.066   2.526   1.376
 9697SOL     OW29989   0.618   5.110   7.010
 9697SOL    HW129990   0.643   5.196   0.030
 9697SOL    HW229991   0.636   5.119   6.912
 9698SOL     OW29992   5.969   0.735   5.357
 9698SOL    HW129993   5.913   0.654   5.340
 9698SOL    HW229994   6.065   0.715   5.335
 9699SOL     OW29995   0.707   3.774   5.873
 9699SOL    HW129996   0.739   3.737   5.960
 9699SOL    HW229997   0.702   3.701   5.805
 9700SOL     OW29998   3.728   4.867   5.277
 9700SOL    HW129999   3.674   4.930   5.333
 9700SOL    HW230000   3.685   4.777   5.279
 9701SOL     OW30001   4.069   6.014   5.253
 9701SOL    HW130002   4.156   6.030   5.207
 9701SOL    HW230003   3.994   6.020   5.187
 9702SOL     OW30004   5.403   0.778   0.394
 9702SOL    HW130005   5.349   0.703   0.356
 9702SOL    HW230006   5.459   0.819   0.322
 9703SOL     OW30007   3.337   6.080   4.461
 9703SOL    HW130008   3.417   6.111   4.513
 9703SOL    HW230009   3.356   5.990   4.421
 9704SOL     OW30010   3.137   0.078   2.837
 9704SOL    HW130011   3.202   0.002   2.842
 9704SOL    HW230012   3.184   0.159   2.804
 9705SOL     OW30013   4.704   4.739   0.160
 9705SOL    HW130014   4.642   4.702   0.230
 9705SOL    HW230015   4.656   4.810   0.108
 9706SOL     OW30016   6.803   2.160   0.716
 9706SOL    HW130017   6.861   2.078   0.717
 9706SOL    HW230018   6.811   2.207   0.804
 9707SOL     OW30019   0.702   4.336   1.843
 9707SOL    HW130020   0.792   4.293   1.842
 9707SOL    HW230021   0.702   4.415   1.782
 9708SOL     OW30022   2.113   2.642   3.595
 9708SOL    HW130023   2.177   2.615   3.667
 9708SOL    HW230024   2.144   2.604   3.507
 9709SOL     OW30025   0.712   5.835   3.809
 9709SOL    HW130026   0.756   5.855   3.721
 9709SOL    HW230027   0.782   5.821   3.879
 9710SOL     OW30028   0.449   0.722   2.377
 9710SOL    HW130029   0.410   0.794   2.320
 9710SOL    HW230030   0.388   0.705   2.455
 9711SOL     OW30031   1.394   3.530   6.054
 9711SOL    HW130032   1.350   3.462   5.996
 9711SOL    HW230033   1.481   3.495   6.089
 9712SOL     OW30034   5.371   2.903   4.902
 9712SOL    HW130035   5.323   2.855   4.975
 9712SOL    HW230036   5.367   3.002   4.918
 9713SOL     OW30037   0.330   4.821   2.941
 9713SOL    HW130038   0.355   4.725   2.937
 9713SOL    HW230039   0.363   4.861   3.027
 9714SOL     OW30040   1.760   1.902   1.602
 9714SOL    HW130041   1.757   1.920   1.700
 9714SOL    HW230042   1.669   1.913   1.563
 9715SOL     OW30043   6.834   5.524   4.628
 9715SOL    HW130044   6.779   5.527   4.544
 9715SOL    HW230045   6.774   5.540   4.706
 9716SOL     OW30046   3.688   1.940   6.765
 9716SOL    HW130047   3.716   1.911   6.673
 9716SOL    HW230048   3.592   1.968   6.764
 9717SOL     OW30049   5.513   5.999   4.474
 9717SOL    HW130050   5.478   5.921   4.421
 9717SOL    HW230051   5.517   5.974   4.571
 9718SOL     OW30052   4.246   2.577   1.472
 9718SOL    HW130053   4.343   2.554   1.482
 9718SOL    HW230054   4.199   2.562   1.559
 9719SOL     OW30055   0.703   2.092   0.156
 9719SOL    HW130056   0.661   2.011   0.116
 9719SOL    HW230057   0.633   2.162   0.173
 9720SOL     OW30058   0.522   6.392   1.773
 9720SOL    HW130059   0.540   6.490   1.781
 9720SOL    HW230060   0.434   6.371   1.815
 9721SOL     OW30061   0.942   2.836   2.050
 9721SOL    HW130062   0.864   2.886   2.087
 9721SOL    HW230063   0.943   2.743   2.089
 9722SOL     OW30064   0.936   0.263   3.505
 9722SOL    HW130065   0.840   0.277   3.530
 9722SOL    HW230066   0.942   0.242   3.408
 9723SOL     OW30067   0.716   6.391   2.501
 9723SOL    HW130068   0.695   6.420   2.594
 9723SOL    HW230069   0.636   6.347   2.461
 9724SOL     OW30070   3.065   2.878   1.716
 9724SOL    HW130071   3.024   2.787   1.712
 9724SOL    HW230072   3.079   2.913   1.624
 9725SOL     OW30073   4.076   3.206   6.066
 9725SOL    HW130074   4.063   3.156   6.152
 9725SOL    HW230075   4.082   3.304   6.085
 9726SOL     OW30076   5.553   0.576   4.896
 9726SOL    HW130077   5.495   0.572   4.978
 9726SOL    HW230078   5.563   0.485   4.858
 9727SOL     OW30079   1.341   3.956   5.592
 9727SOL    HW130080   1.300   4.020   5.527
 9727SOL    HW230081   1.389   3.884   5.541
 9728SOL     OW30082   1.807   6.413   6.725
 9728SOL    HW130083   1.802   6.367   6.814
 9728SOL    HW230084   1.844   6.505   6.737
 9729SOL     OW30085   1.540   4.675   3.115
 9729SOL    HW130086   1.452   4.645   3.153
 9729SOL    HW230087   1.581   4.742   3.177
 9730SOL     OW30088   0.230   3.274   2.598
 9730SOL    HW130089   0.138   3.251   2.566
 9730SOL    HW230090   0.224   3.330   2.681
 9731SOL     OW30091   4.299   5.005   0.760
 9731SOL    HW130092   4.218   5.017   0.703
 9731SOL    HW230093   4.293   4.917   0.807
 9732SOL     OW30094   6.691   6.430   2.773
 9732SOL    HW130095   6.709   6.518   2.818
 9732SOL    HW230096   6.594   6.422   2.753
 9733SOL     OW30097   6.002   5.109   4.599
 9733SOL    HW130098   6.045   5.095   4.688
 9733SOL    HW230099   5.926   5.045   4.588
 9734SOL     OW30100   5.339   1.720   4.042
 9734SOL    HW130101   5.242   1.733   4.061
 9734SOL    HW230102   5.387   1.700   4.127
 9735SOL     OW30103   2.202   4.762   2.771
 9735SOL    HW130104   2.258   4.841   2.748
 9735SOL    HW230105   2.208   4.693   2.698
 9736SOL     OW30106   4.998   1.009   6.397
 9736SOL    HW130107   5.041   1.000   6.307
 9736SOL    HW230108   5.069   1.014   6.467
 9737SOL     OW30109   4.481   2.570   4.782
 9737SOL    HW130110   4.519   2.652   4.739
 9737SOL    HW230111   4.417   2.526   4.718
 9738SOL     OW30112   1.834   0.411   2.485
 9738SOL    HW130113   1.819   0.498   2.437
 9738SOL    HW230114   1.833   0.428   2.584
 9739SOL     OW30115   0.509   5.204   1.316
 9739SOL    HW130116   0.573   5.281   1.317
 9739SOL    HW230117   0.419   5.236   1.288
 9740SOL     OW30118   5.899   3.430   3.154
 9740SOL    HW130119   5.886   3.415   3.252
 9740SOL    HW230120   5.961   3.507   3.140
 9741SOL     OW30121   4.509   1.094   2.866
 9741SOL    HW130122   4.511   1.077   2.767
 9741SOL    HW230123   4.466   1.182   2.884
 9742SOL     OW30124   4.971   0.279   2.981
 9742SOL    HW130125   4.901   0.259   3.050
 9742SOL    HW230126   5.061   0.277   3.023
 9743SOL     OW30127   1.826   2.738   5.802
 9743SOL    HW130128   1.892   2.714   5.730
 9743SOL    HW230129   1.804   2.835   5.796
 9744SOL     OW30130   1.235   0.699   2.128
 9744SOL    HW130131   1.310   0.678   2.066
 9744SOL    HW230132   1.259   0.779   2.185
 9745SOL     OW30133   0.332   2.663   5.368
 9745SOL    HW130134   0.251   2.639   5.420
 9745SOL    HW230135   0.328   2.620   5.278
 9746SOL     OW30136   5.176   1.355   5.274
 9746SOL    HW130137   5.177   1.397   5.364
 9746SOL    HW230138   5.270   1.348   5.239
 9747SOL     OW30139   1.456   1.656   1.045
 9747SOL    HW130140   1.413   1.676   1.133
 9747SOL    HW230141   1.529   1.589   1.058
 9748SOL     OW30142   0.964   6.567   5.267
 9748SOL    HW130143   0.867   6.544   5.271
 9748SOL    HW230144   0.977   6.646   5.207
 9749SOL     OW30145   1.326   2.601   5.748
 9749SOL    HW130146   1.406   2.622   5.803
 9749SOL    HW230147   1.308   2.677   5.685
 9750SOL     OW30148   5.788   5.070   3.925
 9750SOL    HW130149   5.801   4.985   3.977
 9750SOL    HW230150   5.707   5.117   3.958
 9751SOL     OW30151   1.842   2.237   1.163
 9751SOL    HW130152   1.860   2.304   1.091
 9751SOL    HW230153   1.924   2.184   1.181
 9752SOL     OW30154   4.852   0.518   6.134
 9752SOL    HW130155   4.941   0.552   6.165
 9752SOL    HW230156   4.800   0.485   6.213
 9753SOL     OW30157   6.495   6.254   4.769
 9753SOL    HW130158   6.489   6.335   4.710
 9753SOL    HW230159   6.442   6.180   4.729
 9754SOL     OW30160   1.323   1.636   6.827
 9754SOL    HW130161   1.276   1.549   6.842
 9754SOL    HW230162   1.336   1.650   6.728
 9755SOL     OW30163   4.198   3.715   5.111
 9755SOL    HW130164   4.165   3.624   5.086
 9755SOL    HW230165   4.147   3.784   5.058
 9756SOL     OW30166   5.637   3.003   0.060
 9756SOL    HW130167   5.624   3.066   7.009
 9756SOL    HW230168   5.645   2.909   0.026
 9757SOL     OW30169   5.249   3.349   3.779
 9757SOL    HW130170   5.151   3.368   3.770
 9757SOL    HW230171   5.286   3.319   3.691
 9758SOL     OW30172   2.000   0.248   5.731
 9758SOL    HW130173   1.913   0.262   5.685
 9758SOL    HW230174   2.038   0.337   5.758
 9759SOL     OW30175   2.165   6.925   1.014
 9759SOL    HW130176   2.104   6.853   1.049
 9759SOL    HW230177   2.135   6.953   0.923
 9760SOL     OW30178   5.052   4.404   5.118
 9760SOL    HW130179   5.084   4.403   5.024
 9760SOL    HW230180   5.119   4.452   5.175
 9761SOL     OW30181   6.031   5.299   1.549
 9761SOL    HW130182   5.939   5.270   1.576
 9761SOL    HW230183   6.049   5.271   1.455
 9762SOL     OW30184   2.198   2.165   4.645
 9762SOL    HW130185   2.277   2.194   4.698
 9762SOL    HW230186   2.144   2.099   4.698
 9763SOL     OW30187   4.496   1.555   1.806
 9763SOL    HW130188   4.537   1.633   1.759
 9763SOL    HW230189   4.510   1.472   1.751
 9764SOL     OW30190   1.885   2.079   3.310
 9764SOL    HW130191   1.957   2.147   3.321
 9764SOL    HW230192   1.844   2.058   3.399
 9765SOL     OW30193   6.392   2.235   5.430
 9765SOL    HW130194   6.432   2.148   5.401
 9765SOL    HW230195   6.302   2.217   5.471
 9766SOL     OW30196   2.912   0.641   2.987
 9766SOL    HW130197   2.871   0.623   3.077
 9766SOL    HW230198   2.943   0.555   2.947
 9767SOL     OW30199   5.203   1.829   4.669
 9767SOL    HW130200   5.302   1.838   4.679
 9767SOL    HW230201   5.170   1.758   4.731
 9768SOL     OW30202   4.685   2.196   2.489
 9768SOL    HW130203   4.636   2.281   2.508
 9768SOL    HW230204   4.775   2.217   2.452
 9769SOL     OW30205   0.981   2.543   1.159
 9769SOL    HW130206   1.026   2.590   1.083
 9769SOL    HW230207   0.985   2.601   1.241
 9770SOL     OW30208   6.033   5.503   5.796
 9770SOL    HW130209   6.070   5.473   5.884
 9770SOL    HW230210   5.963   5.439   5.765
 9771SOL     OW30211   4.370   4.527   1.097
 9771SOL    HW130212   4.391   4.600   1.031
 9771SOL    HW230213   4.278   4.541   1.133
 9772SOL     OW30214   6.885   6.866   1.643
 9772SOL    HW130215   6.797   6.823   1.666
 9772SOL    HW230216   6.949   6.795   1.613
 9773SOL     OW30217   5.757   5.892   3.797
 9773SOL    HW130218   5.802   5.828   3.735
 9773SOL    HW230219   5.673   5.851   3.833
 9774SOL     OW30220   6.200   4.980   3.929
 9774SOL    HW130221   6.248   4.936   4.005
 9774SOL    HW230222   6.255   5.057   3.895
 9775SOL     OW30223   1.919   2.503   5.020
 9775SOL    HW130224   1.959   2.443   4.951
 9775SOL    HW230225   1.820   2.495   5.018
 9776SOL     OW30226   7.013   5.433   4.317
 9776SOL    HW130227   6.921   5.396   4.329
 9776SOL    HW230228   7.011   5.533   4.323
 9777SOL     OW30229   6.209   4.749   6.069
 9777SOL    HW130230   6.154   4.676   6.029
 9777SOL    HW230231   6.155   4.833   6.071
 9778SOL     OW30232   4.655   6.994   3.176
 9778SOL    HW130233   4.558   7.005   3.152
 9778SOL    HW230234   4.676   6.897   3.183
 9779SOL     OW30235   2.347   1.538   4.919
 9779SOL    HW130236   2.396   1.451   4.910
 9779SOL    HW230237   2.349   1.587   4.832
 9780SOL     OW30238   1.890   2.771   0.461
 9780SOL    HW130239   1.890   2.832   0.540
 9780SOL    HW230240   1.795   2.756   0.431
 9781SOL     OW30241   1.660   4.452   4.611
 9781SOL    HW130242   1.702   4.417   4.527
 9781SOL    HW230243   1.566   4.418   4.618
 9782SOL     OW30244   6.628   0.347   0.995
 9782SOL    HW130245   6.682   0.263   0.990
 9782SOL    HW230246   6.537   0.330   0.956
 9783SOL     OW30247   6.183   0.600   1.259
 9783SOL    HW130248   6.206   0.503   1.247
 9783SOL    HW230249   6.124   0.611   1.339
 9784SOL     OW30250   4.307   1.324   3.497
 9784SOL    HW130251   4.345   1.335   3.589
 9784SOL    HW230252   4.314   1.411   3.448
 9785SOL     OW30253   6.893   2.700   2.955
 9785SOL    HW130254   6.962   2.702   2.882
 9785SOL    HW230255   6.919   2.631   3.023
 9786SOL     OW30256   2.158   5.161   6.289
 9786SOL    HW130257   2.230   5.092   6.292
 9786SOL    HW230258   2.198   5.251   6.302
 9787SOL     OW30259   4.865   3.539   1.905
 9787SOL    HW130260   4.876   3.471   1.978
 9787SOL    HW230261   4.815   3.499   1.829
 9788SOL     OW30262   0.279   6.971   4.215
 9788SOL    HW130263   0.362   6.986   4.269
 9788SOL    HW230264   0.257   6.874   4.215
 9789SOL     OW30265   2.474   5.364   5.910
 9789SOL    HW130266   2.552   5.425   5.892
 9789SOL    HW230267   2.483   5.281   5.855
 9790SOL     OW30268   5.573   1.746   4.431
 9790SOL    HW130269   5.523   1.713   4.351
 9790SOL    HW230270   5.606   1.839   4.414
 9791SOL     OW30271   1.339   1.687   1.287
 9791SOL    HW130272   1.360   1.656   1.380
 9791SOL    HW230273   1.351   1.786   1.281
 9792SOL     OW30274   4.756   4.833   1.706
 9792SOL    HW130275   4.842   4.797   1.668
 9792SOL    HW230276   4.701   4.757   1.740
 9793SOL     OW30277   5.440   6.032   2.900
 9793SOL    HW130278   5.488   6.011   2.985
 9793SOL    HW230279   5.393   6.120   2.909
 9794SOL     OW30280   5.105   3.310   6.202
 9794SOL    HW130281   5.081   3.226   6.251
 9794SOL    HW230282   5.052   3.315   6.117
 9795SOL     OW30283   1.074   3.056   4.374
 9795SOL    HW130284   0.993   3.025   4.324
 9795SOL    HW230285   1.108   3.140   4.333
 9796SOL     OW30286   2.934   5.180   0.879
 9796SOL    HW130287   2.837   5.161   0.893
 9796SOL    HW230288   2.986   5.154   0.961
 9797SOL     OW30289   4.346   3.271   6.847
 9797SOL    HW130290   4.325   3.360   6.805
 9797SOL    HW230291   4.320   3.198   6.784
 9798SOL     OW30292   2.250   0.361   0.757
 9798SOL    HW130293   2.232   0.394   0.664
 9798SOL    HW230294   2.166   0.360   0.809
 9799SOL     OW30295   3.181   3.042   2.575
 9799SOL    HW130296   3.184   3.033   2.476
 9799SOL    HW230297   3.236   2.970   2.617
 9800SOL     OW30298   4.153   6.073   6.639
 9800SOL    HW130299   4.078   6.139   6.647
 9800SOL    HW230300   4.130   5.990   6.688
 9801SOL     OW30301   5.009   5.596   0.440
 9801SOL    HW130302   4.986   5.499   0.429
 9801SOL    HW230303   5.096   5.615   0.394
 9802SOL     OW30304   0.646   3.525   1.350
 9802SOL    HW130305   0.655   3.548   1.253
 9802SOL    HW230306   0.661   3.606   1.406
 9803SOL     OW30307   6.042   6.870   6.894
 9803SOL    HW130308   6.120   6.846   6.836
 9803SOL    HW230309   5.995   6.950   6.855
 9804SOL     OW30310   0.115   4.959   3.723
 9804SOL    HW130311   0.138   4.938   3.818
 9804SOL    HW230312   0.195   4.947   3.665
 9805SOL     OW30313   1.442   5.332   6.873
 9805SOL    HW130314   1.447   5.390   6.954
 9805SOL    HW230315   1.438   5.236   6.900
 9806SOL     OW30316   0.759   2.684   1.552
 9806SOL    HW130317   0.815   2.697   1.634
 9806SOL    HW230318   0.663   2.695   1.575
 9807SOL     OW30319   4.315   1.589   0.558
 9807SOL    HW130320   4.232   1.630   0.521
 9807SOL    HW230321   4.385   1.660   0.569
 9808SOL     OW30322   5.924   1.477   5.234
 9808SOL    HW130323   5.921   1.459   5.136
 9808SOL    HW230324   6.004   1.533   5.255
 9809SOL     OW30325   0.793   1.396   4.812
 9809SOL    HW130326   0.693   1.392   4.804
 9809SOL    HW230327   0.822   1.492   4.815
 9810SOL     OW30328   2.878   1.332   2.975
 9810SOL    HW130329   2.804   1.269   3.001
 9810SOL    HW230330   2.846   1.392   2.901
 9811SOL     OW30331   6.984   6.267   3.207
 9811SOL    HW130332   6.953   6.355   3.243
 9811SOL    HW230333   6.935   6.248   3.121
 9812SOL     OW30334   4.358   2.391   5.726
 9812SOL    HW130335   4.383   2.360   5.817
 9812SOL    HW230336   4.336   2.313   5.669
 9813SOL     OW30337   6.254   5.538   0.269
 9813SOL    HW130338   6.311   5.467   0.311
 9813SOL    HW230339   6.159   5.507   0.267
 9814SOL     OW30340   6.624   6.932   5.357
 9814SOL    HW130341   6.575   6.850   5.386
 9814SOL    HW230342   6.704   6.906   5.303
 9815SOL     OW30343   6.614   3.106   1.489
 9815SOL    HW130344   6.638   3.202   1.506
 9815SOL    HW230345   6.611   3.058   1.577
 9816SOL     OW30346   6.327   0.479   0.176
 9816SOL    HW130347   6.312   0.545   0.102
 9816SOL    HW230348   6.285   0.513   0.260
 9817SOL     OW30349   3.033   6.158   1.703
 9817SOL    HW130350   3.008   6.131   1.796
 9817SOL    HW230351   3.120   6.116   1.678
 9818SOL     OW30352   1.937   1.172   3.574
 9818SOL    HW130353   1.937   1.176   3.674
 9818SOL    HW230354   1.935   1.077   3.545
 9819SOL     OW30355   5.873   3.715   4.908
 9819SOL    HW130356   5.927   3.640   4.945
 9819SOL    HW230357   5.776   3.690   4.910
 9820SOL     OW30358   2.592   2.199   6.201
 9820SOL    HW130359   2.676   2.252   6.186
 9820SOL    HW230360   2.525   2.221   6.131
 9821SOL     OW30361   4.206   2.015   1.773
 9821SOL    HW130362   4.110   1.990   1.762
 9821SOL    HW230363   4.237   2.066   1.693
 9822SOL     OW30364   4.149   5.920   4.578
 9822SOL    HW130365   4.049   5.916   4.570
 9822SOL    HW230366   4.185   5.828   4.591
 9823SOL     OW30367   1.249   0.598   2.750
 9823SOL    HW130368   1.287   0.690   2.741
 9823SOL    HW230369   1.225   0.563   2.660
 9824SOL     OW30370   1.869   6.240   5.877
 9824SOL    HW130371   1.799   6.310   5.895
 9824SOL    HW230372   1.855   6.202   5.786
 9825SOL     OW30373   5.061   5.825   5.967
 9825SOL    HW130374   4.982   5.886   5.976
 9825SOL    HW230375   5.081   5.810   5.870
 9826SOL     OW30376   3.081   6.650   5.223
 9826SOL    HW130377   3.133   6.692   5.148
 9826SOL    HW230378   3.110   6.555   5.234
 9827SOL     OW30379   1.851   5.671   2.298
 9827SOL    HW130380   1.808   5.684   2.208
 9827SOL    HW230381   1.902   5.585   2.298
 9828SOL     OW30382   4.295   1.769   5.030
 9828SOL    HW130383   4.256   1.761   5.121
 9828SOL    HW230384   4.387   1.808   5.036
 9829SOL     OW30385   4.611   5.976   5.855
 9829SOL    HW130386   4.573   6.061   5.891
 9829SOL    HW230387   4.545   5.934   5.792
 9830SOL     OW30388   5.819   2.025   2.600
 9830SOL    HW130389   5.794   1.949   2.540
 9830SOL    HW230390   5.917   2.041   2.594
 9831SOL     OW30391   0.957   4.216   2.119
 9831SOL    HW130392   0.935   4.255   2.030
 9831SOL    HW230393   0.986   4.121   2.108
 9832SOL     OW30394   4.852   4.533   4.922
 9832SOL    HW130395   4.934   4.555   4.869
 9832SOL    HW230396   4.866   4.555   5.018
 9833SOL     OW30397   3.325   4.098   4.249
 9833SOL    HW130398   3.320   4.116   4.347
 9833SOL    HW230399   3.405   4.145   4.210
 9834SOL     OW30400   2.563   5.534   5.574
 9834SOL    HW130401   2.637   5.581   5.622
 9834SOL    HW230402   2.552   5.573   5.483
 9835SOL     OW30403   3.720   4.211   5.041
 9835SOL    HW130404   3.817   4.189   5.041
 9835SOL    HW230405   3.691   4.233   4.948
 9836SOL     OW30406   0.472   3.502   5.753
 9836SOL    HW130407   0.506   3.411   5.733
 9836SOL    HW230408   0.444   3.547   5.668
 9837SOL     OW30409   5.760   2.025   1.728
 9837SOL    HW130410   5.715   1.938   1.747
 9837SOL    HW230411   5.851   2.008   1.689
 9838SOL     OW30412   0.827   6.018   1.384
 9838SOL    HW130413   0.819   5.922   1.411
 9838SOL    HW230414   0.738   6.063   1.392
 9839SOL     OW30415   4.695   1.071   2.286
 9839SOL    HW130416   4.751   0.994   2.317
 9839SOL    HW230417   4.656   1.118   2.364
 9840SOL     OW30418   6.161   1.695   6.815
 9840SOL    HW130419   6.143   1.597   6.810
 9840SOL    HW230420   6.075   1.745   6.825
 9841SOL     OW30421   0.281   5.958   3.422
 9841SOL    HW130422   0.379   5.973   3.439
 9841SOL    HW230423   0.237   6.044   3.398
 9842SOL     OW30424   3.182   2.094   0.405
 9842SOL    HW130425   3.251   2.070   0.337
 9842SOL    HW230426   3.091   2.088   0.364
 9843SOL     OW30427   6.909   6.241   0.956
 9843SOL    HW130428   6.878   6.167   1.016
 9843SOL    HW230429   7.006   6.259   0.973
 9844SOL     OW30430   4.817   0.096   4.389
 9844SOL    HW130431   4.812   0.181   4.336
 9844SOL    HW230432   4.897   0.098   4.448
 9845SOL     OW30433   1.490   2.728   1.753
 9845SOL    HW130434   1.506   2.637   1.715
 9845SOL    HW230435   1.481   2.794   1.679
 9846SOL     OW30436   5.161   1.138   1.653
 9846SOL    HW130437   5.261   1.147   1.653
 9846SOL    HW230438   5.126   1.151   1.560
 9847SOL     OW30439   3.954   3.463   0.486
 9847SOL    HW130440   3.929   3.367   0.483
 9847SOL    HW230441   3.912   3.507   0.565
 9848SOL     OW30442   3.930   3.536   5.289
 9848SOL    HW130443   3.997   3.521   5.216
 9848SOL    HW230444   3.934   3.460   5.354
 9849SOL     OW30445   0.896   1.474   6.164
 9849SOL    HW130446   0.916   1.385   6.204
 9849SOL    HW230447   0.939   1.482   6.074
 9850SOL     OW30448   0.626   0.476   4.369
 9850SOL    HW130449   0.647   0.461   4.466
 9850SOL    HW230450   0.578   0.397   4.332
 9851SOL     OW30451   3.768   5.021   4.291
 9851SOL    HW130452   3.731   5.095   4.236
 9851SOL    HW230453   3.822   4.960   4.233
 9852SOL     OW30454   1.719   1.412   6.422
 9852SOL    HW130455   1.778   1.395   6.500
 9852SOL    HW230456   1.666   1.330   6.401
 9853SOL     OW30457   0.212   4.160   4.088
 9853SOL    HW130458   0.278   4.107   4.140
 9853SOL    HW230459   0.123   4.157   4.133
 9854SOL     OW30460   0.825   5.451   6.205
 9854SOL    HW130461   0.824   5.400   6.291
 9854SOL    HW230462   0.732   5.466   6.174
 9855SOL     OW30463   1.578   3.509   1.133
 9855SOL    HW130464   1.556   3.464   1.219
 9855SOL    HW230465   1.533   3.462   1.057
 9856SOL     OW30466   5.724   4.135   3.179
 9856SOL    HW130467   5.814   4.106   3.148
 9856SOL    HW230468   5.704   4.227   3.143
 9857SOL     OW30469   4.655   2.200   3.915
 9857SOL    HW130470   4.629   2.147   3.995
 9857SOL    HW230471   4.712   2.278   3.943
 9858SOL     OW30472   6.887   6.262   2.643
 9858SOL    HW130473   6.880   6.165   2.664
 9858SOL    HW230474   6.802   6.308   2.667
 9859SOL     OW30475   0.338   5.787   4.534
 9859SOL    HW130476   0.302   5.721   4.601
 9859SOL    HW230477   0.432   5.812   4.559
 9860SOL     OW30478   1.606   2.764   5.454
 9860SOL    HW130479   1.598   2.665   5.464
 9860SOL    HW230480   1.538   2.796   5.387
 9861SOL     OW30481   3.531   1.451   4.397
 9861SOL    HW130482   3.590   1.531   4.394
 9861SOL    HW230483   3.449   1.468   4.341
 9862SOL     OW30484   1.723   5.200   1.102
 9862SOL    HW130485   1.670   5.257   1.040
 9862SOL    HW230486   1.693   5.215   1.196
 9863SOL     OW30487   3.290   6.141   0.894
 9863SOL    HW130488   3.301   6.048   0.857
 9863SOL    HW230489   3.238   6.137   0.979
 9864SOL     OW30490   3.213   6.074   4.918
 9864SOL    HW130491   3.240   6.169   4.904
 9864SOL    HW230492   3.116   6.069   4.940
 9865SOL     OW30493   0.680   6.319   5.863
 9865SOL    HW130494   0.625   6.360   5.936
 9865SOL    HW230495   0.766   6.369   5.854
 9866SOL     OW30496   6.350   4.510   4.547
 9866SOL    HW130497   6.425   4.562   4.588
 9866SOL    HW230498   6.271   4.570   4.535
 9867SOL     OW30499   4.943   2.015   1.823
 9867SOL    HW130500   4.933   1.985   1.918
 9867SOL    HW230501   4.868   2.076   1.798
 9868SOL     OW30502   1.302   4.496   3.066
 9868SOL    HW130503   1.319   4.430   3.139
 9868SOL    HW230504   1.217   4.546   3.085
 9869SOL     OW30505   0.203   2.925   1.193
 9869SOL    HW130506   0.303   2.919   1.192
 9869SOL    HW230507   0.176   3.021   1.192
 9870SOL     OW30508   3.183   1.106   1.889
 9870SOL    HW130509   3.167   1.076   1.795
 9870SOL    HW230510   3.099   1.147   1.925
 9871SOL     OW30511   7.013   3.644   5.052
 9871SOL    HW130512   6.986   3.549   5.037
 9871SOL    HW230513   0.087   3.650   5.057
 9872SOL     OW30514   1.871   4.948   5.476
 9872SOL    HW130515   1.912   4.983   5.392
 9872SOL    HW230516   1.887   5.013   5.551
 9873SOL     OW30517   2.557   1.998   5.791
 9873SOL    HW130518   2.547   1.994   5.890
 9873SOL    HW230519   2.598   2.086   5.766
 9874SOL     OW30520   0.133   2.646   4.827
 9874SOL    HW130521   0.048   2.623   4.874
 9874SOL    HW230522   0.156   2.574   4.762
 9875SOL     OW30523   6.855   5.904   0.683
 9875SOL    HW130524   6.764   5.934   0.713
 9875SOL    HW230525   6.852   5.884   0.586
 9876SOL     OW30526   2.151   6.375   3.185
 9876SOL    HW130527   2.210   6.317   3.241
 9876SOL    HW230528   2.093   6.431   3.245
 9877SOL     OW30529   0.907   5.129   4.953
 9877SOL    HW130530   0.995   5.084   4.966
 9877SOL    HW230531   0.871   5.106   4.863
 9878SOL     OW30532   2.030   3.076   0.061
 9878SOL    HW130533   2.015   3.036   0.151
 9878SOL    HW230534   1.960   3.043   7.023
 9879SOL     OW30535   0.384   4.794   6.095
 9879SOL    HW130536   0.459   4.745   6.139
 9879SOL    HW230537   0.296   4.757   6.127
 9880SOL     OW30538   3.175   1.758   0.128
 9880SOL    HW130539   3.183   1.719   0.219
 9880SOL    HW230540   3.110   1.834   0.130
 9881SOL     OW30541   5.563   0.304   4.866
 9881SOL    HW130542   5.619   0.292   4.948
 9881SOL    HW230543   5.525   0.216   4.839
 9882SOL     OW30544   4.131   3.423   4.265
 9882SOL    HW130545   4.131   3.395   4.169
 9882SOL    HW230546   4.100   3.348   4.322
 9883SOL     OW30547   2.103   0.095   1.251
 9883SOL    HW130548   2.111   0.041   1.167
 9883SOL    HW230549   2.195   0.120   1.283
 9884SOL     OW30550   1.830   3.925   6.477
 9884SOL    HW130551   1.855   3.840   6.430
 9884SOL    HW230552   1.913   3.972   6.506
 9885SOL     OW30553   6.411   3.325   4.169
 9885SOL    HW130554   6.486   3.374   4.123
 9885SOL    HW230555   6.446   3.238   4.205
 9886SOL     OW30556   4.855   6.157   1.488
 9886SOL    HW130557   4.941   6.199   1.518
 9886SOL    HW230558   4.847   6.164   1.389
 9887SOL     OW30559   3.953   6.905   0.445
 9887SOL    HW130560   3.963   6.938   0.351
 9887SOL    HW230561   4.012   6.825   0.459
 9888SOL     OW30562   6.128   5.442   2.252
 9888SOL    HW130563   6.179   5.523   2.278
 9888SOL    HW230564   6.045   5.436   2.307
 9889SOL     OW30565   0.665   4.933   3.570
 9889SOL    HW130566   0.572   4.945   3.604
 9889SOL    HW230567   0.696   5.019   3.529
 9890SOL     OW30568   6.796   4.083   1.756
 9890SOL    HW130569   6.814   4.176   1.723
 9890SOL    HW230570   6.877   4.048   1.802
 9891SOL     OW30571   5.231   4.434   0.830
 9891SOL    HW130572   5.214   4.335   0.834
 9891SOL    HW230573   5.319   4.454   0.873
 9892SOL     OW30574   1.831   5.645   4.364
 9892SOL    HW130575   1.924   5.677   4.348
 9892SOL    HW230576   1.807   5.576   4.295
 9893SOL     OW30577   6.321   5.003   3.564
 9893SOL    HW130578   6.233   4.957   3.551
 9893SOL    HW230579   6.372   5.001   3.478
 9894SOL     OW30580   3.627   2.879   5.864
 9894SOL    HW130581   3.677   2.887   5.778
 9894SOL    HW230582   3.532   2.909   5.850
 9895SOL     OW30583   5.046   2.361   6.708
 9895SOL    HW130584   5.049   2.404   6.618
 9895SOL    HW230585   5.081   2.425   6.777
 9896SOL     OW30586   4.161   3.725   0.223
 9896SOL    HW130587   4.215   3.805   0.197
 9896SOL    HW230588   4.094   3.705   0.152
 9897SOL     OW30589   6.039   2.217   2.740
 9897SOL    HW130590   6.090   2.148   2.687
 9897SOL    HW230591   6.047   2.197   2.837
 9898SOL     OW30592   1.513   5.403   5.675
 9898SOL    HW130593   1.445   5.333   5.695
 9898SOL    HW230594   1.512   5.424   5.577
 9899SOL     OW30595   5.138   4.731   2.578
 9899SOL    HW130596   5.131   4.666   2.503
 9899SOL    HW230597   5.092   4.816   2.552
 9900SOL     OW30598   1.455   2.536   4.152
 9900SOL    HW130599   1.395   2.517   4.230
 9900SOL    HW230600   1.445   2.463   4.084
 9901SOL     OW30601   2.895   2.175   6.087
 9901SOL    HW130602   2.989   2.180   6.055
 9901SOL    HW230603   2.877   2.250   6.150
 9902SOL     OW30604   3.869   3.451   0.199
 9902SOL    HW130605   3.773   3.426   0.205
 9902SOL    HW230606   3.900   3.486   0.288
 9903SOL     OW30607   4.117   1.512   1.883
 9903SOL    HW130608   4.044   1.571   1.847
 9903SOL    HW230609   4.104   1.498   1.981
 9904SOL     OW30610   6.590   1.988   0.681
 9904SOL    HW130611   6.549   2.013   0.768
 9904SOL    HW230612   6.665   2.051   0.660
 9905SOL     OW30613   1.375   6.842   5.873
 9905SOL    HW130614   1.315   6.786   5.931
 9905SOL    HW230615   1.461   6.860   5.922
 9906SOL     OW30616   2.692   3.905   6.494
 9906SOL    HW130617   2.773   3.890   6.437
 9906SOL    HW230618   2.614   3.924   6.435
 9907SOL     OW30619   2.795   5.897   3.012
 9907SOL    HW130620   2.758   5.979   3.055
 9907SOL    HW230621   2.755   5.816   3.055
 9908SOL     OW30622   0.901   3.679   6.063
 9908SOL    HW130623   0.964   3.668   6.140
 9908SOL    HW230624   0.878   3.589   6.026
 9909SOL     OW30625   3.208   1.236   2.868
 9909SOL    HW130626   3.166   1.309   2.815
 9909SOL    HW230627   3.139   1.169   2.894
 9910SOL     OW30628   6.270   4.542   0.537
 9910SOL    HW130629   6.180   4.501   0.551
 9910SOL    HW230630   6.281   4.567   0.441
 9911SOL     OW30631   3.817   4.908   3.503
 9911SOL    HW130632   3.861   4.821   3.524
 9911SOL    HW230633   3.736   4.920   3.562
 9912SOL     OW30634   5.129   0.300   1.437
 9912SOL    HW130635   5.164   0.359   1.510
 9912SOL    HW230636   5.086   0.219   1.478
 9913SOL     OW30637   5.420   2.695   2.987
 9913SOL    HW130638   5.366   2.643   2.920
 9913SOL    HW230639   5.358   2.732   3.057
 9914SOL     OW30640   0.986   0.411   4.804
 9914SOL    HW130641   0.960   0.483   4.869
 9914SOL    HW230642   1.084   0.393   4.811
 9915SOL     OW30643   4.933   3.373   3.749
 9915SOL    HW130644   4.949   3.458   3.798
 9915SOL    HW230645   4.934   3.390   3.650
 9916SOL     OW30646   2.174   2.765   2.498
 9916SOL    HW130647   2.198   2.744   2.593
 9916SOL    HW230648   2.244   2.727   2.438
 9917SOL     OW30649   3.166   3.869   5.574
 9917SOL    HW130650   3.154   3.910   5.484
 9917SOL    HW230651   3.209   3.779   5.564
 9918SOL     OW30652   2.317   2.218   5.708
 9918SOL    HW130653   2.410   2.207   5.675
 9918SOL    HW230654   2.274   2.129   5.718
 9919SOL     OW30655   0.514   5.542   2.947
 9919SOL    HW130656   0.526   5.618   2.884
 9919SOL    HW230657   0.589   5.477   2.937
 9920SOL     OW30658   3.676   6.503   1.436
 9920SOL    HW130659   3.582   6.489   1.467
 9920SOL    HW230660   3.689   6.598   1.410
 9921SOL     OW30661   5.828   0.352   2.800
 9921SOL    HW130662   5.882   0.435   2.809
 9921SOL    HW230663   5.745   0.361   2.855
 9922SOL     OW30664   4.200   4.812   0.967
 9922SOL    HW130665   4.296   4.785   0.956
 9922SOL    HW230666   4.141   4.738   0.936
 9923SOL     OW30667   6.896   2.292   6.008
 9923SOL    HW130668   6.851   2.382   6.008
 9923SOL    HW230669   6.995   2.305   6.016
 9924SOL     OW30670   6.586   0.772   2.676
 9924SOL    HW130671   6.642   0.849   2.707
 9924SOL    HW230672   6.533   0.737   2.754
 9925SOL     OW30673   2.811   3.012   5.707
 9925SOL    HW130674   2.862   2.987   5.624
 9925SOL    HW230675   2.737   2.945   5.721
 9926SOL     OW30676   0.859   0.987   0.562
 9926SOL    HW130677   0.958   0.988   0.547
 9926SOL    HW230678   0.839   1.025   0.652
 9927SOL     OW30679   0.121   1.781   2.372
 9927SOL    HW130680   0.218   1.785   2.346
 9927SOL    HW230681   0.111   1.727   2.455
 9928SOL     OW30682   0.150   3.714   2.154
 9928SOL    HW130683   0.127   3.734   2.059
 9928SOL    HW230684   0.160   3.616   2.166
 9929SOL     OW30685   2.725   4.785   0.126
 9929SOL    HW130686   2.643   4.730   0.141
 9929SOL    HW230687   2.790   4.734   0.069
 9930SOL     OW30688   6.971   6.977   5.957
 9930SOL    HW130689   6.996   0.042   5.924
 9930SOL    HW230690   6.987   6.910   5.884
 9931SOL     OW30691   1.755   5.934   5.711
 9931SOL    HW130692   1.730   5.989   5.632
 9931SOL    HW230693   1.676   5.881   5.742
 9932SOL     OW30694   1.352   1.515   0.149
 9932SOL    HW130695   1.387   1.536   0.240
 9932SOL    HW230696   1.306   1.595   0.111
 9933SOL     OW30697   2.491   1.759   3.083
 9933SOL    HW130698   2.406   1.802   3.113
 9933SOL    HW230699   2.497   1.764   2.983
 9934SOL     OW30700   5.434   1.825   5.668
 9934SOL    HW130701   5.522   1.778   5.673
 9934SOL    HW230702   5.405   1.852   5.760
 9935SOL     OW30703   3.103   2.145   0.675
 9935SOL    HW130704   3.156   2.131   0.592
 9935SOL    HW230705   3.052   2.063   0.697
 9936SOL     OW30706   5.710   5.776   5.276
 9936SOL    HW130707   5.768   5.782   5.195
 9936SOL    HW230708   5.734   5.851   5.339
 9937SOL     OW30709   0.616   7.013   2.994
 9937SOL    HW130710   0.653   0.066   2.944
 9937SOL    HW230711   0.688   6.945   3.007
 9938SOL     OW30712   6.780   0.649   4.158
 9938SOL    HW130713   6.792   0.549   4.160
 9938SOL    HW230714   6.698   0.673   4.211
 9939SOL     OW30715   2.586   4.447   1.183
 9939SOL    HW130716   2.537   4.433   1.097
 9939SOL    HW230717   2.527   4.420   1.259
 9940SOL     OW30718   0.972   0.333   2.908
 9940SOL    HW130719   0.950   0.429   2.889
 9940SOL    HW230720   1.061   0.329   2.954
 9941SOL     OW30721   4.528   5.242   6.181
 9941SOL    HW130722   4.498   5.329   6.143
 9941SOL    HW230723   4.597   5.258   6.251
 9942SOL     OW30724   4.563   4.833   3.735
 9942SOL    HW130725   4.572   4.932   3.745
 9942SOL    HW230726   4.568   4.790   3.825
 9943SOL     OW30727   2.715   4.341   0.030
 9943SOL    HW130728   2.806   4.381   0.019
 9943SOL    HW230729   2.719   4.269   0.099
 9944SOL     OW30730   1.435   4.766   0.411
 9944SOL    HW130731   1.469   4.787   0.320
 9944SOL    HW230732   1.473   4.832   0.477
 9945SOL     OW30733   5.906   4.283   0.009
 9945SOL    HW130734   5.960   4.214   0.058
 9945SOL    HW230735   5.906   4.263   6.937
 9946SOL     OW30736   5.470   1.299   2.765
 9946SOL    HW130737   5.414   1.220   2.741
 9946SOL    HW230738   5.440   1.379   2.713
 9947SOL     OW30739   1.783   1.554   3.977
 9947SOL    HW130740   1.763   1.515   3.887
 9947SOL    HW230741   1.698   1.561   4.029
 9948SOL     OW30742   6.367   0.622   4.466
 9948SOL    HW130743   6.340   0.673   4.548
 9948SOL    HW230744   6.302   0.548   4.450
 9949SOL     OW30745   6.552   4.277   4.625
 9949SOL    HW130746   6.529   4.364   4.581
 9949SOL    HW230747   6.470   4.241   4.670
 9950SOL     OW30748   6.321   5.176   5.996
 9950SOL    HW130749   6.378   5.200   6.074
 9950SOL    HW230750   6.375   5.124   5.930
 9951SOL     OW30751   0.697   2.554   2.538
 9951SOL    HW130752   0.599   2.539   2.550
 9951SOL    HW230753   0.732   2.494   2.466
 9952SOL     OW30754   0.367   4.169   1.817
 9952SOL    HW130755   0.394   4.077   1.843
 9952SOL    HW230756   0.270   4.182   1.838
 9953SOL     OW30757   5.928   2.244   3.177
 9953SOL    HW130758   5.965   2.185   3.106
 9953SOL    HW230759   5.885   2.189   3.248
 9954SOL     OW30760   2.882   2.036   5.827
 9954SOL    HW130761   2.867   1.939   5.846
 9954SOL    HW230762   2.868   2.089   5.911
 9955SOL     OW30763   5.380   3.073   1.137
 9955SOL    HW130764   5.310   3.134   1.100
 9955SOL    HW230765   5.412   3.012   1.065
 9956SOL     OW30766   1.936   3.924   3.175
 9956SOL    HW130767   2.005   3.974   3.228
 9956SOL    HW230768   1.916   3.837   3.220
 9957SOL     OW30769   5.639   6.525   1.265
 9957SOL    HW130770   5.661   6.477   1.180
 9957SOL    HW230771   5.556   6.579   1.252
 9958SOL     OW30772   4.658   4.813   6.776
 9958SOL    HW130773   4.694   4.723   6.751
 9958SOL    HW230774   4.706   4.884   6.724
 9959SOL     OW30775   4.292   4.256   1.122
 9959SOL    HW130776   4.203   4.265   1.167
 9959SOL    HW230777   4.332   4.347   1.110
 9960SOL     OW30778   6.694   6.783   6.500
 9960SOL    HW130779   6.787   6.772   6.537
 9960SOL    HW230780   6.696   6.770   6.401
 9961SOL     OW30781   2.782   4.996   2.240
 9961SOL    HW130782   2.690   4.957   2.230
 9961SOL    HW230783   2.829   4.950   2.315
 9962SOL     OW30784   3.157   6.021   2.677
 9962SOL    HW130785   3.175   6.039   2.774
 9962SOL    HW230786   3.060   5.999   2.665
 9963SOL     OW30787   1.564   1.196   6.266
 9963SOL    HW130788   1.469   1.226   6.275
 9963SOL    HW230789   1.570   1.128   6.193
 9964SOL     OW30790   4.620   4.028   5.385
 9964SOL    HW130791   4.592   4.064   5.474
 9964SOL    HW230792   4.672   4.097   5.335
 9965SOL     OW30793   2.797   5.482   4.957
 9965SOL    HW130794   2.873   5.442   5.008
 9965SOL    HW230795   2.750   5.410   4.906
 9966SOL     OW30796   3.552   5.066   2.343
 9966SOL    HW130797   3.540   5.028   2.251
 9966SOL    HW230798   3.640   5.113   2.348
 9967SOL     OW30799   6.767   6.812   3.318
 9967SOL    HW130800   6.686   6.804   3.260
 9967SOL    HW230801   6.825   6.886   3.285
 9968SOL     OW30802   3.876   6.308   0.500
 9968SOL    HW130803   3.852   6.214   0.476
 9968SOL    HW230804   3.808   6.344   0.565
 9969SOL     OW30805   1.394   4.961   3.662
 9969SOL    HW130806   1.350   4.976   3.750
 9969SOL    HW230807   1.489   4.934   3.675
 9970SOL     OW30808   6.077   4.440   1.176
 9970SOL    HW130809   6.090   4.344   1.151
 9970SOL    HW230810   6.161   4.491   1.158
 9971SOL     OW30811   1.350   3.578   2.285
 9971SOL    HW130812   1.436   3.628   2.293
 9971SOL    HW230813   1.301   3.581   2.372
 9972SOL     OW30814   3.717   3.677   0.387
 9972SOL    HW130815   3.808   3.708   0.414
 9972SOL    HW230816   3.676   3.744   0.326
 9973SOL     OW30817   3.852   1.819   3.321
 9973SOL    HW130818   3.794   1.767   3.383
 9973SOL    HW230819   3.827   1.799   3.226
 9974SOL     OW30820   0.236   2.121   3.527
 9974SOL    HW130821   0.138   2.103   3.530
 9974SOL    HW230822   0.252   2.220   3.521
 9975SOL     OW30823   1.178   5.081   6.715
 9975SOL    HW130824   1.248   5.017   6.682
 9975SOL    HW230825   1.093   5.030   6.732
 9976SOL     OW30826   2.627   4.510   6.373
 9976SOL    HW130827   2.534   4.546   6.382
 9976SOL    HW230828   2.687   4.581   6.337
 9977SOL     OW30829   5.279   5.703   5.048
 9977SOL    HW130830   5.336   5.772   5.005
 9977SOL    HW230831   5.245   5.738   5.135
 9978SOL     OW30832   0.488   2.330   6.120
 9978SOL    HW130833   0.516   2.328   6.024
 9978SOL    HW230834   0.407   2.272   6.132
 9979SOL     OW30835   5.106   3.146   5.337
 9979SOL    HW130836   5.011   3.121   5.319
 9979SOL    HW230837   5.146   3.188   5.255
 9980SOL     OW30838   0.688   0.627   6.696
 9980SOL    HW130839   0.599   0.588   6.673
 9980SOL    HW230840   0.690   0.652   6.793
 9981SOL     OW30841   0.295   2.365   1.147
 9981SOL    HW130842   0.390   2.378   1.176
 9981SOL    HW230843   0.239   2.337   1.226
 9982SOL     OW30844   2.263   1.900   4.765
 9982SOL    HW130845   2.199   1.893   4.841
 9982SOL    HW230846   2.351   1.933   4.799
 9983SOL     OW30847   0.109   3.159   2.187
 9983SOL    HW130848   0.022   3.167   2.235
 9983SOL    HW230849   0.109   3.222   2.109
 9984SOL     OW30850   0.025   5.921   1.826
 9984SOL    HW130851   0.035   5.994   1.893
 9984SOL    HW230852   6.984   5.949   1.757
 9985SOL     OW30853   4.233   5.354   0.756
 9985SOL    HW130854   4.167   5.388   0.823
 9985SOL    HW230855   4.290   5.429   0.725
 9986SOL     OW30856   4.672   4.367   0.049
 9986SOL    HW130857   4.753   4.308   0.046
 9986SOL    HW230858   4.628   4.358   0.138
 9987SOL     OW30859   5.279   2.661   1.584
 9987SOL    HW130860   5.315   2.623   1.669
 9987SOL    HW230861   5.321   2.615   1.506
 9988SOL     OW30862   5.690   6.190   4.409
 9988SOL    HW130863   5.754   6.200   4.485
 9988SOL    HW230864   5.635   6.107   4.422
 9989SOL     OW30865   6.777   4.869   2.357
 9989SOL    HW130866   6.760   4.780   2.314
 9989SOL    HW230867   6.741   4.868   2.450
 9990SOL     OW30868   0.552   6.932   3.372
 9990SOL    HW130869   0.481   6.890   3.316
 9990SOL    HW230870   0.511   6.975   3.452
 9991SOL     OW30871   1.371   4.359   3.973
 9991SOL    HW130872   1.342   4.372   4.068
 9991SOL    HW230873   1.471   4.359   3.968
 9992SOL     OW30874   3.424   4.670   1.030
 9992SOL    HW130875   3.482   4.636   0.956
 9992SOL    HW230876   3.352   4.729   0.992
 9993SOL     OW30877   3.675   6.893   3.915
 9993SOL    HW130878   3.587   6.939   3.921
 9993SOL    HW230879   3.736   6.928   3.987
 9994SOL     OW30880   0.063   4.137   4.708
 9994SOL    HW130881   0.069   4.149   4.807
 9994SOL    HW230882   7.004   4.088   4.686
 9995SOL     OW30883   2.684   0.683   4.800
 9995SOL    HW130884   2.594   0.718   4.773
 9995SOL    HW230885   2.694   0.589   4.767
 9996SOL     OW30886   2.386   4.374   0.985
 9996SOL    HW130887   2.296   4.366   1.026
 9996SOL    HW230888   2.386   4.329   0.895
 9997SOL     OW30889   6.286   1.878   4.328
 9997SOL    HW130890   6.317   1.892   4.234
 9997SOL    HW230891   6.308   1.784   4.356
 9998SOL     OW30892   4.981   3.540   3.161
 9998SOL    HW130893   4.901   3.535   3.102
 9998SOL    HW230894   5.012   3.448   3.183
 9999SOL     OW30895   0.360   6.810   3.819
 9999SOL    HW130896   0.323   6.901   3.839
 9999SOL    HW230897   0.302   6.740   3.862
10000SOL     OW30898   5.280   1.779   1.753
10000SOL    HW130899   5.264   1.689   1.712
10000SOL    HW230900   5.197   1.833   1.749
10001SOL     OW30901   2.911   6.232   2.590
10001SOL    HW130902   3.004   6.267   2.597
10001SOL    HW230903   2.847   6.297   2.631
10002SOL     OW30904   2.400   1.334   0.763
10002SOL    HW130905   2.413   1.297   0.671
10002SOL    HW230906   2.483   1.380   0.793
10003SOL     OW30907   2.363   2.020   2.858
10003SOL    HW130908   2.410   2.101   2.893
10003SOL    HW230909   2.277   2.008   2.907
10004SOL     OW30910   5.439   4.495   4.731
10004SOL    HW130911   5.348   4.489   4.690
10004SOL    HW230912   5.502   4.435   4.681
10005SOL     OW30913   3.042   5.763   3.666
10005SOL    HW130914   3.118   5.818   3.701
10005SOL    HW230915   3.015   5.696   3.736
10006SOL     OW30916   5.569   0.374   5.304
10006SOL    HW130917   5.601   0.369   5.210
10006SOL    HW230918   5.620   0.443   5.354
10007SOL     OW30919   0.898   4.161   4.708
10007SOL    HW130920   0.851   4.092   4.654
10007SOL    HW230921   0.850   4.174   4.795
10008SOL     OW30922   3.462   1.835   4.164
10008SOL    HW130923   3.376   1.791   4.137
10008SOL    HW230924   3.442   1.927   4.198
10009SOL     OW30925   2.178   4.349   2.157
10009SOL    HW130926   2.226   4.376   2.074
10009SOL    HW230927   2.102   4.412   2.173
10010SOL     OW30928   2.907   4.834   6.754
10010SOL    HW130929   2.871   4.894   6.683
10010SOL    HW230930   2.970   4.886   6.812
10011SOL     OW30931   0.289   4.061   0.463
10011SOL    HW130932   0.231   3.992   0.422
10011SOL    HW230933   0.307   4.134   0.397
10012SOL     OW30934   5.265   0.471   2.240
10012SOL    HW130935   5.296   0.537   2.171
10012SOL    HW230936   5.228   0.519   2.318
10013SOL     OW30937   1.639   5.127   5.011
10013SOL    HW130938   1.712   5.136   4.943
10013SOL    HW230939   1.602   5.218   5.032
10014SOL     OW30940   0.531   6.560   3.008
10014SOL    HW130941   0.442   6.597   2.983
10014SOL    HW230942   0.558   6.596   3.097
10015SOL     OW30943   3.611   5.590   6.648
10015SOL    HW130944   3.638   5.686   6.656
10015SOL    HW230945   3.563   5.575   6.562
10016SOL     OW30946   1.494   0.328   4.586
10016SOL    HW130947   1.587   0.292   4.578
10016SOL    HW230948   1.481   0.403   4.521
10017SOL     OW30949   2.765   1.904   3.075
10017SOL    HW130950   2.694   1.930   3.141
10017SOL    HW230951   2.809   1.820   3.106
10018SOL     OW30952   6.832   4.134   6.077
10018SOL    HW130953   6.897   4.072   6.033
10018SOL    HW230954   6.819   4.214   6.018
10019SOL     OW30955   0.294   1.137   2.547
10019SOL    HW130956   0.286   1.233   2.575
10019SOL    HW230957   0.387   1.119   2.516
10020SOL     OW30958   6.721   0.968   1.752
10020SOL    HW130959   6.665   0.903   1.702
10020SOL    HW230960   6.762   1.033   1.689
10021SOL     OW30961   1.736   3.466   1.473
10021SOL    HW130962   1.811   3.456   1.409
10021SOL    HW230963   1.772   3.469   1.567
10022SOL     OW30964   2.466   6.482   0.239
10022SOL    HW130965   2.517   6.483   0.326
10022SOL    HW230966   2.389   6.418   0.247
10023SOL     OW30967   2.271   6.676   5.697
10023SOL    HW130968   2.251   6.758   5.751
10023SOL    HW230969   2.343   6.696   5.631
10024SOL     OW30970   1.745   4.826   2.997
10024SOL    HW130971   1.761   4.903   3.058
10024SOL    HW230972   1.694   4.755   3.047
10025SOL     OW30973   1.591   3.736   1.800
10025SOL    HW130974   1.607   3.777   1.710
10025SOL    HW230975   1.512   3.779   1.843
10026SOL     OW30976   4.943   1.129   2.586
10026SOL    HW130977   4.857   1.158   2.630
10026SOL    HW230978   4.927   1.116   2.488
10027SOL     OW30979   1.449   2.956   4.970
10027SOL    HW130980   1.374   2.966   4.905
10027SOL    HW230981   1.527   2.912   4.925
10028SOL     OW30982   3.079   1.013   1.647
10028SOL    HW130983   3.149   0.947   1.621
10028SOL    HW230984   2.992   0.965   1.662
10029SOL     OW30985   0.002   2.586   4.066
10029SOL    HW130986   0.039   2.540   3.985
10029SOL    HW230987   6.962   2.656   4.036
10030SOL     OW30988   2.608   6.948   4.773
10030SOL    HW130989   2.599   6.971   4.870
10030SOL    HW230990   2.539   6.879   4.749
10031SOL     OW30991   3.894   4.933   5.001
10031SOL    HW130992   3.918   5.030   5.004
10031SOL    HW230993   3.810   4.918   5.054
10032SOL     OW30994   3.342   6.448   5.592
10032SOL    HW130995   3.317   6.382   5.663
10032SOL    HW230996   3.270   6.451   5.523
10033SOL     OW30997   4.636   1.677   3.561
10033SOL    HW130998   4.719   1.645   3.606
10033SOL    HW230999   4.616   1.617   3.483
10034SOL     OW31000   1.831   0.866   3.603
10034SOL    HW131001   1.738   0.900   3.591
10034SOL    HW231002   1.874   0.855   3.514
10035SOL     OW31003   6.152   3.761   0.312
10035SOL    HW131004   6.121   3.747   0.218
10035SOL    HW231005   6.116   3.689   0.370
10036SOL     OW31006   6.626   0.273   6.619
10036SOL    HW131007   6.704   0.267   6.682
10036SOL    HW231008   6.649   0.335   6.544
10037SOL     OW31009   6.256   0.061   6.029
10037SOL    HW131010   6.293   6.994   6.041
10037SOL    HW231011   6.192   0.081   6.103
10038SOL     OW31012   4.814   6.731   6.955
10038SOL    HW131013   4.889   6.748   7.020
10038SOL    HW231014   4.809   6.634   6.935
10039SOL     OW31015   5.001   5.672   4.406
10039SOL    HW131016   4.940   5.633   4.337
10039SOL    HW231017   4.991   5.623   4.492
10040SOL     OW31018   4.342   6.525   0.786
10040SOL    HW131019   4.394   6.501   0.704
10040SOL    HW231020   4.244   6.528   0.764
10041SOL     OW31021   6.565   4.857   5.507
10041SOL    HW131022   6.507   4.779   5.532
10041SOL    HW231023   6.632   4.873   5.580
10042SOL     OW31024   0.495   1.071   5.540
10042SOL    HW131025   0.564   1.016   5.493
10042SOL    HW231026   0.540   1.148   5.585
10043SOL     OW31027   0.735   0.676   2.388
10043SOL    HW131028   0.768   0.661   2.481
10043SOL    HW231029   0.637   0.694   2.390
10044SOL     OW31030   2.694   1.745   4.574
10044SOL    HW131031   2.735   1.771   4.662
10044SOL    HW231032   2.744   1.790   4.500
10045SOL     OW31033   4.525   0.067   4.326
10045SOL    HW131034   4.490   0.051   4.233
10045SOL    HW231035   4.623   0.049   4.327
10046SOL     OW31036   0.039   2.227   1.715
10046SOL    HW131037   6.978   2.183   1.692
10046SOL    HW231038   0.024   2.324   1.732
10047SOL     OW31039   6.081   2.742   5.326
10047SOL    HW131040   6.124   2.654   5.345
10047SOL    HW231041   6.041   2.741   5.234
10048SOL     OW31042   2.894   1.242   1.747
10048SOL    HW131043   2.812   1.251   1.689
10048SOL    HW231044   2.964   1.191   1.697
10049SOL     OW31045   0.653   0.726   6.957
10049SOL    HW131046   0.663   0.826   6.962
10049SOL    HW231047   0.559   0.701   6.981
10050SOL     OW31048   5.637   2.835   4.906
10050SOL    HW131049   5.540   2.854   4.891
10050SOL    HW231050   5.693   2.892   4.846
10051SOL     OW31051   6.911   3.061   4.575
10051SOL    HW131052   6.981   3.009   4.624
10051SOL    HW231053   6.845   2.998   4.534
10052SOL     OW31054   2.081   3.077   1.374
10052SOL    HW131055   2.025   3.079   1.458
10052SOL    HW231056   2.176   3.096   1.397
10053SOL     OW31057   3.762   4.836   2.423
10053SOL    HW131058   3.768   4.885   2.510
10053SOL    HW231059   3.670   4.798   2.411
10054SOL     OW31060   4.405   5.786   6.398
10054SOL    HW131061   4.365   5.819   6.313
10054SOL    HW231062   4.334   5.743   6.453
10055SOL     OW31063   6.439   2.325   4.669
10055SOL    HW131064   6.364   2.278   4.716
10055SOL    HW231065   6.467   2.404   4.723
10056SOL     OW31066   5.989   5.112   0.892
10056SOL    HW131067   6.081   5.133   0.859
10056SOL    HW231068   5.981   5.014   0.912
10057SOL     OW31069   3.706   1.701   4.124
10057SOL    HW131070   3.741   1.637   4.193
10057SOL    HW231071   3.627   1.750   4.161
10058SOL     OW31072   6.813   4.359   4.744
10058SOL    HW131073   6.767   4.353   4.655
10058SOL    HW231074   6.751   4.324   4.815
10059SOL     OW31075   5.388   6.241   0.825
10059SOL    HW131076   5.365   6.215   0.918
10059SOL    HW231077   5.308   6.284   0.782
10060SOL     OW31078   2.137   2.162   2.095
10060SOL    HW131079   2.091   2.190   2.010
10060SOL    HW231080   2.215   2.223   2.112
10061SOL     OW31081   5.269   1.234   4.200
10061SOL    HW131082   5.229   1.318   4.237
10061SOL    HW231083   5.202   1.190   4.139
10062SOL     OW31084   6.351   6.999   4.666
10062SOL    HW131085   6.300   0.010   4.743
10062SOL    HW231086   6.375   0.047   4.603
10063SOL     OW31087   1.582   2.078   3.278
10063SOL    HW131088   1.667   2.073   3.227
10063SOL    HW231089   1.521   2.145   3.234
10064SOL     OW31090   6.101   5.525   5.477
10064SOL    HW131091   6.078   5.609   5.428
10064SOL    HW231092   6.116   5.545   5.573
10065SOL     OW31093   1.387   0.632   1.900
10065SOL    HW131094   1.479   0.638   1.860
10065SOL    HW231095   1.319   0.663   1.834
10066SOL     OW31096   1.535   0.817   3.956
10066SOL    HW131097   1.467   0.780   3.892
10066SOL    HW231098   1.492   0.829   4.046
10067SOL     OW31099   5.359   4.784   4.792
10067SOL    HW131100   5.367   4.839   4.709
10067SOL    HW231101   5.432   4.714   4.793
10068SOL     OW31102   5.284   3.000   3.860
10068SOL    HW131103   5.286   3.096   3.886
10068SOL    HW231104   5.313   2.990   3.764
10069SOL     OW31105   2.102   6.495   3.586
10069SOL    HW131106   2.057   6.509   3.498
10069SOL    HW231107   2.157   6.575   3.609
10070SOL     OW31108   0.522   6.782   4.614
10070SOL    HW131109   0.510   6.833   4.699
10070SOL    HW231110   0.460   6.704   4.613
10071SOL     OW31111   4.490   4.931   4.358
10071SOL    HW131112   4.544   4.892   4.432
10071SOL    HW231113   4.453   5.019   4.386
10072SOL     OW31114   0.869   6.483   4.068
10072SOL    HW131115   0.811   6.550   4.115
10072SOL    HW231116   0.943   6.531   4.022
10073SOL     OW31117   6.400   4.036   5.231
10073SOL    HW131118   6.343   4.045   5.149
10073SOL    HW231119   6.390   4.118   5.287
10074SOL     OW31120   0.517   0.231   6.013
10074SOL    HW131121   0.606   0.276   6.016
10074SOL    HW231122   0.445   0.300   6.004
10075SOL     OW31123   1.279   2.474   2.576
10075SOL    HW131124   1.371   2.440   2.597
10075SOL    HW231125   1.234   2.503   2.660
10076SOL     OW31126   5.657   0.336   4.090
10076SOL    HW131127   5.634   0.243   4.062
10076SOL    HW231128   5.607   0.360   4.173
10077SOL     OW31129   3.456   2.269   6.726
10077SOL    HW131130   3.374   2.252   6.671
10077SOL    HW231131   3.447   2.357   6.773
10078SOL     OW31132   6.361   6.702   4.382
10078SOL    HW131133   6.269   6.710   4.344
10078SOL    HW231134   6.356   6.708   4.482
10079SOL     OW31135   1.672   2.767   1.954
10079SOL    HW131136   1.610   2.756   2.032
10079SOL    HW231137   1.626   2.737   1.871
10080SOL     OW31138   3.092   2.086   6.407
10080SOL    HW131139   3.122   2.171   6.365
10080SOL    HW231140   3.139   2.008   6.365
10081SOL     OW31141   0.515   6.765   6.295
10081SOL    HW131142   0.485   6.786   6.388
10081SOL    HW231143   0.453   6.808   6.229
10082SOL     OW31144   6.888   2.633   2.607
10082SOL    HW131145   6.874   2.723   2.648
10082SOL    HW231146   6.946   2.643   2.526
10083SOL     OW31147   4.963   0.870   3.375
10083SOL    HW131148   4.885   0.852   3.434
10083SOL    HW231149   4.933   0.918   3.292
10084SOL     OW31150   3.638   0.305   5.919
10084SOL    HW131151   3.559   0.253   5.888
10084SOL    HW231152   3.676   0.262   6.001
10085SOL     OW31153   0.176   5.047   2.982
10085SOL    HW131154   0.225   4.965   2.955
10085SOL    HW231155   0.092   5.055   2.928
10086SOL     OW31156   5.867   5.473   2.357
10086SOL    HW131157   5.888   5.522   2.272
10086SOL    HW231158   5.767   5.470   2.370
10087SOL     OW31159   1.046   0.906   4.099
10087SOL    HW131160   1.016   0.953   4.015
10087SOL    HW231161   0.983   0.831   4.119
10088SOL     OW31162   0.034   6.642   5.900
10088SOL    HW131163   0.027   6.604   5.992
10088SOL    HW231164   7.021   6.578   5.834
10089SOL     OW31165   2.671   1.549   3.135
10089SOL    HW131166   2.596   1.609   3.107
10089SOL    HW231167   2.757   1.601   3.136
10090SOL     OW31168   0.219   4.676   1.281
10090SOL    HW131169   0.230   4.645   1.187
10090SOL    HW231170   0.290   4.636   1.339
10091SOL     OW31171   1.223   2.971   4.834
10091SOL    HW131172   1.224   2.947   4.737
10091SOL    HW231173   1.139   3.020   4.856
10092SOL     OW31174   1.611   3.761   5.022
10092SOL    HW131175   1.521   3.736   5.060
10092SOL    HW231176   1.672   3.787   5.097
10093SOL     OW31177   1.313   4.971   4.315
10093SOL    HW131178   1.308   5.066   4.285
10093SOL    HW231179   1.409   4.943   4.322
10094SOL     OW31180   2.882   6.535   1.951
10094SOL    HW131181   2.860   6.449   1.904
10094SOL    HW231182   2.974   6.565   1.924
10095SOL     OW31183   6.273   1.402   5.262
10095SOL    HW131184   6.270   1.315   5.312
10095SOL    HW231185   6.350   1.457   5.296
10096SOL     OW31186   6.324   5.011   2.726
10096SOL    HW131187   6.398   4.943   2.729
10096SOL    HW231188   6.345   5.086   2.790
10097SOL     OW31189   0.771   1.173   6.735
10097SOL    HW131190   0.810   1.095   6.785
10097SOL    HW231191   0.671   1.169   6.740
10098SOL     OW31192   2.064   6.929   5.614
10098SOL    HW131193   1.982   6.982   5.631
10098SOL    HW231194   2.090   6.879   5.697
10099SOL     OW31195   6.856   4.401   6.516
10099SOL    HW131196   6.856   4.381   6.418
10099SOL    HW231197   6.886   4.495   6.530
10100SOL     OW31198   5.410   0.065   4.814
10100SOL    HW131199   5.330   0.093   4.867
10100SOL    HW231200   5.384   7.017   4.751
10101SOL     OW31201   5.794   4.684   1.746
10101SOL    HW131202   5.794   4.592   1.708
10101SOL    HW231203   5.857   4.742   1.694
10102SOL     OW31204   2.391   0.563   2.858
10102SOL    HW131205   2.477   0.513   2.861
10102SOL    HW231206   2.367   0.584   2.763
10103SOL     OW31207   2.567   1.310   4.858
10103SOL    HW131208   2.527   1.279   4.772
10103SOL    HW231209   2.568   1.234   4.923
10104SOL     OW31210   1.250   3.477   4.991
10104SOL    HW131211   1.187   3.528   4.932
10104SOL    HW231212   1.216   3.479   5.085
10105SOL     OW31213   1.291   1.312   6.214
10105SOL    HW131214   1.296   1.374   6.292
10105SOL    HW231215   1.196   1.280   6.203
10106SOL     OW31216   5.222   4.780   1.169
10106SOL    HW131217   5.284   4.853   1.197
10106SOL    HW231218   5.245   4.751   1.076
10107SOL     OW31219   6.873   1.650   6.326
10107SOL    HW131220   6.815   1.570   6.342
10107SOL    HW231221   6.937   1.661   6.402
10108SOL     OW31222   6.538   6.368   0.125
10108SOL    HW131223   6.553   6.466   0.116
10108SOL    HW231224   6.442   6.351   0.148
10109SOL     OW31225   3.661   6.468   2.411
10109SOL    HW131226   3.601   6.404   2.363
10109SOL    HW231227   3.623   6.488   2.501
10110SOL     OW31228   4.071   6.511   5.277
10110SOL    HW131229   3.986   6.458   5.273
10110SOL    HW231230   4.103   6.516   5.372
10111SOL     OW31231   6.311   3.318   3.868
10111SOL    HW131232   6.317   3.305   3.967
10111SOL    HW231233   6.215   3.311   3.839
10112SOL     OW31234   5.583   4.081   4.869
10112SOL    HW131235   5.562   4.175   4.842
10112SOL    HW231236   5.498   4.032   4.888
10113SOL     OW31237   3.842   1.361   6.464
10113SOL    HW131238   3.805   1.306   6.538
10113SOL    HW231239   3.767   1.396   6.407
10114SOL     OW31240   5.561   0.610   1.128
10114SOL    HW131241   5.631   0.550   1.167
10114SOL    HW231242   5.472   0.564   1.132
10115SOL     OW31243   2.933   1.704   3.107
10115SOL    HW131244   2.997   1.648   3.160
10115SOL    HW231245   2.975   1.728   3.020
10116SOL     OW31246   0.752   6.255   0.571
10116SOL    HW131247   0.678   6.267   0.505
10116SOL    HW231248   0.821   6.326   0.558
10117SOL     OW31249   6.517   0.221   4.847
10117SOL    HW131250   6.603   0.257   4.884
10117SOL    HW231251   6.501   0.129   4.881
10118SOL     OW31252   6.835   4.933   3.172
10118SOL    HW131253   6.918   4.987   3.181
10118SOL    HW231254   6.857   4.843   3.135
10119SOL     OW31255   1.692   6.650   4.663
10119SOL    HW131256   1.633   6.621   4.587
10119SOL    HW231257   1.761   6.581   4.680
10120SOL     OW31258   0.446   3.466   4.223
10120SOL    HW131259   0.439   3.511   4.133
10120SOL    HW231260   0.400   3.523   4.292
10121SOL     OW31261   6.758   4.899   5.689
10121SOL    HW131262   6.821   4.976   5.700
10121SOL    HW231263   6.780   4.829   5.756
10122SOL     OW31264   5.486   3.121   0.565
10122SOL    HW131265   5.497   3.220   0.566
10122SOL    HW231266   5.477   3.089   0.470
10123SOL     OW31267   6.505   5.912   0.383
10123SOL    HW131268   6.507   5.865   0.472
10123SOL    HW231269   6.504   5.844   0.310
10124SOL     OW31270   2.110   3.889   0.078
10124SOL    HW131271   2.034   3.880   0.143
10124SOL    HW231272   2.108   3.980   0.037
10125SOL     OW31273   1.896   1.009   2.477
10125SOL    HW131274   1.801   1.039   2.484
10125SOL    HW231275   1.940   1.056   2.400
10126SOL     OW31276   6.617   6.225   6.503
10126SOL    HW131277   6.681   6.281   6.556
10126SOL    HW231278   6.524   6.257   6.520
10127SOL     OW31279   2.839   5.249   5.739
10127SOL    HW131280   2.833   5.312   5.661
10127SOL    HW231281   2.810   5.158   5.711
10128SOL     OW31282   0.910   1.885   1.158
10128SOL    HW131283   0.973   1.813   1.189
10128SOL    HW231284   0.902   1.955   1.229
10129SOL     OW31285   4.863   2.891   3.985
10129SOL    HW131286   4.777   2.853   3.951
10129SOL    HW231287   4.939   2.834   3.954
10130SOL     OW31288   2.355   4.331   2.757
10130SOL    HW131289   2.446   4.364   2.783
10130SOL    HW231290   2.343   4.340   2.659
10131SOL     OW31291   0.585   1.393   3.394
10131SOL    HW131292   0.487   1.373   3.390
10131SOL    HW231293   0.611   1.414   3.488
10132SOL     OW31294   2.474   6.473   3.337
10132SOL    HW131295   2.522   6.514   3.416
10132SOL    HW231296   2.393   6.527   3.316
10133SOL     OW31297   4.374   6.342   2.330
10133SOL    HW131298   4.288   6.375   2.369
10133SOL    HW231299   4.358   6.255   2.285
10134SOL     OW31300   0.036   0.091   3.734
10134SOL    HW131301   0.086   0.176   3.717
10134SOL    HW231302   6.963   0.108   3.724
10135SOL     OW31303   5.329   3.340   3.510
10135SOL    HW131304   5.315   3.275   3.435
10135SOL    HW231305   5.273   3.421   3.496
10136SOL     OW31306   5.523   6.918   2.723
10136SOL    HW131307   5.481   6.987   2.782
10136SOL    HW231308   5.481   6.923   2.632
10137SOL     OW31309   6.785   5.135   4.200
10137SOL    HW131310   6.768   5.228   4.234
10137SOL    HW231311   6.828   5.081   4.272
10138SOL     OW31312   4.083   2.172   1.209
10138SOL    HW131313   4.068   2.234   1.133
10138SOL    HW231314   4.166   2.118   1.193
10139SOL     OW31315   4.143   3.455   3.018
10139SOL    HW131316   4.109   3.379   2.962
10139SOL    HW231317   4.124   3.435   3.115
10140SOL     OW31318   6.200   5.929   5.631
10140SOL    HW131319   6.136   5.936   5.554
10140SOL    HW231320   6.200   5.835   5.666
10141SOL     OW31321   3.353   1.366   4.234
10141SOL    HW131322   3.360   1.282   4.288
10141SOL    HW231323   3.336   1.343   4.139
10142SOL     OW31324   5.885   6.281   4.595
10142SOL    HW131325   5.960   6.237   4.546
10142SOL    HW231326   5.902   6.380   4.599
10143SOL     OW31327   4.834   0.310   1.023
10143SOL    HW131328   4.840   0.409   1.032
10143SOL    HW231329   4.919   0.275   0.982
10144SOL     OW31330   4.487   6.475   6.585
10144SOL    HW131331   4.390   6.489   6.562
10144SOL    HW231332   4.493   6.415   6.665
10145SOL     OW31333   3.813   6.162   6.050
10145SOL    HW131334   3.783   6.201   6.138
10145SOL    HW231335   3.868   6.080   6.067
10146SOL     OW31336   3.584   5.189   5.193
10146SOL    HW131337   3.583   5.110   5.132
10146SOL    HW231338   3.559   5.271   5.142
10147SOL     OW31339   5.058   4.696   4.829
10147SOL    HW131340   5.000   4.777   4.828
10147SOL    HW231341   5.153   4.723   4.845
10148SOL     OW31342   5.617   5.196   6.735
10148SOL    HW131343   5.543   5.155   6.787
10148SOL    HW231344   5.704   5.157   6.765
10149SOL     OW31345   5.354   1.920   0.802
10149SOL    HW131346   5.325   1.838   0.851
10149SOL    HW231347   5.283   1.947   0.738
10150SOL     OW31348   4.581   3.733   0.398
10150SOL    HW131349   4.515   3.659   0.389
10150SOL    HW231350   4.598   3.751   0.495
10151SOL     OW31351   0.572   6.842   6.609
10151SOL    HW131352   0.474   6.855   6.592
10151SOL    HW231353   0.611   6.925   6.648
10152SOL     OW31354   1.527   6.455   4.541
10152SOL    HW131355   1.466   6.481   4.466
10152SOL    HW231356   1.477   6.455   4.627
10153SOL     OW31357   5.222   5.583   4.253
10153SOL    HW131358   5.162   5.566   4.331
10153SOL    HW231359   5.233   5.499   4.200
10154SOL     OW31360   5.710   0.070   4.299
10154SOL    HW131361   5.718   7.000   4.327
10154SOL    HW231362   5.618   0.103   4.319
10155SOL     OW31363   4.261   1.790   5.634
10155SOL    HW131364   4.323   1.825   5.563
10155SOL    HW231365   4.312   1.774   5.718
10156SOL     OW31366   6.142   6.942   2.297
10156SOL    HW131367   6.067   6.888   2.334
10156SOL    HW231368   6.178   7.002   2.368
10157SOL     OW31369   5.892   2.624   6.174
10157SOL    HW131370   5.800   2.660   6.186
10157SOL    HW231371   5.937   2.673   6.099
10158SOL     OW31372   4.685   3.441   0.451
10158SOL    HW131373   4.725   3.384   0.522
10158SOL    HW231374   4.586   3.445   0.463
10159SOL     OW31375   2.767   3.364   6.476
10159SOL    HW131376   2.784   3.438   6.411
10159SOL    HW231377   2.691   3.390   6.536
10160SOL     OW31378   1.579   3.311   2.103
10160SOL    HW131379   1.628   3.343   2.184
10160SOL    HW231380   1.612   3.220   2.078
10161SOL     OW31381   3.739   3.805   6.674
10161SOL    HW131382   3.673   3.864   6.721
10161SOL    HW231383   3.698   3.771   6.589
10162SOL     OW31384   2.720   4.636   0.462
10162SOL    HW131385   2.681   4.619   0.552
10162SOL    HW231386   2.665   4.588   0.393
10163SOL     OW31387   5.320   5.136   6.483
10163SOL    HW131388   5.284   5.226   6.509
10163SOL    HW231389   5.244   5.072   6.470
10164SOL     OW31390   5.981   3.374   4.802
10164SOL    HW131391   5.993   3.367   4.703
10164SOL    HW231392   5.884   3.387   4.822
10165SOL     OW31393   0.664   1.720   3.717
10165SOL    HW131394   0.760   1.699   3.698
10165SOL    HW231395   0.639   1.684   3.807
10166SOL     OW31396   3.495   1.284   1.992
10166SOL    HW131397   3.516   1.382   1.993
10166SOL    HW231398   3.483   1.251   2.085
10167SOL     OW31399   4.019   2.206   6.435
10167SOL    HW131400   4.051   2.244   6.348
10167SOL    HW231401   3.925   2.174   6.425
10168SOL     OW31402   6.234   3.905   5.536
10168SOL    HW131403   6.234   3.875   5.440
10168SOL    HW231404   6.191   3.996   5.541
10169SOL     OW31405   5.967   4.126   3.050
10169SOL    HW131406   6.029   4.098   2.977
10169SOL    HW231407   6.015   4.189   3.112
10170SOL     OW31408   1.112   4.383   5.834
10170SOL    HW131409   1.012   4.378   5.829
10170SOL    HW231410   1.145   4.323   5.906
10171SOL     OW31411   6.194   3.608   5.697
10171SOL    HW131412   6.291   3.628   5.712
10171SOL    HW231413   6.172   3.618   5.600
10172SOL     OW31414   5.921   7.022   4.032
10172SOL    HW131415   5.875   0.051   3.963
10172SOL    HW231416   6.016   7.005   4.004
10173SOL     OW31417   0.798   3.150   0.740
10173SOL    HW131418   0.857   3.113   0.812
10173SOL    HW231419   0.735   3.078   0.710
10174SOL     OW31420   5.495   5.405   2.686
10174SOL    HW131421   5.401   5.434   2.672
10174SOL    HW231422   5.502   5.306   2.671
10175SOL     OW31423   6.588   2.217   3.459
10175SOL    HW131424   6.540   2.223   3.372
10175SOL    HW231425   6.649   2.138   3.459
10176SOL     OW31426   1.826   3.776   6.072
10176SOL    HW131427   1.789   3.712   6.139
10176SOL    HW231428   1.906   3.736   6.027
10177SOL     OW31429   1.887   1.439   0.389
10177SOL    HW131430   1.830   1.415   0.310
10177SOL    HW231431   1.983   1.441   0.361
10178SOL     OW31432   6.753   2.023   5.298
10178SOL    HW131433   6.791   2.079   5.372
10178SOL    HW231434   6.747   2.078   5.214
10179SOL     OW31435   0.997   1.522   5.920
10179SOL    HW131436   1.044   1.434   5.911
10179SOL    HW231437   0.953   1.545   5.834
10180SOL     OW31438   3.740   0.234   6.921
10180SOL    HW131439   3.678   0.171   6.967
10180SOL    HW231440   3.830   0.192   6.911
10181SOL     OW31441   4.961   3.341   2.092
10181SOL    HW131442   4.920   3.266   2.145
10181SOL    HW231443   5.030   3.304   2.030
10182SOL     OW31444   5.730   0.847   2.031
10182SOL    HW131445   5.642   0.804   2.050
10182SOL    HW231446   5.722   0.946   2.045
10183SOL     OW31447   0.489   1.923   6.514
10183SOL    HW131448   0.403   1.930   6.566
10183SOL    HW231449   0.522   2.014   6.491
10184SOL     OW31450   3.674   0.883   6.365
10184SOL    HW131451   3.747   0.843   6.310
10184SOL    HW231452   3.603   0.919   6.305
10185SOL     OW31453   5.498   5.758   1.953
10185SOL    HW131454   5.423   5.818   1.981
10185SOL    HW231455   5.464   5.665   1.943
10186SOL     OW31456   5.818   3.396   2.885
10186SOL    HW131457   5.814   3.305   2.843
10186SOL    HW231458   5.852   3.388   2.979
10187SOL     OW31459   0.715   2.709   0.736
10187SOL    HW131460   0.661   2.633   0.773
10187SOL    HW231461   0.772   2.748   0.808
10188SOL     OW31462   3.271   5.876   0.766
10188SOL    HW131463   3.253   5.938   0.690
10188SOL    HW231464   3.301   5.788   0.731
10189SOL     OW31465   1.407   0.731   5.536
10189SOL    HW131466   1.357   0.695   5.615
10189SOL    HW231467   1.404   0.831   5.538
10190SOL     OW31468   4.546   3.161   1.508
10190SOL    HW131469   4.582   3.252   1.489
10190SOL    HW231470   4.498   3.162   1.596
10191SOL     OW31471   4.971   4.297   6.359
10191SOL    HW131472   5.050   4.259   6.310
10191SOL    HW231473   4.972   4.397   6.351
10192SOL     OW31474   4.711   0.943   5.835
10192SOL    HW131475   4.736   1.025   5.887
10192SOL    HW231476   4.675   0.874   5.898
10193SOL     OW31477   4.139   3.593   1.821
10193SOL    HW131478   4.143   3.495   1.841
10193SOL    HW231479   4.105   3.642   1.901
10194SOL     OW31480   5.983   4.225   5.142
10194SOL    HW131481   5.947   4.235   5.235
10194SOL    HW231482   5.910   4.238   5.076
10195SOL     OW31483   5.823   4.983   1.240
10195SOL    HW131484   5.812   5.070   1.192
10195SOL    HW231485   5.797   4.995   1.336
10196SOL     OW31486   4.506   1.705   4.442
10196SOL    HW131487   4.433   1.676   4.503
10196SOL    HW231488   4.486   1.796   4.406
10197SOL     OW31489   6.634   1.694   4.972
10197SOL    HW131490   6.535   1.709   4.964
10197SOL    HW231491   6.663   1.712   5.067
10198SOL     OW31492   3.000   0.641   1.543
10198SOL    HW131493   2.936   0.567   1.521
10198SOL    HW231494   2.949   0.720   1.576
10199SOL     OW31495   2.461   2.748   6.048
10199SOL    HW131496   2.426   2.810   5.977
10199SOL    HW231497   2.551   2.779   6.077
10200SOL     OW31498   4.589   1.682   1.162
10200SOL    HW131499   4.675   1.679   1.212
10200SOL    HW231500   4.593   1.753   1.091
10201SOL     OW31501   1.294   4.496   1.052
10201SOL    HW131502   1.299   4.586   1.095
10201SOL    HW231503   1.203   4.482   1.014
10202SOL     OW31504   3.800   2.672   6.672
10202SOL    HW131505   3.860   2.703   6.599
10202SOL    HW231506   3.851   2.611   6.733
10203SOL     OW31507   6.242   2.734   3.702
10203SOL    HW131508   6.183   2.655   3.721
10203SOL    HW231509   6.203   2.815   3.745
10204SOL     OW31510   5.349   6.928   6.432
10204SOL    HW131511   5.355   6.833   6.463
10204SOL    HW231512   5.298   6.982   6.499
10205SOL     OW31513   1.197   1.190   0.730
10205SOL    HW131514   1.195   1.215   0.634
10205SOL    HW231515   1.157   1.263   0.785
10206SOL     OW31516   0.432   0.603   6.284
10206SOL    HW131517   0.519   0.554   6.280
10206SOL    HW231518   0.357   0.539   6.273
10207SOL     OW31519   1.252   1.677   6.572
10207SOL    HW131520   1.280   1.589   6.533
10207SOL    HW231521   1.154   1.690   6.556
10208SOL     OW31522   5.868   4.895   4.144
10208SOL    HW131523   5.927   4.833   4.091
10208SOL    HW231524   5.922   4.938   4.216
10209SOL     OW31525   6.434   6.874   6.077
10209SOL    HW131526   6.520   6.918   6.049
10209SOL    HW231527   6.405   6.811   6.005
10210SOL     OW31528   4.701   6.637   1.423
10210SOL    HW131529   4.790   6.598   1.447
10210SOL    HW231530   4.628   6.575   1.452
10211SOL     OW31531   3.886   6.937   4.090
10211SOL    HW131532   3.897   0.011   4.095
10211SOL    HW231533   3.972   6.895   4.061
10212SOL     OW31534   0.906   0.371   5.345
10212SOL    HW131535   0.882   0.279   5.313
10212SOL    HW231536   0.979   0.366   5.413
10213SOL     OW31537   4.137   2.923   1.265
10213SOL    HW131538   4.169   3.009   1.306
10213SOL    HW231539   4.056   2.891   1.314
10214SOL     OW31540   0.953   2.065   1.552
10214SOL    HW131541   0.934   2.105   1.642
10214SOL    HW231542   0.889   2.103   1.485
10215SOL     OW31543   3.979   3.140   3.231
10215SOL    HW131544   3.991   3.123   3.134
10215SOL    HW231545   3.882   3.151   3.252
10216SOL     OW31546   6.676   0.824   0.920
10216SOL    HW131547   6.577   0.834   0.921
10216SOL    HW231548   6.715   0.880   0.847
10217SOL     OW31549   2.831   1.154   3.307
10217SOL    HW131550   2.771   1.190   3.235
10217SOL    HW231551   2.881   1.075   3.271
10218SOL     OW31552   1.302   2.938   1.857
10218SOL    HW131553   1.399   2.948   1.879
10218SOL    HW231554   1.248   2.956   1.939
10219SOL     OW31555   0.381   1.705   2.752
10219SOL    HW131556   0.319   1.637   2.713
10219SOL    HW231557   0.408   1.677   2.844
10220SOL     OW31558   3.694   2.848   1.218
10220SOL    HW131559   3.666   2.893   1.133
10220SOL    HW231560   3.638   2.882   1.294
10221SOL     OW31561   0.794   6.016   3.328
10221SOL    HW131562   0.865   6.072   3.286
10221SOL    HW231563   0.786   5.930   3.278
10222SOL     OW31564   2.980   3.181   4.991
10222SOL    HW131565   2.884   3.208   4.981
10222SOL    HW231566   3.012   3.143   4.904
10223SOL     OW31567   0.606   4.698   1.311
10223SOL    HW131568   0.606   4.792   1.345
10223SOL    HW231569   0.700   4.670   1.291
10224SOL     OW31570   6.619   2.948   3.915
10224SOL    HW131571   6.633   3.043   3.887
10224SOL    HW231572   6.527   2.919   3.890
10225SOL     OW31573   2.117   4.673   5.685
10225SOL    HW131574   2.112   4.577   5.711
10225SOL    HW231575   2.196   4.687   5.625
10226SOL     OW31576   3.270   0.796   6.515
10226SOL    HW131577   3.201   0.822   6.583
10226SOL    HW231578   3.354   0.848   6.532
10227SOL     OW31579   4.491   4.304   0.293
10227SOL    HW131580   4.423   4.307   0.220
10227SOL    HW231581   4.536   4.214   0.292
10228SOL     OW31582   6.771   0.116   0.937
10228SOL    HW131583   6.870   0.116   0.947
10228SOL    HW231584   6.736   0.023   0.952
10229SOL     OW31585   0.985   2.444   4.919
10229SOL    HW131586   1.017   2.349   4.915
10229SOL    HW231587   1.056   2.505   4.882
10230SOL     OW31588   6.220   5.776   2.720
10230SOL    HW131589   6.133   5.733   2.696
10230SOL    HW231590   6.253   5.738   2.807
10231SOL     OW31591   1.544   5.833   4.928
10231SOL    HW131592   1.560   5.747   4.978
10231SOL    HW231593   1.577   5.910   4.983
10232SOL     OW31594   2.734   0.863   3.110
10232SOL    HW131595   2.652   0.808   3.096
10232SOL    HW231596   2.726   0.948   3.057
10233SOL     OW31597   3.817   3.937   5.384
10233SOL    HW131598   3.817   3.871   5.309
10233SOL    HW231599   3.895   3.998   5.374
10234SOL     OW31600   6.129   6.718   1.093
10234SOL    HW131601   6.029   6.711   1.092
10234SOL    HW231602   6.163   6.730   1.000
10235SOL     OW31603   1.539   2.009   2.044
10235SOL    HW131604   1.521   2.021   2.142
10235SOL    HW231605   1.554   2.098   2.002
10236SOL     OW31606   2.024   6.779   0.552
10236SOL    HW131607   2.121   6.792   0.532
10236SOL    HW231608   1.970   6.845   0.502
10237SOL     OW31609   6.971   3.475   6.994
10237SOL    HW131610   7.019   3.397   0.008
10237SOL    HW231611   6.894   3.501   0.027
10238SOL     OW31612   3.974   4.870   1.530
10238SOL    HW131613   3.892   4.860   1.587
10238SOL    HW231614   4.036   4.794   1.547
10239SOL     OW31615   1.579   2.740   4.809
10239SOL    HW131616   1.489   2.702   4.788
10239SOL    HW231617   1.644   2.715   4.737
10240SOL     OW31618   2.869   6.054   2.394
10240SOL    HW131619   2.886   6.124   2.464
10240SOL    HW231620   2.795   6.084   2.334
10241SOL     OW31621   5.358   1.903   2.150
10241SOL    HW131622   5.348   1.954   2.064
10241SOL    HW231623   5.426   1.948   2.208
10242SOL     OW31624   0.182   1.818   0.482
10242SOL    HW131625   0.273   1.811   0.523
10242SOL    HW231626   0.181   1.892   0.415
10243SOL     OW31627   2.373   4.590   1.439
10243SOL    HW131628   2.334   4.542   1.518
10243SOL    HW231629   2.459   4.634   1.466
10244SOL     OW31630   2.355   4.208   0.752
10244SOL    HW131631   2.256   4.201   0.759
10244SOL    HW231632   2.385   4.171   0.664
10245SOL     OW31633   3.430   4.414   1.425
10245SOL    HW131634   3.518   4.366   1.424
10245SOL    HW231635   3.412   4.448   1.517
10246SOL     OW31636   3.008   3.538   4.532
10246SOL    HW131637   2.980   3.458   4.480
10246SOL    HW231638   3.009   3.619   4.473
10247SOL     OW31639   0.802   4.094   6.178
10247SOL    HW131640   0.801   4.010   6.232
10247SOL    HW231641   0.811   4.072   6.081
10248SOL     OW31642   0.989   0.612   2.834
10248SOL    HW131643   0.956   0.693   2.882
10248SOL    HW231644   1.089   0.616   2.826
10249SOL     OW31645   2.392   4.955   6.972
10249SOL    HW131646   2.484   4.976   6.941
10249SOL    HW231647   2.395   4.925   0.042
10250SOL     OW31648   6.421   3.663   0.596
10250SOL    HW131649   6.419   3.626   0.504
10250SOL    HW231650   6.452   3.758   0.593
10251SOL     OW31651   1.975   1.122   4.396
10251SOL    HW131652   1.930   1.205   4.363
10251SOL    HW231653   1.910   1.047   4.398
10252SOL     OW31654   4.438   3.474   6.062
10252SOL    HW131655   4.477   3.382   6.063
10252SOL    HW231656   4.412   3.498   5.968
10253SOL     OW31657   3.699   6.701   0.828
10253SOL    HW131658   3.777   6.764   0.837
10253SOL    HW231659   3.644   6.728   0.749
10254SOL     OW31660   4.723   1.309   5.694
10254SOL    HW131661   4.654   1.237   5.699
10254SOL    HW231662   4.687   1.392   5.735
10255SOL     OW31663   2.405   6.991   1.145
10255SOL    HW131664   2.368   0.017   1.222
10255SOL    HW231665   2.330   6.950   1.093
10256SOL     OW31666   4.570   0.724   2.262
10256SOL    HW131667   4.659   0.767   2.274
10256SOL    HW231668   4.580   0.639   2.210
10257SOL     OW31669   2.355   4.686   3.851
10257SOL    HW131670   2.377   4.699   3.754
10257SOL    HW231671   2.256   4.678   3.862
10258SOL     OW31672   3.846   2.107   3.336
10258SOL    HW131673   3.761   2.131   3.383
10258SOL    HW231674   3.867   2.011   3.351
10259SOL     OW31675   0.586   3.875   3.673
10259SOL    HW131676   0.640   3.857   3.756
10259SOL    HW231677   0.533   3.794   3.650
10260SOL     OW31678   1.043   1.306   3.520
10260SOL    HW131679   1.121   1.353   3.562
10260SOL    HW231680   1.059   1.295   3.422
10261SOL     OW31681   6.953   4.662   0.613
10261SOL    HW131682   6.953   4.672   0.713
10261SOL    HW231683   6.868   4.698   0.576
10262SOL     OW31684   3.393   6.678   6.205
10262SOL    HW131685   3.419   6.773   6.185
10262SOL    HW231686   3.293   6.671   6.205
10263SOL     OW31687   5.896   0.643   0.595
10263SOL    HW131688   5.837   0.574   0.636
10263SOL    HW231689   5.870   0.657   0.499
10264SOL     OW31690   5.866   5.414   6.423
10264SOL    HW131691   5.867   5.326   6.375
10264SOL    HW231692   5.786   5.418   6.483
10265SOL     OW31693   2.909   2.743   0.417
10265SOL    HW131694   2.820   2.764   0.458
10265SOL    HW231695   2.955   2.673   0.471
10266SOL     OW31696   3.411   2.859   2.732
10266SOL    HW131697   3.424   2.909   2.818
10266SOL    HW231698   3.357   2.777   2.749
10267SOL     OW31699   5.361   1.359   1.050
10267SOL    HW131700   5.341   1.350   0.952
10267SOL    HW231701   5.411   1.444   1.065
10268SOL     OW31702   5.623   6.342   2.272
10268SOL    HW131703   5.616   6.361   2.174
10268SOL    HW231704   5.550   6.390   2.320
10269SOL     OW31705   1.126   2.676   6.386
10269SOL    HW131706   1.116   2.775   6.398
10269SOL    HW231707   1.141   2.634   6.476
10270SOL     OW31708   3.328   6.058   2.488
10270SOL    HW131709   3.274   6.039   2.405
10270SOL    HW231710   3.267   6.061   2.567
10271SOL     OW31711   2.776   2.970   0.190
10271SOL    HW131712   2.694   2.918   0.166
10271SOL    HW231713   2.804   2.946   0.283
10272SOL     OW31714   0.883   0.668   4.098
10272SOL    HW131715   0.783   0.669   4.105
10272SOL    HW231716   0.921   0.626   4.181
10273SOL     OW31717   2.913   4.774   4.537
10273SOL    HW131718   3.011   4.772   4.557
10273SOL    HW231719   2.862   4.764   4.622
10274SOL     OW31720   0.621   4.673   6.172
10274SOL    HW131721   0.683   4.618   6.115
10274SOL    HW231722   0.662   4.683   6.263
10275SOL     OW31723   0.088   0.645   1.955
10275SOL    HW131724   0.106   0.610   1.863
10275SOL    HW231725   0.109   0.574   2.022
10276SOL     OW31726   4.410   5.697   5.812
10276SOL    HW131727   4.369   5.625   5.757
10276SOL    HW231728   4.349   5.776   5.815
10277SOL     OW31729   1.172   0.208   4.470
10277SOL    HW131730   1.270   0.215   4.484
10277SOL    HW231731   1.150   0.118   4.433
10278SOL     OW31732   0.636   0.694   4.200
10278SOL    HW131733   0.646   0.765   4.270
10278SOL    HW231734   0.630   0.604   4.245
10279SOL     OW31735   2.549   5.343   4.108
10279SOL    HW131736   2.600   5.259   4.126
10279SOL    HW231737   2.531   5.352   4.010
10280SOL     OW31738   5.307   3.535   0.137
10280SOL    HW131739   5.261   3.481   0.207
10280SOL    HW231740   5.294   3.633   0.156
10281SOL     OW31741   6.966   2.500   3.115
10281SOL    HW131742   0.026   2.473   3.159
10281SOL    HW231743   6.904   2.422   3.111
10282SOL     OW31744   5.610   3.288   3.540
10282SOL    HW131745   5.513   3.312   3.542
10282SOL    HW231746   5.659   3.348   3.477
10283SOL     OW31747   0.982   3.080   0.933
10283SOL    HW131748   1.045   3.014   0.974
10283SOL    HW231749   0.978   3.162   0.989
10284SOL     OW31750   6.058   2.196   3.850
10284SOL    HW131751   6.150   2.227   3.875
10284SOL    HW231752   6.037   2.111   3.899
10285SOL     OW31753   4.236   6.311   3.056
10285SOL    HW131754   4.150   6.330   3.007
10285SOL    HW231755   4.215   6.265   3.143
10286SOL     OW31756   3.069   0.576   3.591
10286SOL    HW131757   3.145   0.516   3.617
10286SOL    HW231758   3.081   0.665   3.635
10287SOL     OW31759   1.727   5.969   2.073
10287SOL    HW131760   1.658   5.997   2.140
10287SOL    HW231761   1.722   5.870   2.059
10288SOL     OW31762   3.886   0.031   4.447
10288SOL    HW131763   3.960   7.019   4.391
10288SOL    HW231764   3.804   7.001   4.436
10289SOL     OW31765   2.684   5.970   0.786
10289SOL    HW131766   2.700   5.883   0.832
10289SOL    HW231767   2.620   6.025   0.839
10290SOL     OW31768   3.164   3.174   2.820
10290SOL    HW131769   3.208   3.263   2.831
10290SOL    HW231770   3.162   3.150   2.723
10291SOL     OW31771   3.975   1.597   3.050
10291SOL    HW131772   4.039   1.637   3.116
10291SOL    HW231773   3.888   1.646   3.055
10292SOL     OW31774   0.643   1.409   5.920
10292SOL    HW131775   0.715   1.469   5.956
10292SOL    HW231776   0.554   1.439   5.954
10293SOL     OW31777   0.720   3.180   3.499
10293SOL    HW131778   0.683   3.192   3.592
10293SOL    HW231779   0.676   3.245   3.437
10294SOL     OW31780   4.305   1.736   3.180
10294SOL    HW131781   4.272   1.736   3.085
10294SOL    HW231782   4.270   1.817   3.227
10295SOL     OW31783   1.257   2.671   5.356
10295SOL    HW131784   1.192   2.623   5.415
10295SOL    HW231785   1.308   2.737   5.410
10296SOL     OW31786   5.741   1.506   5.955
10296SOL    HW131787   5.793   1.428   5.990
10296SOL    HW231788   5.745   1.581   6.021
10297SOL     OW31789   2.474   1.399   6.898
10297SOL    HW131790   2.439   1.305   6.900
10297SOL    HW231791   2.401   1.463   6.918
10298SOL     OW31792   1.383   4.591   2.110
10298SOL    HW131793   1.418   4.598   2.017
10298SOL    HW231794   1.408   4.673   2.162
10299SOL     OW31795   4.230   6.095   2.469
10299SOL    HW131796   4.153   6.144   2.429
10299SOL    HW231797   4.229   6.000   2.436
10300SOL     OW31798   1.745   4.392   1.850
10300SOL    HW131799   1.744   4.490   1.868
10300SOL    HW231800   1.765   4.342   1.935
10301SOL     OW31801   4.767   1.661   5.236
10301SOL    HW131802   4.672   1.631   5.243
10301SOL    HW231803   4.784   1.730   5.307
10302SOL     OW31804   2.485   5.717   4.003
10302SOL    HW131805   2.457   5.678   3.915
10302SOL    HW231806   2.463   5.814   4.005
10303SOL     OW31807   0.867   5.320   3.375
10303SOL    HW131808   0.794   5.266   3.417
10303SOL    HW231809   0.950   5.313   3.431
10304SOL     OW31810   6.038   0.170   0.787
10304SOL    HW131811   6.120   0.132   0.829
10304SOL    HW231812   5.957   0.141   0.837
10305SOL     OW31813   2.693   4.010   5.698
10305SOL    HW131814   2.603   4.015   5.657
10305SOL    HW231815   2.684   4.002   5.798
10306SOL     OW31816   5.512   5.835   0.338
10306SOL    HW131817   5.463   5.874   0.260
10306SOL    HW231818   5.452   5.773   0.388
10307SOL     OW31819   3.106   1.507   4.710
10307SOL    HW131820   3.031   1.444   4.731
10307SOL    HW231821   3.193   1.458   4.716
10308SOL     OW31822   2.384   4.451   2.311
10308SOL    HW131823   2.434   4.514   2.252
10308SOL    HW231824   2.300   4.422   2.264
10309SOL     OW31825   6.722   1.393   6.283
10309SOL    HW131826   6.820   1.413   6.276
10309SOL    HW231827   6.703   1.357   6.375
10310SOL     OW31828   3.042   3.645   0.314
10310SOL    HW131829   2.990   3.576   0.365
10310SOL    HW231830   3.120   3.675   0.369
10311SOL     OW31831   6.503   5.655   0.243
10311SOL    HW131832   6.405   5.638   0.247
10311SOL    HW231833   6.548   5.615   0.323
10312SOL     OW31834   4.662   6.666   2.772
10312SOL    HW131835   4.603   6.699   2.699
10312SOL    HW231836   4.717   6.742   2.807
10313SOL     OW31837   3.655   5.920   2.158
10313SOL    HW131838   3.649   6.004   2.103
10313SOL    HW231839   3.708   5.939   2.241
10314SOL     OW31840   6.587   0.342   0.078
10314SOL    HW131841   6.495   0.334   0.040
10314SOL    HW231842   6.593   0.287   0.161
10315SOL     OW31843   5.996   6.329   4.044
10315SOL    HW131844   5.965   6.243   4.084
10315SOL    HW231845   5.935   6.403   4.074
10316SOL     OW31846   6.722   2.789   6.163
10316SOL    HW131847   6.719   2.709   6.222
10316SOL    HW231848   6.817   2.809   6.139
10317SOL     OW31849   4.126   6.380   6.163
10317SOL    HW131850   4.136   6.284   6.189
10317SOL    HW231851   4.034   6.412   6.186
10318SOL     OW31852   4.940   1.252   6.516
10318SOL    HW131853   4.923   1.158   6.485
10318SOL    HW231854   5.028   1.256   6.563
10319SOL     OW31855   0.917   4.000   5.585
10319SOL    HW131856   0.888   3.931   5.651
10319SOL    HW231857   0.836   4.049   5.551
10320SOL     OW31858   0.520   6.205   2.555
10320SOL    HW131859   0.449   6.257   2.507
10320SOL    HW231860   0.491   6.187   2.649
10321SOL     OW31861   5.829   1.762   1.948
10321SOL    HW131862   5.796   1.726   2.035
10321SOL    HW231863   5.763   1.828   1.911
10322SOL     OW31864   4.385   4.662   4.792
10322SOL    HW131865   4.462   4.612   4.754
10322SOL    HW231866   4.372   4.637   4.888
10323SOL     OW31867   6.202   4.716   5.239
10323SOL    HW131868   6.183   4.812   5.219
10323SOL    HW231869   6.291   4.691   5.200
10324SOL     OW31870   3.635   3.315   2.824
10324SOL    HW131871   3.556   3.290   2.880
10324SOL    HW231872   3.694   3.235   2.813
10325SOL     OW31873   0.023   4.875   2.301
10325SOL    HW131874   0.051   4.899   2.208
10325SOL    HW231875   6.953   4.898   2.314
10326SOL     OW31876   6.107   3.829   6.725
10326SOL    HW131877   6.088   3.756   6.659
10326SOL    HW231878   6.206   3.845   6.730
10327SOL     OW31879   2.222   2.926   1.593
10327SOL    HW131880   2.190   2.921   1.687
10327SOL    HW231881   2.239   2.834   1.558
10328SOL     OW31882   6.346   2.932   0.862
10328SOL    HW131883   6.360   2.853   0.923
10328SOL    HW231884   6.380   3.014   0.907
10329SOL     OW31885   2.651   1.172   3.039
10329SOL    HW131886   2.579   1.234   3.009
10329SOL    HW231887   2.694   1.130   2.959
10330SOL     OW31888   3.983   0.633   1.805
10330SOL    HW131889   3.927   0.681   1.737
10330SOL    HW231890   4.025   0.700   1.866
10331SOL     OW31891   6.788   6.182   6.240
10331SOL    HW131892   6.824   6.089   6.233
10331SOL    HW231893   6.724   6.187   6.317
10332SOL     OW31894   6.863   0.060   6.957
10332SOL    HW131895   6.848   7.004   6.902
10332SOL    HW231896   6.840   0.141   6.903
10333SOL     OW31897   0.557   5.377   5.222
10333SOL    HW131898   0.470   5.360   5.175
10333SOL    HW231899   0.548   5.458   5.280
10334SOL     OW31900   3.439   0.813   4.507
10334SOL    HW131901   3.423   0.748   4.582
10334SOL    HW231902   3.525   0.861   4.523
10335SOL     OW31903   1.492   4.059   0.187
10335SOL    HW131904   1.547   4.142   0.199
10335SOL    HW231905   1.544   3.980   0.221
10336SOL     OW31906   6.171   0.207   1.933
10336SOL    HW131907   6.143   0.112   1.940
10336SOL    HW231908   6.268   0.216   1.956
10337SOL     OW31909   0.293   5.846   6.775
10337SOL    HW131910   0.350   5.925   6.798
10337SOL    HW231911   0.272   5.846   6.678
10338SOL     OW31912   1.638   6.322   2.340
10338SOL    HW131913   1.619   6.311   2.438
10338SOL    HW231914   1.661   6.417   2.320
10339SOL     OW31915   5.521   3.530   5.887
10339SOL    HW131916   5.493   3.436   5.866
10339SOL    HW231917   5.620   3.538   5.876
10340SOL     OW31918   1.444   3.209   6.985
10340SOL    HW131919   1.439   3.147   6.907
10340SOL    HW231920   1.482   3.297   6.957
10341SOL     OW31921   2.118   3.621   2.177
10341SOL    HW131922   2.149   3.562   2.102
10341SOL    HW231923   2.135   3.576   2.264
10342SOL     OW31924   1.916   0.567   4.192
10342SOL    HW131925   1.927   0.660   4.156
10342SOL    HW231926   1.818   0.548   4.204
10343SOL     OW31927   3.073   4.976   6.941
10343SOL    HW131928   3.171   4.985   6.927
10343SOL    HW231929   3.054   4.955   0.012
10344SOL     OW31930   4.474   3.419   0.184
10344SOL    HW131931   4.414   3.478   0.130
10344SOL    HW231932   4.465   3.442   0.281
10345SOL     OW31933   1.773   2.435   5.774
10345SOL    HW131934   1.769   2.533   5.796
10345SOL    HW231935   1.803   2.423   5.680
10346SOL     OW31936   0.001   5.553   1.507
10346SOL    HW131937   0.046   5.625   1.453
10346SOL    HW231938   6.945   5.522   1.459
10347SOL     OW31939   4.674   1.495   3.338
10347SOL    HW131940   4.655   1.441   3.257
10347SOL    HW231941   4.767   1.476   3.370
10348SOL     OW31942   6.228   2.536   0.388
10348SOL    HW131943   6.133   2.532   0.420
10348SOL    HW231944   6.274   2.450   0.408
10349SOL     OW31945   0.934   0.713   6.611
10349SOL    HW131946   0.835   0.706   6.624
10349SOL    HW231947   0.981   0.659   6.679
10350SOL     OW31948   3.114   5.396   5.165
10350SOL    HW131949   3.147   5.390   5.259
10350SOL    HW231950   3.035   5.335   5.153
10351SOL     OW31951   4.642   5.383   0.017
10351SOL    HW131952   4.550   5.360   7.011
10351SOL    HW231953   4.692   5.299   0.038
10352SOL     OW31954   3.199   0.628   6.193
10352SOL    HW131955   3.204   0.559   6.266
10352SOL    HW231956   3.252   0.597   6.114
10353SOL     OW31957   0.110   2.900   4.694
10353SOL    HW131958   0.208   2.915   4.704
10353SOL    HW231959   0.086   2.810   4.730
10354SOL     OW31960   6.005   1.649   2.186
10354SOL    HW131961   6.086   1.649   2.126
10354SOL    HW231962   6.004   1.564   2.239
10355SOL     OW31963   2.563   6.555   1.442
10355SOL    HW131964   2.618   6.472   1.456
10355SOL    HW231965   2.542   6.595   1.531
10356SOL     OW31966   0.097   4.885   5.774
10356SOL    HW131967   7.025   4.869   5.770
10356SOL    HW231968   0.118   4.947   5.850
10357SOL     OW31969   1.819   2.901   6.643
10357SOL    HW131970   1.748   2.831   6.655
10357SOL    HW231971   1.776   2.990   6.628
10358SOL     OW31972   0.500   2.691   3.208
10358SOL    HW131973   0.440   2.678   3.129
10358SOL    HW231974   0.563   2.767   3.191
10359SOL     OW31975   0.881   1.507   0.973
10359SOL    HW131976   0.966   1.467   0.937
10359SOL    HW231977   0.845   1.573   0.907
10360SOL     OW31978   4.743   4.950   3.053
10360SOL    HW131979   4.711   4.861   3.021
10360SOL    HW231980   4.683   5.022   3.016
10361SOL     OW31981   2.444   6.582   2.475
10361SOL    HW131982   2.509   6.569   2.550
10361SOL    HW231983   2.489   6.560   2.388
10362SOL     OW31984   2.011   4.529   4.863
10362SOL    HW131985   2.077   4.496   4.930
10362SOL    HW231986   2.045   4.613   4.820
10363SOL     OW31987   5.200   0.684   2.774
10363SOL    HW131988   5.120   0.699   2.831
10363SOL    HW231989   5.232   0.590   2.786
10364SOL     OW31990   3.054   3.786   1.844
10364SOL    HW131991   3.037   3.792   1.942
10364SOL    HW231992   2.975   3.822   1.794
10365SOL     OW31993   3.759   5.621   0.448
10365SOL    HW131994   3.705   5.550   0.492
10365SOL    HW231995   3.828   5.578   0.390
10366SOL     OW31996   2.300   0.234   4.204
10366SOL    HW131997   2.301   0.140   4.170
10366SOL    HW231998   2.262   0.294   4.134
10367SOL     OW31999   5.500   2.480   2.577
10367SOL    HW132000   5.539   2.571   2.560
10367SOL    HW232001   5.556   2.411   2.531
10368SOL     OW32002   2.403   1.107   1.111
10368SOL    HW132003   2.369   1.197   1.138
10368SOL    HW232004   2.352   1.075   1.031
10369SOL     OW32005   3.986   0.946   6.695
10369SOL    HW132006   3.979   0.993   6.607
10369SOL    HW232007   3.894   0.932   6.732
10370SOL     OW32008   4.674   1.244   5.055
10370SOL    HW132009   4.623   1.178   4.999
10370SOL    HW232010   4.772   1.233   5.038
10371SOL     OW32011   3.622   5.844   5.298
10371SOL    HW132012   3.681   5.861   5.219
10371SOL    HW232013   3.666   5.877   5.381
10372SOL     OW32014   2.398   0.957   5.565
10372SOL    HW132015   2.354   0.996   5.646
10372SOL    HW232016   2.424   1.031   5.503
10373SOL     OW32017   1.863   6.470   4.727
10373SOL    HW132018   1.891   6.375   4.734
10373SOL    HW232019   1.899   6.521   4.805
10374SOL     OW32020   2.971   1.503   3.529
10374SOL    HW132021   3.030   1.512   3.449
10374SOL    HW232022   2.885   1.552   3.513
10375SOL     OW32023   4.852   1.915   0.334
10375SOL    HW132024   4.860   2.007   0.297
10375SOL    HW232025   4.941   1.868   0.327
10376SOL     OW32026   0.990   0.038   3.697
10376SOL    HW132027   0.964   0.113   3.636
10376SOL    HW232028   1.036   6.992   3.644
10377SOL     OW32029   0.235   0.865   3.329
10377SOL    HW132030   0.316   0.905   3.371
10377SOL    HW232031   0.175   0.830   3.402
10378SOL     OW32032   0.016   0.849   6.304
10378SOL    HW132033   0.065   0.778   6.254
10378SOL    HW232034   6.988   0.904   6.240
10379SOL     OW32035   5.275   0.072   5.070
10379SOL    HW132036   5.369   0.039   5.063
10379SOL    HW232037   5.243   0.064   5.164
10380SOL     OW32038   5.614   0.750   2.812
10380SOL    HW132039   5.559   0.832   2.793
10380SOL    HW232040   5.653   0.716   2.727
10381SOL     OW32041   4.938   5.575   5.864
10381SOL    HW132042   4.985   5.531   5.941
10381SOL    HW232043   4.843   5.591   5.888
10382SOL     OW32044   2.563   5.198   6.137
10382SOL    HW132045   2.486   5.236   6.085
10382SOL    HW232046   2.565   5.237   6.229
10383SOL     OW32047   0.998   3.605   0.975
10383SOL    HW132048   1.010   3.641   0.882
10383SOL    HW232049   0.934   3.663   1.025
10384SOL     OW32050   0.017   0.089   0.998
10384SOL    HW132051   0.107   0.056   1.024
10384SOL    HW232052   0.019   0.122   0.904
10385SOL     OW32053   5.552   7.004   6.264
10385SOL    HW132054   5.498   7.018   6.181
10385SOL    HW232055   5.494   6.963   6.335
10386SOL     OW32056   6.570   3.511   5.149
10386SOL    HW132057   6.509   3.459   5.208
10386SOL    HW232058   6.549   3.609   5.157
10387SOL     OW32059   2.974   2.220   2.841
10387SOL    HW132060   3.008   2.194   2.751
10387SOL    HW232061   2.907   2.294   2.831
10388SOL     OW32062   1.386   5.311   3.962
10388SOL    HW132063   1.336   5.372   3.901
10388SOL    HW232064   1.471   5.283   3.918
10389SOL     OW32065   0.547   5.010   2.891
10389SOL    HW132066   0.573   4.993   2.796
10389SOL    HW232067   0.458   4.968   2.909
10390SOL     OW32068   1.632   3.990   2.857
10390SOL    HW132069   1.723   3.952   2.842
10390SOL    HW232070   1.584   3.998   2.770
10391SOL     OW32071   1.469   6.096   6.519
10391SOL    HW132072   1.545   6.072   6.579
10391SOL    HW232073   1.387   6.111   6.573
10392SOL     OW32074   6.248   4.239   0.239
10392SOL    HW132075   6.323   4.212   0.178
10392SOL    HW232076   6.226   4.336   0.224
10393SOL     OW32077   0.853   1.314   4.222
10393SOL    HW132078   0.767   1.342   4.180
10393SOL    HW232079   0.835   1.280   4.314
10394SOL     OW32080   1.747   6.642   6.892
10394SOL    HW132081   1.685   6.678   6.823
10394SOL    HW232082   1.790   6.717   6.941
10395SOL     OW32083   0.132   0.923   3.796
10395SOL    HW132084   0.062   0.862   3.834
10395SOL    HW232085   0.124   1.013   3.839
10396SOL     OW32086   0.843   0.587   3.148
10396SOL    HW132087   0.871   0.658   3.213
10396SOL    HW232088   0.900   0.506   3.161
10397SOL     OW32089   4.173   0.507   3.258
10397SOL    HW132090   4.248   0.546   3.204
10397SOL    HW232091   4.090   0.562   3.244
10398SOL     OW32092   6.610   3.069   1.197
10398SOL    HW132093   6.623   3.055   1.295
10398SOL    HW232094   6.620   2.982   1.149
10399SOL     OW32095   4.822   2.325   5.692
10399SOL    HW132096   4.906   2.359   5.736
10399SOL    HW232097   4.846   2.270   5.612
10400SOL     OW32098   2.494   5.572   3.166
10400SOL    HW132099   2.491   5.488   3.221
10400SOL    HW232100   2.583   5.579   3.121
10401SOL     OW32101   6.758   5.903   2.506
10401SOL    HW132102   6.830   5.940   2.565
10401SOL    HW232103   6.728   5.974   2.442
10402SOL     OW32104   0.825   3.155   5.112
10402SOL    HW132105   0.766   3.144   5.192
10402SOL    HW232106   0.772   3.143   5.029
10403SOL     OW32107   5.194   1.433   2.296
10403SOL    HW132108   5.248   1.374   2.235
10403SOL    HW232109   5.097   1.410   2.287
10404SOL     OW32110   0.699   6.668   4.168
10404SOL    HW132111   0.655   6.638   4.253
10404SOL    HW232112   0.629   6.694   4.102
10405SOL     OW32113   1.664   6.067   5.464
10405SOL    HW132114   1.721   6.146   5.442
10405SOL    HW232115   1.570   6.097   5.482
10406SOL     OW32116   2.101   4.945   5.876
10406SOL    HW132117   2.072   4.868   5.819
10406SOL    HW232118   2.199   4.936   5.896
10407SOL     OW32119   1.256   1.491   5.780
10407SOL    HW132120   1.327   1.551   5.818
10407SOL    HW232121   1.232   1.421   5.847
10408SOL     OW32122   4.259   4.749   3.238
10408SOL    HW132123   4.181   4.783   3.291
10408SOL    HW232124   4.260   4.793   3.148
10409SOL     OW32125   0.115   3.434   2.079
10409SOL    HW132126   0.040   3.457   2.018
10409SOL    HW232127   0.194   3.405   2.025
10410SOL     OW32128   4.229   0.885   1.057
10410SOL    HW132129   4.230   0.977   1.018
10410SOL    HW232130   4.137   0.863   1.089
10411SOL     OW32131   2.164   4.693   3.024
10411SOL    HW132132   2.194   4.717   2.932
10411SOL    HW232133   2.236   4.714   3.090
10412SOL     OW32134   1.076   2.415   6.859
10412SOL    HW132135   1.125   2.424   6.946
10412SOL    HW232136   1.007   2.342   6.866
10413SOL     OW32137   0.122   1.920   6.922
10413SOL    HW132138   0.140   2.015   6.948
10413SOL    HW232139   0.146   1.860   6.999
10414SOL     OW32140   5.027   6.479   6.662
10414SOL    HW132141   5.052   6.489   6.759
10414SOL    HW232142   4.961   6.404   6.652
10415SOL     OW32143   0.602   5.681   3.404
10415SOL    HW132144   0.652   5.640   3.481
10415SOL    HW232145   0.625   5.778   3.399
10416SOL     OW32146   6.452   2.332   5.008
10416SOL    HW132147   6.419   2.256   4.952
10416SOL    HW232148   6.418   2.418   4.972
10417SOL     OW32149   3.952   5.215   2.732
10417SOL    HW132150   3.893   5.267   2.794
10417SOL    HW232151   4.044   5.210   2.770
10418SOL     OW32152   6.949   4.025   6.378
10418SOL    HW132153   6.896   4.061   6.301
10418SOL    HW232154   6.941   3.925   6.379
10419SOL     OW32155   3.019   0.887   5.176
10419SOL    HW132156   3.026   0.983   5.200
10419SOL    HW232157   2.953   0.842   5.236
10420SOL     OW32158   6.526   3.118   3.194
10420SOL    HW132159   6.459   3.044   3.201
10420SOL    HW232160   6.590   3.111   3.271
10421SOL     OW32161   1.016   4.414   3.905
10421SOL    HW132162   1.042   4.325   3.945
10421SOL    HW232163   0.917   4.425   3.911
10422SOL     OW32164   6.986   3.674   4.560
10422SOL    HW132165   6.897   3.637   4.589
10422SOL    HW232166   7.020   3.621   4.483
10423SOL     OW32167   3.193   4.904   3.946
10423SOL    HW132168   3.095   4.913   3.961
10423SOL    HW232169   3.218   4.950   3.861
10424SOL     OW32170   3.837   0.724   6.219
10424SOL    HW132171   3.907   0.795   6.214
10424SOL    HW232172   3.826   0.681   6.130
10425SOL     OW32173   2.175   0.747   0.565
10425SOL    HW132174   2.158   0.649   0.560
10425SOL    HW232175   2.154   0.780   0.656
10426SOL     OW32176   5.423   2.823   5.927
10426SOL    HW132177   5.393   2.872   5.845
10426SOL    HW232178   5.352   2.760   5.957
10427SOL     OW32179   5.216   5.997   4.694
10427SOL    HW132180   5.193   5.942   4.614
10427SOL    HW232181   5.159   6.079   4.696
10428SOL     OW32182   1.935   1.403   3.401
10428SOL    HW132183   1.934   1.337   3.477
10428SOL    HW232184   1.866   1.377   3.334
10429SOL     OW32185   1.110   3.602   2.915
10429SOL    HW132186   1.183   3.641   2.858
10429SOL    HW232187   1.125   3.504   2.926
10430SOL     OW32188   3.576   0.209   3.561
10430SOL    HW132189   3.624   0.123   3.541
10430SOL    HW232190   3.605   0.279   3.497
10431SOL     OW32191   3.288   2.128   3.881
10431SOL    HW132192   3.250   2.142   3.789
10431SOL    HW232193   3.285   2.031   3.904
10432SOL     OW32194   6.813   6.753   5.688
10432SOL    HW132195   6.801   6.680   5.755
10432SOL    HW232196   6.725   6.771   5.643
10433SOL     OW32197   2.154   6.805   1.940
10433SOL    HW132198   2.139   6.783   1.843
10433SOL    HW232199   2.079   6.863   1.972
10434SOL     OW32200   5.087   6.418   5.651
10434SOL    HW132201   5.066   6.323   5.671
10434SOL    HW232202   5.149   6.454   5.721
10435SOL     OW32203   0.778   2.198   6.271
10435SOL    HW132204   0.732   2.110   6.283
10435SOL    HW232205   0.873   2.190   6.300
10436SOL     OW32206   0.456   4.385   5.481
10436SOL    HW132207   0.470   4.414   5.387
10436SOL    HW232208   0.409   4.296   5.482
10437SOL     OW32209   5.863   4.789   5.424
10437SOL    HW132210   5.869   4.720   5.352
10437SOL    HW232211   5.942   4.850   5.420
10438SOL     OW32212   7.022   6.306   6.310
10438SOL    HW132213   6.947   6.260   6.263
10438SOL    HW232214   0.083   6.276   6.271
10439SOL     OW32215   0.023   7.004   4.278
10439SOL    HW132216   7.018   0.017   4.365
10439SOL    HW232217   0.121   6.985   4.283
10440SOL     OW32218   0.011   1.935   6.612
10440SOL    HW132219   0.102   1.952   6.651
10440SOL    HW232220   0.002   1.837   6.593
10441SOL     OW32221   3.373   2.102   0.881
10441SOL    HW132222   3.456   2.064   0.922
10441SOL    HW232223   3.361   2.196   0.912
10442SOL     OW32224   2.793   1.750   5.524
10442SOL    HW132225   2.881   1.707   5.541
10442SOL    HW232226   2.728   1.724   5.596
10443SOL     OW32227   6.799   0.934   2.801
10443SOL    HW132228   6.849   1.010   2.760
10443SOL    HW232229   6.829   0.920   2.895
10444SOL     OW32230   4.016   5.733   4.337
10444SOL    HW132231   3.980   5.642   4.314
10444SOL    HW232232   3.953   5.779   4.399
10445SOL     OW32233   1.763   4.496   2.496
10445SOL    HW132234   1.781   4.398   2.501
10445SOL    HW232235   1.849   4.546   2.499
10446SOL     OW32236   1.940   4.250   5.047
10446SOL    HW132237   1.918   4.196   4.965
10446SOL    HW232238   2.031   4.225   5.080
10447SOL     OW32239   0.086   1.650   3.027
10447SOL    HW132240   0.150   1.578   3.055
10447SOL    HW232241   0.137   1.733   3.004
10448SOL     OW32242   2.321   6.479   3.012
10448SOL    HW132243   2.255   6.437   3.074
10448SOL    HW232244   2.272   6.525   2.938
10449SOL     OW32245   3.497   6.152   6.573
10449SOL    HW132246   3.559   6.120   6.645
10449SOL    HW232247   3.441   6.075   6.541
10450SOL     OW32248   6.672   0.130   6.255
10450SOL    HW132249   6.617   0.214   6.257
10450SOL    HW232250   6.644   0.074   6.177
10451SOL     OW32251   1.947   0.849   4.079
10451SOL    HW132252   1.903   0.816   3.996
10451SOL    HW232253   2.045   0.865   4.062
10452SOL     OW32254   6.951   3.869   4.252
10452SOL    HW132255   7.020   3.818   4.201
10452SOL    HW232256   6.860   3.838   4.223
10453SOL     OW32257   4.458   5.502   3.557
10453SOL    HW132258   4.383   5.551   3.602
10453SOL    HW232259   4.542   5.554   3.567
10454SOL     OW32260   6.530   1.261   5.836
10454SOL    HW132261   6.433   1.247   5.813
10454SOL    HW232262   6.564   1.342   5.789
10455SOL     OW32263   6.122   6.697   4.216
10455SOL    HW132264   6.137   6.664   4.123
10455SOL    HW232265   6.024   6.713   4.230
10456SOL     OW32266   0.111   5.229   7.011
10456SOL    HW132267   0.080   5.318   6.979
10456SOL    HW232268   0.056   5.201   0.064
10457SOL     OW32269   4.023   2.460   0.137
10457SOL    HW132270   4.075   2.544   0.119
10457SOL    HW232271   4.084   2.381   0.128
10458SOL     OW32272   6.379   6.295   6.532
10458SOL    HW132273   6.340   6.306   6.624
10458SOL    HW232274   6.310   6.254   6.472
10459SOL     OW32275   0.074   5.781   0.666
10459SOL    HW132276   0.123   5.726   0.734
10459SOL    HW232277   7.018   5.820   0.708
10460SOL     OW32278   7.024   3.597   0.585
10460SOL    HW132279   0.066   3.624   0.518
10460SOL    HW232280   6.945   3.557   0.539
10461SOL     OW32281   0.244   5.267   4.764
10461SOL    HW132282   0.245   5.330   4.687
10461SOL    HW232283   0.166   5.288   4.823
10462SOL     OW32284   4.141   1.644   1.202
10462SOL    HW132285   4.050   1.675   1.230
10462SOL    HW232286   4.175   1.701   1.127
10463SOL     OW32287   4.765   2.907   5.978
10463SOL    HW132288   4.802   3.000   5.985
10463SOL    HW232289   4.714   2.886   6.062
10464SOL     OW32290   5.975   5.357   2.890
10464SOL    HW132291   6.036   5.354   2.969
10464SOL    HW232292   5.917   5.276   2.889
10465SOL     OW32293   5.743   3.600   1.904
10465SOL    HW132294   5.654   3.597   1.857
10465SOL    HW232295   5.813   3.563   1.844
10466SOL     OW32296   5.569   4.806   6.639
10466SOL    HW132297   5.620   4.861   6.573
10466SOL    HW232298   5.472   4.803   6.612
10467SOL     OW32299   1.978   2.677   6.657
10467SOL    HW132300   1.938   2.766   6.633
10467SOL    HW232301   1.946   2.649   6.748
10468SOL     OW32302   2.498   4.459   3.947
10468SOL    HW132303   2.523   4.466   4.044
10468SOL    HW232304   2.445   4.540   3.921
10469SOL     OW32305   5.674   1.593   5.304
10469SOL    HW132306   5.750   1.531   5.286
10469SOL    HW232307   5.622   1.561   5.383
10470SOL     OW32308   2.521   2.430   3.794
10470SOL    HW132309   2.564   2.455   3.880
10470SOL    HW232310   2.591   2.408   3.726
10471SOL     OW32311   2.601   0.925   0.173
10471SOL    HW132312   2.675   0.935   0.240
10471SOL    HW232313   2.527   0.872   0.215
10472SOL     OW32314   3.817   5.097   0.562
10472SOL    HW132315   3.817   5.176   0.624
10472SOL    HW232316   3.769   5.120   0.478
10473SOL     OW32317   5.072   4.887   6.692
10473SOL    HW132318   5.059   4.957   6.762
10473SOL    HW232319   5.043   4.798   6.727
10474SOL     OW32320   5.425   0.987   3.997
10474SOL    HW132321   5.357   1.045   3.953
10474SOL    HW232322   5.385   0.897   4.016
10475SOL     OW32323   1.659   6.233   1.953
10475SOL    HW132324   1.690   6.161   2.015
10475SOL    HW232325   1.559   6.231   1.947
10476SOL     OW32326   3.905   6.634   0.552
10476SOL    HW132327   3.922   6.535   0.556
10476SOL    HW232328   3.940   6.677   0.636
10477SOL     OW32329   6.519   6.599   4.015
10477SOL    HW132330   6.496   6.696   4.023
10477SOL    HW232331   6.563   6.568   4.099
10478SOL     OW32332   6.113   6.693   0.328
10478SOL    HW132333   6.018   6.719   0.312
10478SOL    HW232334   6.162   6.771   0.367
10479SOL     OW32335   0.001   1.991   2.703
10479SOL    HW132336   6.985   1.906   2.670
10479SOL    HW232337   7.001   2.006   2.798
10480SOL     OW32338   1.247   7.010   2.185
10480SOL    HW132339   1.172   0.006   2.247
10480SOL    HW232340   1.292   0.068   2.155
10481SOL     OW32341   0.755   0.221   3.204
10481SOL    HW132342   0.851   0.241   3.185
10481SOL    HW232343   0.747   0.129   3.243
10482SOL     OW32344   5.493   4.014   3.710
10482SOL    HW132345   5.476   4.108   3.681
10482SOL    HW232346   5.427   3.988   3.780
10483SOL     OW32347   5.692   5.174   0.347
10483SOL    HW132348   5.655   5.267   0.346
10483SOL    HW232349   5.621   5.111   0.378
10484SOL     OW32350   6.305   1.381   1.362
10484SOL    HW132351   6.377   1.324   1.400
10484SOL    HW232352   6.283   1.351   1.269
10485SOL     OW32353   4.514   3.899   6.142
10485SOL    HW132354   4.565   3.813   6.138
10485SOL    HW232355   4.475   3.918   6.053
10486SOL     OW32356   6.239   3.121   0.448
10486SOL    HW132357   6.164   3.119   0.382
10486SOL    HW232358   6.322   3.155   0.403
10487SOL     OW32359   5.861   6.165   1.401
10487SOL    HW132360   5.767   6.132   1.391
10487SOL    HW232361   5.877   6.190   1.497
10488SOL     OW32362   2.625   2.920   6.261
10488SOL    HW132363   2.691   2.914   6.186
10488SOL    HW232364   2.657   2.987   6.328
10489SOL     OW32365   0.410   5.786   6.199
10489SOL    HW132366   0.472   5.821   6.129
10489SOL    HW232367   0.336   5.851   6.214
10490SOL     OW32368   6.701   1.219   3.314
10490SOL    HW132369   6.660   1.274   3.387
10490SOL    HW232370   6.714   1.125   3.346
10491SOL     OW32371   2.102   4.186   6.263
10491SOL    HW132372   2.018   4.220   6.220
10491SOL    HW232373   2.083   4.162   6.358
10492SOL     OW32374   4.854   3.562   5.326
10492SOL    HW132375   4.820   3.551   5.233
10492SOL    HW232376   4.938   3.508   5.337
10493SOL     OW32377   3.515   0.439   1.434
10493SOL    HW132378   3.546   0.501   1.506
10493SOL    HW232379   3.416   0.452   1.420
10494SOL     OW32380   5.610   2.001   4.338
10494SOL    HW132381   5.525   2.018   4.287
10494SOL    HW232382   5.687   2.041   4.289
10495SOL     OW32383   1.929   0.162   0.567
10495SOL    HW132384   1.930   0.215   0.652
10495SOL    HW232385   2.017   0.170   0.521
10496SOL     OW32386   6.706   6.982   0.130
10496SOL    HW132387   6.685   0.046   0.170
10496SOL    HW232388   6.770   6.995   0.054
10497SOL     OW32389   1.393   0.276   0.765
10497SOL    HW132390   1.363   0.370   0.783
10497SOL    HW232391   1.492   0.269   0.780
10498SOL     OW32392   1.872   6.879   6.981
10498SOL    HW132393   1.820   6.961   6.959
10498SOL    HW232394   1.970   6.898   6.975
10499SOL     OW32395   2.718   6.121   3.160
10499SOL    HW132396   2.697   6.216   3.182
10499SOL    HW232397   2.702   6.064   3.240
10500SOL     OW32398   0.593   2.163   5.584
10500SOL    HW132399   0.629   2.254   5.565
10500SOL    HW232400   0.599   2.107   5.502
10501SOL     OW32401   2.603   4.601   2.668
10501SOL    HW132402   2.624   4.551   2.584
10501SOL    HW232403   2.590   4.697   2.647
10502SOL     OW32404   3.092   0.005   0.424
10502SOL    HW132405   3.109   0.100   0.397
10502SOL    HW232406   3.176   6.977   0.410
10503SOL     OW32407   4.102   2.860   0.342
10503SOL    HW132408   4.122   2.958   0.339
10503SOL    HW232409   4.005   2.844   0.325
10504SOL     OW32410   1.980   2.989   0.312
10504SOL    HW132411   1.927   2.921   0.363
10504SOL    HW232412   1.943   3.080   0.328
10505SOL     OW32413   6.161   6.029   0.793
10505SOL    HW132414   6.203   6.075   0.871
10505SOL    HW232415   6.068   6.000   0.818
10506SOL     OW32416   0.412   4.525   6.499
10506SOL    HW132417   0.408   4.537   6.598
10506SOL    HW232418   0.320   4.529   6.461
10507SOL     OW32419   1.497   0.508   6.188
10507SOL    HW132420   1.449   0.469   6.267
10507SOL    HW232421   1.546   0.590   6.215
10508SOL     OW32422   5.887   5.327   3.251
10508SOL    HW132423   5.877   5.263   3.327
10508SOL    HW232424   5.800   5.336   3.203
10509SOL     OW32425   0.941   6.576   7.020
10509SOL    HW132426   0.992   6.628   0.063
10509SOL    HW232427   0.844   6.601   7.025
10510SOL     OW32428   5.656   5.074   6.477
10510SOL    HW132429   5.642   5.121   6.565
10510SOL    HW232430   5.569   5.065   6.430
10511SOL     OW32431   4.422   3.058   0.654
10511SOL    HW132432   4.326   3.043   0.633
10511SOL    HW232433   4.478   3.028   0.577
10512SOL     OW32434   4.579   0.541   6.619
10512SOL    HW132435   4.584   0.612   6.689
10512SOL    HW232436   4.633   0.462   6.648
10513SOL     OW32437   0.354   1.936   5.916
10513SOL    HW132438   0.389   1.948   6.009
10513SOL    HW232439   0.291   1.859   5.914
10514SOL     OW32440   6.260   4.224   0.650
10514SOL    HW132441   6.317   4.298   0.614
10514SOL    HW232442   6.255   4.150   0.583
10515SOL     OW32443   6.630   1.603   2.903
10515SOL    HW132444   6.725   1.620   2.878
10515SOL    HW232445   6.624   1.582   3.000
10516SOL     OW32446   4.587   1.033   6.596
10516SOL    HW132447   4.540   1.111   6.553
10516SOL    HW232448   4.646   0.989   6.528
10517SOL     OW32449   6.684   1.991   2.564
10517SOL    HW132450   6.744   1.979   2.485
10517SOL    HW232451   6.640   1.905   2.587
10518SOL     OW32452   1.237   5.253   0.082
10518SOL    HW132453   1.197   5.162   0.094
10518SOL    HW232454   1.336   5.246   0.083
10519SOL     OW32455   3.390   2.962   5.804
10519SOL    HW132456   3.399   2.899   5.727
10519SOL    HW232457   3.312   2.935   5.860
10520SOL     OW32458   2.931   2.929   6.466
10520SOL    HW132459   2.958   2.927   6.562
10520SOL    HW232460   2.847   2.983   6.457
10521SOL     OW32461   6.259   6.383   1.069
10521SOL    HW132462   6.298   6.445   1.002
10521SOL    HW232463   6.325   6.365   1.142
10522SOL     OW32464   6.448   0.816   0.286
10522SOL    HW132465   6.476   0.860   0.372
10522SOL    HW232466   6.509   0.739   0.267
10523SOL     OW32467   0.326   5.407   5.576
10523SOL    HW132468   0.426   5.409   5.573
10523SOL    HW232469   0.290   5.370   5.490
10524SOL     OW32470   2.029   0.058   4.153
10524SOL    HW132471   2.000   7.012   4.217
10524SOL    HW232472   2.004   0.148   4.190
10525SOL     OW32473   2.403   6.349   5.402
10525SOL    HW132474   2.411   6.339   5.302
10525SOL    HW232475   2.468   6.418   5.433
10526SOL     OW32476   0.374   0.878   2.182
10526SOL    HW132477   0.425   0.964   2.173
10526SOL    HW232478   0.374   0.830   2.094
10527SOL     OW32479   1.255   2.505   4.414
10527SOL    HW132480   1.285   2.600   4.420
10527SOL    HW232481   1.283   2.456   4.496
10528SOL     OW32482   0.874   4.770   5.147
10528SOL    HW132483   0.891   4.827   5.228
10528SOL    HW232484   0.801   4.811   5.093
10529SOL     OW32485   0.537   6.008   3.485
10529SOL    HW132486   0.506   6.102   3.502
10529SOL    HW232487   0.607   6.008   3.414
10530SOL     OW32488   2.628   1.802   6.027
10530SOL    HW132489   2.659   1.868   6.095
10530SOL    HW232490   2.534   1.823   6.001
10531SOL     OW32491   1.865   3.616   4.292
10531SOL    HW132492   1.958   3.590   4.319
10531SOL    HW232493   1.803   3.541   4.314
10532SOL     OW32494   2.444   2.397   6.961
10532SOL    HW132495   2.527   2.438   6.922
10532SOL    HW232496   2.458   2.383   0.034
10533SOL     OW32497   3.219   1.223   4.715
10533SOL    HW132498   3.196   1.183   4.626
10533SOL    HW232499   3.303   1.277   4.707
10534SOL     OW32500   0.109   5.820   1.367
10534SOL    HW132501   0.132   5.913   1.340
10534SOL    HW232502   0.192   5.763   1.362
10535SOL     OW32503   7.010   1.293   2.310
10535SOL    HW132504   7.019   1.196   2.331
10535SOL    HW232505   0.040   1.315   2.230
10536SOL     OW32506   4.532   0.423   3.010
10536SOL    HW132507   4.576   0.401   3.097
10536SOL    HW232508   4.586   0.492   2.962
10537SOL     OW32509   2.894   5.311   3.238
10537SOL    HW132510   2.945   5.306   3.152
10537SOL    HW232511   2.864   5.405   3.252
10538SOL     OW32512   4.351   3.652   6.576
10538SOL    HW132513   4.388   3.578   6.633
10538SOL    HW232514   4.288   3.613   6.510
10539SOL     OW32515   0.782   3.815   6.331
10539SOL    HW132516   0.827   3.736   6.291
10539SOL    HW232517   0.684   3.797   6.340
10540SOL     OW32518   1.693   0.709   5.432
10540SOL    HW132519   1.600   0.723   5.468
10540SOL    HW232520   1.751   0.672   5.505
10541SOL     OW32521   3.980   3.473   1.203
10541SOL    HW132522   3.918   3.547   1.173
10541SOL    HW232523   3.983   3.471   1.303
10542SOL     OW32524   0.306   1.424   0.653
10542SOL    HW132525   0.245   1.344   0.650
10542SOL    HW232526   0.400   1.394   0.643
10543SOL     OW32527   0.145   1.639   5.622
10543SOL    HW132528   0.223   1.669   5.566
10543SOL    HW232529   0.150   1.540   5.634
10544SOL     OW32530   2.693   2.072   2.848
10544SOL    HW132531   2.596   2.083   2.871
10544SOL    HW232532   2.742   2.042   2.930
10545SOL     OW32533   6.960   6.998   2.142
10545SOL    HW132534   6.936   0.048   2.081
10545SOL    HW232535   6.878   6.965   2.189
10546SOL     OW32536   1.686   6.605   4.942
10546SOL    HW132537   1.668   6.629   4.846
10546SOL    HW232538   1.605   6.624   4.997
10547SOL     OW32539   4.752   1.218   2.076
10547SOL    HW132540   4.672   1.277   2.077
10547SOL    HW232541   4.736   1.139   2.134
10548SOL     OW32542   5.165   3.738   4.717
10548SOL    HW132543   5.087   3.676   4.713
10548SOL    HW232544   5.197   3.757   4.624
10549SOL     OW32545   0.223   0.376   2.365
10549SOL    HW132546   0.321   0.375   2.384
10549SOL    HW232547   0.173   0.344   2.446
10550SOL     OW32548   4.915   6.597   4.113
10550SOL    HW132549   4.854   6.671   4.088
10550SOL    HW232550   4.933   6.599   4.212
10551SOL     OW32551   1.229   2.590   5.109
10551SOL    HW132552   1.245   2.648   5.189
10551SOL    HW232553   1.245   2.495   5.132
10552SOL     OW32554   4.393   1.856   5.404
10552SOL    HW132555   4.315   1.830   5.347
10552SOL    HW232556   4.463   1.785   5.399
10553SOL     OW32557   0.412   5.166   1.061
10553SOL    HW132558   0.386   5.071   1.078
10553SOL    HW232559   0.511   5.172   1.049
10554SOL     OW32560   5.955   4.960   0.019
10554SOL    HW132561   5.888   4.885   0.017
10554SOL    HW232562   6.047   4.922   0.015
10555SOL     OW32563   2.933   1.841   1.563
10555SOL    HW132564   3.021   1.872   1.599
10555SOL    HW232565   2.915   1.886   1.476
10556SOL     OW32566   2.169   3.300   4.970
10556SOL    HW132567   2.211   3.253   4.892
10556SOL    HW232568   2.152   3.396   4.945
10557SOL     OW32569   0.599   2.438   3.233
10557SOL    HW132570   0.576   2.392   3.319
10557SOL    HW232571   0.565   2.532   3.236
10558SOL     OW32572   4.682   6.728   5.284
10558SOL    HW132573   4.655   6.818   5.317
10558SOL    HW232574   4.718   6.673   5.360
10559SOL     OW32575   4.098   1.487   0.961
10559SOL    HW132576   4.101   1.584   0.936
10559SOL    HW232577   4.099   1.479   1.061
10560SOL     OW32578   1.778   4.892   5.167
10560SOL    HW132579   1.756   4.973   5.111
10560SOL    HW232580   1.769   4.810   5.111
10561SOL     OW32581   1.950   5.232   0.347
10561SOL    HW132582   1.907   5.141   0.347
10561SOL    HW232583   2.000   5.245   0.262
10562SOL     OW32584   4.498   0.250   0.608
10562SOL    HW132585   4.480   0.153   0.593
10562SOL    HW232586   4.456   0.278   0.695
10563SOL     OW32587   1.972   1.198   4.702
10563SOL    HW132588   2.018   1.128   4.648
10563SOL    HW232589   1.918   1.257   4.643
10564SOL     OW32590   5.974   0.326   1.367
10564SOL    HW132591   6.070   0.341   1.390
10564SOL    HW232592   5.927   0.288   1.447
10565SOL     OW32593   6.698   1.183   5.239
10565SOL    HW132594   6.711   1.254   5.170
10565SOL    HW232595   6.753   1.204   5.320
10566SOL     OW32596   4.067   3.849   6.508
10566SOL    HW132597   4.153   3.880   6.467
10566SOL    HW232598   4.037   3.915   6.576
10567SOL     OW32599   1.964   3.164   4.259
10567SOL    HW132600   1.938   3.153   4.355
10567SOL    HW232601   2.063   3.173   4.252
10568SOL     OW32602   5.610   1.076   2.357
10568SOL    HW132603   5.572   1.162   2.392
10568SOL    HW232604   5.677   1.040   2.421
10569SOL     OW32605   6.748   3.586   2.325
10569SOL    HW132606   6.739   3.685   2.336
10569SOL    HW232607   6.667   3.551   2.279
10570SOL     OW32608   1.751   4.706   2.691
10570SOL    HW132609   1.740   4.793   2.642
10570SOL    HW232610   1.708   4.633   2.639
10571SOL     OW32611   6.458   5.643   3.523
10571SOL    HW132612   6.383   5.708   3.508
10571SOL    HW232613   6.539   5.693   3.553
10572SOL     OW32614   5.667   3.638   2.959
10572SOL    HW132615   5.721   3.722   2.962
10572SOL    HW232616   5.720   3.565   2.918
10573SOL     OW32617   5.916   6.107   3.410
10573SOL    HW132618   5.854   6.118   3.333
10573SOL    HW232619   5.877   6.042   3.476
10574SOL     OW32620   1.839   2.053   3.842
10574SOL    HW132621   1.816   1.957   3.856
10574SOL    HW232622   1.822   2.078   3.747
10575SOL     OW32623   0.489   0.637   3.789
10575SOL    HW132624   0.478   0.713   3.726
10575SOL    HW232625   0.462   0.665   3.881
10576SOL     OW32626   1.329   6.100   5.223
10576SOL    HW132627   1.396   6.112   5.151
10576SOL    HW232628   1.241   6.073   5.183
10577SOL     OW32629   1.760   3.158   6.572
10577SOL    HW132630   1.759   3.245   6.622
10577SOL    HW232631   1.736   3.173   6.477
10578SOL     OW32632   6.192   0.892   5.047
10578SOL    HW132633   6.160   0.977   5.088
10578SOL    HW232634   6.280   0.867   5.089
10579SOL     OW32635   3.750   1.002   0.798
10579SOL    HW132636   3.783   1.050   0.880
10579SOL    HW232637   3.690   1.062   0.746
10580SOL     OW32638   6.758   6.401   6.648
10580SOL    HW132639   6.694   6.447   6.710
10580SOL    HW232640   6.852   6.418   6.678
10581SOL     OW32641   5.846   0.272   3.131
10581SOL    HW132642   5.932   0.279   3.081
10581SOL    HW232643   5.846   0.337   3.206
10582SOL     OW32644   3.579   4.824   0.053
10582SOL    HW132645   3.664   4.876   0.058
10582SOL    HW232646   3.598   4.733   0.016
10583SOL     OW32647   3.958   0.510   6.444
10583SOL    HW132648   3.962   0.469   6.353
10583SOL    HW232649   3.975   0.608   6.438
10584SOL     OW32650   5.393   6.130   1.496
10584SOL    HW132651   5.415   6.221   1.531
10584SOL    HW232652   5.377   6.067   1.573
10585SOL     OW32653   1.164   3.336   5.924
10585SOL    HW132654   1.161   3.323   5.825
10585SOL    HW232655   1.182   3.249   5.968
10586SOL     OW32656   2.607   5.991   5.886
10586SOL    HW132657   2.624   5.914   5.948
10586SOL    HW232658   2.511   5.990   5.857
10587SOL     OW32659   5.982   3.600   0.492
10587SOL    HW132660   5.960   3.637   0.583
10587SOL    HW232661   6.007   3.503   0.501
10588SOL     OW32662   1.067   4.387   2.291
10588SOL    HW132663   1.043   4.343   2.205
10588SOL    HW232664   0.983   4.415   2.339
10589SOL     OW32665   5.944   2.254   4.152
10589SOL    HW132666   6.042   2.259   4.132
10589SOL    HW232667   5.892   2.259   4.067
10590SOL     OW32668   1.122   6.807   2.771
10590SOL    HW132669   1.099   6.903   2.788
10590SOL    HW232670   1.129   6.791   2.673
10591SOL     OW32671   1.820   1.844   5.589
10591SOL    HW132672   1.780   1.925   5.547
10591SOL    HW232673   1.776   1.762   5.553
10592SOL     OW32674   6.216   1.289   6.701
10592SOL    HW132675   6.212   1.213   6.766
10592SOL    HW232676   6.306   1.332   6.704
10593SOL     OW32677   2.678   6.340   0.969
10593SOL    HW132678   2.633   6.427   0.989
10593SOL    HW232679   2.749   6.355   0.899
10594SOL     OW32680   6.346   1.590   3.685
10594SOL    HW132681   6.296   1.503   3.687
10594SOL    HW232682   6.336   1.632   3.595
10595SOL     OW32683   3.199   6.903   5.894
10595SOL    HW132684   3.130   6.879   5.961
10595SOL    HW232685   3.235   6.820   5.852
10596SOL     OW32686   4.127   6.718   2.106
10596SOL    HW132687   4.093   6.736   2.198
10596SOL    HW232688   4.064   6.758   2.039
10597SOL     OW32689   2.771   1.085   4.670
10597SOL    HW132690   2.812   1.013   4.726
10597SOL    HW232691   2.671   1.078   4.676
10598SOL     OW32692   2.056   2.461   6.497
10598SOL    HW132693   2.131   2.487   6.436
10598SOL    HW232694   2.038   2.536   6.561
10599SOL     OW32695   6.163   1.554   0.092
10599SOL    HW132696   6.234   1.562   0.022
10599SOL    HW232697   6.163   1.637   0.148
10600SOL     OW32698   2.481   3.441   6.544
10600SOL    HW132699   2.408   3.374   6.559
10600SOL    HW232700   2.455   3.501   6.467
10601SOL     OW32701   3.044   6.041   6.299
10601SOL    HW132702   2.951   6.074   6.284
10601SOL    HW232703   3.072   5.984   6.222
10602SOL     OW32704   4.785   1.395   1.634
10602SOL    HW132705   4.706   1.371   1.691
10602SOL    HW232706   4.767   1.368   1.539
10603SOL     OW32707   1.127   6.268   3.570
10603SOL    HW132708   1.190   6.195   3.543
10603SOL    HW232709   1.090   6.248   3.661
10604SOL     OW32710   6.315   4.228   4.742
10604SOL    HW132711   6.250   4.182   4.682
10604SOL    HW232712   6.278   4.231   4.835
10605SOL     OW32713   1.010   5.116   0.684
10605SOL    HW132714   0.959   5.079   0.607
10605SOL    HW232715   1.040   5.041   0.743
10606SOL     OW32716   6.937   0.902   1.396
10606SOL    HW132717   6.870   0.951   1.340
10606SOL    HW232718   6.939   0.806   1.369
10607SOL     OW32719   3.992   4.832   6.065
10607SOL    HW132720   3.925   4.902   6.041
10607SOL    HW232721   4.065   4.874   6.119
10608SOL     OW32722   5.962   1.523   4.403
10608SOL    HW132723   6.003   1.615   4.398
10608SOL    HW232724   5.992   1.469   4.325
10609SOL     OW32725   3.814   6.425   1.222
10609SOL    HW132726   3.767   6.470   1.146
10609SOL    HW232727   3.753   6.421   1.301
10610SOL     OW32728   1.260   3.860   6.598
10610SOL    HW132729   1.317   3.789   6.555
10610SOL    HW232730   1.206   3.818   6.671
10611SOL     OW32731   5.584   2.963   6.535
10611SOL    HW132732   5.621   3.030   6.600
10611SOL    HW232733   5.597   2.997   6.442
10612SOL     OW32734   2.126   0.269   6.671
10612SOL    HW132735   2.177   0.355   6.661
10612SOL    HW232736   2.066   0.257   6.592
10613SOL     OW32737   6.967   0.272   5.677
10613SOL    HW132738   6.949   0.205   5.605
10613SOL    HW232739   7.014   0.228   5.753
10614SOL     OW32740   6.749   0.467   4.592
10614SOL    HW132741   6.700   0.446   4.507
10614SOL    HW232742   6.718   0.555   4.628
10615SOL     OW32743   4.680   5.399   5.470
10615SOL    HW132744   4.653   5.495   5.463
10615SOL    HW232745   4.779   5.393   5.478
10616SOL     OW32746   2.904   6.396   0.363
10616SOL    HW132747   2.891   6.297   0.358
10616SOL    HW232748   2.825   6.437   0.408
10617SOL     OW32749   2.336   2.608   0.319
10617SOL    HW132750   2.347   2.670   0.241
10617SOL    HW232751   2.272   2.649   0.385
10618SOL     OW32752   6.053   2.309   0.333
10618SOL    HW132753   6.133   2.363   0.308
10618SOL    HW232754   5.978   2.371   0.359
10619SOL     OW32755   0.865   4.142   3.245
10619SOL    HW132756   0.782   4.087   3.241
10619SOL    HW232757   0.869   4.204   3.167
10620SOL     OW32758   1.676   6.301   5.667
10620SOL    HW132759   1.613   6.356   5.612
10620SOL    HW232760   1.628   6.271   5.750
10621SOL     OW32761   1.262   5.969   6.855
10621SOL    HW132762   1.293   6.056   6.816
10621SOL    HW232763   1.335   5.901   6.845
10622SOL     OW32764   4.351   0.806   2.002
10622SOL    HW132765   4.434   0.760   2.034
10622SOL    HW232766   4.274   0.782   2.061
10623SOL     OW32767   5.568   2.688   3.793
10623SOL    HW132768   5.593   2.679   3.889
10623SOL    HW232769   5.643   2.654   3.736
10624SOL     OW32770   1.769   1.053   4.815
10624SOL    HW132771   1.849   1.109   4.795
10624SOL    HW232772   1.686   1.104   4.793
10625SOL     OW32773   0.744   4.047   6.873
10625SOL    HW132774   0.713   4.000   6.955
10625SOL    HW232775   0.811   3.990   6.826
10626SOL     OW32776   0.901   2.365   1.352
10626SOL    HW132777   0.803   2.382   1.352
10626SOL    HW232778   0.946   2.424   1.285
10627SOL     OW32779   6.498   6.058   2.639
10627SOL    HW132780   6.546   5.990   2.582
10627SOL    HW232781   6.484   6.021   2.731
10628SOL     OW32782   6.346   5.128   5.107
10628SOL    HW132783   6.401   5.063   5.158
10628SOL    HW232784   6.370   5.221   5.135
10629SOL     OW32785   2.388   4.962   5.893
10629SOL    HW132786   2.459   4.949   5.963
10629SOL    HW232787   2.411   5.041   5.837
10630SOL     OW32788   6.346   0.442   3.100
10630SOL    HW132789   6.404   0.434   3.181
10630SOL    HW232790   6.396   0.494   3.030
10631SOL     OW32791   0.742   6.909   3.780
10631SOL    HW132792   0.710   6.834   3.721
10631SOL    HW232793   0.793   6.974   3.724
10632SOL     OW32794   6.397   2.358   4.391
10632SOL    HW132795   6.336   2.434   4.368
10632SOL    HW232796   6.410   2.354   4.490
10633SOL     OW32797   2.532   4.848   1.390
10633SOL    HW132798   2.433   4.843   1.376
10633SOL    HW232799   2.551   4.848   1.488
10634SOL     OW32800   2.866   5.744   0.830
10634SOL    HW132801   2.862   5.644   0.827
10634SOL    HW232802   2.863   5.774   0.925
10635SOL     OW32803   3.284   1.171   0.852
10635SOL    HW132804   3.209   1.195   0.790
10635SOL    HW232805   3.297   1.245   0.919
10636SOL     OW32806   0.223   1.966   1.038
10636SOL    HW132807   0.308   1.919   1.012
10636SOL    HW232808   0.234   2.065   1.022
10637SOL     OW32809   3.433   4.161   5.148
10637SOL    HW132810   3.418   4.155   5.246
10637SOL    HW232811   3.529   4.141   5.127
10638SOL     OW32812   0.269   6.687   4.194
10638SOL    HW132813   0.274   6.639   4.107
10638SOL    HW232814   0.350   6.667   4.248
10639SOL     OW32815   1.144   1.234   4.626
10639SOL    HW132816   1.050   1.222   4.659
10639SOL    HW232817   1.159   1.173   4.548
10640SOL     OW32818   5.083   0.607   6.996
10640SOL    HW132819   5.002   0.617   0.028
10640SOL    HW232820   5.165   0.615   0.027
10641SOL     OW32821   5.125   1.858   0.309
10641SOL    HW132822   5.179   1.914   0.247
10641SOL    HW232823   5.178   1.839   0.392
10642SOL     OW32824   0.079   2.222   1.308
10642SOL    HW132825   7.019   2.272   1.309
10642SOL    HW232826   0.061   2.124   1.300
10643SOL     OW32827   2.303   3.944   5.415
10643SOL    HW132828   2.309   3.989   5.325
10643SOL    HW232829   2.315   3.845   5.403
10644SOL     OW32830   4.816   1.610   3.829
10644SOL    HW132831   4.787   1.515   3.841
10644SOL    HW232832   4.746   1.671   3.866
10645SOL     OW32833   1.298   0.822   4.665
10645SOL    HW132834   1.268   0.741   4.613
10645SOL    HW232835   1.359   0.877   4.608
10646SOL     OW32836   0.457   2.858   5.720
10646SOL    HW132837   0.468   2.760   5.731
10646SOL    HW232838   0.378   2.889   5.774
10647SOL     OW32839   6.591   5.051   0.364
10647SOL    HW132840   6.644   5.135   0.359
10647SOL    HW232841   6.646   4.979   0.408
10648SOL     OW32842   4.883   2.841   6.315
10648SOL    HW132843   4.943   2.792   6.377
10648SOL    HW232844   4.889   2.800   6.224
10649SOL     OW32845   0.186   5.143   5.173
10649SOL    HW132846   0.165   5.239   5.154
10649SOL    HW232847   0.189   5.129   5.272
10650SOL     OW32848   1.915   6.424   3.798
10650SOL    HW132849   1.970   6.454   3.721
10650SOL    HW232850   1.975   6.390   3.871
10651SOL     OW32851   4.386   6.402   5.817
10651SOL    HW132852   4.484   6.406   5.836
10651SOL    HW232853   4.336   6.444   5.892
10652SOL     OW32854   3.162   0.146   5.864
10652SOL    HW132855   3.203   0.059   5.894
10652SOL    HW232856   3.080   0.165   5.918
10653SOL     OW32857   4.672   4.381   4.539
10653SOL    HW132858   4.612   4.435   4.481
10653SOL    HW232859   4.760   4.367   4.494
10654SOL     OW32860   2.699   0.784   1.071
10654SOL    HW132861   2.694   0.872   1.024
10654SOL    HW232862   2.755   0.720   1.017
10655SOL     OW32863   2.954   5.702   1.887
10655SOL    HW132864   2.986   5.628   1.829
10655SOL    HW232865   3.017   5.714   1.963
10656SOL     OW32866   6.006   2.098   0.192
10656SOL    HW132867   6.017   2.180   0.248
10656SOL    HW232868   5.914   2.098   0.152
10657SOL     OW32869   5.836   6.567   0.939
10657SOL    HW132870   5.849   6.600   1.033
10657SOL    HW232871   5.747   6.522   0.932
10658SOL     OW32872   1.569   4.850   4.289
10658SOL    HW132873   1.523   4.762   4.299
10658SOL    HW232874   1.653   4.851   4.343
10659SOL     OW32875   5.817   0.075   0.922
10659SOL    HW132876   5.731   0.123   0.938
10659SOL    HW232877   5.799   7.002   0.915
10660SOL     OW32878   4.098   3.995   5.850
10660SOL    HW132879   4.078   3.954   5.762
10660SOL    HW232880   4.066   4.090   5.852
10661SOL     OW32881   0.347   6.712   1.773
10661SOL    HW132882   0.295   6.673   1.849
10661SOL    HW232883   0.445   6.692   1.786
10662SOL     OW32884   6.926   1.170   0.505
10662SOL    HW132885   7.020   1.193   0.528
10662SOL    HW232886   6.864   1.237   0.545
10663SOL     OW32887   0.503   0.655   1.081
10663SOL    HW132888   0.544   0.594   1.148
10663SOL    HW232889   0.430   0.607   1.032
10664SOL     OW32890   2.144   4.834   0.534
10664SOL    HW132891   2.238   4.856   0.562
10664SOL    HW232892   2.146   4.759   0.468
10665SOL     OW32893   0.162   2.033   0.311
10665SOL    HW132894   0.068   2.040   0.277
10665SOL    HW232895   0.187   2.120   0.355
10666SOL     OW32896   2.983   6.104   7.005
10666SOL    HW132897   2.898   6.120   6.956
10666SOL    HW232898   2.966   6.044   0.058
10667SOL     OW32899   3.891   1.703   5.375
10667SOL    HW132900   3.908   1.783   5.432
10667SOL    HW232901   3.849   1.631   5.430
10668SOL     OW32902   1.628   1.935   6.470
10668SOL    HW132903   1.718   1.945   6.427
10668SOL    HW232904   1.604   1.838   6.473
10669SOL     OW32905   1.338   0.257   0.220
10669SOL    HW132906   1.388   0.177   0.187
10669SOL    HW232907   1.303   0.238   0.312
10670SOL     OW32908   5.402   4.518   5.972
10670SOL    HW132909   5.325   4.457   5.952
10670SOL    HW232910   5.411   4.528   6.070
10671SOL     OW32911   2.357   2.601   2.843
10671SOL    HW132912   2.385   2.646   2.928
10671SOL    HW232913   2.279   2.650   2.804
10672SOL     OW32914   0.348   2.622   0.501
10672SOL    HW132915   0.406   2.677   0.440
10672SOL    HW232916   0.378   2.635   0.596
10673SOL     OW32917   2.743   3.124   5.284
10673SOL    HW132918   2.776   3.055   5.349
10673SOL    HW232919   2.670   3.085   5.228
10674SOL     OW32920   4.032   3.780   1.523
10674SOL    HW132921   4.063   3.761   1.430
10674SOL    HW232922   4.035   3.695   1.577
10675SOL     OW32923   0.028   0.033   5.434
10675SOL    HW132924   6.956   0.054   5.444
10675SOL    HW232925   0.081   0.118   5.441
10676SOL     OW32926   5.831   0.266   6.482
10676SOL    HW132927   5.813   0.305   6.392
10676SOL    HW232928   5.749   0.221   6.516
10677SOL     OW32929   0.354   0.729   1.460
10677SOL    HW132930   0.307   0.660   1.405
10677SOL    HW232931   0.413   0.784   1.401
10678SOL     OW32932   2.261   5.680   2.308
10678SOL    HW132933   2.271   5.768   2.261
10678SOL    HW232934   2.270   5.693   2.407
10679SOL     OW32935   6.011   5.297   4.196
10679SOL    HW132936   5.944   5.320   4.126
10679SOL    HW232937   6.101   5.284   4.154
10680SOL     OW32938   1.066   3.241   2.310
10680SOL    HW132939   1.124   3.322   2.297
10680SOL    HW232940   1.038   3.235   2.406
10681SOL     OW32941   6.597   2.715   5.919
10681SOL    HW132942   6.641   2.751   6.001
10681SOL    HW232943   6.560   2.624   5.938
10682SOL     OW32944   0.369   1.973   2.128
10682SOL    HW132945   0.363   1.962   2.227
10682SOL    HW232946   0.366   2.071   2.105
10683SOL     OW32947   1.671   2.335   4.469
10683SOL    HW132948   1.732   2.380   4.534
10683SOL    HW232949   1.707   2.346   4.376
10684SOL     OW32950   6.088   4.460   0.074
10684SOL    HW132951   6.022   4.397   0.034
10684SOL    HW232952   6.046   4.509   0.149
10685SOL     OW32953   0.653   3.535   3.272
10685SOL    HW132954   0.617   3.624   3.242
10685SOL    HW232955   0.751   3.543   3.290
10686SOL     OW32956   2.828   6.149   0.378
10686SOL    HW132957   2.877   6.074   0.335
10686SOL    HW232958   2.729   6.135   0.369
10687SOL     OW32959   6.834   5.048   2.588
10687SOL    HW132960   6.807   4.952   2.589
10687SOL    HW232961   6.755   5.105   2.563
10688SOL     OW32962   6.915   5.066   2.073
10688SOL    HW132963   6.856   5.111   2.006
10688SOL    HW232964   6.996   5.030   2.027
10689SOL     OW32965   0.081   0.378   2.601
10689SOL    HW132966   0.090   0.402   2.698
10689SOL    HW232967   0.030   0.449   2.554
10690SOL     OW32968   4.563   4.892   2.109
10690SOL    HW132969   4.641   4.955   2.115
10690SOL    HW232970   4.525   4.878   2.200
10691SOL     OW32971   6.769   1.415   1.340
10691SOL    HW132972   6.851   1.378   1.297
10691SOL    HW232973   6.722   1.342   1.390
10692SOL     OW32974   3.892   5.866   4.061
10692SOL    HW132975   3.951   5.786   4.047
10692SOL    HW232976   3.796   5.838   4.056
10693SOL     OW32977   6.884   1.495   1.602
10693SOL    HW132978   6.913   1.590   1.585
10693SOL    HW232979   6.817   1.469   1.533
10694SOL     OW32980   4.350   6.138   1.404
10694SOL    HW132981   4.446   6.131   1.434
10694SOL    HW232982   4.330   6.233   1.381
10695SOL     OW32983   6.928   2.366   4.177
10695SOL    HW132984   6.973   2.446   4.137
10695SOL    HW232985   6.920   2.294   4.108
10696SOL     OW32986   6.906   6.082   1.373
10696SOL    HW132987   6.874   6.146   1.443
10696SOL    HW232988   6.989   6.118   1.330
10697SOL     OW32989   1.109   6.273   4.650
10697SOL    HW132990   1.040   6.234   4.589
10697SOL    HW232991   1.177   6.203   4.673
10698SOL     OW32992   2.769   0.369   3.725
10698SOL    HW132993   2.798   0.310   3.649
10698SOL    HW232994   2.679   0.407   3.705
10699SOL     OW32995   3.710   1.750   2.776
10699SOL    HW132996   3.736   1.656   2.751
10699SOL    HW232997   3.765   1.815   2.723
10700SOL     OW32998   6.727   6.510   1.048
10700SOL    HW132999   6.714   6.504   1.147
10700SOL    HW233000   6.809   6.564   1.027
10701SOL     OW33001   3.559   6.566   0.457
10701SOL    HW133002   3.467   6.559   0.418
10701SOL    HW233003   3.626   6.570   0.384
10702SOL     OW33004   5.990   2.571   0.065
10702SOL    HW133005   5.955   2.644   0.007
10702SOL    HW233006   5.937   2.488   0.049
10703SOL     OW33007   3.746   4.026   3.575
10703SOL    HW133008   3.839   4.001   3.551
10703SOL    HW233009   3.690   3.943   3.582
10704SOL     OW33010   5.100   0.066   1.908
10704SOL    HW133011   5.187   0.021   1.932
10704SOL    HW233012   5.111   0.165   1.913
10705SOL     OW33013   0.740   2.960   5.888
10705SOL    HW133014   0.661   2.930   5.836
10705SOL    HW233015   0.792   2.881   5.921
10706SOL     OW33016   3.521   0.506   1.758
10706SOL    HW133017   3.489   0.413   1.775
10706SOL    HW233018   3.500   0.563   1.837
10707SOL     OW33019   6.018   6.897   5.851
10707SOL    HW133020   6.089   6.859   5.910
10707SOL    HW233021   6.045   6.989   5.822
10708SOL     OW33022   4.562   0.883   0.708
10708SOL    HW133023   4.521   0.970   0.681
10708SOL    HW233024   4.553   0.871   0.807
10709SOL     OW33025   6.430   6.709   5.320
10709SOL    HW133026   6.397   6.615   5.308
10709SOL    HW233027   6.496   6.730   5.248
10710SOL     OW33028   5.882   5.340   3.927
10710SOL    HW133029   5.935   5.364   3.846
10710SOL    HW233030   5.838   5.251   3.913
10711SOL     OW33031   1.500   6.898   4.102
10711SOL    HW133032   1.502   6.958   4.182
10711SOL    HW233033   1.543   6.944   4.024
10712SOL     OW33034   3.733   1.469   5.246
10712SOL    HW133035   3.828   1.466   5.214
10712SOL    HW233036   3.713   1.386   5.297
10713SOL     OW33037   1.424   5.942   1.502
10713SOL    HW133038   1.405   5.853   1.460
10713SOL    HW233039   1.345   5.970   1.557
10714SOL     OW33040   0.621   5.267   5.765
10714SOL    HW133041   0.551   5.310   5.822
10714SOL    HW233042   0.707   5.263   5.816
10715SOL     OW33043   4.646   2.322   4.225
10715SOL    HW133044   4.697   2.377   4.159
10715SOL    HW233045   4.556   2.363   4.239
10716SOL     OW33046   6.572   0.671   4.333
10716SOL    HW133047   6.590   0.768   4.351
10716SOL    HW233048   6.482   0.646   4.369
10717SOL     OW33049   6.922   0.785   1.690
10717SOL    HW133050   6.926   0.835   1.604
10717SOL    HW233051   6.862   0.833   1.754
10718SOL     OW33052   6.214   5.052   6.598
10718SOL    HW133053   6.270   4.985   6.647
10718SOL    HW233054   6.194   5.019   6.506
10719SOL     OW33055   5.852   0.773   1.782
10719SOL    HW133056   5.814   0.813   1.865
10719SOL    HW233057   5.778   0.746   1.721
10720SOL     OW33058   0.508   3.771   6.298
10720SOL    HW133059   0.479   3.844   6.236
10720SOL    HW233060   0.427   3.727   6.337
10721SOL     OW33061   5.369   2.825   4.624
10721SOL    HW133062   5.390   2.728   4.637
10721SOL    HW233063   5.321   2.859   4.705
10722SOL     OW33064   6.803   3.670   0.110
10722SOL    HW133065   6.711   3.706   0.095
10722SOL    HW233066   6.867   3.717   0.048
10723SOL     OW33067   5.635   4.005   6.897
10723SOL    HW133068   5.724   3.991   6.940
10723SOL    HW233069   5.565   4.017   6.967
10724SOL     OW33070   3.870   6.754   6.706
10724SOL    HW133071   3.802   6.732   6.776
10724SOL    HW233072   3.826   6.754   6.616
10725SOL     OW33073   0.565   6.059   5.142
10725SOL    HW133074   0.555   5.963   5.165
10725SOL    HW233075   0.532   6.116   5.217
10726SOL     OW33076   5.401   0.601   4.400
10726SOL    HW133077   5.433   0.668   4.467
10726SOL    HW233078   5.302   0.593   4.406
10727SOL     OW33079   2.679   5.811   6.104
10727SOL    HW133080   2.598   5.864   6.128
10727SOL    HW233081   2.723   5.776   6.187
10728SOL     OW33082   4.666   6.702   3.149
10728SOL    HW133083   4.676   6.678   3.246
10728SOL    HW233084   4.571   6.687   3.121
10729SOL     OW33085   6.107   2.472   2.871
10729SOL    HW133086   6.099   2.568   2.842
10729SOL    HW233087   6.064   2.413   2.803
10730SOL     OW33088   1.841   0.146   2.760
10730SOL    HW133089   1.757   0.103   2.729
10730SOL    HW233090   1.913   0.131   2.692
10731SOL     OW33091   3.381   6.923   0.045
10731SOL    HW133092   3.383   6.823   0.046
10731SOL    HW233093   3.289   6.955   0.023
10732SOL     OW33094   6.073   5.951   3.104
10732SOL    HW133095   6.094   5.999   3.189
10732SOL    HW233096   6.065   5.853   3.122
10733SOL     OW33097   6.755   0.695   5.657
10733SOL    HW133098   6.784   0.790   5.644
10733SOL    HW233099   6.790   0.661   5.745
10734SOL     OW33100   1.710   1.066   5.542
10734SOL    HW133101   1.776   1.068   5.617
10734SOL    HW233102   1.758   1.060   5.455
10735SOL     OW33103   0.988   5.409   2.018
10735SOL    HW133104   1.030   5.319   2.030
10735SOL    HW233105   1.059   5.476   1.997
10736SOL     OW33106   6.663   0.011   3.951
10736SOL    HW133107   6.722   6.959   3.929
10736SOL    HW233108   6.711   0.096   3.928
10737SOL     OW33109   6.877   1.448   1.865
10737SOL    HW133110   6.897   1.470   1.769
10737SOL    HW233111   6.865   1.533   1.916
10738SOL     OW33112   2.828   0.756   2.010
10738SOL    HW133113   2.891   0.768   1.933
10738SOL    HW233114   2.800   0.846   2.044
10739SOL     OW33115   6.098   1.995   2.559
10739SOL    HW133116   6.126   1.906   2.594
10739SOL    HW233117   6.179   2.050   2.539
10740SOL     OW33118   1.635   6.759   6.281
10740SOL    HW133119   1.663   6.837   6.337
10740SOL    HW233120   1.629   6.677   6.337
10741SOL     OW33121   2.187   2.521   3.352
10741SOL    HW133122   2.121   2.549   3.282
10741SOL    HW233123   2.169   2.426   3.378
10742SOL     OW33124   6.105   6.026   2.733
10742SOL    HW133125   6.125   5.929   2.718
10742SOL    HW233126   6.111   6.046   2.831
10743SOL     OW33127   3.737   0.729   5.547
10743SOL    HW133128   3.835   0.719   5.534
10743SOL    HW233129   3.710   0.824   5.534
10744SOL     OW33130   1.584   0.448   0.230
10744SOL    HW133131   1.529   0.374   0.190
10744SOL    HW233132   1.645   0.410   0.299
10745SOL     OW33133   2.035   5.050   1.209
10745SOL    HW133134   2.133   5.055   1.228
10745SOL    HW233135   2.006   5.132   1.160
10746SOL     OW33136   1.785   6.220   6.514
10746SOL    HW133137   1.748   6.129   6.534
10746SOL    HW233138   1.783   6.275   6.597
10747SOL     OW33139   6.376   1.774   3.886
10747SOL    HW133140   6.295   1.833   3.889
10747SOL    HW233141   6.374   1.719   3.803
10748SOL     OW33142   4.045   6.349   1.109
10748SOL    HW133143   3.949   6.362   1.133
10748SOL    HW233144   4.086   6.437   1.087
10749SOL     OW33145   6.273   4.905   3.100
10749SOL    HW133146   6.326   4.909   3.185
10749SOL    HW233147   6.276   4.812   3.063
10750SOL     OW33148   4.971   2.749   4.310
10750SOL    HW133149   5.019   2.836   4.325
10750SOL    HW233150   4.874   2.767   4.297
10751SOL     OW33151   0.968   4.302   5.047
10751SOL    HW133152   0.920   4.330   5.130
10751SOL    HW233153   1.058   4.266   5.071
10752SOL     OW33154   6.193   5.830   1.105
10752SOL    HW133155   6.205   5.925   1.079
10752SOL    HW233156   6.102   5.818   1.146
10753SOL     OW33157   4.968   6.246   4.212
10753SOL    HW133158   5.019   6.272   4.294
10753SOL    HW233159   5.003   6.297   4.133
10754SOL     OW33160   1.506   3.182   1.603
10754SOL    HW133161   1.570   3.205   1.677
10754SOL    HW233162   1.555   3.184   1.516
10755SOL     OW33163   6.406   3.163   1.025
10755SOL    HW133164   6.420   3.261   1.013
10755SOL    HW233165   6.463   3.130   1.100
10756SOL     OW33166   0.183   2.792   0.772
10756SOL    HW133167   0.268   2.814   0.819
10756SOL    HW233168   0.195   2.710   0.717
10757SOL     OW33169   6.740   4.329   1.272
10757SOL    HW133170   6.795   4.399   1.318
10757SOL    HW233171   6.789   4.296   1.191
10758SOL     OW33172   0.576   6.863   6.976
10758SOL    HW133173   0.489   6.829   6.939
10758SOL    HW233174   0.564   6.955   7.011
10759SOL     OW33175   2.168   2.374   6.145
10759SOL    HW133176   2.223   2.310   6.198
10759SOL    HW233177   2.181   2.467   6.180
10760SOL     OW33178   0.359   5.484   7.011
10760SOL    HW133179   0.369   5.573   0.029
10760SOL    HW233180   0.266   5.473   6.976
10761SOL     OW33181   0.775   1.959   6.413
10761SOL    HW133182   0.777   1.956   6.513
10761SOL    HW233183   0.806   1.871   6.377
10762SOL     OW33184   3.782   6.673   5.742
10762SOL    HW133185   3.816   6.767   5.740
10762SOL    HW233186   3.738   6.651   5.654
10763SOL     OW33187   5.254   0.176   2.779
10763SOL    HW133188   5.199   0.101   2.742
10763SOL    HW233189   5.348   0.145   2.794
10764SOL     OW33190   4.377   0.954   5.150
10764SOL    HW133191   4.371   0.856   5.174
10764SOL    HW233192   4.301   0.978   5.090
10765SOL     OW33193   6.892   1.764   2.601
10765SOL    HW133194   6.837   1.770   2.518
10765SOL    HW233195   6.847   1.706   2.668
10766SOL     OW33196   1.842   4.727   6.777
10766SOL    HW133197   1.831   4.814   6.729
10766SOL    HW233198   1.924   4.681   6.743
10767SOL     OW33199   1.637   5.622   0.769
10767SOL    HW133200   1.606   5.674   0.849
10767SOL    HW233201   1.602   5.666   0.686
10768SOL     OW33202   5.871   5.924   0.621
10768SOL    HW133203   5.902   6.019   0.630
10768SOL    HW233204   5.824   5.913   0.534
10769SOL     OW33205   3.120   3.090   4.795
10769SOL    HW133206   3.207   3.041   4.801
10769SOL    HW233207   3.101   3.115   4.700
10770SOL     OW33208   5.000   6.893   4.045
10770SOL    HW133209   5.029   6.980   4.005
10770SOL    HW233210   5.059   6.872   4.124
10771SOL     OW33211   5.330   5.824   5.555
10771SOL    HW133212   5.326   5.923   5.542
10771SOL    HW233213   5.240   5.791   5.584
10772SOL     OW33214   5.940   4.826   2.986
10772SOL    HW133215   5.979   4.896   3.046
10772SOL    HW233216   5.921   4.866   2.897
10773SOL     OW33217   6.628   4.784   1.176
10773SOL    HW133218   6.656   4.877   1.153
10773SOL    HW233219   6.553   4.788   1.242
10774SOL     OW33220   1.314   3.249   0.720
10774SOL    HW133221   1.367   3.169   0.745
10774SOL    HW233222   1.375   3.322   0.688
10775SOL     OW33223   1.257   4.504   1.717
10775SOL    HW133224   1.350   4.526   1.688
10775SOL    HW233225   1.196   4.507   1.638
10776SOL     OW33226   0.951   1.964   2.937
10776SOL    HW133227   0.909   2.052   2.959
10776SOL    HW233228   1.051   1.976   2.933
10777SOL     OW33229   3.460   1.243   2.252
10777SOL    HW133230   3.495   1.152   2.273
10777SOL    HW233231   3.362   1.248   2.275
10778SOL     OW33232   6.395   6.396   3.840
10778SOL    HW133233   6.357   6.433   3.754
10778SOL    HW233234   6.409   6.471   3.905
10779SOL     OW33235   5.540   3.652   4.369
10779SOL    HW133236   5.561   3.650   4.271
10779SOL    HW233237   5.609   3.708   4.416
10780SOL     OW33238   1.276   5.872   4.837
10780SOL    HW133239   1.367   5.853   4.875
10780SOL    HW233240   1.242   5.792   4.788
10781SOL     OW33241   5.756   2.141   4.971
10781SOL    HW133242   5.688   2.088   4.920
10781SOL    HW233243   5.775   2.095   5.058
10782SOL     OW33244   0.995   2.922   5.076
10782SOL    HW133245   1.014   2.872   4.992
10782SOL    HW233246   0.945   3.005   5.055
10783SOL     OW33247   1.135   2.539   2.837
10783SOL    HW133248   1.141   2.628   2.791
10783SOL    HW233249   1.043   2.502   2.826
10784SOL     OW33250   3.609   6.222   2.215
10784SOL    HW133251   3.550   6.292   2.174
10784SOL    HW233252   3.575   6.200   2.306
10785SOL     OW33253   1.936   6.248   2.252
10785SOL    HW133254   1.844   6.232   2.286
10785SOL    HW233255   1.934   6.254   2.152
10786SOL     OW33256   4.406   1.433   2.070
10786SOL    HW133257   4.353   1.349   2.059
10786SOL    HW233258   4.440   1.464   1.981
10787SOL     OW33259   3.718   1.381   3.159
10787SOL    HW133260   3.746   1.350   3.068
10787SOL    HW233261   3.688   1.303   3.214
10788SOL     OW33262   0.855   4.490   0.784
10788SOL    HW133263   0.846   4.448   0.874
10788SOL    HW233264   0.775   4.468   0.728
10789SOL     OW33265   6.421   1.282   0.275
10789SOL    HW133266   6.452   1.241   0.360
10789SOL    HW233267   6.474   1.365   0.256
10790SOL     OW33268   6.977   2.291   4.670
10790SOL    HW133269   7.007   2.360   4.736
10790SOL    HW233270   6.881   2.306   4.647
10791SOL     OW33271   2.200   1.572   3.184
10791SOL    HW133272   2.157   1.508   3.120
10791SOL    HW233273   2.289   1.536   3.213
10792SOL     OW33274   3.646   2.409   1.056
10792SOL    HW133275   3.613   2.343   1.123
10792SOL    HW233276   3.568   2.454   1.012
10793SOL     OW33277   4.921   1.489   5.104
10793SOL    HW133278   4.866   1.529   5.177
10793SOL    HW233279   5.017   1.517   5.116
10794SOL     OW33280   4.391   3.327   0.691
10794SOL    HW133281   4.412   3.230   0.678
10794SOL    HW233282   4.328   3.338   0.767
10795SOL     OW33283   6.720   3.238   3.411
10795SOL    HW133284   6.760   3.297   3.481
10795SOL    HW233285   6.692   3.293   3.332
10796SOL     OW33286   6.750   6.885   6.811
10796SOL    HW133287   6.797   6.833   6.740
10796SOL    HW233288   6.655   6.855   6.817
10797SOL     OW33289   4.176   3.613   0.459
10797SOL    HW133290   4.113   3.535   0.460
10797SOL    HW233291   4.176   3.655   0.368
10798SOL     OW33292   2.465   0.079   6.307
10798SOL    HW133293   2.495   0.005   6.248
10798SOL    HW233294   2.479   0.167   6.260
10799SOL     OW33295   2.999   1.836   2.528
10799SOL    HW133296   2.945   1.767   2.577
10799SOL    HW233297   2.951   1.863   2.445
10800SOL     OW33298   1.537   0.114   5.579
10800SOL    HW133299   1.546   0.059   5.496
10800SOL    HW233300   1.455   0.172   5.571
10801SOL     OW33301   2.845   6.344   5.829
10801SOL    HW133302   2.902   6.349   5.911
10801SOL    HW233303   2.750   6.325   5.855
10802SOL     OW33304   0.718   4.188   4.941
10802SOL    HW133305   0.722   4.104   4.995
10802SOL    HW233306   0.786   4.253   4.976
10803SOL     OW33307   6.489   4.917   5.246
10803SOL    HW133308   6.584   4.900   5.220
10803SOL    HW233309   6.478   4.897   5.343
10804SOL     OW33310   5.348   4.839   1.964
10804SOL    HW133311   5.363   4.915   2.026
10804SOL    HW233312   5.430   4.822   1.910
10805SOL     OW33313   4.467   6.762   0.457
10805SOL    HW133314   4.457   6.802   0.366
10805SOL    HW233315   4.560   6.778   0.490
10806SOL     OW33316   4.874   4.214   0.042
10806SOL    HW133317   4.908   4.149   7.000
10806SOL    HW233318   4.940   4.221   0.117
10807SOL     OW33319   3.984   5.976   3.721
10807SOL    HW133320   3.904   6.010   3.771
10807SOL    HW233321   4.033   6.053   3.680
10808SOL     OW33322   0.273   2.725   6.318
10808SOL    HW133323   0.357   2.753   6.365
10808SOL    HW233324   0.194   2.741   6.378
10809SOL     OW33325   2.274   0.864   3.371
10809SOL    HW133326   2.251   0.959   3.391
10809SOL    HW233327   2.267   0.848   3.272
10810SOL     OW33328   6.710   1.665   5.256
10810SOL    HW133329   6.792   1.645   5.202
10810SOL    HW233330   6.737   1.696   5.347
10811SOL     OW33331   4.641   4.316   5.299
10811SOL    HW133332   4.717   4.369   5.338
10811SOL    HW233333   4.663   4.289   5.206
10812SOL     OW33334   6.364   2.537   2.593
10812SOL    HW133335   6.374   2.472   2.669
10812SOL    HW233336   6.439   2.523   2.528
10813SOL     OW33337   2.741   6.107   1.672
10813SOL    HW133338   2.840   6.116   1.657
10813SOL    HW233339   2.722   6.016   1.709
10814SOL     OW33340   1.760   6.843   4.972
10814SOL    HW133341   1.726   6.754   4.941
10814SOL    HW233342   1.845   6.865   4.924
10815SOL     OW33343   5.369   3.353   3.162
10815SOL    HW133344   5.423   3.425   3.208
10815SOL    HW233345   5.426   3.308   3.094
10816SOL     OW33346   1.495   1.651   2.015
10816SOL    HW133347   1.482   1.566   2.067
10816SOL    HW233348   1.577   1.697   2.048
10817SOL     OW33349   4.557   7.004   2.119
10817SOL    HW133350   4.458   7.005   2.133
10817SOL    HW233351   4.578   7.023   2.023
10818SOL     OW33352   4.598   3.089   6.700
10818SOL    HW133353   4.627   3.026   6.628
10818SOL    HW233354   4.500   3.106   6.692
10819SOL     OW33355   6.994   4.277   6.742
10819SOL    HW133356   6.952   4.319   6.662
10819SOL    HW233357   0.058   4.240   6.717
10820SOL     OW33358   0.360   6.566   4.611
10820SOL    HW133359   0.290   6.500   4.584
10820SOL    HW233360   0.415   6.529   4.686
10821SOL     OW33361   6.756   0.564   0.846
10821SOL    HW133362   6.734   0.503   0.922
10821SOL    HW233363   6.752   0.659   0.878
10822SOL     OW33364   0.732   3.900   2.116
10822SOL    HW133365   0.642   3.870   2.086
10822SOL    HW233366   0.781   3.823   2.157
10823SOL     OW33367   1.652   6.995   1.003
10823SOL    HW133368   1.636   6.914   1.059
10823SOL    HW233369   1.725   0.024   1.044
10824SOL     OW33370   5.482   0.676   2.412
10824SOL    HW133371   5.569   0.669   2.461
10824SOL    HW233372   5.428   0.593   2.427
10825SOL     OW33373   3.713   1.582   0.992
10825SOL    HW133374   3.677   1.593   1.085
10825SOL    HW233375   3.700   1.667   0.941
10826SOL     OW33376   6.987   2.964   2.480
10826SOL    HW133377   6.977   2.928   2.388
10826SOL    HW233378   6.924   2.917   2.541
10827SOL     OW33379   6.860   2.773   3.986
10827SOL    HW133380   6.763   2.783   3.962
10827SOL    HW233381   6.894   2.860   4.023
10828SOL     OW33382   1.188   5.531   0.757
10828SOL    HW133383   1.167   5.450   0.703
10828SOL    HW233384   1.277   5.567   0.730
10829SOL     OW33385   3.307   3.802   1.729
10829SOL    HW133386   3.362   3.870   1.777
10829SOL    HW233387   3.219   3.791   1.776
10830SOL     OW33388   4.808   3.000   4.435
10830SOL    HW133389   4.835   3.033   4.344
10830SOL    HW233390   4.814   3.075   4.501
10831SOL     OW33391   5.417   1.346   3.036
10831SOL    HW133392   5.421   1.315   2.941
10831SOL    HW233393   5.404   1.445   3.038
10832SOL     OW33394   0.749   1.844   0.556
10832SOL    HW133395   0.747   1.755   0.601
10832SOL    HW233396   0.695   1.840   0.472
10833SOL     OW33397   3.023   0.208   4.356
10833SOL    HW133398   3.104   0.157   4.384
10833SOL    HW233399   3.014   0.290   4.413
10834SOL     OW33400   1.008   1.986   4.697
10834SOL    HW133401   0.974   2.069   4.741
10834SOL    HW233402   0.947   1.960   4.623
10835SOL     OW33403   6.258   1.466   2.383
10835SOL    HW133404   6.159   1.475   2.398
10835SOL    HW233405   6.274   1.424   2.294
10836SOL     OW33406   1.912   2.269   6.364
10836SOL    HW133407   1.844   2.298   6.431
10836SOL    HW233408   1.997   2.319   6.381
10837SOL     OW33409   6.926   4.708   0.893
10837SOL    HW133410   6.926   4.759   0.979
10837SOL    HW233411   7.013   4.659   0.884
10838SOL     OW33412   5.827   6.774   6.595
10838SOL    HW133413   5.816   6.690   6.648
10838SOL    HW233414   5.787   6.851   6.645
10839SOL     OW33415   1.562   2.319   0.294
10839SOL    HW133416   1.542   2.340   0.199
10839SOL    HW233417   1.649   2.270   0.300
10840SOL     OW33418   4.125   5.416   1.612
10840SOL    HW133419   4.206   5.464   1.580
10840SOL    HW233420   4.147   5.364   1.694
10841SOL     OW33421   3.574   4.790   6.276
10841SOL    HW133422   3.628   4.732   6.216
10841SOL    HW233423   3.511   4.734   6.329
10842SOL     OW33424   6.364   2.807   1.807
10842SOL    HW133425   6.340   2.897   1.773
10842SOL    HW233426   6.388   2.747   1.731
10843SOL     OW33427   0.649   1.735   1.781
10843SOL    HW133428   0.682   1.644   1.756
10843SOL    HW233429   0.570   1.725   1.842
10844SOL     OW33430   4.605   0.358   4.002
10844SOL    HW133431   4.509   0.387   4.001
10844SOL    HW233432   4.625   0.305   3.920
10845SOL     OW33433   1.428   1.982   1.250
10845SOL    HW133434   1.506   2.012   1.195
10845SOL    HW233435   1.358   2.052   1.249
10846SOL     OW33436   3.708   1.981   1.415
10846SOL    HW133437   3.705   1.954   1.319
10846SOL    HW233438   3.794   2.028   1.434
10847SOL     OW33439   4.316   2.597   6.494
10847SOL    HW133440   4.241   2.631   6.437
10847SOL    HW233441   4.400   2.596   6.441
10848SOL     OW33442   0.985   0.665   6.367
10848SOL    HW133443   1.066   0.717   6.338
10848SOL    HW233444   0.960   0.691   6.460
10849SOL     OW33445   3.043   4.854   4.287
10849SOL    HW133446   3.126   4.909   4.290
10849SOL    HW233447   3.010   4.837   4.380
10850SOL     OW33448   5.151   6.414   0.689
10850SOL    HW133449   5.149   6.365   0.602
10850SOL    HW233450   5.142   6.512   0.672
10851SOL     OW33451   3.760   2.099   6.412
10851SOL    HW133452   3.664   2.118   6.434
10851SOL    HW233453   3.784   2.008   6.445
10852SOL     OW33454   0.370   0.335   6.426
10852SOL    HW133455   0.316   0.253   6.405
10852SOL    HW233456   0.467   0.310   6.431
10853SOL     OW33457   2.294   1.640   4.679
10853SOL    HW133458   2.265   1.736   4.683
10853SOL    HW233459   2.221   1.585   4.637
10854SOL     OW33460   6.844   6.272   6.914
10854SOL    HW133461   6.749   6.285   6.943
10854SOL    HW233462   6.901   6.255   6.995
10855SOL     OW33463   1.201   6.124   1.531
10855SOL    HW133464   1.123   6.147   1.589
10855SOL    HW233465   1.264   6.202   1.527
10856SOL     OW33466   6.465   6.878   6.782
10856SOL    HW133467   6.412   6.803   6.742
10856SOL    HW233468   6.461   6.957   6.721
10857SOL     OW33469   5.782   1.647   4.049
10857SOL    HW133470   5.856   1.692   4.101
10857SOL    HW233471   5.798   1.660   3.951
10858SOL     OW33472   2.309   2.728   0.037
10858SOL    HW133473   2.285   2.821   0.061
10858SOL    HW233474   2.288   2.711   6.966
10859SOL     OW33475   0.788   4.331   2.344
10859SOL    HW133476   0.691   4.308   2.336
10859SOL    HW233477   0.837   4.304   2.261
10860SOL     OW33478   6.238   2.073   0.049
10860SOL    HW133479   6.271   2.166   0.032
10860SOL    HW233480   6.150   2.077   0.096
10861SOL     OW33481   3.404   2.952   2.033
10861SOL    HW133482   3.415   2.957   2.133
10861SOL    HW233483   3.473   2.892   1.995
10862SOL     OW33484   3.565   3.119   5.563
10862SOL    HW133485   3.653   3.108   5.517
10862SOL    HW233486   3.526   3.029   5.582
10863SOL     OW33487   2.236   1.584   2.711
10863SOL    HW133488   2.330   1.608   2.734
10863SOL    HW233489   2.203   1.645   2.639
10864SOL     OW33490   2.967   4.821   2.030
10864SOL    HW133491   2.907   4.742   2.042
10864SOL    HW233492   2.985   4.863   2.119
10865SOL     OW33493   4.155   1.635   3.545
10865SOL    HW133494   4.251   1.609   3.532
10865SOL    HW233495   4.096   1.568   3.499
10866SOL     OW33496   0.261   3.756   3.101
10866SOL    HW133497   0.317   3.701   3.039
10866SOL    HW233498   0.250   3.708   3.188
10867SOL     OW33499   4.217   3.141   0.302
10867SOL    HW133500   4.316   3.142   0.310
10867SOL    HW233501   4.175   3.147   0.392
10868SOL     OW33502   1.193   1.620   4.040
10868SOL    HW133503   1.171   1.565   4.121
10868SOL    HW233504   1.238   1.562   3.972
10869NA      NA33505   0.122   2.322   5.775
10870NA      NA33506   4.247   4.629   5.273
10871NA      NA33507   0.924   4.856   2.863
10872NA      NA33508   5.848   4.227   3.440
10873NA      NA33509   4.340   2.285   5.129
10874NA      NA33510   2.528   5.241   0.633
10875NA      NA33511   1.222   5.296   6.704
10876NA      NA33512   3.395   4.543   1.228
10877NA      NA33513   4.390   5.201   0.868
10878NA      NA33514   3.205   0.861   6.276
10879NA      NA33515   5.567   6.069   2.314
10880NA      NA33516   1.747   6.717   5.638
10881NA      NA33517   4.260   5.060   1.837
10882NA      NA33518   3.487   3.227   6.624
   7.02579   7.02579   7.02579
